Generated by trjconv : CNT in water t= 395.00000
33518
    1C        C    1   2.841   2.764   4.750
    1C        C    2   2.897   2.716   4.871
    1C        C    3   2.842   2.772   4.987
    1C        C    4   2.849   2.775   4.262
    1C        C    5   2.900   2.722   4.383
    1C        C    6   2.849   2.769   4.506
    1C        C    7   3.011   2.637   4.625
    1C        C    8   2.895   2.717   4.629
    1C        C    9   3.076   2.603   4.746
    1C        C   10   3.009   2.630   4.867
    1C        C   11   3.183   2.499   4.975
    1C        C   12   3.055   2.556   4.976
    1C        C   13   2.851   2.770   3.773
    1C        C   14   2.898   2.721   3.897
    1C        C   15   2.848   2.773   4.019
    1C        C   16   3.016   2.641   4.140
    1C        C   17   2.903   2.727   4.140
    1C        C   18   3.078   2.606   4.262
    1C        C   19   3.014   2.638   4.384
    1C        C   20   3.210   2.556   4.507
    1C        C   21   3.077   2.602   4.505
    1C        C   22   3.282   2.541   4.628
    1C        C   23   3.210   2.556   4.748
    1C        C   24   3.416   2.483   4.865
    1C        C   25   3.275   2.510   4.866
    1C        C   26   3.492   2.486   4.982
    1C        C   27   2.850   2.766   3.282
    1C        C   28   2.905   2.722   3.404
    1C        C   29   2.850   2.766   3.526
    1C        C   30   3.016   2.640   3.653
    1C        C   31   2.902   2.723   3.650
    1C        C   32   3.079   2.606   3.775
    1C        C   33   3.016   2.643   3.896
    1C        C   34   3.209   2.556   4.018
    1C        C   35   3.077   2.606   4.018
    1C        C   36   3.276   2.539   4.141
    1C        C   37   3.211   2.559   4.265
    1C        C   38   3.420   2.511   4.382
    1C        C   39   3.281   2.538   4.386
    1C        C   40   3.489   2.501   4.505
    1C        C   41   3.419   2.505   4.627
    1C        C   42   3.635   2.485   4.747
    1C        C   43   3.493   2.485   4.746
    1C        C   44   3.710   2.486   4.867
    1C        C   45   3.631   2.480   4.982
    1C        C   46   2.841   2.756   2.791
    1C        C   47   2.898   2.716   2.914
    1C        C   48   2.851   2.769   3.036
    1C        C   49   3.019   2.641   3.162
    1C        C   50   2.903   2.721   3.159
    1C        C   51   3.077   2.604   3.285
    1C        C   52   3.019   2.639   3.409
    1C        C   53   3.209   2.547   3.527
    1C        C   54   3.080   2.604   3.532
    1C        C   55   3.275   2.527   3.650
    1C        C   56   3.211   2.555   3.772
    1C        C   57   3.415   2.507   3.895
    1C        C   58   3.275   2.531   3.896
    1C        C   59   3.487   2.506   4.016
    1C        C   60   3.415   2.512   4.138
    1C        C   61   3.628   2.506   4.258
    1C        C   62   3.487   2.500   4.259
    1C        C   63   3.697   2.516   4.381
    1C        C   64   3.630   2.504   4.505
    1C        C   65   3.838   2.548   4.623
    1C        C   66   3.703   2.507   4.626
    1C        C   67   3.908   2.564   4.745
    1C        C   68   3.846   2.526   4.866
    1C        C   69   4.058   2.580   4.979
    1C        C   70   3.923   2.541   4.982
    1C        C   71   2.819   2.733   2.307
    1C        C   72   2.881   2.695   2.428
    1C        C   73   2.830   2.745   2.550
    1C        C   74   3.005   2.622   2.672
    1C        C   75   2.886   2.699   2.670
    1C        C   76   3.075   2.600   2.793
    1C        C   77   3.013   2.633   2.915
    1C        C   78   3.207   2.550   3.038
    1C        C   79   3.076   2.603   3.038
    1C        C   80   3.275   2.533   3.160
    1C        C   81   3.208   2.549   3.283
    1C        C   82   3.416   2.504   3.402
    1C        C   83   3.276   2.527   3.404
    1C        C   84   3.484   2.498   3.526
    1C        C   85   3.414   2.502   3.649
    1C        C   86   3.625   2.506   3.770
    1C        C   87   3.484   2.501   3.772
    1C        C   88   3.695   2.523   3.892
    1C        C   89   3.628   2.513   4.015
    1C        C   90   3.837   2.551   4.137
    1C        C   91   3.699   2.519   4.137
    1C        C   92   3.904   2.574   4.259
    1C        C   93   3.835   2.550   4.380
    1C        C   94   4.030   2.637   4.502
    1C        C   95   3.904   2.573   4.500
    1C        C   96   4.092   2.673   4.624
    1C        C   97   4.034   2.629   4.745
    1C        C   98   4.198   2.762   4.865
    1C        C   99   4.106   2.652   4.865
    1C        C  100   4.216   2.844   4.976
    1C        C  101   2.828   2.737   2.069
    1C        C  102   2.987   2.593   2.187
    1C        C  103   2.872   2.677   2.188
    1C        C  104   3.059   2.576   2.309
    1C        C  105   3.001   2.621   2.430
    1C        C  106   3.202   2.541   2.550
    1C        C  107   3.070   2.592   2.550
    1C        C  108   3.275   2.526   2.670
    1C        C  109   3.205   2.546   2.792
    1C        C  110   3.410   2.499   2.916
    1C        C  111   3.271   2.521   2.915
    1C        C  112   3.482   2.495   3.037
    1C        C  113   3.414   2.509   3.160
    1C        C  114   3.628   2.504   3.281
    1C        C  115   3.487   2.497   3.280
    1C        C  116   3.694   2.516   3.405
    1C        C  117   3.625   2.502   3.527
    1C        C  118   3.833   2.548   3.647
    1C        C  119   3.698   2.509   3.649
    1C        C  120   3.898   2.578   3.769
    1C        C  121   3.833   2.553   3.892
    1C        C  122   4.028   2.634   4.014
    1C        C  123   3.902   2.572   4.014
    1C        C  124   4.088   2.677   4.136
    1C        C  125   4.029   2.641   4.259
    1C        C  126   4.197   2.770   4.377
    1C        C  127   4.091   2.676   4.381
    1C        C  128   4.246   2.818   4.500
    1C        C  129   4.201   2.763   4.622
    1C        C  130   4.325   2.937   4.742
    1C        C  131   4.246   2.819   4.743
    1C        C  132   4.358   3.003   4.862
    1C        C  133   4.298   2.957   4.980
    1C        C  134   3.175   2.476   2.078
    1C        C  135   3.040   2.513   2.081
    1C        C  136   3.258   2.482   2.191
    1C        C  137   3.191   2.524   2.309
    1C        C  138   3.405   2.487   2.428
    1C        C  139   3.265   2.511   2.428
    1C        C  140   3.482   2.490   2.546
    1C        C  141   3.413   2.499   2.669
    1C        C  142   3.622   2.500   2.791
    1C        C  143   3.480   2.495   2.793
    1C        C  144   3.694   2.506   2.913
    1C        C  145   3.624   2.498   3.035
    1C        C  146   3.833   2.542   3.158
    1C        C  147   3.696   2.508   3.156
    1C        C  148   3.898   2.570   3.281
    1C        C  149   3.831   2.550   3.404
    1C        C  150   4.029   2.632   3.525
    1C        C  151   3.901   2.572   3.525
    1C        C  152   4.090   2.667   3.648
    1C        C  153   4.028   2.635   3.770
    1C        C  154   4.195   2.765   3.890
    1C        C  155   4.088   2.673   3.892
    1C        C  156   4.250   2.813   4.011
    1C        C  157   4.196   2.767   4.133
    1C        C  158   4.343   2.922   4.254
    1C        C  159   4.249   2.817   4.254
    1C        C  160   4.378   2.983   4.376
    1C        C  161   4.335   2.927   4.499
    1C        C  162   4.441   3.114   4.619
    1C        C  163   4.372   2.990   4.620
    1C        C  164   4.473   3.186   4.736
    1C        C  165   4.438   3.120   4.856
    1C        C  166   4.513   3.320   4.970
    1C        C  167   4.483   3.184   4.972
    1C        C  168   3.475   2.445   2.075
    1C        C  169   3.398   2.464   2.191
    1C        C  170   3.619   2.467   2.308
    1C        C  171   3.477   2.469   2.308
    1C        C  172   3.695   2.486   2.426
    1C        C  173   3.623   2.490   2.547
    1C        C  174   3.829   2.542   2.670
    1C        C  175   3.692   2.506   2.669
    1C        C  176   3.897   2.563   2.792
    1C        C  177   3.830   2.543   2.915
    1C        C  178   4.027   2.625   3.034
    1C        C  179   3.900   2.565   3.036
    1C        C  180   4.086   2.665   3.156
    1C        C  181   4.027   2.627   3.279
    1C        C  182   4.198   2.752   3.398
    1C        C  183   4.089   2.663   3.401
    1C        C  184   4.250   2.802   3.520
    1C        C  185   4.200   2.755   3.643
    1C        C  186   4.333   2.921   3.765
    1C        C  187   4.242   2.813   3.765
    1C        C  188   4.377   2.980   3.885
    1C        C  189   4.340   2.923   4.009
    1C        C  190   4.447   3.105   4.130
    1C        C  191   4.381   2.980   4.131
    1C        C  192   4.474   3.172   4.251
    1C        C  193   4.444   3.109   4.374
    1C        C  194   4.508   3.312   4.494
    1C        C  195   4.467   3.177   4.495
    1C        C  196   4.516   3.391   4.611
    1C        C  197   4.510   3.323   4.735
    1C        C  198   4.557   3.537   4.856
    1C        C  199   4.536   3.395   4.855
    1C        C  200   4.581   3.622   4.969
    1C        C  201   3.613   2.419   2.076
    1C        C  202   3.828   2.508   2.183
    1C        C  203   3.694   2.459   2.187
    1C        C  204   3.898   2.542   2.303
    1C        C  205   3.832   2.522   2.426
    1C        C  206   4.024   2.617   2.546
    1C        C  207   3.895   2.558   2.546
    1C        C  208   4.084   2.660   2.667
    1C        C  209   4.023   2.627   2.790
    1C        C  210   4.201   2.745   2.907
    1C        C  211   4.088   2.660   2.911
    1C        C  212   4.253   2.793   3.029
    1C        C  213   4.200   2.748   3.153
    1C        C  214   4.335   2.911   3.274
    1C        C  215   4.249   2.799   3.275
    1C        C  216   4.375   2.970   3.395
    1C        C  217   4.332   2.917   3.519
    1C        C  218   4.441   3.100   3.639
    1C        C  219   4.373   2.976   3.641
    1C        C  220   4.467   3.168   3.761
    1C        C  221   4.444   3.104   3.885
    1C        C  222   4.503   3.308   4.004
    1C        C  223   4.475   3.169   4.007
    1C        C  224   4.514   3.379   4.125
    1C        C  225   4.506   3.310   4.248
    1C        C  226   4.517   3.521   4.371
    1C        C  227   4.517   3.379   4.371
    1C        C  228   4.512   3.599   4.488
    1C        C  229   4.521   3.532   4.612
    1C        C  230   4.506   3.744   4.728
    1C        C  231   4.533   3.605   4.733
    1C        C  232   4.500   3.822   4.846
    1C        C  233   4.544   3.757   4.961
    1C        C  234   4.017   2.612   2.064
    1C        C  235   3.901   2.535   2.067
    1C        C  236   4.084   2.648   2.182
    1C        C  237   4.026   2.605   2.303
    1C        C  238   4.200   2.733   2.421
    1C        C  239   4.086   2.648   2.423
    1C        C  240   4.258   2.782   2.540
    1C        C  241   4.202   2.737   2.662
    1C        C  242   4.341   2.899   2.785
    1C        C  243   4.255   2.787   2.783
    1C        C  244   4.383   2.957   2.906
    1C        C  245   4.343   2.902   3.030
    1C        C  246   4.444   3.090   3.148
    1C        C  247   4.379   2.965   3.151
    1C        C  248   4.464   3.159   3.270
    1C        C  249   4.440   3.096   3.395
    1C        C  250   4.500   3.301   3.515
    1C        C  251   4.463   3.165   3.516
    1C        C  252   4.509   3.374   3.636
    1C        C  253   4.496   3.306   3.760
    1C        C  254   4.520   3.517   3.879
    1C        C  255   4.516   3.376   3.881
    1C        C  256   4.512   3.587   4.002
    1C        C  257   4.515   3.520   4.127
    1C        C  258   4.493   3.731   4.243
    1C        C  259   4.512   3.592   4.249
    1C        C  260   4.475   3.806   4.362
    1C        C  261   4.490   3.739   4.485
    1C        C  262   4.420   3.939   4.603
    1C        C  263   4.478   3.810   4.606
    1C        C  264   4.395   4.009   4.723
    1C        C  265   4.437   3.949   4.844
    1C        C  266   4.324   4.135   4.959
    1C        C  267   4.392   4.013   4.960
    1C        C  268   4.266   2.774   2.064
    1C        C  269   4.200   2.729   2.179
    1C        C  270   4.345   2.889   2.302
    1C        C  271   4.252   2.781   2.299
    1C        C  272   4.389   2.951   2.421
    1C        C  273   4.343   2.894   2.542
    1C        C  274   4.451   3.081   2.662
    1C        C  275   4.382   2.957   2.663
    1C        C  276   4.473   3.150   2.783
    1C        C  277   4.449   3.083   2.904
    1C        C  278   4.504   3.290   3.026
    1C        C  279   4.473   3.153   3.025
    1C        C  280   4.516   3.362   3.147
    1C        C  281   4.503   3.294   3.271
    1C        C  282   4.513   3.509   3.389
    1C        C  283   4.511   3.368   3.391
    1C        C  284   4.514   3.582   3.510
    1C        C  285   4.513   3.515   3.635
    1C        C  286   4.484   3.725   3.753
    1C        C  287   4.511   3.587   3.757
    1C        C  288   4.473   3.793   3.877
    1C        C  289   4.489   3.726   4.000
    1C        C  290   4.426   3.932   4.117
    1C        C  291   4.471   3.798   4.120
    1C        C  292   4.397   4.001   4.237
    1C        C  293   4.422   3.938   4.360
    1C        C  294   4.326   4.129   4.479
    1C        C  295   4.392   4.004   4.481
    1C        C  296   4.285   4.190   4.600
    1C        C  297   4.328   4.134   4.723
    1C        C  298   4.197   4.312   4.842
    1C        C  299   4.284   4.199   4.841
    1C        C  300   4.170   4.405   4.948
    1C        C  301   4.349   2.885   2.065
    1C        C  302   4.474   3.065   2.178
    1C        C  303   4.398   2.943   2.182
    1C        C  304   4.492   3.137   2.299
    1C        C  305   4.462   3.072   2.420
    1C        C  306   4.519   3.278   2.536
    1C        C  307   4.494   3.139   2.540
    1C        C  308   4.522   3.354   2.655
    1C        C  309   4.504   3.288   2.779
    1C        C  310   4.522   3.497   2.901
    1C        C  311   4.519   3.356   2.902
    1C        C  312   4.517   3.573   3.021
    1C        C  313   4.520   3.503   3.144
    1C        C  314   4.483   3.714   3.265
    1C        C  315   4.510   3.575   3.264
    1C        C  316   4.465   3.785   3.386
    1C        C  317   4.486   3.721   3.509
    1C        C  318   4.419   3.925   3.630
    1C        C  319   4.469   3.792   3.630
    1C        C  320   4.389   3.989   3.753
    1C        C  321   4.419   3.923   3.874
    1C        C  322   4.314   4.111   3.992
    1C        C  323   4.389   3.992   3.995
    1C        C  324   4.276   4.173   4.113
    1C        C  325   4.326   4.124   4.235
    1C        C  326   4.188   4.287   4.354
    1C        C  327   4.285   4.184   4.356
    1C        C  328   4.139   4.343   4.474
    1C        C  329   4.190   4.294   4.597
    1C        C  330   4.029   4.438   4.716
    1C        C  331   4.142   4.352   4.717
    1C        C  332   3.970   4.490   4.834
    1C        C  333   4.053   4.482   4.946
    1C        C  334   4.551   3.265   2.065
    1C        C  335   4.536   3.126   2.064
    1C        C  336   4.542   3.348   2.177
    1C        C  337   4.520   3.277   2.297
    1C        C  338   4.523   3.494   2.413
    1C        C  339   4.524   3.353   2.416
    1C        C  340   4.521   3.564   2.536
    1C        C  341   4.525   3.495   2.659
    1C        C  342   4.492   3.708   2.776
    1C        C  343   4.517   3.569   2.780
    1C        C  344   4.475   3.779   2.896
    1C        C  345   4.491   3.712   3.019
    1C        C  346   4.417   3.911   3.139
    1C        C  347   4.468   3.780   3.141
    1C        C  348   4.381   3.976   3.259
    1C        C  349   4.410   3.916   3.384
    1C        C  350   4.318   4.106   3.502
    1C        C  351   4.388   3.984   3.506
    1C        C  352   4.272   4.163   3.623
    1C        C  353   4.315   4.109   3.747
    1C        C  354   4.182   4.275   3.868
    1C        C  355   4.274   4.167   3.869
    1C        C  356   4.128   4.325   3.988
    1C        C  357   4.178   4.275   4.110
    1C        C  358   4.015   4.409   4.232
    1C        C  359   4.132   4.329   4.232
    1C        C  360   3.957   4.452   4.354
    1C        C  361   4.027   4.429   4.474
    1C        C  362   3.836   4.524   4.592
    1C        C  363   3.966   4.470   4.594
    1C        C  364   3.764   4.549   4.711
    1C        C  365   3.838   4.541   4.831
    1C        C  366   3.630   4.593   4.950
    1C        C  367   3.767   4.570   4.948
    1C        C  368   4.502   3.561   2.054
    1C        C  369   4.522   3.488   2.172
    1C        C  370   4.500   3.705   2.288
    1C        C  371   4.518   3.565   2.291
    1C        C  372   4.477   3.771   2.411
    1C        C  373   4.498   3.703   2.533
    1C        C  374   4.428   3.907   2.648
    1C        C  375   4.475   3.774   2.652
    1C        C  376   4.392   3.971   2.769
    1C        C  377   4.420   3.910   2.894
    1C        C  378   4.317   4.096   3.011
    1C        C  379   4.390   3.975   3.015
    1C        C  380   4.275   4.154   3.133
    1C        C  381   4.310   4.098   3.258
    1C        C  382   4.177   4.264   3.378
    1C        C  383   4.272   4.159   3.380
    1C        C  384   4.126   4.316   3.499
    1C        C  385   4.177   4.267   3.621
    1C        C  386   4.008   4.392   3.743
    1C        C  387   4.126   4.314   3.744
    1C        C  388   3.948   4.433   3.865
    1C        C  389   4.008   4.400   3.988
    1C        C  390   3.822   4.498   4.109
    1C        C  391   3.951   4.442   4.110
    1C        C  392   3.754   4.526   4.230
    1C        C  393   3.827   4.508   4.350
    1C        C  394   3.622   4.555   4.475
    1C        C  395   3.761   4.530   4.472
    1C        C  396   3.547   4.560   4.595
    1C        C  397   3.624   4.562   4.714
    1C        C  398   3.412   4.555   4.839
    1C        C  399   3.552   4.574   4.835
    1C        C  400   3.345   4.514   4.955
    1C        C  401   4.506   3.700   2.051
    1C        C  402   4.452   3.912   2.166
    1C        C  403   4.493   3.777   2.167
    1C        C  404   4.408   3.974   2.285
    1C        C  405   4.430   3.904   2.407
    1C        C  406   4.321   4.091   2.525
    1C        C  407   4.399   3.973   2.526
    1C        C  408   4.277   4.147   2.646
    1C        C  409   4.320   4.092   2.770
    1C        C  410   4.179   4.256   2.888
    1C        C  411   4.277   4.155   2.889
    1C        C  412   4.122   4.297   3.011
    1C        C  413   4.175   4.253   3.135
    1C        C  414   4.003   4.383   3.253
    1C        C  415   4.120   4.303   3.255
    1C        C  416   3.943   4.420   3.375
    1C        C  417   4.004   4.387   3.499
    1C        C  418   3.814   4.478   3.622
    1C        C  419   3.942   4.418   3.622
    1C        C  420   3.749   4.508   3.744
    1C        C  421   3.818   4.488   3.865
    1C        C  422   3.611   4.531   3.986
    1C        C  423   3.751   4.510   3.987
    1C        C  424   3.543   4.543   4.110
    1C        C  425   3.614   4.545   4.231
    1C        C  426   3.406   4.548   4.359
    1C        C  427   3.547   4.558   4.355
    1C        C  428   3.334   4.544   4.480
    1C        C  429   3.406   4.553   4.601
    1C        C  430   3.195   4.515   4.724
    1C        C  431   3.333   4.548   4.722
    1C        C  432   3.124   4.495   4.845
    1C        C  433   3.207   4.496   4.959
    1C        C  434   4.389   4.127   2.056
    1C        C  435   4.449   4.000   2.057
    1C        C  436   4.299   4.157   2.163
    1C        C  437   4.327   4.090   2.285
    1C        C  438   4.179   4.250   2.401
    1C        C  439   4.278   4.149   2.404
    1C        C  440   4.126   4.296   2.524
    1C        C  441   4.177   4.247   2.646
    1C        C  442   4.006   4.377   2.763
    1C        C  443   4.124   4.300   2.765
    1C        C  444   3.946   4.413   2.886
    1C        C  445   4.007   4.380   3.009
    1C        C  446   3.809   4.461   3.131
    1C        C  447   3.941   4.411   3.129
    1C        C  448   3.745   4.492   3.253
    1C        C  449   3.812   4.472   3.376
    1C        C  450   3.608   4.523   3.500
    1C        C  451   3.748   4.501   3.499
    1C        C  452   3.540   4.535   3.623
    1C        C  453   3.611   4.536   3.745
    1C        C  454   3.397   4.541   3.868
    1C        C  455   3.538   4.542   3.866
    1C        C  456   3.329   4.529   3.992
    1C        C  457   3.402   4.538   4.113
    1C        C  458   3.199   4.497   4.240
    1C        C  459   3.336   4.532   4.237
    1C        C  460   3.130   4.480   4.363
    1C        C  461   3.196   4.514   4.483
    1C        C  462   2.996   4.436   4.604
    1C        C  463   3.123   4.498   4.603
    1C        C  464   2.932   4.400   4.724
    1C        C  465   2.990   4.444   4.846
    1C        C  466   2.805   4.334   4.962
    1C        C  467   2.907   4.430   4.962
    1C        C  468   4.124   4.288   2.040
    1C        C  469   4.188   4.248   2.158
    1C        C  470   4.006   4.369   2.279
    1C        C  471   4.127   4.293   2.277
    1C        C  472   3.943   4.406   2.400
    1C        C  473   4.009   4.376   2.521
    1C        C  474   3.811   4.461   2.642
    1C        C  475   3.943   4.410   2.641
    1C        C  476   3.747   4.485   2.765
    1C        C  477   3.817   4.469   2.887
    1C        C  478   3.605   4.512   3.011
    1C        C  479   3.744   4.485   3.008
    1C        C  480   3.536   4.519   3.134
    1C        C  481   3.606   4.518   3.256
    1C        C  482   3.395   4.529   3.380
    1C        C  483   3.536   4.527   3.378
    1C        C  484   3.326   4.523   3.503
    1C        C  485   3.399   4.529   3.624
    1C        C  486   3.189   4.501   3.749
    1C        C  487   3.327   4.531   3.746
    1C        C  488   3.125   4.474   3.872
    1C        C  489   3.193   4.494   3.995
    1C        C  490   3.002   4.412   4.117
    1C        C  491   3.130   4.473   4.119
    1C        C  492   2.940   4.384   4.241
    1C        C  493   3.000   4.426   4.362
    1C        C  494   2.827   4.303   4.484
    1C        C  495   2.937   4.392   4.483
    1C        C  496   2.775   4.254   4.606
    1C        C  497   2.824   4.307   4.727
    1C        C  498   2.660   4.170   4.843
    1C        C  499   2.755   4.275   4.845
    1C        C  500   2.593   4.118   4.955
    1C        C  501   4.005   4.360   2.041
    1C        C  502   3.814   4.463   2.156
    1C        C  503   3.942   4.404   2.158
    1C        C  504   3.744   4.478   2.278
    1C        C  505   3.811   4.457   2.400
    1C        C  506   3.603   4.507   2.520
    1C        C  507   3.742   4.485   2.520
    1C        C  508   3.535   4.515   2.644
    1C        C  509   3.607   4.504   2.765
    1C        C  510   3.396   4.521   2.887
    1C        C  511   3.537   4.516   2.887
    1C        C  512   3.324   4.518   3.009
    1C        C  513   3.395   4.523   3.132
    1C        C  514   3.191   4.487   3.259
    1C        C  515   3.328   4.521   3.256
    1C        C  516   3.121   4.470   3.381
    1C        C  517   3.187   4.495   3.503
    1C        C  518   2.998   4.409   3.625
    1C        C  519   3.123   4.474   3.627
    1C        C  520   2.941   4.371   3.749
    1C        C  521   3.003   4.403   3.872
    1C        C  522   2.836   4.278   3.997
    1C        C  523   2.943   4.371   3.996
    1C        C  524   2.784   4.236   4.121
    1C        C  525   2.830   4.296   4.241
    1C        C  526   2.695   4.134   4.367
    1C        C  527   2.778   4.248   4.363
    1C        C  528   2.652   4.077   4.489
    1C        C  529   2.689   4.142   4.609
    1C        C  530   2.585   3.959   4.734
    1C        C  531   2.631   4.093   4.728
    1C        C  532   2.540   3.901   4.856
    1C        C  533   2.529   3.994   4.965
    1C        C  534   3.614   4.560   2.039
    1C        C  535   3.746   4.513   2.044
    1C        C  536   3.535   4.535   2.156
    1C        C  537   3.604   4.507   2.277
    1C        C  538   3.391   4.514   2.400
    1C        C  539   3.532   4.512   2.398
    1C        C  540   3.321   4.509   2.523
    1C        C  541   3.394   4.512   2.644
    1C        C  542   3.184   4.485   2.768
    1C        C  543   3.323   4.511   2.766
    1C        C  544   3.120   4.465   2.892
    1C        C  545   3.186   4.487   3.015
    1C        C  546   2.995   4.401   3.137
    1C        C  547   3.121   4.465   3.138
    1C        C  548   2.936   4.366   3.260
    1C        C  549   2.992   4.411   3.382
    1C        C  550   2.826   4.282   3.508
    1C        C  551   2.934   4.373   3.504
    1C        C  552   2.775   4.236   3.631
    1C        C  553   2.829   4.286   3.751
    1C        C  554   2.694   4.123   3.877
    1C        C  555   2.783   4.232   3.874
    1C        C  556   2.656   4.067   4.001
    1C        C  557   2.692   4.129   4.123
    1C        C  558   2.596   3.944   4.248
    1C        C  559   2.656   4.071   4.247
    1C        C  560   2.566   3.881   4.370
    1C        C  561   2.588   3.951   4.491
    1C        C  562   2.539   3.748   4.618
    1C        C  563   2.568   3.886   4.614
    1C        C  564   2.514   3.682   4.740
    1C        C  565   2.523   3.759   4.859
    1C        C  566   2.523   3.546   4.977
    1C        C  567   2.526   3.685   4.978
    1C        C  568   3.327   4.475   2.040
    1C        C  569   3.395   4.508   2.158
    1C        C  570   3.182   4.475   2.282
    1C        C  571   3.320   4.509   2.278
    1C        C  572   3.112   4.461   2.404
    1C        C  573   3.182   4.483   2.525
    1C        C  574   2.986   4.405   2.650
    1C        C  575   3.115   4.464   2.647
    1C        C  576   2.927   4.368   2.773
    1C        C  577   2.994   4.401   2.893
    1C        C  578   2.819   4.282   3.016
    1C        C  579   2.933   4.364   3.015
    1C        C  580   2.776   4.230   3.141
    1C        C  581   2.823   4.280   3.264
    1C        C  582   2.693   4.115   3.385
    1C        C  583   2.776   4.229   3.387
    1C        C  584   2.652   4.062   3.510
    1C        C  585   2.690   4.122   3.632
    1C        C  586   2.596   3.935   3.757
    1C        C  587   2.654   4.063   3.755
    1C        C  588   2.570   3.871   3.880
    1C        C  589   2.601   3.937   4.002
    1C        C  590   2.538   3.738   4.129
    1C        C  591   2.578   3.874   4.126
    1C        C  592   2.528   3.671   4.252
    1C        C  593   2.536   3.743   4.374
    1C        C  594   2.509   3.535   4.499
    1C        C  595   2.522   3.676   4.498
    1C        C  596   2.514   3.466   4.622
    1C        C  597   2.507   3.539   4.742
    1C        C  598   2.526   3.325   4.860
    1C        C  599   2.513   3.466   4.863
    1C        C  600   2.521   3.247   4.976
    1C        C  601   3.193   4.442   2.046
    1C        C  602   2.978   4.397   2.161
    1C        C  603   3.113   4.446   2.162
    1C        C  604   2.923   4.364   2.288
    1C        C  605   2.985   4.400   2.409
    1C        C  606   2.810   4.280   2.532
    1C        C  607   2.920   4.368   2.531
    1C        C  608   2.760   4.230   2.655
    1C        C  609   2.813   4.284   2.774
    1C        C  610   2.685   4.116   2.897
    1C        C  611   2.763   4.233   2.896
    1C        C  612   2.648   4.057   3.020
    1C        C  613   2.693   4.115   3.140
    1C        C  614   2.590   3.930   3.266
    1C        C  615   2.655   4.056   3.263
    1C        C  616   2.572   3.866   3.390
    1C        C  617   2.598   3.932   3.513
    1C        C  618   2.529   3.732   3.638
    1C        C  619   2.570   3.867   3.635
    1C        C  620   2.520   3.665   3.762
    1C        C  621   2.532   3.735   3.884
    1C        C  622   2.519   3.525   4.009
    1C        C  623   2.525   3.667   4.007
    1C        C  624   2.515   3.456   4.133
    1C        C  625   2.520   3.530   4.253
    1C        C  626   2.542   3.324   4.380
    1C        C  627   2.517   3.463   4.378
    1C        C  628   2.558   3.253   4.501
    1C        C  629   2.542   3.327   4.620
    1C        C  630   2.600   3.121   4.745
    1C        C  631   2.553   3.254   4.741
    1C        C  632   2.621   3.049   4.867
    1C        C  633   2.559   3.112   4.979
    1C        C  634   2.779   4.308   2.055
    1C        C  635   2.891   4.392   2.048
    1C        C  636   2.750   4.232   2.169
    1C        C  637   2.811   4.276   2.288
    1C        C  638   2.679   4.113   2.409
    1C        C  639   2.763   4.226   2.411
    1C        C  640   2.639   4.053   2.531
    1C        C  641   2.676   4.117   2.652
    1C        C  642   2.588   3.926   2.775
    1C        C  643   2.650   4.052   2.775
    1C        C  644   2.563   3.863   2.899
    1C        C  645   2.587   3.930   3.022
    1C        C  646   2.534   3.725   3.148
    1C        C  647   2.565   3.862   3.144
    1C        C  648   2.523   3.657   3.271
    1C        C  649   2.536   3.730   3.391
    1C        C  650   2.511   3.522   3.518
    1C        C  651   2.522   3.662   3.515
    1C        C  652   2.516   3.453   3.642
    1C        C  653   2.513   3.524   3.764
    1C        C  654   2.538   3.315   3.890
    1C        C  655   2.519   3.455   3.887
    1C        C  656   2.556   3.249   4.014
    1C        C  657   2.540   3.317   4.137
    1C        C  658   2.606   3.119   4.260
    1C        C  659   2.555   3.251   4.260
    1C        C  660   2.639   3.056   4.382
    1C        C  661   2.605   3.120   4.504
    1C        C  662   2.712   2.936   4.626
    1C        C  663   2.635   3.055   4.625
    1C        C  664   2.753   2.876   4.747
    1C        C  665   2.701   2.931   4.868
    1C        C  666   2.747   2.874   4.987
    1C        C  667   2.681   4.024   2.056
    1C        C  668   2.685   4.106   2.169
    1C        C  669   2.580   3.921   2.293
    1C        C  670   2.636   4.051   2.290
    1C        C  671   2.556   3.850   2.413
    1C        C  672   2.581   3.925   2.530
    1C        C  673   2.521   3.724   2.661
    1C        C  674   2.558   3.860   2.653
    1C        C  675   2.509   3.653   2.783
    1C        C  676   2.529   3.726   2.903
    1C        C  677   2.504   3.516   3.029
    1C        C  678   2.525   3.655   3.025
    1C        C  679   2.511   3.446   3.152
    1C        C  680   2.515   3.516   3.274
    1C        C  681   2.537   3.309   3.403
    1C        C  682   2.511   3.448   3.398
    1C        C  683   2.560   3.241   3.525
    1C        C  684   2.544   3.315   3.644
    1C        C  685   2.610   3.116   3.771
    1C        C  686   2.558   3.247   3.768
    1C        C  687   2.642   3.053   3.893
    1C        C  688   2.609   3.118   4.014
    1C        C  689   2.715   2.938   4.140
    1C        C  690   2.641   3.058   4.138
    1C        C  691   2.762   2.886   4.263
    1C        C  692   2.716   2.938   4.386
    1C        C  693   2.756   2.875   4.506
    1C        C  694   2.632   3.893   2.061
    1C        C  695   2.530   3.707   2.176
    1C        C  696   2.575   3.841   2.177
    1C        C  697   2.509   3.640   2.299
    1C        C  698   2.519   3.714   2.419
    1C        C  699   2.490   3.507   2.544
    1C        C  700   2.502   3.648   2.543
    1C        C  701   2.504   3.439   2.666
    1C        C  702   2.503   3.512   2.787
    1C        C  703   2.523   3.302   2.912
    1C        C  704   2.503   3.441   2.909
    1C        C  705   2.546   3.236   3.035
    1C        C  706   2.535   3.307   3.157
    1C        C  707   2.603   3.108   3.279
    1C        C  708   2.553   3.240   3.280
    1C        C  709   2.639   3.047   3.401
    1C        C  710   2.609   3.109   3.525
    1C        C  711   2.712   2.929   3.648
    1C        C  712   2.635   3.048   3.650
    1C        C  713   2.758   2.877   3.771
    1C        C  714   2.717   2.933   3.894
    1C        C  715   2.753   2.877   4.019
    1C        C  716   2.454   3.500   2.065
    1C        C  717   2.497   3.633   2.062
    1C        C  718   2.462   3.423   2.185
    1C        C  719   2.482   3.501   2.303
    1C        C  720   2.522   3.293   2.425
    1C        C  721   2.493   3.431   2.425
    1C        C  722   2.534   3.225   2.548
    1C        C  723   2.525   3.299   2.668
    1C        C  724   2.598   3.102   2.792
    1C        C  725   2.541   3.231   2.790
    1C        C  726   2.627   3.038   2.915
    1C        C  727   2.594   3.103   3.036
    1C        C  728   2.707   2.922   3.160
    1C        C  729   2.631   3.042   3.157
    1C        C  730   2.754   2.870   3.282
    1C        C  731   2.715   2.928   3.405
    1C        C  732   2.752   2.868   3.527
    1C        C  733   2.500   3.202   2.070
    1C        C  734   2.488   3.282   2.185
    1C        C  735   2.587   3.089   2.305
    1C        C  736   2.527   3.218   2.306
    1C        C  737   2.615   3.025   2.427
    1C        C  738   2.587   3.093   2.548
    1C        C  739   2.703   2.918   2.671
    1C        C  740   2.626   3.036   2.671
    1C        C  741   2.745   2.859   2.793
    1C        C  742   2.701   2.918   2.914
    1C        C  743   2.753   2.870   3.037
    1C        C  744   2.548   3.072   2.071
    1C        C  745   2.684   2.898   2.188
    1C        C  746   2.606   3.015   2.186
    1C        C  747   2.726   2.840   2.310
    1C        C  748   2.682   2.901   2.430
    1C        C  749   2.737   2.852   2.551
    1C        C  750   2.740   2.845   2.070
    1C        C  751   3.639   2.312   1.977
    1C        O  752   3.677   2.197   2.013
    1C        O  753   3.642   2.334   1.839
    1C        C  754   4.603   3.042   1.961
    1C        O  755   4.552   3.049   1.847
    1C        O  756   4.742   3.022   1.959
    1C        C  757   4.436   4.229   1.960
    1C        O  758   4.540   4.298   1.980
    1C        O  759   4.415   4.199   1.824
    1C        C  760   3.589   4.680   1.956
    1C        O  761   3.608   4.795   2.005
    1C        O  762   3.602   4.673   1.817
    1C        C  763   2.876   4.505   1.954
    1C        O  764   2.902   4.496   1.831
    1C        O  765   2.770   4.596   1.972
    1C        C  766   2.348   3.463   1.969
    1C        O  767   2.364   3.422   1.851
    1C        O  768   2.214   3.495   1.995
    1C        C  769   4.700   3.604   5.054
    1C        O  770   4.687   3.559   5.172
    1C        O  771   4.836   3.609   5.020
    1C        C  772   4.274   4.459   5.038
    1C        O  773   4.265   4.434   5.162
    1C        O  774   4.339   4.577   5.003
    1C        C  775   4.146   2.504   5.071
    1C        O  776   4.196   2.394   5.032
    1C        O  777   4.119   2.501   5.208
    1C        C  778   2.893   4.548   5.050
    1C        O  779   2.855   4.659   5.003
    1C        O  780   2.943   4.555   5.181
    1C        C  781   2.491   3.041   5.089
    1C        O  782   2.381   2.981   5.075
    1C        O  783   2.526   3.048   5.224
    1C        C  784   2.413   3.976   5.055
    1C        O  785   2.317   4.056   5.041
    1C        O  786   2.450   3.959   5.189
    1C        C  787   2.942   2.444   1.994
    1C        O  788   2.918   2.464   1.872
    1C        O  789   2.879   2.325   2.030
    1C        C  790   3.188   2.389   5.074
    1C        O  791   3.184   2.267   5.041
    1C        O  792   3.217   2.414   5.208
    1C        H  793   4.312   3.005   5.074
    1C        H  794   4.166   2.822   5.068
    1C        H  795   4.554   3.125   5.026
    1C        H  796   4.524   3.368   5.065
    1C        H  797   4.543   3.806   5.056
    1C        H  798   4.350   3.950   5.035
    1C        H  799   4.336   4.194   5.048
    1C        H  800   4.052   4.566   5.013
    1C        H  801   3.821   4.600   5.036
    1C        H  802   3.603   4.680   5.005
    1C        H  803   3.395   4.504   5.048
    1C        H  804   3.162   4.526   5.051
    1C        H  805   3.893   2.484   5.067
    1C        H  806   3.670   2.415   5.059
    1C        H  807   3.003   2.560   5.070
    1C        H  808   3.445   2.447   5.070
    1C        H  809   2.850   2.717   5.078
    1C        H  810   2.732   2.918   5.083
    1C        H  811   2.501   3.292   5.071
    1C        H  812   2.490   3.498   5.067
    1C        H  813   2.500   3.730   5.072
    1C        H  814   2.565   4.186   5.032
    1C        H  815   2.788   4.282   5.053
    1C        H  816   2.715   2.883   1.973
    1C        H  817   2.829   2.680   1.978
    1C        H  818   3.216   2.441   1.986
    1C        H  819   3.427   2.462   1.981
    1C        H  820   3.891   2.469   1.984
    1C        H  821   4.023   2.681   1.981
    1C        H  822   4.248   2.727   1.969
    1C        H  823   4.343   2.945   1.976
    1C        H  824   4.521   3.312   1.974
    1C        H  825   4.444   3.517   1.976
    1C        H  826   4.562   3.744   1.972
    1C        H  827   3.808   4.542   1.962
    1C        H  828   3.962   4.385   1.947
    1C        H  829   4.145   4.242   1.946
    1C        H  830   4.531   3.991   1.989
    1C        H  831   2.683   3.827   1.993
    1C        H  832   2.708   4.072   1.964
    1C        H  833   2.692   4.334   1.999
    1C        H  834   3.371   4.480   1.943
    1C        H  835   3.157   4.395   1.957
    1C        H  836   2.553   3.027   1.974
    1C        H  837   2.436   3.227   1.988
    1C        H  838   2.546   3.661   1.971
    2V3OU   H29  839   2.807   3.549   4.693
    2V3OU   C27  840   2.798   3.505   4.795
    2V3OU   H27  841   2.737   3.576   4.856
    2V3OU   H28  842   2.741   3.409   4.782
    2V3OU   O11  843   2.914   3.469   4.870
    2V3OU   C15  844   2.921   3.404   4.991
    2V3OU   C13  845   3.051   3.377   5.038
    2V3OU   C14  846   3.076   3.274   5.130
    2V3OU   C16  847   2.971   3.193   5.172
    2V3OU    H6  848   2.990   3.108   5.240
    2V3OU   C12  849   3.215   3.227   5.144
    2V3OU    O2  850   3.239   3.126   5.214
    2V3OU   C10  851   3.328   3.310   5.097
    2V3OU    C8  852   3.462   3.275   5.112
    2V3OU   O10  853   3.494   3.159   5.175
    2V3OU   H26  854   3.410   3.120   5.205
    2V3OU    C6  855   3.570   3.354   5.061
    2V3OU    C5  856   3.539   3.471   4.992
    2V3OU    C4  857   3.707   3.296   5.066
    2V3OU    H4  858   3.717   3.229   5.156
    2V3OU    H5  859   3.713   3.225   4.978
    2V3OU    C2  860   3.819   3.400   5.051
    2V3OU    O6  861   3.810   3.475   5.173
    2V3OU   H21  862   3.771   3.562   5.154
    2V3OU    C3  863   3.781   3.496   4.939
    2V3OU    H2  864   3.860   3.575   4.932
    2V3OU    H3  865   3.781   3.446   4.839
    2V3OU   C25  866   3.951   3.323   5.042
    2V3OU    O7  867   3.999   3.295   4.932
    2V3OU   C26  868   4.030   3.291   5.168
    2V3OU   H22  869   4.049   3.387   5.222
    2V3OU   H23  870   4.125   3.238   5.140
    2V3OU    O8  871   3.960   3.204   5.254
    2V3OU   H24  872   3.925   3.257   5.327
    2V3OU    C1  873   3.650   3.568   4.964
    2V3OU    H1  874   3.626   3.622   4.868
    2V3OU    O3  875   3.652   3.656   5.077
    2V3OU   C19  876   3.620   3.794   5.056
    2V3OU    H9  877   3.523   3.805   4.999
    2V3OU    O4  878   3.719   3.849   4.971
    2V3OU   C20  879   3.850   3.877   5.021
    2V3OU   H10  880   3.903   3.779   5.038
    2V3OU   C24  881   3.612   3.861   5.194
    2V3OU   H16  882   3.553   3.793   5.261
    2V3OU   H17  883   3.566   3.962   5.190
    2V3OU   C23  884   3.754   3.875   5.251
    2V3OU   H15  885   3.792   3.768   5.262
    2V3OU    N1  886   3.738   3.958   5.368
    2V3OU   H19  887   3.819   3.930   5.421
    2V3OU   H20  888   3.651   3.938   5.414
    2V3OU   C21  889   3.853   3.949   5.156
    2V3OU   H11  890   3.956   3.919   5.190
    2V3OU    O5  891   3.835   4.089   5.171
    2V3OU   H18  892   3.777   4.105   5.247
    2V3OU   C22  893   3.914   3.949   4.903
    2V3OU   H12  894   3.861   4.046   4.884
    2V3OU   H13  895   3.908   3.889   4.809
    2V3OU   H14  896   4.024   3.959   4.920
    2V3OU   C11  897   3.159   3.467   4.995
    2V3OU    O1  898   3.133   3.579   4.947
    2V3OU    C9  899   3.299   3.428   5.024
    2V3OU    C7  900   3.402   3.507   4.973
    2V3OU    O9  901   3.382   3.615   4.891
    2V3OU   H25  902   3.286   3.628   4.895
    2V3OU   C17  903   2.819   3.319   5.039
    2V3OU    H7  904   2.719   3.350   5.070
    2V3OU   C18  905   2.841   3.213   5.126
    2V3OU    H8  906   2.756   3.153   5.161
    3SOL     OW  907   3.433   4.137   5.061
    3SOL    HW1  908   3.338   4.117   5.037
    3SOL    HW2  909   3.436   4.172   5.154
    4SOL     OW  910   7.000   0.389   0.188
    4SOL    HW1  911   6.958   0.383   0.097
    4SOL    HW2  912   7.002   0.299   0.230
    5SOL     OW  913   4.235   0.999   1.462
    5SOL    HW1  914   4.332   1.021   1.474
    5SOL    HW2  915   4.222   0.901   1.469
    6SOL     OW  916   5.847   1.231   3.396
    6SOL    HW1  917   5.808   1.283   3.320
    6SOL    HW2  918   5.783   1.158   3.422
    7SOL     OW  919   0.878   4.501   5.412
    7SOL    HW1  920   0.814   4.534   5.342
    7SOL    HW2  921   0.940   4.433   5.372
    8SOL     OW  922   2.236   2.507   5.613
    8SOL    HW1  923   2.220   2.439   5.684
    8SOL    HW2  924   2.156   2.511   5.553
    9SOL     OW  925   6.381   1.423   6.563
    9SOL    HW1  926   6.416   1.339   6.605
    9SOL    HW2  927   6.400   1.500   6.624
   10SOL     OW  928   4.803   4.716   2.530
   10SOL    HW1  929   4.784   4.805   2.489
   10SOL    HW2  930   4.737   4.648   2.496
   11SOL     OW  931   2.505   1.154   0.306
   11SOL    HW1  932   2.432   1.219   0.283
   11SOL    HW2  933   2.498   1.074   0.246
   12SOL     OW  934   2.485   4.920   3.495
   12SOL    HW1  935   2.446   4.976   3.567
   12SOL    HW2  936   2.440   4.942   3.408
   13SOL     OW  937   4.772   6.034   2.431
   13SOL    HW1  938   4.705   5.979   2.482
   13SOL    HW2  939   4.728   6.073   2.351
   14SOL     OW  940   4.821   4.733   5.435
   14SOL    HW1  941   4.755   4.776   5.498
   14SOL    HW2  942   4.772   4.680   5.367
   15SOL     OW  943   0.484   5.821   5.731
   15SOL    HW1  944   0.506   5.913   5.762
   15SOL    HW2  945   0.501   5.756   5.805
   16SOL     OW  946   6.240   2.604   5.865
   16SOL    HW1  947   6.151   2.616   5.820
   16SOL    HW2  948   6.234   2.529   5.931
   17SOL     OW  949   6.252   0.380   5.991
   17SOL    HW1  950   6.285   0.459   5.940
   17SOL    HW2  951   6.261   0.298   5.934
   18SOL     OW  952   3.130   0.608   4.991
   18SOL    HW1  953   3.109   0.705   4.992
   18SOL    HW2  954   3.045   0.555   4.988
   19SOL     OW  955   0.909   1.582   3.081
   19SOL    HW1  956   0.964   1.660   3.112
   19SOL    HW2  957   0.900   1.584   2.982
   20SOL     OW  958   5.648   2.607   5.556
   20SOL    HW1  959   5.598   2.693   5.550
   20SOL    HW2  960   5.735   2.615   5.507
   21SOL     OW  961   3.604   6.053   3.149
   21SOL    HW1  962   3.656   6.092   3.225
   21SOL    HW2  963   3.652   6.074   3.063
   22SOL     OW  964   2.199   6.581   4.894
   22SOL    HW1  965   2.122   6.594   4.832
   22SOL    HW2  966   2.277   6.635   4.863
   23SOL     OW  967   5.376   4.178   1.728
   23SOL    HW1  968   5.388   4.146   1.823
   23SOL    HW2  969   5.279   4.187   1.708
   24SOL     OW  970   3.872   0.386   1.556
   24SOL    HW1  971   3.777   0.403   1.529
   24SOL    HW2  972   3.901   0.454   1.622
   25SOL     OW  973   2.822   6.883   3.556
   25SOL    HW1  974   2.918   6.910   3.565
   25SOL    HW2  975   2.811   6.825   3.475
   26SOL     OW  976   1.525   2.129   6.735
   26SOL    HW1  977   1.513   2.032   6.713
   26SOL    HW2  978   1.449   2.159   6.792
   27SOL     OW  979   6.218   1.155   2.364
   27SOL    HW1  980   6.205   1.240   2.414
   27SOL    HW2  981   6.262   1.088   2.423
   28SOL     OW  982   1.845   0.865   4.815
   28SOL    HW1  983   1.802   0.928   4.879
   28SOL    HW2  984   1.814   0.772   4.833
   29SOL     OW  985   0.002   0.848   0.404
   29SOL    HW1  986   6.977   0.932   0.383
   29SOL    HW2  987   6.994   0.774   0.345
   30SOL     OW  988   4.096   0.607   4.773
   30SOL    HW1  989   4.172   0.636   4.715
   30SOL    HW2  990   4.017   0.668   4.758
   31SOL     OW  991   0.195   2.705   5.105
   31SOL    HW1  992   0.179   2.645   5.184
   31SOL    HW2  993   0.184   2.652   5.021
   32SOL     OW  994   1.547   0.948   0.979
   32SOL    HW1  995   1.603   1.009   1.035
   32SOL    HW2  996   1.507   0.876   1.036
   33SOL     OW  997   0.391   3.769   6.558
   33SOL    HW1  998   0.359   3.677   6.535
   33SOL    HW2  999   0.482   3.763   6.599
   34SOL     OW 1000   2.052   5.661   5.328
   34SOL    HW1 1001   2.042   5.636   5.424
   34SOL    HW2 1002   2.127   5.609   5.287
   35SOL     OW 1003   3.660   3.452   0.005
   35SOL    HW1 1004   3.577   3.441   6.976
   35SOL    HW2 1005   3.638   3.488   0.095
   36SOL     OW 1006   5.052   0.773   3.969
   36SOL    HW1 1007   5.130   0.715   3.943
   36SOL    HW2 1008   5.085   0.864   3.994
   37SOL     OW 1009   1.900   1.583   3.638
   37SOL    HW1 1010   1.922   1.679   3.618
   37SOL    HW2 1011   1.944   1.524   3.571
   38SOL     OW 1012   1.595   5.645   2.323
   38SOL    HW1 1013   1.555   5.716   2.264
   38SOL    HW2 1014   1.557   5.556   2.299
   39SOL     OW 1015   5.764   5.082   6.364
   39SOL    HW1 1016   5.834   5.011   6.370
   39SOL    HW2 1017   5.691   5.063   6.429
   40SOL     OW 1018   3.153   0.469   6.506
   40SOL    HW1 1019   3.065   0.422   6.503
   40SOL    HW2 1020   3.166   0.520   6.420
   41SOL     OW 1021   5.650   4.055   2.029
   41SOL    HW1 1022   5.659   4.150   2.060
   41SOL    HW2 1023   5.555   4.026   2.036
   42SOL     OW 1024   2.853   5.751   5.165
   42SOL    HW1 1025   2.877   5.679   5.230
   42SOL    HW2 1026   2.872   5.840   5.206
   43SOL     OW 1027   4.957   0.182   5.353
   43SOL    HW1 1028   5.027   0.164   5.285
   43SOL    HW2 1029   4.953   0.106   5.418
   44SOL     OW 1030   5.868   3.226   5.094
   44SOL    HW1 1031   5.874   3.325   5.081
   44SOL    HW2 1032   5.895   3.180   5.009
   45SOL     OW 1033   3.979   5.793   0.609
   45SOL    HW1 1034   3.983   5.819   0.512
   45SOL    HW2 1035   3.914   5.852   0.656
   46SOL     OW 1036   0.166   2.990   4.507
   46SOL    HW1 1037   0.192   2.935   4.427
   46SOL    HW2 1038   0.209   2.951   4.589
   47SOL     OW 1039   5.238   3.384   1.806
   47SOL    HW1 1040   5.243   3.284   1.815
   47SOL    HW2 1041   5.313   3.426   1.857
   48SOL     OW 1042   6.949   3.605   6.924
   48SOL    HW1 1043   6.861   3.606   6.971
   48SOL    HW2 1044   7.017   3.654   6.979
   49SOL     OW 1045   4.987   3.289   0.540
   49SOL    HW1 1046   4.963   3.329   0.451
   49SOL    HW2 1047   4.996   3.190   0.530
   50SOL     OW 1048   6.169   2.064   6.356
   50SOL    HW1 1049   6.267   2.074   6.371
   50SOL    HW2 1050   6.141   2.122   6.279
   51SOL     OW 1051   1.677   4.462   3.543
   51SOL    HW1 1052   1.623   4.381   3.565
   51SOL    HW2 1053   1.619   4.543   3.549
   52SOL     OW 1054   5.438   2.955   1.632
   52SOL    HW1 1055   5.351   2.976   1.588
   52SOL    HW2 1056   5.429   2.965   1.732
   53SOL     OW 1057   4.626   0.343   3.228
   53SOL    HW1 1058   4.619   0.439   3.253
   53SOL    HW2 1059   4.535   0.302   3.226
   54SOL     OW 1060   5.703   5.974   0.352
   54SOL    HW1 1061   5.763   5.906   0.309
   54SOL    HW2 1062   5.757   6.033   0.412
   55SOL     OW 1063   1.983   2.434   6.330
   55SOL    HW1 1064   1.969   2.532   6.345
   55SOL    HW2 1065   2.068   2.419   6.280
   56SOL     OW 1066   1.558   1.995   0.070
   56SOL    HW1 1067   1.641   1.955   0.031
   56SOL    HW2 1068   1.508   1.924   0.120
   57SOL     OW 1069   3.904   0.915   0.087
   57SOL    HW1 1070   3.952   0.848   0.144
   57SOL    HW2 1071   3.809   0.922   0.117
   58SOL     OW 1072   0.818   0.632   6.235
   58SOL    HW1 1073   0.860   0.542   6.219
   58SOL    HW2 1074   0.878   0.687   6.293
   59SOL     OW 1075   6.384   3.547   6.332
   59SOL    HW1 1076   6.365   3.473   6.267
   59SOL    HW2 1077   6.347   3.633   6.297
   60SOL     OW 1078   5.379   0.719   3.172
   60SOL    HW1 1079   5.476   0.722   3.197
   60SOL    HW2 1080   5.357   0.799   3.115
   61SOL     OW 1081   0.510   1.322   4.682
   61SOL    HW1 1082   0.464   1.233   4.672
   61SOL    HW2 1083   0.489   1.379   4.603
   62SOL     OW 1084   0.596   1.453   2.344
   62SOL    HW1 1085   0.523   1.473   2.410
   62SOL    HW2 1086   0.684   1.485   2.380
   63SOL     OW 1087   3.839   6.483   4.123
   63SOL    HW1 1088   3.826   6.421   4.046
   63SOL    HW2 1089   3.930   6.469   4.163
   64SOL     OW 1090   1.624   4.143   6.749
   64SOL    HW1 1091   1.663   4.076   6.686
   64SOL    HW2 1092   1.648   4.119   6.843
   65SOL     OW 1093   0.661   0.513   5.439
   65SOL    HW1 1094   0.592   0.466   5.496
   65SOL    HW2 1095   0.630   0.514   5.344
   66SOL     OW 1096   3.643   6.816   1.825
   66SOL    HW1 1097   3.636   6.727   1.871
   66SOL    HW2 1098   3.662   6.887   1.892
   67SOL     OW 1099   0.556   2.323   0.895
   67SOL    HW1 1100   0.603   2.301   0.980
   67SOL    HW2 1101   0.465   2.359   0.915
   68SOL     OW 1102   6.983   2.588   5.783
   68SOL    HW1 1103   6.899   2.599   5.837
   68SOL    HW2 1104   0.022   2.661   5.808
   69SOL     OW 1105   1.347   5.564   5.866
   69SOL    HW1 1106   1.369   5.526   5.956
   69SOL    HW2 1107   1.248   5.561   5.852
   70SOL     OW 1108   5.491   3.327   4.632
   70SOL    HW1 1109   5.438   3.397   4.679
   70SOL    HW2 1110   5.584   3.362   4.615
   71SOL     OW 1111   4.633   2.107   4.669
   71SOL    HW1 1112   4.553   2.070   4.715
   71SOL    HW2 1113   4.621   2.100   4.570
   72SOL     OW 1114   6.779   0.268   3.975
   72SOL    HW1 1115   6.844   0.196   3.951
   72SOL    HW2 1116   6.828   0.350   4.004
   73SOL     OW 1117   2.669   0.591   0.748
   73SOL    HW1 1118   2.682   0.615   0.652
   73SOL    HW2 1119   2.634   0.498   0.755
   74SOL     OW 1120   2.160   1.263   6.316
   74SOL    HW1 1121   2.247   1.285   6.360
   74SOL    HW2 1122   2.176   1.202   6.239
   75SOL     OW 1123   4.337   1.410   0.894
   75SOL    HW1 1124   4.434   1.415   0.918
   75SOL    HW2 1125   4.285   1.472   0.953
   76SOL     OW 1126   3.146   4.439   5.322
   76SOL    HW1 1127   3.106   4.449   5.414
   76SOL    HW2 1128   3.085   4.481   5.255
   77SOL     OW 1129   1.999   5.202   4.616
   77SOL    HW1 1130   2.088   5.163   4.635
   77SOL    HW2 1131   1.987   5.214   4.517
   78SOL     OW 1132   4.313   1.615   1.224
   78SOL    HW1 1133   4.294   1.662   1.310
   78SOL    HW2 1134   4.326   1.518   1.241
   79SOL     OW 1135   2.050   4.905   1.714
   79SOL    HW1 1136   2.043   4.812   1.751
   79SOL    HW2 1137   2.128   4.910   1.651
   80SOL     OW 1138   4.994   2.267   4.907
   80SOL    HW1 1139   5.031   2.333   4.841
   80SOL    HW2 1140   4.984   2.312   4.996
   81SOL     OW 1141   2.487   6.265   1.074
   81SOL    HW1 1142   2.435   6.212   1.007
   81SOL    HW2 1143   2.555   6.206   1.118
   82SOL     OW 1144   1.138   5.868   1.742
   82SOL    HW1 1145   1.145   5.872   1.841
   82SOL    HW2 1146   1.056   5.916   1.712
   83SOL     OW 1147   5.883   1.966   5.865
   83SOL    HW1 1148   5.937   1.885   5.839
   83SOL    HW2 1149   5.838   1.948   5.953
   84SOL     OW 1150   6.561   3.147   3.682
   84SOL    HW1 1151   6.616   3.196   3.751
   84SOL    HW2 1152   6.542   3.209   3.606
   85SOL     OW 1153   1.742   0.160   4.206
   85SOL    HW1 1154   1.818   0.098   4.227
   85SOL    HW2 1155   1.710   0.144   4.113
   86SOL     OW 1156   5.646   1.664   6.197
   86SOL    HW1 1157   5.719   1.675   6.129
   86SOL    HW2 1158   5.657   1.733   6.269
   87SOL     OW 1159   4.402   4.544   6.447
   87SOL    HW1 1160   4.304   4.564   6.449
   87SOL    HW2 1161   4.448   4.598   6.518
   88SOL     OW 1162   2.813   3.042   5.945
   88SOL    HW1 1163   2.913   3.035   5.939
   88SOL    HW2 1164   2.774   2.951   5.956
   89SOL     OW 1165   3.273   3.092   2.769
   89SOL    HW1 1166   3.191   3.131   2.726
   89SOL    HW2 1167   3.288   3.135   2.858
   90SOL     OW 1168   4.935   3.579   2.894
   90SOL    HW1 1169   4.959   3.670   2.927
   90SOL    HW2 1170   4.938   3.578   2.794
   91SOL     OW 1171   5.758   5.358   5.709
   91SOL    HW1 1172   5.719   5.323   5.795
   91SOL    HW2 1173   5.854   5.330   5.702
   92SOL     OW 1174   5.280   4.674   0.026
   92SOL    HW1 1175   5.371   4.638   0.048
   92SOL    HW2 1176   5.219   4.597   0.007
   93SOL     OW 1177   2.781   2.802   0.970
   93SOL    HW1 1178   2.702   2.742   0.979
   93SOL    HW2 1179   2.857   2.767   1.025
   94SOL     OW 1180   3.168   0.230   5.740
   94SOL    HW1 1181   3.224   0.150   5.761
   94SOL    HW2 1182   3.226   0.301   5.700
   95SOL     OW 1183   0.000   0.652   4.153
   95SOL    HW1 1184   6.965   0.705   4.211
   95SOL    HW2 1185   0.041   0.577   4.206
   96SOL     OW 1186   5.013   4.899   6.443
   96SOL    HW1 1187   4.919   4.931   6.451
   96SOL    HW2 1188   5.076   4.969   6.476
   97SOL     OW 1189   2.186   5.181   5.558
   97SOL    HW1 1190   2.165   5.142   5.469
   97SOL    HW2 1191   2.280   5.216   5.559
   98SOL     OW 1192   1.060   2.758   2.389
   98SOL    HW1 1193   1.131   2.754   2.459
   98SOL    HW2 1194   1.103   2.765   2.299
   99SOL     OW 1195   3.620   3.216   3.793
   99SOL    HW1 1196   3.629   3.172   3.704
   99SOL    HW2 1197   3.557   3.294   3.786
  100SOL     OW 1198   0.047   6.692   4.096
  100SOL    HW1 1199   0.127   6.632   4.096
  100SOL    HW2 1200   6.990   6.637   4.082
  101SOL     OW 1201   0.901   4.296   2.694
  101SOL    HW1 1202   1.001   4.305   2.685
  101SOL    HW2 1203   0.863   4.264   2.608
  102SOL     OW 1204   2.849   6.344   1.660
  102SOL    HW1 1205   2.948   6.332   1.651
  102SOL    HW2 1206   2.807   6.345   1.570
  103SOL     OW 1207   2.114   1.448   2.255
  103SOL    HW1 1208   2.125   1.513   2.330
  103SOL    HW2 1209   2.204   1.420   2.222
  104SOL     OW 1210   1.742   4.275   1.864
  104SOL    HW1 1211   1.758   4.193   1.919
  104SOL    HW2 1212   1.692   4.251   1.781
  105SOL     OW 1213   5.281   1.816   6.727
  105SOL    HW1 1214   5.342   1.855   6.796
  105SOL    HW2 1215   5.320   1.731   6.691
  106SOL     OW 1216   5.260   5.196   1.983
  106SOL    HW1 1217   5.243   5.108   2.027
  106SOL    HW2 1218   5.357   5.218   1.989
  107SOL     OW 1219   6.522   1.572   0.406
  107SOL    HW1 1220   6.540   1.515   0.327
  107SOL    HW2 1221   6.434   1.618   0.394
  108SOL     OW 1222   1.799   0.586   4.859
  108SOL    HW1 1223   1.817   0.569   4.956
  108SOL    HW2 1224   1.882   0.569   4.806
  109SOL     OW 1225   3.397   1.161   3.569
  109SOL    HW1 1226   3.306   1.203   3.570
  109SOL    HW2 1227   3.459   1.216   3.625
  110SOL     OW 1228   2.843   4.496   5.786
  110SOL    HW1 1229   2.804   4.450   5.865
  110SOL    HW2 1230   2.890   4.429   5.728
  111SOL     OW 1231   5.737   1.698   2.488
  111SOL    HW1 1232   5.655   1.673   2.538
  111SOL    HW2 1233   5.713   1.720   2.393
  112SOL     OW 1234   3.956   0.263   6.661
  112SOL    HW1 1235   4.036   0.272   6.602
  112SOL    HW2 1236   3.888   0.205   6.616
  113SOL     OW 1237   6.298   5.711   2.578
  113SOL    HW1 1238   6.314   5.749   2.486
  113SOL    HW2 1239   6.381   5.719   2.632
  114SOL     OW 1240   1.369   4.131   4.081
  114SOL    HW1 1241   1.450   4.182   4.053
  114SOL    HW2 1242   1.378   4.102   4.176
  115SOL     OW 1243   6.279   0.713   3.349
  115SOL    HW1 1244   6.314   0.787   3.292
  115SOL    HW2 1245   6.257   0.748   3.440
  116SOL     OW 1246   1.016   5.810   0.816
  116SOL    HW1 1247   1.067   5.802   0.901
  116SOL    HW2 1248   1.059   5.879   0.757
  117SOL     OW 1249   2.634   1.797   6.881
  117SOL    HW1 1250   2.629   1.738   6.801
  117SOL    HW2 1251   2.693   1.875   6.861
  118SOL     OW 1252   1.072   1.665   3.703
  118SOL    HW1 1253   1.094   1.713   3.618
  118SOL    HW2 1254   1.148   1.605   3.728
  119SOL     OW 1255   0.228   0.065   6.573
  119SOL    HW1 1256   0.205   0.105   6.661
  119SOL    HW2 1257   0.323   0.036   6.573
  120SOL     OW 1258   4.558   0.962   5.203
  120SOL    HW1 1259   4.651   0.930   5.186
  120SOL    HW2 1260   4.559   1.058   5.230
  121SOL     OW 1261   0.995   3.315   6.416
  121SOL    HW1 1262   0.942   3.290   6.497
  121SOL    HW2 1263   1.091   3.329   6.442
  122SOL     OW 1264   1.121   4.234   6.715
  122SOL    HW1 1265   1.196   4.174   6.685
  122SOL    HW2 1266   1.110   4.308   6.649
  123SOL     OW 1267   1.060   1.006   1.613
  123SOL    HW1 1268   1.072   1.093   1.566
  123SOL    HW2 1269   0.994   0.950   1.562
  124SOL     OW 1270   3.222   1.920   0.913
  124SOL    HW1 1271   3.209   1.986   0.988
  124SOL    HW2 1272   3.189   1.831   0.942
  125SOL     OW 1273   3.388   2.736   6.561
  125SOL    HW1 1274   3.300   2.695   6.536
  125SOL    HW2 1275   3.412   2.710   6.654
  126SOL     OW 1276   4.030   3.113   3.672
  126SOL    HW1 1277   4.075   3.025   3.684
  126SOL    HW2 1278   3.942   3.100   3.628
  127SOL     OW 1279   0.373   6.144   6.274
  127SOL    HW1 1280   0.344   6.088   6.196
  127SOL    HW2 1281   0.428   6.088   6.336
  128SOL     OW 1282   4.635   3.687   1.462
  128SOL    HW1 1283   4.590   3.767   1.421
  128SOL    HW2 1284   4.590   3.665   1.549
  129SOL     OW 1285   2.053   6.141   1.057
  129SOL    HW1 1286   2.041   6.099   0.968
  129SOL    HW2 1287   2.027   6.238   1.052
  130SOL     OW 1288   5.346   2.115   4.575
  130SOL    HW1 1289   5.277   2.051   4.543
  130SOL    HW2 1290   5.356   2.189   4.509
  131SOL     OW 1291   0.659   2.358   3.840
  131SOL    HW1 1292   0.577   2.319   3.797
  131SOL    HW2 1293   0.699   2.292   3.904
  132SOL     OW 1294   3.662   4.111   1.905
  132SOL    HW1 1295   3.684   4.209   1.904
  132SOL    HW2 1296   3.601   4.090   1.830
  133SOL     OW 1297   5.401   6.403   4.762
  133SOL    HW1 1298   5.320   6.360   4.803
  133SOL    HW2 1299   5.375   6.490   4.721
  134SOL     OW 1300   5.925   1.437   2.316
  134SOL    HW1 1301   5.993   1.510   2.302
  134SOL    HW2 1302   5.844   1.455   2.261
  135SOL     OW 1303   4.942   3.526   4.196
  135SOL    HW1 1304   4.980   3.566   4.280
  135SOL    HW2 1305   4.908   3.599   4.136
  136SOL     OW 1306   2.542   6.879   4.421
  136SOL    HW1 1307   2.513   6.827   4.502
  136SOL    HW2 1308   2.635   6.911   4.434
  137SOL     OW 1309   3.284   2.067   4.847
  137SOL    HW1 1310   3.261   2.133   4.918
  137SOL    HW2 1311   3.212   2.067   4.777
  138SOL     OW 1312   0.792   5.348   4.856
  138SOL    HW1 1313   0.774   5.330   4.953
  138SOL    HW2 1314   0.714   5.396   4.817
  139SOL     OW 1315   2.065   6.189   6.324
  139SOL    HW1 1316   2.085   6.246   6.404
  139SOL    HW2 1317   2.096   6.236   6.241
  140SOL     OW 1318   2.398   0.967   3.005
  140SOL    HW1 1319   2.492   0.933   3.011
  140SOL    HW2 1320   2.398   1.059   2.965
  141SOL     OW 1321   6.626   4.181   0.503
  141SOL    HW1 1322   6.534   4.193   0.540
  141SOL    HW2 1323   6.631   4.093   0.456
  142SOL     OW 1324   1.154   4.192   1.551
  142SOL    HW1 1325   1.169   4.094   1.561
  142SOL    HW2 1326   1.057   4.210   1.533
  143SOL     OW 1327   5.529   0.001   1.851
  143SOL    HW1 1328   5.487   6.948   1.897
  143SOL    HW2 1329   5.628   7.012   1.844
  144SOL     OW 1330   2.912   4.830   3.439
  144SOL    HW1 1331   2.842   4.761   3.422
  144SOL    HW2 1332   2.950   4.818   3.530
  145SOL     OW 1333   6.782   4.569   2.538
  145SOL    HW1 1334   6.842   4.617   2.602
  145SOL    HW2 1335   6.687   4.592   2.557
  146SOL     OW 1336   6.076   1.773   5.806
  146SOL    HW1 1337   6.170   1.750   5.833
  146SOL    HW2 1338   6.017   1.695   5.822
  147SOL     OW 1339   5.104   1.737   5.440
  147SOL    HW1 1340   5.032   1.670   5.421
  147SOL    HW2 1341   5.192   1.702   5.406
  148SOL     OW 1342   1.652   4.535   1.328
  148SOL    HW1 1343   1.610   4.475   1.261
  148SOL    HW2 1344   1.711   4.482   1.389
  149SOL     OW 1345   2.563   2.312   5.478
  149SOL    HW1 1346   2.520   2.377   5.540
  149SOL    HW2 1347   2.619   2.361   5.411
  150SOL     OW 1348   4.435   1.086   5.585
  150SOL    HW1 1349   4.397   1.132   5.505
  150SOL    HW2 1350   4.523   1.127   5.609
  151SOL     OW 1351   4.283   2.096   0.817
  151SOL    HW1 1352   4.225   2.108   0.898
  151SOL    HW2 1353   4.340   2.178   0.805
  152SOL     OW 1354   1.171   1.150   0.265
  152SOL    HW1 1355   1.239   1.223   0.257
  152SOL    HW2 1356   1.217   1.065   0.292
  153SOL     OW 1357   2.887   1.258   3.803
  153SOL    HW1 1358   2.940   1.225   3.881
  153SOL    HW2 1359   2.872   1.357   3.813
  154SOL     OW 1360   6.190   1.975   1.311
  154SOL    HW1 1361   6.274   2.013   1.351
  154SOL    HW2 1362   6.136   1.931   1.383
  155SOL     OW 1363   0.347   0.040   1.922
  155SOL    HW1 1364   0.379   0.104   1.993
  155SOL    HW2 1365   0.389   0.064   1.835
  156SOL     OW 1366   4.599   1.152   0.261
  156SOL    HW1 1367   4.566   1.218   0.194
  156SOL    HW2 1368   4.695   1.131   0.244
  157SOL     OW 1369   4.983   4.008   0.563
  157SOL    HW1 1370   5.079   4.004   0.593
  157SOL    HW2 1371   4.943   4.094   0.594
  158SOL     OW 1372   1.055   2.874   2.759
  158SOL    HW1 1373   0.994   2.859   2.837
  158SOL    HW2 1374   1.057   2.971   2.735
  159SOL     OW 1375   5.078   5.472   0.254
  159SOL    HW1 1376   5.050   5.439   0.344
  159SOL    HW2 1377   5.178   5.472   0.249
  160SOL     OW 1378   5.974   0.202   0.696
  160SOL    HW1 1379   5.952   0.231   0.789
  160SOL    HW2 1380   5.935   0.267   0.631
  161SOL     OW 1381   0.777   0.036   0.446
  161SOL    HW1 1382   0.739   6.981   0.494
  161SOL    HW2 1383   0.875   0.042   0.463
  162SOL     OW 1384   2.440   6.256   6.841
  162SOL    HW1 1385   2.482   6.303   6.764
  162SOL    HW2 1386   2.482   6.286   6.926
  163SOL     OW 1387   6.660   4.060   3.639
  163SOL    HW1 1388   6.580   4.013   3.604
  163SOL    HW2 1389   6.718   3.996   3.688
  164SOL     OW 1390   1.745   1.873   2.941
  164SOL    HW1 1391   1.737   1.972   2.959
  164SOL    HW2 1392   1.799   1.831   3.014
  165SOL     OW 1393   0.928   5.674   2.392
  165SOL    HW1 1394   0.929   5.596   2.329
  165SOL    HW2 1395   0.992   5.744   2.359
  166SOL     OW 1396   6.022   3.828   2.159
  166SOL    HW1 1397   6.030   3.890   2.081
  166SOL    HW2 1398   5.937   3.776   2.151
  167SOL     OW 1399   5.275   1.835   0.437
  167SOL    HW1 1400   5.367   1.796   0.428
  167SOL    HW2 1401   5.218   1.803   0.362
  168SOL     OW 1402   4.924   3.765   2.211
  168SOL    HW1 1403   4.868   3.830   2.263
  168SOL    HW2 1404   4.876   3.738   2.128
  169SOL     OW 1405   6.077   2.459   1.206
  169SOL    HW1 1406   6.094   2.371   1.162
  169SOL    HW2 1407   6.108   2.533   1.146
  170SOL     OW 1408   1.037   5.235   2.591
  170SOL    HW1 1409   0.988   5.217   2.676
  170SOL    HW2 1410   1.100   5.160   2.571
  171SOL     OW 1411   2.727   3.684   0.840
  171SOL    HW1 1412   2.630   3.703   0.858
  171SOL    HW2 1413   2.744   3.586   0.848
  172SOL     OW 1414   5.836   1.891   1.917
  172SOL    HW1 1415   5.826   1.929   1.825
  172SOL    HW2 1416   5.928   1.852   1.927
  173SOL     OW 1417   6.629   1.742   5.316
  173SOL    HW1 1418   6.655   1.834   5.286
  173SOL    HW2 1419   6.699   1.706   5.378
  174SOL     OW 1420   5.778   5.730   5.143
  174SOL    HW1 1421   5.819   5.748   5.054
  174SOL    HW2 1422   5.815   5.792   5.211
  175SOL     OW 1423   1.506   0.660   0.565
  175SOL    HW1 1424   1.481   0.734   0.502
  175SOL    HW2 1425   1.543   0.583   0.514
  176SOL     OW 1426   5.234   4.685   2.456
  176SOL    HW1 1427   5.191   4.619   2.518
  176SOL    HW2 1428   5.165   4.719   2.392
  177SOL     OW 1429   5.682   2.063   4.172
  177SOL    HW1 1430   5.689   2.154   4.130
  177SOL    HW2 1431   5.587   2.034   4.171
  178SOL     OW 1432   2.408   6.425   4.990
  178SOL    HW1 1433   2.320   6.452   4.952
  178SOL    HW2 1434   2.394   6.376   5.077
  179SOL     OW 1435   4.305   5.051   0.465
  179SOL    HW1 1436   4.281   4.961   0.500
  179SOL    HW2 1437   4.225   5.112   0.471
  180SOL     OW 1438   3.926   0.565   1.083
  180SOL    HW1 1439   3.845   0.621   1.096
  180SOL    HW2 1440   3.942   0.551   0.986
  181SOL     OW 1441   3.306   2.348   5.434
  181SOL    HW1 1442   3.382   2.403   5.468
  181SOL    HW2 1443   3.285   2.375   5.340
  182SOL     OW 1444   5.567   2.603   0.263
  182SOL    HW1 1445   5.520   2.689   0.244
  182SOL    HW2 1446   5.512   2.527   0.228
  183SOL     OW 1447   3.651   1.418   4.473
  183SOL    HW1 1448   3.674   1.374   4.386
  183SOL    HW2 1449   3.639   1.516   4.459
  184SOL     OW 1450   0.080   6.511   3.156
  184SOL    HW1 1451   0.053   6.604   3.180
  184SOL    HW2 1452   0.002   6.462   3.118
  185SOL     OW 1453   0.640   1.854   3.963
  185SOL    HW1 1454   0.692   1.774   3.994
  185SOL    HW2 1455   0.550   1.826   3.931
  186SOL     OW 1456   5.250   5.333   4.268
  186SOL    HW1 1457   5.275   5.358   4.174
  186SOL    HW2 1458   5.158   5.367   4.288
  187SOL     OW 1459   3.832   5.606   2.696
  187SOL    HW1 1460   3.851   5.666   2.774
  187SOL    HW2 1461   3.848   5.655   2.611
  188SOL     OW 1462   2.248   2.481   2.735
  188SOL    HW1 1463   2.188   2.513   2.662
  188SOL    HW2 1464   2.334   2.447   2.696
  189SOL     OW 1465   6.390   5.224   6.602
  189SOL    HW1 1466   6.351   5.136   6.630
  189SOL    HW2 1467   6.317   5.290   6.586
  190SOL     OW 1468   6.144   5.851   0.781
  190SOL    HW1 1469   6.183   5.862   0.689
  190SOL    HW2 1470   6.047   5.830   0.773
  191SOL     OW 1471   6.389   0.636   6.171
  191SOL    HW1 1472   6.314   0.599   6.226
  191SOL    HW2 1473   6.353   0.706   6.109
  192SOL     OW 1474   0.153   5.157   1.156
  192SOL    HW1 1475   0.104   5.241   1.135
  192SOL    HW2 1476   0.127   5.125   1.247
  193SOL     OW 1477   3.391   4.974   6.574
  193SOL    HW1 1478   3.358   4.892   6.528
  193SOL    HW2 1479   3.360   4.974   6.669
  194SOL     OW 1480   3.887   6.468   1.853
  194SOL    HW1 1481   3.805   6.415   1.835
  194SOL    HW2 1482   3.947   6.466   1.772
  195SOL     OW 1483   3.147   0.951   1.696
  195SOL    HW1 1484   3.086   0.970   1.619
  195SOL    HW2 1485   3.201   1.032   1.716
  196SOL     OW 1486   2.443   0.996   6.268
  196SOL    HW1 1487   2.439   0.977   6.366
  196SOL    HW2 1488   2.351   1.015   6.234
  197SOL     OW 1489   2.411   5.672   0.090
  197SOL    HW1 1490   2.482   5.693   0.022
  197SOL    HW2 1491   2.328   5.642   0.042
  198SOL     OW 1492   4.294   6.006   0.520
  198SOL    HW1 1493   4.310   6.096   0.480
  198SOL    HW2 1494   4.319   5.936   0.453
  199SOL     OW 1495   5.424   0.035   2.477
  199SOL    HW1 1496   5.341   7.005   2.467
  199SOL    HW2 1497   5.410   0.103   2.549
  200SOL     OW 1498   1.126   3.859   2.379
  200SOL    HW1 1499   1.078   3.814   2.303
  200SOL    HW2 1500   1.214   3.894   2.347
  201SOL     OW 1501   2.935   1.001   6.952
  201SOL    HW1 1502   2.883   1.086   6.961
  201SOL    HW2 1503   3.029   1.017   6.981
  202SOL     OW 1504   4.735   0.168   3.749
  202SOL    HW1 1505   4.661   0.175   3.682
  202SOL    HW2 1506   4.749   0.257   3.792
  203SOL     OW 1507   5.321   3.605   6.445
  203SOL    HW1 1508   5.317   3.698   6.481
  203SOL    HW2 1509   5.317   3.608   6.345
  204SOL     OW 1510   1.933   0.281   0.539
  204SOL    HW1 1511   2.019   0.275   0.589
  204SOL    HW2 1512   1.929   0.369   0.491
  205SOL     OW 1513   6.255   1.609   0.973
  205SOL    HW1 1514   6.260   1.709   0.969
  205SOL    HW2 1515   6.237   1.580   1.067
  206SOL     OW 1516   0.692   4.546   1.185
  206SOL    HW1 1517   0.621   4.522   1.251
  206SOL    HW2 1518   0.694   4.478   1.112
  207SOL     OW 1519   4.606   0.590   5.981
  207SOL    HW1 1520   4.679   0.614   6.044
  207SOL    HW2 1521   4.588   0.666   5.919
  208SOL     OW 1522   5.243   5.074   5.744
  208SOL    HW1 1523   5.298   5.158   5.745
  208SOL    HW2 1524   5.253   5.027   5.832
  209SOL     OW 1525   0.142   6.331   5.911
  209SOL    HW1 1526   0.091   6.282   5.840
  209SOL    HW2 1527   0.209   6.269   5.952
  210SOL     OW 1528   3.987   2.210   2.196
  210SOL    HW1 1529   3.893   2.191   2.225
  210SOL    HW2 1530   3.985   2.269   2.115
  211SOL     OW 1531   0.760   0.993   1.320
  211SOL    HW1 1532   0.750   1.080   1.368
  211SOL    HW2 1533   0.809   0.928   1.379
  212SOL     OW 1534   0.729   4.436   3.372
  212SOL    HW1 1535   0.755   4.527   3.406
  212SOL    HW2 1536   0.787   4.412   3.294
  213SOL     OW 1537   4.951   1.244   0.424
  213SOL    HW1 1538   5.005   1.188   0.361
  213SOL    HW2 1539   4.906   1.184   0.491
  214SOL     OW 1540   0.664   6.343   3.313
  214SOL    HW1 1541   0.662   6.346   3.413
  214SOL    HW2 1542   0.710   6.424   3.279
  215SOL     OW 1543   3.717   3.520   1.571
  215SOL    HW1 1544   3.633   3.488   1.615
  215SOL    HW2 1545   3.795   3.467   1.605
  216SOL     OW 1546   1.086   0.204   4.737
  216SOL    HW1 1547   1.161   0.164   4.684
  216SOL    HW2 1548   1.031   0.263   4.678
  217SOL     OW 1549   1.760   2.671   4.048
  217SOL    HW1 1550   1.714   2.639   4.131
  217SOL    HW2 1551   1.808   2.757   4.068
  218SOL     OW 1552   1.324   2.600   4.311
  218SOL    HW1 1553   1.389   2.580   4.385
  218SOL    HW2 1554   1.366   2.663   4.246
  219SOL     OW 1555   3.599   4.189   0.576
  219SOL    HW1 1556   3.573   4.133   0.498
  219SOL    HW2 1557   3.574   4.142   0.661
  220SOL     OW 1558   2.825   5.608   6.799
  220SOL    HW1 1559   2.894   5.680   6.806
  220SOL    HW2 1560   2.839   5.542   6.873
  221SOL     OW 1561   5.122   3.158   3.987
  221SOL    HW1 1562   5.154   3.136   3.895
  221SOL    HW2 1563   5.196   3.198   4.040
  222SOL     OW 1564   1.563   5.533   5.310
  222SOL    HW1 1565   1.594   5.519   5.216
  222SOL    HW2 1566   1.591   5.456   5.367
  223SOL     OW 1567   6.875   3.417   2.113
  223SOL    HW1 1568   6.840   3.510   2.109
  223SOL    HW2 1569   6.901   3.386   2.022
  224SOL     OW 1570   2.657   2.363   2.153
  224SOL    HW1 1571   2.746   2.354   2.109
  224SOL    HW2 1572   2.613   2.448   2.123
  225SOL     OW 1573   5.486   0.710   0.210
  225SOL    HW1 1574   5.541   0.782   0.168
  225SOL    HW2 1575   5.545   0.633   0.234
  226SOL     OW 1576   1.139   6.592   0.595
  226SOL    HW1 1577   1.137   6.495   0.617
  226SOL    HW2 1578   1.045   6.627   0.589
  227SOL     OW 1579   1.858   3.986   3.446
  227SOL    HW1 1580   1.893   4.068   3.402
  227SOL    HW2 1581   1.850   4.002   3.545
  228SOL     OW 1582   3.623   6.910   4.276
  228SOL    HW1 1583   3.697   6.973   4.256
  228SOL    HW2 1584   3.595   6.918   4.371
  229SOL     OW 1585   6.383   5.565   1.722
  229SOL    HW1 1586   6.289   5.533   1.715
  229SOL    HW2 1587   6.383   5.665   1.734
  230SOL     OW 1588   2.225   4.089   4.775
  230SOL    HW1 1589   2.201   3.997   4.744
  230SOL    HW2 1590   2.260   4.084   4.869
  231SOL     OW 1591   6.901   2.609   6.453
  231SOL    HW1 1592   6.930   2.622   6.548
  231SOL    HW2 1593   6.802   2.593   6.451
  232SOL     OW 1594   1.722   3.614   6.489
  232SOL    HW1 1595   1.633   3.570   6.503
  232SOL    HW2 1596   1.767   3.575   6.409
  233SOL     OW 1597   2.401   1.091   5.629
  233SOL    HW1 1598   2.371   0.997   5.644
  233SOL    HW2 1599   2.370   1.148   5.706
  234SOL     OW 1600   2.943   5.044   6.935
  234SOL    HW1 1601   3.017   4.976   6.934
  234SOL    HW2 1602   2.855   4.997   6.939
  235SOL     OW 1603   3.324   2.962   3.945
  235SOL    HW1 1604   3.317   2.944   4.043
  235SOL    HW2 1605   3.248   3.020   3.916
  236SOL     OW 1606   6.543   2.795   5.689
  236SOL    HW1 1607   6.563   2.697   5.679
  236SOL    HW2 1608   6.582   2.845   5.612
  237SOL     OW 1609   6.774   6.805   1.664
  237SOL    HW1 1610   6.823   6.725   1.628
  237SOL    HW2 1611   6.839   6.865   1.710
  238SOL     OW 1612   5.774   3.354   2.041
  238SOL    HW1 1613   5.728   3.433   2.082
  238SOL    HW2 1614   5.807   3.294   2.114
  239SOL     OW 1615   6.989   5.735   6.623
  239SOL    HW1 1616   6.895   5.757   6.599
  239SOL    HW2 1617   0.022   5.741   6.542
  240SOL     OW 1618   0.827   3.698   6.530
  240SOL    HW1 1619   0.826   3.634   6.606
  240SOL    HW2 1620   0.836   3.647   6.444
  241SOL     OW 1621   0.120   1.092   3.718
  241SOL    HW1 1622   0.194   1.093   3.651
  241SOL    HW2 1623   0.062   1.172   3.704
  242SOL     OW 1624   1.232   3.896   4.686
  242SOL    HW1 1625   1.193   3.805   4.704
  242SOL    HW2 1626   1.332   3.889   4.683
  243SOL     OW 1627   5.393   0.113   6.084
  243SOL    HW1 1628   5.357   0.022   6.107
  243SOL    HW2 1629   5.478   0.128   6.135
  244SOL     OW 1630   5.238   2.181   5.274
  244SOL    HW1 1631   5.323   2.129   5.275
  244SOL    HW2 1632   5.172   2.137   5.213
  245SOL     OW 1633   6.486   2.479   4.901
  245SOL    HW1 1634   6.415   2.451   4.836
  245SOL    HW2 1635   6.499   2.578   4.895
  246SOL     OW 1636   4.913   3.704   3.274
  246SOL    HW1 1637   4.928   3.605   3.266
  246SOL    HW2 1638   4.863   3.723   3.358
  247SOL     OW 1639   2.232   1.336   3.733
  247SOL    HW1 1640   2.257   1.245   3.764
  247SOL    HW2 1641   2.158   1.372   3.790
  248SOL     OW 1642   4.789   1.860   4.330
  248SOL    HW1 1643   4.806   1.888   4.424
  248SOL    HW2 1644   4.762   1.940   4.276
  249SOL     OW 1645   3.244   6.552   4.504
  249SOL    HW1 1646   3.274   6.469   4.458
  249SOL    HW2 1647   3.319   6.617   4.509
  250SOL     OW 1648   5.104   2.924   5.331
  250SOL    HW1 1649   5.043   2.876   5.268
  250SOL    HW2 1650   5.055   2.947   5.415
  251SOL     OW 1651   4.838   3.036   6.511
  251SOL    HW1 1652   4.802   2.982   6.435
  251SOL    HW2 1653   4.782   3.020   6.593
  252SOL     OW 1654   6.406   1.224   6.115
  252SOL    HW1 1655   6.430   1.320   6.126
  252SOL    HW2 1656   6.317   1.217   6.069
  253SOL     OW 1657   2.332   3.059   0.545
  253SOL    HW1 1658   2.240   3.027   0.567
  253SOL    HW2 1659   2.341   3.156   0.570
  254SOL     OW 1660   6.462   3.479   4.679
  254SOL    HW1 1661   6.522   3.538   4.625
  254SOL    HW2 1662   6.377   3.462   4.629
  255SOL     OW 1663   2.937   2.231   3.370
  255SOL    HW1 1664   2.982   2.149   3.405
  255SOL    HW2 1665   2.925   2.296   3.445
  256SOL     OW 1666   6.221   5.127   6.943
  256SOL    HW1 1667   6.280   5.069   6.887
  256SOL    HW2 1668   6.277   5.196   6.989
  257SOL     OW 1669   3.076   5.732   5.958
  257SOL    HW1 1670   3.173   5.712   5.952
  257SOL    HW2 1671   3.045   5.774   5.872
  258SOL     OW 1672   5.083   4.301   4.129
  258SOL    HW1 1673   5.030   4.300   4.215
  258SOL    HW2 1674   5.084   4.209   4.090
  259SOL     OW 1675   1.288   3.133   2.542
  259SOL    HW1 1676   1.315   3.067   2.472
  259SOL    HW2 1677   1.194   3.161   2.527
  260SOL     OW 1678   5.450   0.492   6.766
  260SOL    HW1 1679   5.452   0.411   6.707
  260SOL    HW2 1680   5.427   0.573   6.712
  261SOL     OW 1681   0.842   4.182   2.004
  261SOL    HW1 1682   0.860   4.087   1.976
  261SOL    HW2 1683   0.787   4.227   1.934
  262SOL     OW 1684   1.154   3.084   2.188
  262SOL    HW1 1685   1.250   3.110   2.181
  262SOL    HW2 1686   1.115   3.122   2.271
  263SOL     OW 1687   0.902   2.593   4.593
  263SOL    HW1 1688   0.938   2.557   4.507
  263SOL    HW2 1689   0.881   2.690   4.583
  264SOL     OW 1690   1.109   4.039   5.990
  264SOL    HW1 1691   1.025   4.072   5.947
  264SOL    HW2 1692   1.160   4.116   6.028
  265SOL     OW 1693   5.122   4.498   3.942
  265SOL    HW1 1694   5.100   4.431   4.013
  265SOL    HW2 1695   5.200   4.466   3.888
  266SOL     OW 1696   3.982   1.643   0.771
  266SOL    HW1 1697   3.910   1.574   0.763
  266SOL    HW2 1698   3.990   1.692   0.684
  267SOL     OW 1699   1.984   2.385   6.031
  267SOL    HW1 1700   1.939   2.296   6.029
  267SOL    HW2 1701   1.917   2.457   6.010
  268SOL     OW 1702   4.532   4.515   4.538
  268SOL    HW1 1703   4.504   4.569   4.617
  268SOL    HW2 1704   4.474   4.434   4.531
  269SOL     OW 1705   1.521   1.880   6.601
  269SOL    HW1 1706   1.607   1.855   6.558
  269SOL    HW2 1707   1.464   1.799   6.614
  270SOL     OW 1708   5.291   0.684   2.497
  270SOL    HW1 1709   5.352   0.649   2.568
  270SOL    HW2 1710   5.335   0.762   2.452
  271SOL     OW 1711   1.638   0.476   0.429
  271SOL    HW1 1712   1.598   0.460   0.339
  271SOL    HW2 1713   1.664   0.389   0.470
  272SOL     OW 1714   3.997   5.310   3.558
  272SOL    HW1 1715   3.931   5.264   3.498
  272SOL    HW2 1716   4.087   5.268   3.547
  273SOL     OW 1717   1.995   5.813   4.611
  273SOL    HW1 1718   1.973   5.901   4.570
  273SOL    HW2 1719   1.920   5.784   4.671
  274SOL     OW 1720   6.066   2.547   2.583
  274SOL    HW1 1721   6.094   2.453   2.559
  274SOL    HW2 1722   6.132   2.612   2.545
  275SOL     OW 1723   6.925   6.621   5.741
  275SOL    HW1 1724   6.963   6.691   5.801
  275SOL    HW2 1725   6.886   6.547   5.796
  276SOL     OW 1726   6.478   5.868   3.665
  276SOL    HW1 1727   6.567   5.864   3.619
  276SOL    HW2 1728   6.491   5.881   3.763
  277SOL     OW 1729   3.269   1.811   5.316
  277SOL    HW1 1730   3.318   1.885   5.361
  277SOL    HW2 1731   3.200   1.849   5.255
  278SOL     OW 1732   5.304   3.942   2.361
  278SOL    HW1 1733   5.331   4.038   2.355
  278SOL    HW2 1734   5.302   3.902   2.269
  279SOL     OW 1735   0.098   2.790   2.973
  279SOL    HW1 1736   0.094   2.804   2.874
  279SOL    HW2 1737   0.129   2.697   2.993
  280SOL     OW 1738   5.286   7.020   3.753
  280SOL    HW1 1739   5.313   6.981   3.841
  280SOL    HW2 1740   5.187   7.017   3.745
  281SOL     OW 1741   4.625   5.986   3.966
  281SOL    HW1 1742   4.712   5.960   3.924
  281SOL    HW2 1743   4.618   6.086   3.967
  282SOL     OW 1744   4.459   2.271   6.649
  282SOL    HW1 1745   4.482   2.271   6.552
  282SOL    HW2 1746   4.513   2.341   6.696
  283SOL     OW 1747   6.140   0.924   4.970
  283SOL    HW1 1748   6.202   0.951   5.043
  283SOL    HW2 1749   6.173   0.960   4.883
  284SOL     OW 1750   6.807   5.027   5.234
  284SOL    HW1 1751   6.749   5.105   5.212
  284SOL    HW2 1752   6.868   5.051   5.310
  285SOL     OW 1753   4.483   0.335   6.778
  285SOL    HW1 1754   4.492   0.414   6.838
  285SOL    HW2 1755   4.404   0.280   6.806
  286SOL     OW 1756   3.451   4.948   4.537
  286SOL    HW1 1757   3.481   4.934   4.442
  286SOL    HW2 1758   3.460   4.862   4.587
  287SOL     OW 1759   2.882   6.621   5.619
  287SOL    HW1 1760   2.971   6.590   5.651
  287SOL    HW2 1761   2.864   6.713   5.655
  288SOL     OW 1762   3.707   0.999   0.534
  288SOL    HW1 1763   3.646   0.937   0.583
  288SOL    HW2 1764   3.653   1.062   0.478
  289SOL     OW 1765   0.347   6.680   4.495
  289SOL    HW1 1766   0.296   6.751   4.446
  289SOL    HW2 1767   0.336   6.692   4.593
  290SOL     OW 1768   4.065   0.845   3.834
  290SOL    HW1 1769   4.022   0.854   3.924
  290SOL    HW2 1770   4.077   0.936   3.794
  291SOL     OW 1771   4.900   0.647   4.182
  291SOL    HW1 1772   4.947   0.692   4.107
  291SOL    HW2 1773   4.966   0.594   4.235
  292SOL     OW 1774   3.559   0.203   3.807
  292SOL    HW1 1775   3.596   0.126   3.859
  292SOL    HW2 1776   3.616   0.219   3.726
  293SOL     OW 1777   6.046   6.196   2.739
  293SOL    HW1 1778   6.144   6.185   2.720
  293SOL    HW2 1779   6.027   6.291   2.764
  294SOL     OW 1780   5.724   0.561   5.354
  294SOL    HW1 1781   5.686   0.531   5.442
  294SOL    HW2 1782   5.740   0.659   5.356
  295SOL     OW 1783   1.712   2.112   4.988
  295SOL    HW1 1784   1.805   2.075   4.987
  295SOL    HW2 1785   1.675   2.107   5.081
  296SOL     OW 1786   6.634   1.023   1.788
  296SOL    HW1 1787   6.664   1.061   1.876
  296SOL    HW2 1788   6.572   0.946   1.805
  297SOL     OW 1789   5.540   4.342   3.341
  297SOL    HW1 1790   5.603   4.326   3.416
  297SOL    HW2 1791   5.454   4.295   3.359
  298SOL     OW 1792   4.129   0.698   0.151
  298SOL    HW1 1793   4.178   0.744   0.225
  298SOL    HW2 1794   4.148   0.745   0.065
  299SOL     OW 1795   3.144   1.645   6.800
  299SOL    HW1 1796   3.212   1.719   6.793
  299SOL    HW2 1797   3.161   1.578   6.727
  300SOL     OW 1798   3.871   1.184   2.539
  300SOL    HW1 1799   3.879   1.270   2.589
  300SOL    HW2 1800   3.799   1.193   2.470
  301SOL     OW 1801   5.541   5.740   2.105
  301SOL    HW1 1802   5.635   5.730   2.139
  301SOL    HW2 1803   5.499   5.649   2.099
  302SOL     OW 1804   6.809   6.163   1.378
  302SOL    HW1 1805   6.789   6.180   1.475
  302SOL    HW2 1806   6.835   6.249   1.334
  303SOL     OW 1807   6.556   5.764   2.289
  303SOL    HW1 1808   6.626   5.808   2.233
  303SOL    HW2 1809   6.588   5.674   2.319
  304SOL     OW 1810   1.204   0.148   4.982
  304SOL    HW1 1811   1.158   0.063   5.006
  304SOL    HW2 1812   1.177   0.176   4.890
  305SOL     OW 1813   1.661   2.892   1.795
  305SOL    HW1 1814   1.645   2.897   1.697
  305SOL    HW2 1815   1.716   2.811   1.815
  306SOL     OW 1816   6.791   0.776   3.289
  306SOL    HW1 1817   6.879   0.810   3.323
  306SOL    HW2 1818   6.735   0.747   3.366
  307SOL     OW 1819   3.133   3.357   1.602
  307SOL    HW1 1820   3.179   3.387   1.686
  307SOL    HW2 1821   3.193   3.292   1.554
  308SOL     OW 1822   5.353   0.610   4.195
  308SOL    HW1 1823   5.344   0.666   4.112
  308SOL    HW2 1824   5.387   0.519   4.170
  309SOL     OW 1825   0.419   6.854   6.924
  309SOL    HW1 1826   0.327   6.815   6.918
  309SOL    HW2 1827   0.449   6.882   6.832
  310SOL     OW 1828   5.135   5.859   4.917
  310SOL    HW1 1829   5.112   5.763   4.933
  310SOL    HW2 1830   5.210   5.886   4.977
  311SOL     OW 1831   2.037   5.328   3.165
  311SOL    HW1 1832   2.000   5.262   3.100
  311SOL    HW2 1833   2.037   5.419   3.124
  312SOL     OW 1834   4.838   2.327   3.557
  312SOL    HW1 1835   4.836   2.299   3.653
  312SOL    HW2 1836   4.909   2.274   3.509
  313SOL     OW 1837   3.628   3.631   3.008
  313SOL    HW1 1838   3.643   3.687   3.089
  313SOL    HW2 1839   3.716   3.597   2.974
  314SOL     OW 1840   1.872   6.448   5.221
  314SOL    HW1 1841   1.868   6.370   5.284
  314SOL    HW2 1842   1.951   6.438   5.161
  315SOL     OW 1843   6.408   1.026   3.294
  315SOL    HW1 1844   6.380   1.120   3.276
  315SOL    HW2 1845   6.362   0.964   3.230
  316SOL     OW 1846   4.120   1.763   5.759
  316SOL    HW1 1847   4.169   1.770   5.846
  316SOL    HW2 1848   4.125   1.668   5.727
  317SOL     OW 1849   1.229   1.727   1.422
  317SOL    HW1 1850   1.259   1.701   1.330
  317SOL    HW2 1851   1.222   1.645   1.478
  318SOL     OW 1852   6.862   0.905   5.755
  318SOL    HW1 1853   6.949   0.854   5.752
  318SOL    HW2 1854   6.862   0.975   5.684
  319SOL     OW 1855   0.694   1.996   2.901
  319SOL    HW1 1856   0.748   1.946   2.835
  319SOL    HW2 1857   0.697   2.094   2.880
  320SOL     OW 1858   5.739   1.959   7.005
  320SOL    HW1 1859   5.739   1.862   6.981
  320SOL    HW2 1860   5.742   2.014   6.922
  321SOL     OW 1861   3.871   2.921   0.876
  321SOL    HW1 1862   3.893   2.851   0.944
  321SOL    HW2 1863   3.917   3.006   0.900
  322SOL     OW 1864   4.195   3.650   6.749
  322SOL    HW1 1865   4.247   3.572   6.715
  322SOL    HW2 1866   4.255   3.730   6.755
  323SOL     OW 1867   0.665   2.368   3.033
  323SOL    HW1 1868   0.699   2.346   3.125
  323SOL    HW2 1869   0.667   2.467   3.020
  324SOL     OW 1870   1.725   0.410   3.235
  324SOL    HW1 1871   1.750   0.456   3.320
  324SOL    HW2 1872   1.631   0.435   3.210
  325SOL     OW 1873   1.432   3.494   2.365
  325SOL    HW1 1874   1.342   3.518   2.403
  325SOL    HW2 1875   1.420   3.453   2.275
  326SOL     OW 1876   1.950   5.581   6.061
  326SOL    HW1 1877   1.930   5.679   6.057
  326SOL    HW2 1878   1.951   5.550   6.156
  327SOL     OW 1879   3.713   5.641   3.075
  327SOL    HW1 1880   3.759   5.701   3.010
  327SOL    HW2 1881   3.749   5.548   3.065
  328SOL     OW 1882   1.390   3.992   1.680
  328SOL    HW1 1883   1.321   4.021   1.746
  328SOL    HW2 1884   1.434   4.073   1.640
  329SOL     OW 1885   2.995   3.909   1.582
  329SOL    HW1 1886   3.054   3.937   1.658
  329SOL    HW2 1887   2.899   3.916   1.610
  330SOL     OW 1888   4.064   5.244   0.385
  330SOL    HW1 1889   4.056   5.216   0.290
  330SOL    HW2 1890   4.023   5.335   0.397
  331SOL     OW 1891   4.921   5.203   0.938
  331SOL    HW1 1892   4.832   5.207   0.891
  331SOL    HW2 1893   4.936   5.288   0.988
  332SOL     OW 1894   5.560   1.892   3.763
  332SOL    HW1 1895   5.532   1.817   3.824
  332SOL    HW2 1896   5.659   1.892   3.754
  333SOL     OW 1897   3.922   0.795   5.286
  333SOL    HW1 1898   4.003   0.741   5.264
  333SOL    HW2 1899   3.903   0.859   5.211
  334SOL     OW 1900   4.098   3.281   2.762
  334SOL    HW1 1901   4.118   3.346   2.688
  334SOL    HW2 1902   4.113   3.326   2.850
  335SOL     OW 1903   3.774   6.802   0.133
  335SOL    HW1 1904   3.761   6.716   0.083
  335SOL    HW2 1905   3.685   6.837   0.161
  336SOL     OW 1906   2.741   1.197   3.594
  336SOL    HW1 1907   2.798   1.246   3.660
  336SOL    HW2 1908   2.783   1.108   3.573
  337SOL     OW 1909   1.552   1.548   5.680
  337SOL    HW1 1910   1.464   1.501   5.677
  337SOL    HW2 1911   1.554   1.620   5.610
  338SOL     OW 1912   4.105   3.352   1.454
  338SOL    HW1 1913   4.013   3.352   1.415
  338SOL    HW2 1914   4.160   3.280   1.411
  339SOL     OW 1915   3.862   4.893   4.606
  339SOL    HW1 1916   3.806   4.911   4.687
  339SOL    HW2 1917   3.955   4.868   4.635
  340SOL     OW 1918   5.097   2.759   4.713
  340SOL    HW1 1919   5.052   2.790   4.629
  340SOL    HW2 1920   5.101   2.835   4.778
  341SOL     OW 1921   5.659   5.877   4.325
  341SOL    HW1 1922   5.582   5.911   4.379
  341SOL    HW2 1923   5.719   5.953   4.300
  342SOL     OW 1924   4.794   3.597   0.479
  342SOL    HW1 1925   4.727   3.620   0.549
  342SOL    HW2 1926   4.882   3.578   0.521
  343SOL     OW 1927   0.707   5.925   2.626
  343SOL    HW1 1928   0.803   5.909   2.601
  343SOL    HW2 1929   0.657   5.958   2.546
  344SOL     OW 1930   0.976   1.307   1.592
  344SOL    HW1 1931   0.968   1.267   1.683
  344SOL    HW2 1932   1.059   1.271   1.548
  345SOL     OW 1933   7.018   2.453   4.264
  345SOL    HW1 1934   0.051   2.524   4.303
  345SOL    HW2 1935   6.953   2.422   4.332
  346SOL     OW 1936   1.879   0.182   2.742
  346SOL    HW1 1937   1.952   0.233   2.696
  346SOL    HW2 1938   1.864   0.220   2.833
  347SOL     OW 1939   2.406   5.824   0.346
  347SOL    HW1 1940   2.440   5.915   0.323
  347SOL    HW2 1941   2.418   5.764   0.267
  348SOL     OW 1942   5.010   4.935   2.544
  348SOL    HW1 1943   4.946   4.953   2.469
  348SOL    HW2 1944   4.977   4.858   2.598
  349SOL     OW 1945   6.713   4.134   1.325
  349SOL    HW1 1946   6.736   4.039   1.305
  349SOL    HW2 1947   6.741   4.193   1.249
  350SOL     OW 1948   3.473   3.010   0.061
  350SOL    HW1 1949   3.382   2.974   0.039
  350SOL    HW2 1950   3.538   2.982   7.015
  351SOL     OW 1951   3.270   3.867   0.374
  351SOL    HW1 1952   3.214   3.823   0.304
  351SOL    HW2 1953   3.252   3.965   0.375
  352SOL     OW 1954   4.228   6.101   3.802
  352SOL    HW1 1955   4.201   6.026   3.741
  352SOL    HW2 1956   4.197   6.081   3.895
  353SOL     OW 1957   3.207   0.089   6.129
  353SOL    HW1 1958   3.218   0.184   6.102
  353SOL    HW2 1959   3.122   0.080   6.182
  354SOL     OW 1960   5.883   2.918   1.206
  354SOL    HW1 1961   5.951   2.983   1.172
  354SOL    HW2 1962   5.929   2.846   1.258
  355SOL     OW 1963   2.191   3.037   2.581
  355SOL    HW1 1964   2.227   3.015   2.672
  355SOL    HW2 1965   2.092   3.052   2.587
  356SOL     OW 1966   1.725   0.940   5.068
  356SOL    HW1 1967   1.783   0.875   5.117
  356SOL    HW2 1968   1.630   0.930   5.100
  357SOL     OW 1969   6.803   6.084   4.160
  357SOL    HW1 1970   6.719   6.113   4.206
  357SOL    HW2 1971   6.870   6.158   4.165
  358SOL     OW 1972   4.790   5.859   1.305
  358SOL    HW1 1973   4.775   5.818   1.395
  358SOL    HW2 1974   4.713   5.836   1.245
  359SOL     OW 1975   3.434   0.863   2.174
  359SOL    HW1 1976   3.502   0.832   2.242
  359SOL    HW2 1977   3.438   0.963   2.167
  360SOL     OW 1978   1.143   4.627   4.496
  360SOL    HW1 1979   1.226   4.630   4.551
  360SOL    HW2 1980   1.166   4.616   4.400
  361SOL     OW 1981   6.309   6.384   2.675
  361SOL    HW1 1982   6.220   6.422   2.650
  361SOL    HW2 1983   6.304   6.341   2.764
  362SOL     OW 1984   3.865   4.241   0.682
  362SOL    HW1 1985   3.787   4.223   0.623
  362SOL    HW2 1986   3.843   4.213   0.776
  363SOL     OW 1987   6.306   4.860   2.619
  363SOL    HW1 1988   6.340   4.799   2.690
  363SOL    HW2 1989   6.310   4.955   2.652
  364SOL     OW 1990   0.520   4.632   6.755
  364SOL    HW1 1991   0.440   4.573   6.741
  364SOL    HW2 1992   0.549   4.626   6.851
  365SOL     OW 1993   3.419   0.383   1.729
  365SOL    HW1 1994   3.399   0.458   1.664
  365SOL    HW2 1995   3.336   0.361   1.780
  366SOL     OW 1996   6.047   3.491   6.586
  366SOL    HW1 1997   5.999   3.574   6.615
  366SOL    HW2 1998   5.998   3.411   6.620
  367SOL     OW 1999   5.467   2.187   6.226
  367SOL    HW1 2000   5.431   2.280   6.239
  367SOL    HW2 2001   5.522   2.185   6.142
  368SOL     OW 2002   6.870   2.068   5.955
  368SOL    HW1 2003   6.927   2.063   6.038
  368SOL    HW2 2004   6.883   2.158   5.912
  369SOL     OW 2005   5.664   4.052   3.148
  369SOL    HW1 2006   5.599   4.127   3.133
  369SOL    HW2 2007   5.753   4.090   3.173
  370SOL     OW 2008   1.760   1.991   4.087
  370SOL    HW1 2009   1.711   2.021   4.169
  370SOL    HW2 2010   1.856   1.977   4.109
  371SOL     OW 2011   2.032   4.192   6.949
  371SOL    HW1 2012   2.016   4.291   6.954
  371SOL    HW2 2013   2.051   4.157   0.015
  372SOL     OW 2014   1.875   6.917   5.040
  372SOL    HW1 2015   1.917   7.008   5.037
  372SOL    HW2 2016   1.775   6.926   5.043
  373SOL     OW 2017   5.995   6.705   5.446
  373SOL    HW1 2018   5.942   6.733   5.526
  373SOL    HW2 2019   6.036   6.786   5.403
  374SOL     OW 2020   2.104   1.662   2.451
  374SOL    HW1 2021   2.166   1.714   2.392
  374SOL    HW2 2022   2.127   1.679   2.547
  375SOL     OW 2023   0.640   5.266   5.335
  375SOL    HW1 2024   0.541   5.275   5.345
  375SOL    HW2 2025   0.682   5.258   5.425
  376SOL     OW 2026   2.239   0.796   4.987
  376SOL    HW1 2027   2.220   0.871   5.050
  376SOL    HW2 2028   2.226   0.709   5.033
  377SOL     OW 2029   1.925   2.327   0.297
  377SOL    HW1 2030   1.985   2.304   0.220
  377SOL    HW2 2031   1.899   2.243   0.345
  378SOL     OW 2032   3.666   1.435   6.629
  378SOL    HW1 2033   3.604   1.508   6.658
  378SOL    HW2 2034   3.622   1.347   6.646
  379SOL     OW 2035   5.655   2.433   6.940
  379SOL    HW1 2036   5.606   2.499   6.883
  379SOL    HW2 2037   5.754   2.452   6.934
  380SOL     OW 2038   3.304   1.443   1.357
  380SOL    HW1 2039   3.210   1.457   1.327
  380SOL    HW2 2040   3.366   1.491   1.295
  381SOL     OW 2041   2.154   3.813   4.811
  381SOL    HW1 2042   2.229   3.813   4.877
  381SOL    HW2 2043   2.126   3.719   4.792
  382SOL     OW 2044   6.280   0.287   0.144
  382SOL    HW1 2045   6.242   0.210   0.092
  382SOL    HW2 2046   6.352   0.254   0.205
  383SOL     OW 2047   4.530   3.271   0.486
  383SOL    HW1 2048   4.524   3.328   0.404
  383SOL    HW2 2049   4.462   3.197   0.481
  384SOL     OW 2050   0.084   3.727   3.935
  384SOL    HW1 2051   0.001   3.680   3.964
  384SOL    HW2 2052   0.157   3.709   4.002
  385SOL     OW 2053   3.614   5.857   6.078
  385SOL    HW1 2054   3.649   5.768   6.109
  385SOL    HW2 2055   3.516   5.863   6.097
  386SOL     OW 2056   4.118   0.330   4.012
  386SOL    HW1 2057   4.156   0.287   4.094
  386SOL    HW2 2058   4.036   0.382   4.038
  387SOL     OW 2059   1.410   5.763   2.507
  387SOL    HW1 2060   1.440   5.704   2.431
  387SOL    HW2 2061   1.383   5.706   2.584
  388SOL     OW 2062   1.931   2.373   6.895
  388SOL    HW1 2063   1.943   2.469   6.867
  388SOL    HW2 2064   1.948   2.313   6.817
  389SOL     OW 2065   3.796   3.426   2.579
  389SOL    HW1 2066   3.884   3.397   2.542
  389SOL    HW2 2067   3.723   3.398   2.517
  390SOL     OW 2068   2.776   0.855   3.663
  390SOL    HW1 2069   2.776   0.786   3.736
  390SOL    HW2 2070   2.870   0.885   3.646
  391SOL     OW 2071   2.256   2.793   6.327
  391SOL    HW1 2072   2.219   2.810   6.418
  391SOL    HW2 2073   2.326   2.722   6.332
  392SOL     OW 2074   1.965   5.635   1.105
  392SOL    HW1 2075   2.047   5.588   1.072
  392SOL    HW2 2076   1.915   5.575   1.167
  393SOL     OW 2077   6.741   4.239   5.947
  393SOL    HW1 2078   6.702   4.150   5.926
  393SOL    HW2 2079   6.761   4.245   6.045
  394SOL     OW 2080   0.145   6.933   0.111
  394SOL    HW1 2081   0.104   6.895   0.194
  394SOL    HW2 2082   0.224   6.989   0.135
  395SOL     OW 2083   4.741   4.210   2.464
  395SOL    HW1 2084   4.759   4.115   2.441
  395SOL    HW2 2085   4.685   4.252   2.392
  396SOL     OW 2086   4.009   3.886   2.450
  396SOL    HW1 2087   4.070   3.915   2.377
  396SOL    HW2 2088   4.022   3.788   2.468
  397SOL     OW 2089   4.274   3.063   5.927
  397SOL    HW1 2090   4.257   2.965   5.932
  397SOL    HW2 2091   4.193   3.112   5.961
  398SOL     OW 2092   0.907   6.001   1.602
  398SOL    HW1 2093   0.956   5.935   1.545
  398SOL    HW2 2094   0.877   6.078   1.545
  399SOL     OW 2095   5.585   5.964   2.719
  399SOL    HW1 2096   5.524   6.040   2.741
  399SOL    HW2 2097   5.677   5.984   2.752
  400SOL     OW 2098   6.937   0.922   6.248
  400SOL    HW1 2099   7.022   0.966   6.277
  400SOL    HW2 2100   6.921   0.941   6.151
  401SOL     OW 2101   4.600   0.965   6.192
  401SOL    HW1 2102   4.677   1.018   6.226
  401SOL    HW2 2103   4.580   0.993   6.098
  402SOL     OW 2104   6.088   6.504   2.636
  402SOL    HW1 2105   6.059   6.585   2.687
  402SOL    HW2 2106   6.032   6.494   2.554
  403SOL     OW 2107   4.232   2.267   6.412
  403SOL    HW1 2108   4.199   2.289   6.504
  403SOL    HW2 2109   4.293   2.188   6.416
  404SOL     OW 2110   1.340   6.809   3.996
  404SOL    HW1 2111   1.274   6.868   3.950
  404SOL    HW2 2112   1.292   6.744   4.055
  405SOL     OW 2113   1.987   3.038   1.226
  405SOL    HW1 2114   1.994   3.040   1.326
  405SOL    HW2 2115   1.981   2.944   1.194
  406SOL     OW 2116   1.297   2.796   3.891
  406SOL    HW1 2117   1.235   2.723   3.863
  406SOL    HW2 2118   1.388   2.779   3.854
  407SOL     OW 2119   2.213   0.664   3.702
  407SOL    HW1 2120   2.167   0.607   3.634
  407SOL    HW2 2121   2.278   0.724   3.656
  408SOL     OW 2122   1.003   0.925   3.329
  408SOL    HW1 2123   1.054   0.981   3.263
  408SOL    HW2 2124   1.010   0.965   3.420
  409SOL     OW 2125   6.071   2.944   2.061
  409SOL    HW1 2126   5.993   2.932   2.123
  409SOL    HW2 2127   6.152   2.903   2.102
  410SOL     OW 2128   2.225   0.466   6.778
  410SOL    HW1 2129   2.200   0.502   6.689
  410SOL    HW2 2130   2.312   0.416   6.771
  411SOL     OW 2131   6.081   6.627   6.699
  411SOL    HW1 2132   6.049   6.565   6.627
  411SOL    HW2 2133   6.108   6.714   6.657
  412SOL     OW 2134   4.847   0.305   3.387
  412SOL    HW1 2135   4.909   0.229   3.367
  412SOL    HW2 2136   4.784   0.318   3.310
  413SOL     OW 2137   4.824   4.353   1.283
  413SOL    HW1 2138   4.893   4.290   1.247
  413SOL    HW2 2139   4.739   4.341   1.233
  414SOL     OW 2140   3.725   5.333   3.104
  414SOL    HW1 2141   3.742   5.279   3.187
  414SOL    HW2 2142   3.665   5.281   3.043
  415SOL     OW 2143   1.241   6.112   0.450
  415SOL    HW1 2144   1.341   6.117   0.454
  415SOL    HW2 2145   1.211   6.123   0.356
  416SOL     OW 2146   4.530   5.670   5.073
  416SOL    HW1 2147   4.454   5.699   5.016
  416SOL    HW2 2148   4.522   5.573   5.093
  417SOL     OW 2149   2.700   6.481   0.518
  417SOL    HW1 2150   2.639   6.527   0.582
  417SOL    HW2 2151   2.784   6.454   0.566
  418SOL     OW 2152   4.897   6.120   1.234
  418SOL    HW1 2153   4.857   6.028   1.229
  418SOL    HW2 2154   4.845   6.183   1.177
  419SOL     OW 2155   1.316   0.513   1.646
  419SOL    HW1 2156   1.240   0.467   1.600
  419SOL    HW2 2157   1.396   0.454   1.645
  420SOL     OW 2158   6.205   3.339   1.336
  420SOL    HW1 2159   6.194   3.246   1.369
  420SOL    HW2 2160   6.262   3.391   1.399
  421SOL     OW 2161   0.612   5.245   6.526
  421SOL    HW1 2162   0.690   5.184   6.513
  421SOL    HW2 2163   0.611   5.313   6.452
  422SOL     OW 2164   6.097   5.460   0.853
  422SOL    HW1 2165   6.044   5.425   0.930
  422SOL    HW2 2166   6.037   5.510   0.791
  423SOL     OW 2167   0.044   2.824   6.957
  423SOL    HW1 2168   6.999   2.756   6.979
  423SOL    HW2 2169   0.005   2.915   6.964
  424SOL     OW 2170   2.778   3.957   0.907
  424SOL    HW1 2171   2.824   3.967   0.994
  424SOL    HW2 2172   2.783   3.862   0.877
  425SOL     OW 2173   5.305   1.365   2.292
  425SOL    HW1 2174   5.212   1.402   2.300
  425SOL    HW2 2175   5.302   1.277   2.245
  426SOL     OW 2176   5.098   2.451   4.720
  426SOL    HW1 2177   5.175   2.508   4.752
  426SOL    HW2 2178   5.012   2.491   4.752
  427SOL     OW 2179   5.725   5.030   2.390
  427SOL    HW1 2180   5.732   4.993   2.483
  427SOL    HW2 2181   5.669   5.112   2.391
  428SOL     OW 2182   4.622   6.770   4.896
  428SOL    HW1 2183   4.722   6.768   4.899
  428SOL    HW2 2184   4.592   6.816   4.813
  429SOL     OW 2185   2.319   4.893   1.562
  429SOL    HW1 2186   2.288   4.981   1.527
  429SOL    HW2 2187   2.419   4.894   1.569
  430SOL     OW 2188   0.755   0.091   4.607
  430SOL    HW1 2189   0.814   0.044   4.673
  430SOL    HW2 2190   0.799   0.092   4.518
  431SOL     OW 2191   3.647   0.367   0.495
  431SOL    HW1 2192   3.689   0.294   0.548
  431SOL    HW2 2193   3.716   0.408   0.434
  432SOL     OW 2194   6.667   2.598   2.028
  432SOL    HW1 2195   6.727   2.533   2.073
  432SOL    HW2 2196   6.621   2.554   1.951
  433SOL     OW 2197   2.874   6.175   3.737
  433SOL    HW1 2198   2.818   6.185   3.655
  433SOL    HW2 2199   2.895   6.266   3.774
  434SOL     OW 2200   4.801   5.388   1.705
  434SOL    HW1 2201   4.799   5.475   1.753
  434SOL    HW2 2202   4.709   5.348   1.703
  435SOL     OW 2203   3.868   2.242   5.227
  435SOL    HW1 2204   3.865   2.315   5.295
  435SOL    HW2 2205   3.936   2.173   5.254
  436SOL     OW 2206   2.961   6.302   1.240
  436SOL    HW1 2207   2.947   6.359   1.320
  436SOL    HW2 2208   2.981   6.359   1.161
  437SOL     OW 2209   0.952   0.024   6.754
  437SOL    HW1 2210   0.857   7.024   6.768
  437SOL    HW2 2211   0.958   0.123   6.739
  438SOL     OW 2212   1.834   3.259   2.026
  438SOL    HW1 2213   1.925   3.217   2.027
  438SOL    HW2 2214   1.839   3.351   2.062
  439SOL     OW 2215   6.199   4.518   3.582
  439SOL    HW1 2216   6.182   4.420   3.591
  439SOL    HW2 2217   6.215   4.558   3.673
  440SOL     OW 2218   1.064   2.157   4.582
  440SOL    HW1 2219   1.102   2.193   4.667
  440SOL    HW2 2220   1.119   2.187   4.505
  441SOL     OW 2221   0.674   1.872   3.532
  441SOL    HW1 2222   0.656   1.968   3.552
  441SOL    HW2 2223   0.767   1.862   3.498
  442SOL     OW 2224   2.094   5.031   6.892
  442SOL    HW1 2225   2.006   5.044   6.938
  442SOL    HW2 2226   2.119   4.934   6.893
  443SOL     OW 2227   0.711   4.217   5.008
  443SOL    HW1 2228   0.734   4.315   5.006
  443SOL    HW2 2229   0.772   4.168   4.945
  444SOL     OW 2230   5.433   2.354   5.800
  444SOL    HW1 2231   5.391   2.264   5.787
  444SOL    HW2 2232   5.386   2.422   5.744
  445SOL     OW 2233   1.521   5.423   3.599
  445SOL    HW1 2234   1.567   5.391   3.682
  445SOL    HW2 2235   1.437   5.472   3.624
  446SOL     OW 2236   4.132   5.052   3.540
  446SOL    HW1 2237   4.214   5.002   3.511
  446SOL    HW2 2238   4.106   5.023   3.632
  447SOL     OW 2239   0.554   2.988   7.022
  447SOL    HW1 2240   0.586   2.946   6.937
  447SOL    HW2 2241   0.454   2.985   7.024
  448SOL     OW 2242   2.995   0.411   4.757
  448SOL    HW1 2243   2.908   0.391   4.802
  448SOL    HW2 2244   2.996   0.506   4.727
  449SOL     OW 2245   4.000   0.804   5.549
  449SOL    HW1 2246   4.005   0.901   5.572
  449SOL    HW2 2247   3.948   0.792   5.464
  450SOL     OW 2248   1.285   5.657   3.782
  450SOL    HW1 2249   1.237   5.624   3.700
  450SOL    HW2 2250   1.286   5.585   3.851
  451SOL     OW 2251   2.036   2.170   3.179
  451SOL    HW1 2252   2.028   2.159   3.278
  451SOL    HW2 2253   2.084   2.091   3.140
  452SOL     OW 2254   6.480   5.723   1.127
  452SOL    HW1 2255   6.499   5.762   1.217
  452SOL    HW2 2256   6.392   5.676   1.130
  453SOL     OW 2257   3.092   0.167   4.690
  453SOL    HW1 2258   3.062   0.156   4.596
  453SOL    HW2 2259   3.068   0.259   4.722
  454SOL     OW 2260   0.308   5.402   6.166
  454SOL    HW1 2261   0.285   5.482   6.110
  454SOL    HW2 2262   0.238   5.390   6.236
  455SOL     OW 2263   0.187   1.642   3.784
  455SOL    HW1 2264   0.131   1.636   3.867
  455SOL    HW2 2265   0.222   1.551   3.761
  456SOL     OW 2266   5.120   5.091   4.421
  456SOL    HW1 2267   5.084   5.150   4.493
  456SOL    HW2 2268   5.177   5.145   4.359
  457SOL     OW 2269   1.882   3.406   3.133
  457SOL    HW1 2270   1.934   3.478   3.178
  457SOL    HW2 2271   1.939   3.361   3.064
  458SOL     OW 2272   4.807   6.196   4.505
  458SOL    HW1 2273   4.830   6.254   4.427
  458SOL    HW2 2274   4.710   6.204   4.525
  459SOL     OW 2275   1.861   6.938   4.030
  459SOL    HW1 2276   1.891   6.915   4.122
  459SOL    HW2 2277   1.775   6.890   4.010
  460SOL     OW 2278   1.209   0.412   2.850
  460SOL    HW1 2279   1.179   0.355   2.774
  460SOL    HW2 2280   1.133   0.427   2.913
  461SOL     OW 2281   5.996   6.972   4.897
  461SOL    HW1 2282   6.081   6.927   4.871
  461SOL    HW2 2283   5.919   6.910   4.881
  462SOL     OW 2284   4.188   2.598   6.020
  462SOL    HW1 2285   4.175   2.553   6.109
  462SOL    HW2 2286   4.205   2.528   5.950
  463SOL     OW 2287   6.406   5.651   3.522
  463SOL    HW1 2288   6.385   5.728   3.581
  463SOL    HW2 2289   6.442   5.685   3.435
  464SOL     OW 2290   2.684   2.001   6.600
  464SOL    HW1 2291   2.589   1.981   6.573
  464SOL    HW2 2292   2.746   1.948   6.542
  465SOL     OW 2293   1.081   2.601   4.148
  465SOL    HW1 2294   1.164   2.644   4.182
  465SOL    HW2 2295   1.105   2.520   4.094
  466SOL     OW 2296   0.853   4.735   3.074
  466SOL    HW1 2297   0.759   4.756   3.103
  466SOL    HW2 2298   0.850   4.685   2.987
  467SOL     OW 2299   1.204   0.596   6.253
  467SOL    HW1 2300   1.173   0.656   6.180
  467SOL    HW2 2301   1.283   0.637   6.299
  468SOL     OW 2302   3.317   6.497   6.647
  468SOL    HW1 2303   3.408   6.508   6.606
  468SOL    HW2 2304   3.301   6.401   6.668
  469SOL     OW 2305   2.780   4.813   0.537
  469SOL    HW1 2306   2.757   4.861   0.452
  469SOL    HW2 2307   2.853   4.861   0.584
  470SOL     OW 2308   3.846   0.449   2.709
  470SOL    HW1 2309   3.878   0.425   2.801
  470SOL    HW2 2310   3.785   0.528   2.715
  471SOL     OW 2311   1.915   2.465   4.052
  471SOL    HW1 2312   1.869   2.394   3.999
  471SOL    HW2 2313   1.864   2.551   4.044
  472SOL     OW 2314   5.018   4.476   6.946
  472SOL    HW1 2315   5.030   4.409   7.019
  472SOL    HW2 2316   5.032   4.432   6.857
  473SOL     OW 2317   0.695   3.447   2.068
  473SOL    HW1 2318   0.729   3.382   2.135
  473SOL    HW2 2319   0.618   3.408   2.019
  474SOL     OW 2320   4.985   4.625   3.767
  474SOL    HW1 2321   5.066   4.592   3.817
  474SOL    HW2 2322   5.010   4.648   3.673
  475SOL     OW 2323   5.400   1.136   6.003
  475SOL    HW1 2324   5.363   1.160   5.913
  475SOL    HW2 2325   5.337   1.169   6.074
  476SOL     OW 2326   0.163   4.001   2.270
  476SOL    HW1 2327   0.233   4.053   2.221
  476SOL    HW2 2328   0.193   3.987   2.365
  477SOL     OW 2329   1.653   4.781   5.230
  477SOL    HW1 2330   1.697   4.732   5.154
  477SOL    HW2 2331   1.571   4.731   5.259
  478SOL     OW 2332   3.128   0.218   2.812
  478SOL    HW1 2333   3.210   0.223   2.756
  478SOL    HW2 2334   3.068   0.295   2.791
  479SOL     OW 2335   4.605   2.095   6.794
  479SOL    HW1 2336   4.539   2.167   6.774
  479SOL    HW2 2337   4.570   2.037   6.867
  480SOL     OW 2338   2.220   1.167   7.025
  480SOL    HW1 2339   2.124   1.186   7.006
  480SOL    HW2 2340   2.271   1.253   0.001
  481SOL     OW 2341   1.832   0.667   6.949
  481SOL    HW1 2342   1.894   0.592   6.924
  481SOL    HW2 2343   1.839   0.740   6.881
  482SOL     OW 2344   4.560   4.594   3.092
  482SOL    HW1 2345   4.478   4.639   3.127
  482SOL    HW2 2346   4.602   4.652   3.022
  483SOL     OW 2347   6.668   1.765   2.354
  483SOL    HW1 2348   6.622   1.773   2.443
  483SOL    HW2 2349   6.699   1.671   2.341
  484SOL     OW 2350   1.175   2.835   5.154
  484SOL    HW1 2351   1.092   2.818   5.207
  484SOL    HW2 2352   1.152   2.884   5.070
  485SOL     OW 2353   4.146   5.628   2.548
  485SOL    HW1 2354   4.151   5.651   2.645
  485SOL    HW2 2355   4.238   5.625   2.509
  486SOL     OW 2356   0.144   1.611   1.238
  486SOL    HW1 2357   0.241   1.632   1.248
  486SOL    HW2 2358   0.119   1.615   1.141
  487SOL     OW 2359   1.078   2.059   0.647
  487SOL    HW1 2360   1.052   1.973   0.603
  487SOL    HW2 2361   1.013   2.130   0.623
  488SOL     OW 2362   0.642   1.497   1.255
  488SOL    HW1 2363   0.621   1.526   1.349
  488SOL    HW2 2364   0.621   1.400   1.244
  489SOL     OW 2365   3.621   6.474   6.309
  489SOL    HW1 2366   3.624   6.377   6.287
  489SOL    HW2 2367   3.607   6.527   6.225
  490SOL     OW 2368   6.948   5.682   3.268
  490SOL    HW1 2369   6.978   5.601   3.218
  490SOL    HW2 2370   6.924   5.656   3.362
  491SOL     OW 2371   6.802   3.043   2.302
  491SOL    HW1 2372   6.823   2.960   2.250
  491SOL    HW2 2373   6.715   3.031   2.350
  492SOL     OW 2374   2.410   6.737   4.730
  492SOL    HW1 2375   2.393   6.835   4.726
  492SOL    HW2 2376   2.507   6.720   4.751
  493SOL     OW 2377   5.578   6.358   5.730
  493SOL    HW1 2378   5.556   6.455   5.716
  493SOL    HW2 2379   5.530   6.325   5.811
  494SOL     OW 2380   7.014   0.678   6.365
  494SOL    HW1 2381   7.021   0.600   6.303
  494SOL    HW2 2382   6.975   0.756   6.316
  495SOL     OW 2383   4.607   5.790   3.026
  495SOL    HW1 2384   4.688   5.768   3.081
  495SOL    HW2 2385   4.528   5.803   3.085
  496SOL     OW 2386   5.330   3.650   2.548
  496SOL    HW1 2387   5.301   3.685   2.459
  496SOL    HW2 2388   5.311   3.552   2.552
  497SOL     OW 2389   3.490   0.820   5.140
  497SOL    HW1 2390   3.433   0.790   5.063
  497SOL    HW2 2391   3.529   0.909   5.119
  498SOL     OW 2392   1.813   4.283   1.495
  498SOL    HW1 2393   1.720   4.250   1.514
  498SOL    HW2 2394   1.869   4.275   1.578
  499SOL     OW 2395   2.903   0.371   4.256
  499SOL    HW1 2396   2.913   0.300   4.186
  499SOL    HW2 2397   2.879   0.458   4.212
  500SOL     OW 2398   1.022   3.145   2.702
  500SOL    HW1 2399   1.051   3.233   2.740
  500SOL    HW2 2400   0.923   3.139   2.704
  501SOL     OW 2401   2.646   6.565   0.040
  501SOL    HW1 2402   2.732   6.593   7.021
  501SOL    HW2 2403   2.615   6.479   7.025
  502SOL     OW 2404   6.808   4.378   6.756
  502SOL    HW1 2405   6.779   4.284   6.773
  502SOL    HW2 2406   6.728   4.436   6.744
  503SOL     OW 2407   5.413   6.115   6.414
  503SOL    HW1 2408   5.399   6.046   6.343
  503SOL    HW2 2409   5.336   6.113   6.478
  504SOL     OW 2410   2.073   5.004   3.435
  504SOL    HW1 2411   2.010   5.081   3.443
  504SOL    HW2 2412   2.021   4.919   3.429
  505SOL     OW 2413   3.708   6.136   4.578
  505SOL    HW1 2414   3.724   6.038   4.569
  505SOL    HW2 2415   3.663   6.171   4.496
  506SOL     OW 2416   1.761   5.324   4.980
  506SOL    HW1 2417   1.820   5.349   4.903
  506SOL    HW2 2418   1.790   5.237   5.019
  507SOL     OW 2419   3.115   0.636   3.264
  507SOL    HW1 2420   3.056   0.717   3.268
  507SOL    HW2 2421   3.121   0.594   3.354
  508SOL     OW 2422   6.365   3.340   2.469
  508SOL    HW1 2423   6.460   3.312   2.473
  508SOL    HW2 2424   6.343   3.371   2.376
  509SOL     OW 2425   3.448   1.242   1.454
  509SOL    HW1 2426   3.395   1.314   1.410
  509SOL    HW2 2427   3.517   1.283   1.515
  510SOL     OW 2428   6.883   4.873   6.187
  510SOL    HW1 2429   6.915   4.963   6.156
  510SOL    HW2 2430   6.943   4.802   6.149
  511SOL     OW 2431   0.156   0.811   6.548
  511SOL    HW1 2432   0.097   0.881   6.587
  511SOL    HW2 2433   0.108   0.765   6.474
  512SOL     OW 2434   0.209   3.314   0.294
  512SOL    HW1 2435   0.144   3.248   0.331
  512SOL    HW2 2436   0.262   3.354   0.369
  513SOL     OW 2437   5.581   6.035   3.263
  513SOL    HW1 2438   5.588   6.120   3.314
  513SOL    HW2 2439   5.574   5.958   3.327
  514SOL     OW 2440   0.048   2.695   3.940
  514SOL    HW1 2441   6.979   2.716   3.968
  514SOL    HW2 2442   0.112   2.746   3.998
  515SOL     OW 2443   1.952   0.899   6.280
  515SOL    HW1 2444   1.960   0.846   6.364
  515SOL    HW2 2445   1.884   0.971   6.292
  516SOL     OW 2446   2.609   4.485   1.750
  516SOL    HW1 2447   2.660   4.542   1.814
  516SOL    HW2 2448   2.518   4.467   1.786
  517SOL     OW 2449   4.843   5.567   2.196
  517SOL    HW1 2450   4.838   5.519   2.283
  517SOL    HW2 2451   4.780   5.645   2.197
  518SOL     OW 2452   2.129   2.620   2.496
  518SOL    HW1 2453   2.142   2.572   2.409
  518SOL    HW2 2454   2.204   2.685   2.509
  519SOL     OW 2455   0.895   0.888   4.595
  519SOL    HW1 2456   0.865   0.976   4.632
  519SOL    HW2 2457   0.995   0.889   4.585
  520SOL     OW 2458   6.157   4.732   0.211
  520SOL    HW1 2459   6.089   4.775   0.271
  520SOL    HW2 2460   6.248   4.765   0.236
  521SOL     OW 2461   6.658   3.409   6.512
  521SOL    HW1 2462   6.644   3.393   6.610
  521SOL    HW2 2463   6.615   3.495   6.485
  522SOL     OW 2464   3.467   3.927   5.508
  522SOL    HW1 2465   3.417   3.860   5.455
  522SOL    HW2 2466   3.405   4.001   5.536
  523SOL     OW 2467   0.862   4.591   1.658
  523SOL    HW1 2468   0.879   4.615   1.562
  523SOL    HW2 2469   0.783   4.642   1.691
  524SOL     OW 2470   1.646   1.041   6.745
  524SOL    HW1 2471   1.610   1.132   6.727
  524SOL    HW2 2472   1.586   0.973   6.702
  525SOL     OW 2473   2.723   3.778   6.563
  525SOL    HW1 2474   2.709   3.801   6.660
  525SOL    HW2 2475   2.719   3.678   6.552
  526SOL     OW 2476   3.865   0.052   4.004
  526SOL    HW1 2477   3.851   0.117   4.079
  526SOL    HW2 2478   3.877   0.103   3.918
  527SOL     OW 2479   6.385   3.275   6.191
  527SOL    HW1 2480   6.326   3.259   6.270
  527SOL    HW2 2481   6.397   3.190   6.141
  528SOL     OW 2482   0.832   1.245   3.794
  528SOL    HW1 2483   0.905   1.256   3.862
  528SOL    HW2 2484   0.862   1.283   3.707
  529SOL     OW 2485   0.645   6.359   4.821
  529SOL    HW1 2486   0.564   6.391   4.869
  529SOL    HW2 2487   0.673   6.427   4.753
  530SOL     OW 2488   2.740   2.969   5.342
  530SOL    HW1 2489   2.662   3.000   5.288
  530SOL    HW2 2490   2.743   3.020   5.428
  531SOL     OW 2491   0.446   0.473   1.689
  531SOL    HW1 2492   0.495   0.386   1.691
  531SOL    HW2 2493   0.474   0.528   1.768
  532SOL     OW 2494   1.384   2.204   6.974
  532SOL    HW1 2495   1.448   2.128   6.982
  532SOL    HW2 2496   1.317   2.201   0.023
  533SOL     OW 2497   3.803   6.347   3.889
  533SOL    HW1 2498   3.804   6.261   3.839
  533SOL    HW2 2499   3.717   6.394   3.874
  534SOL     OW 2500   5.446   5.251   3.509
  534SOL    HW1 2501   5.382   5.222   3.438
  534SOL    HW2 2502   5.399   5.256   3.597
  535SOL     OW 2503   0.355   3.761   4.711
  535SOL    HW1 2504   0.442   3.726   4.676
  535SOL    HW2 2505   0.296   3.786   4.635
  536SOL     OW 2506   0.245   4.934   1.975
  536SOL    HW1 2507   0.246   4.834   1.971
  536SOL    HW2 2508   0.154   4.968   1.951
  537SOL     OW 2509   1.683   6.399   3.776
  537SOL    HW1 2510   1.654   6.457   3.852
  537SOL    HW2 2511   1.630   6.314   3.777
  538SOL     OW 2512   1.816   4.104   3.696
  538SOL    HW1 2513   1.725   4.139   3.673
  538SOL    HW2 2514   1.856   4.159   3.768
  539SOL     OW 2515   0.849   5.993   0.312
  539SOL    HW1 2516   0.807   5.950   0.392
  539SOL    HW2 2517   0.949   5.981   0.316
  540SOL     OW 2518   6.765   1.134   1.577
  540SOL    HW1 2519   6.712   1.085   1.645
  540SOL    HW2 2520   6.834   1.073   1.537
  541SOL     OW 2521   3.151   6.335   3.978
  541SOL    HW1 2522   3.053   6.351   3.965
  541SOL    HW2 2523   3.167   6.237   3.993
  542SOL     OW 2524   6.443   0.354   6.960
  542SOL    HW1 2525   6.461   0.444   6.920
  542SOL    HW2 2526   6.367   0.361   7.024
  543SOL     OW 2527   1.335   5.269   5.274
  543SOL    HW1 2528   1.400   5.297   5.345
  543SOL    HW2 2529   1.289   5.349   5.237
  544SOL     OW 2530   2.180   4.547   1.064
  544SOL    HW1 2531   2.089   4.509   1.048
  544SOL    HW2 2532   2.182   4.643   1.034
  545SOL     OW 2533   3.267   0.717   3.590
  545SOL    HW1 2534   3.283   0.713   3.688
  545SOL    HW2 2535   3.343   0.764   3.545
  546SOL     OW 2536   1.681   3.292   0.214
  546SOL    HW1 2537   1.613   3.359   0.186
  546SOL    HW2 2538   1.669   3.208   0.162
  547SOL     OW 2539   2.896   1.181   6.493
  547SOL    HW1 2540   2.940   1.092   6.478
  547SOL    HW2 2541   2.889   1.229   6.405
  548SOL     OW 2542   3.876   3.081   2.960
  548SOL    HW1 2543   3.851   3.177   2.942
  548SOL    HW2 2544   3.963   3.060   2.914
  549SOL     OW 2545   4.538   3.046   1.304
  549SOL    HW1 2546   4.541   3.132   1.355
  549SOL    HW2 2547   4.461   3.047   1.241
  550SOL     OW 2548   6.434   4.262   3.455
  550SOL    HW1 2549   6.491   4.344   3.439
  550SOL    HW2 2550   6.439   4.237   3.552
  551SOL     OW 2551   0.542   0.880   1.222
  551SOL    HW1 2552   0.481   0.944   1.176
  551SOL    HW2 2553   0.610   0.930   1.275
  552SOL     OW 2554   4.452   5.457   0.537
  552SOL    HW1 2555   4.541   5.501   0.549
  552SOL    HW2 2556   4.419   5.477   0.444
  553SOL     OW 2557   2.047   6.997   1.741
  553SOL    HW1 2558   1.950   6.976   1.752
  553SOL    HW2 2559   2.101   6.944   1.806
  554SOL     OW 2560   5.069   6.237   6.071
  554SOL    HW1 2561   5.076   6.271   6.165
  554SOL    HW2 2562   5.116   6.149   6.064
  555SOL     OW 2563   2.099   5.105   4.193
  555SOL    HW1 2564   2.144   5.018   4.216
  555SOL    HW2 2565   2.164   5.180   4.207
  556SOL     OW 2566   5.796   2.328   3.850
  556SOL    HW1 2567   5.746   2.244   3.829
  556SOL    HW2 2568   5.768   2.401   3.787
  557SOL     OW 2569   0.705   5.503   6.907
  557SOL    HW1 2570   0.783   5.495   6.968
  557SOL    HW2 2571   0.720   5.446   6.826
  558SOL     OW 2572   3.329   4.121   4.478
  558SOL    HW1 2573   3.329   4.150   4.574
  558SOL    HW2 2574   3.418   4.083   4.455
  559SOL     OW 2575   6.195   6.372   6.762
  559SOL    HW1 2576   6.169   6.467   6.778
  559SOL    HW2 2577   6.120   6.324   6.717
  560SOL     OW 2578   3.627   6.140   0.303
  560SOL    HW1 2579   3.590   6.053   0.271
  560SOL    HW2 2580   3.622   6.144   0.403
  561SOL     OW 2581   6.611   0.595   6.888
  561SOL    HW1 2582   6.606   0.627   6.793
  561SOL    HW2 2583   6.706   0.597   6.919
  562SOL     OW 2584   4.524   0.240   6.359
  562SOL    HW1 2585   4.605   0.274   6.407
  562SOL    HW2 2586   4.483   0.314   6.307
  563SOL     OW 2587   2.669   0.429   3.321
  563SOL    HW1 2588   2.751   0.376   3.340
  563SOL    HW2 2589   2.666   0.509   3.381
  564SOL     OW 2590   2.450   2.029   6.255
  564SOL    HW1 2591   2.365   2.072   6.224
  564SOL    HW2 2592   2.529   2.078   6.217
  565SOL     OW 2593   4.248   3.210   5.542
  565SOL    HW1 2594   4.207   3.260   5.618
  565SOL    HW2 2595   4.184   3.141   5.508
  566SOL     OW 2596   5.824   3.766   3.602
  566SOL    HW1 2597   5.853   3.852   3.561
  566SOL    HW2 2598   5.724   3.760   3.599
  567SOL     OW 2599   2.934   3.621   2.975
  567SOL    HW1 2600   2.899   3.644   3.066
  567SOL    HW2 2601   2.947   3.522   2.968
  568SOL     OW 2602   3.443   2.548   1.178
  568SOL    HW1 2603   3.536   2.527   1.147
  568SOL    HW2 2604   3.377   2.514   1.110
  569SOL     OW 2605   2.000   3.224   0.549
  569SOL    HW1 2606   1.987   3.321   0.567
  569SOL    HW2 2607   1.926   3.172   0.591
  570SOL     OW 2608   2.475   6.332   5.525
  570SOL    HW1 2609   2.571   6.358   5.516
  570SOL    HW2 2610   2.462   6.285   5.613
  571SOL     OW 2611   3.676   6.933   2.991
  571SOL    HW1 2612   3.670   7.007   2.924
  571SOL    HW2 2613   3.654   6.846   2.947
  572SOL     OW 2614   2.722   4.849   5.891
  572SOL    HW1 2615   2.678   4.759   5.891
  572SOL    HW2 2616   2.819   4.839   5.912
  573SOL     OW 2617   4.179   1.962   5.523
  573SOL    HW1 2618   4.139   2.052   5.536
  573SOL    HW2 2619   4.225   1.933   5.607
  574SOL     OW 2620   2.180   2.377   3.475
  574SOL    HW1 2621   2.237   2.295   3.466
  574SOL    HW2 2622   2.162   2.416   3.385
  575SOL     OW 2623   6.301   3.970   5.927
  575SOL    HW1 2624   6.351   3.893   5.888
  575SOL    HW2 2625   6.275   4.034   5.855
  576SOL     OW 2626   1.600   1.935   2.209
  576SOL    HW1 2627   1.574   1.997   2.283
  576SOL    HW2 2628   1.693   1.956   2.179
  577SOL     OW 2629   2.518   0.634   3.128
  577SOL    HW1 2630   2.419   0.621   3.118
  577SOL    HW2 2631   2.556   0.560   3.183
  578SOL     OW 2632   6.663   3.409   3.408
  578SOL    HW1 2633   6.576   3.361   3.397
  578SOL    HW2 2634   6.665   3.489   3.349
  579SOL     OW 2635   3.313   2.007   1.209
  579SOL    HW1 2636   3.352   2.098   1.199
  579SOL    HW2 2637   3.383   1.943   1.240
  580SOL     OW 2638   0.764   4.694   6.653
  580SOL    HW1 2639   0.837   4.648   6.702
  580SOL    HW2 2640   0.676   4.667   6.692
  581SOL     OW 2641   3.363   3.372   2.631
  581SOL    HW1 2642   3.410   3.440   2.688
  581SOL    HW2 2643   3.425   3.296   2.612
  582SOL     OW 2644   5.623   4.680   2.862
  582SOL    HW1 2645   5.603   4.731   2.945
  582SOL    HW2 2646   5.685   4.604   2.884
  583SOL     OW 2647   3.016   5.250   6.733
  583SOL    HW1 2648   2.938   5.256   6.670
  583SOL    HW2 2649   2.985   5.215   6.821
  584SOL     OW 2650   1.284   5.726   5.513
  584SOL    HW1 2651   1.222   5.657   5.476
  584SOL    HW2 2652   1.305   5.794   5.443
  585SOL     OW 2653   6.582   2.996   5.962
  585SOL    HW1 2654   6.560   3.087   5.926
  585SOL    HW2 2655   6.498   2.945   5.976
  586SOL     OW 2656   3.046   0.083   0.058
  586SOL    HW1 2657   3.135   0.041   0.040
  586SOL    HW2 2658   3.058   0.177   0.089
  587SOL     OW 2659   2.028   2.186   5.531
  587SOL    HW1 2660   2.047   2.283   5.516
  587SOL    HW2 2661   1.974   2.150   5.455
  588SOL     OW 2662   3.445   5.767   0.978
  588SOL    HW1 2663   3.378   5.780   1.051
  588SOL    HW2 2664   3.494   5.680   0.992
  589SOL     OW 2665   3.814   5.325   2.037
  589SOL    HW1 2666   3.723   5.312   1.998
  589SOL    HW2 2667   3.879   5.265   1.991
  590SOL     OW 2668   6.246   2.765   1.557
  590SOL    HW1 2669   6.172   2.739   1.619
  590SOL    HW2 2670   6.294   2.844   1.596
  591SOL     OW 2671   3.898   6.699   3.905
  591SOL    HW1 2672   3.944   6.754   3.975
  591SOL    HW2 2673   3.902   6.603   3.930
  592SOL     OW 2674   4.186   0.161   0.723
  592SOL    HW1 2675   4.209   0.086   0.662
  592SOL    HW2 2676   4.245   0.157   0.804
  593SOL     OW 2677   4.619   2.115   3.736
  593SOL    HW1 2678   4.586   2.046   3.671
  593SOL    HW2 2679   4.716   2.100   3.753
  594SOL     OW 2680   4.234   2.994   6.636
  594SOL    HW1 2681   4.264   2.997   6.731
  594SOL    HW2 2682   4.201   2.902   6.614
  595SOL     OW 2683   4.609   6.626   3.738
  595SOL    HW1 2684   4.512   6.648   3.728
  595SOL    HW2 2685   4.626   6.534   3.701
  596SOL     OW 2686   1.116   3.651   1.242
  596SOL    HW1 2687   1.134   3.553   1.249
  596SOL    HW2 2688   1.028   3.665   1.196
  597SOL     OW 2689   4.599   0.117   6.125
  597SOL    HW1 2690   4.672   0.159   6.071
  597SOL    HW2 2691   4.569   0.181   6.196
  598SOL     OW 2692   3.513   4.084   0.239
  598SOL    HW1 2693   3.417   4.067   0.216
  598SOL    HW2 2694   3.534   4.042   0.327
  599SOL     OW 2695   0.509   0.176   3.100
  599SOL    HW1 2696   0.479   0.179   3.005
  599SOL    HW2 2697   0.589   0.235   3.112
  600SOL     OW 2698   0.886   0.023   0.980
  600SOL    HW1 2699   0.909   0.036   1.076
  600SOL    HW2 2700   0.940   6.972   0.943
  601SOL     OW 2701   3.030   5.952   3.768
  601SOL    HW1 2702   2.959   6.020   3.749
  601SOL    HW2 2703   2.988   5.873   3.813
  602SOL     OW 2704   0.928   1.837   0.279
  602SOL    HW1 2705   0.976   1.924   0.270
  602SOL    HW2 2706   0.990   1.769   0.319
  603SOL     OW 2707   4.213   1.926   4.015
  603SOL    HW1 2708   4.285   1.945   3.948
  603SOL    HW2 2709   4.223   1.833   4.050
  604SOL     OW 2710   0.432   3.239   1.143
  604SOL    HW1 2711   0.508   3.197   1.193
  604SOL    HW2 2712   0.413   3.330   1.181
  605SOL     OW 2713   6.421   5.323   2.894
  605SOL    HW1 2714   6.379   5.348   2.981
  605SOL    HW2 2715   6.491   5.391   2.870
  606SOL     OW 2716   5.057   1.043   5.574
  606SOL    HW1 2717   5.035   1.045   5.476
  606SOL    HW2 2718   5.136   0.982   5.588
  607SOL     OW 2719   5.552   0.625   4.951
  607SOL    HW1 2720   5.554   0.686   4.872
  607SOL    HW2 2721   5.590   0.535   4.926
  608SOL     OW 2722   3.340   6.888   0.502
  608SOL    HW1 2723   3.329   6.974   0.551
  608SOL    HW2 2724   3.323   6.812   0.565
  609SOL     OW 2725   3.575   3.363   4.404
  609SOL    HW1 2726   3.526   3.325   4.483
  609SOL    HW2 2727   3.531   3.333   4.320
  610SOL     OW 2728   5.712   2.132   3.322
  610SOL    HW1 2729   5.683   2.037   3.308
  610SOL    HW2 2730   5.661   2.192   3.260
  611SOL     OW 2731   0.797   0.518   6.855
  611SOL    HW1 2732   0.741   0.592   6.819
  611SOL    HW2 2733   0.754   0.482   6.938
  612SOL     OW 2734   3.339   5.878   6.135
  612SOL    HW1 2735   3.294   5.794   6.164
  612SOL    HW2 2736   3.278   5.930   6.076
  613SOL     OW 2737   4.881   0.696   5.726
  613SOL    HW1 2738   4.925   0.671   5.813
  613SOL    HW2 2739   4.813   0.627   5.703
  614SOL     OW 2740   5.721   4.536   1.171
  614SOL    HW1 2741   5.747   4.543   1.267
  614SOL    HW2 2742   5.768   4.608   1.119
  615SOL     OW 2743   1.207   0.654   0.137
  615SOL    HW1 2744   1.146   0.578   0.114
  615SOL    HW2 2745   1.251   0.635   0.224
  616SOL     OW 2746   6.116   1.861   3.759
  616SOL    HW1 2747   6.168   1.942   3.784
  616SOL    HW2 2748   6.161   1.780   3.796
  617SOL     OW 2749   0.583   3.889   6.750
  617SOL    HW1 2750   0.500   3.926   6.793
  617SOL    HW2 2751   0.621   3.958   6.688
  618SOL     OW 2752   5.701   3.467   0.767
  618SOL    HW1 2753   5.760   3.389   0.789
  618SOL    HW2 2754   5.732   3.548   0.818
  619SOL     OW 2755   3.800   6.869   6.629
  619SOL    HW1 2756   3.772   6.944   6.569
  619SOL    HW2 2757   3.787   6.897   6.725
  620SOL     OW 2758   5.387   2.877   1.300
  620SOL    HW1 2759   5.458   2.932   1.257
  620SOL    HW2 2760   5.415   2.781   1.300
  621SOL     OW 2761   2.351   0.179   5.038
  621SOL    HW1 2762   2.423   0.116   5.011
  621SOL    HW2 2763   2.372   0.271   5.005
  622SOL     OW 2764   0.764   2.263   5.251
  622SOL    HW1 2765   0.701   2.233   5.322
  622SOL    HW2 2766   0.850   2.293   5.292
  623SOL     OW 2767   6.480   6.880   5.088
  623SOL    HW1 2768   6.556   6.939   5.117
  623SOL    HW2 2769   6.477   6.878   4.988
  624SOL     OW 2770   6.857   1.240   0.084
  624SOL    HW1 2771   6.807   1.155   0.076
  624SOL    HW2 2772   6.910   1.256   0.001
  625SOL     OW 2773   1.636   0.852   0.280
  625SOL    HW1 2774   1.554   0.878   0.332
  625SOL    HW2 2775   1.670   0.931   0.229
  626SOL     OW 2776   0.742   5.561   2.568
  626SOL    HW1 2777   0.798   5.628   2.520
  626SOL    HW2 2778   0.683   5.514   2.502
  627SOL     OW 2779   6.622   6.309   0.388
  627SOL    HW1 2780   6.668   6.240   0.332
  627SOL    HW2 2781   6.664   6.398   0.371
  628SOL     OW 2782   5.636   4.068   4.926
  628SOL    HW1 2783   5.617   3.997   4.858
  628SOL    HW2 2784   5.681   4.145   4.883
  629SOL     OW 2785   0.264   1.321   0.272
  629SOL    HW1 2786   0.199   1.284   0.206
  629SOL    HW2 2787   0.215   1.361   0.349
  630SOL     OW 2788   6.755   1.373   0.459
  630SOL    HW1 2789   6.705   1.419   0.533
  630SOL    HW2 2790   6.696   1.304   0.418
  631SOL     OW 2791   3.341   1.789   4.205
  631SOL    HW1 2792   3.439   1.776   4.188
  631SOL    HW2 2793   3.329   1.848   4.284
  632SOL     OW 2794   4.395   3.042   0.770
  632SOL    HW1 2795   4.462   3.105   0.731
  632SOL    HW2 2796   4.437   2.991   0.845
  633SOL     OW 2797   2.463   4.612   0.886
  633SOL    HW1 2798   2.370   4.649   0.888
  633SOL    HW2 2799   2.508   4.639   0.802
  634SOL     OW 2800   3.678   3.773   4.080
  634SOL    HW1 2801   3.745   3.841   4.051
  634SOL    HW2 2802   3.586   3.807   4.062
  635SOL     OW 2803   4.692   0.068   6.937
  635SOL    HW1 2804   4.763   0.009   6.976
  635SOL    HW2 2805   4.700   0.068   6.837
  636SOL     OW 2806   3.330   0.402   4.907
  636SOL    HW1 2807   3.240   0.438   4.933
  636SOL    HW2 2808   3.319   0.312   4.864
  637SOL     OW 2809   5.988   1.665   2.595
  637SOL    HW1 2810   5.987   1.601   2.672
  637SOL    HW2 2811   5.894   1.683   2.566
  638SOL     OW 2812   5.896   3.602   3.993
  638SOL    HW1 2813   5.961   3.676   3.977
  638SOL    HW2 2814   5.809   3.640   4.024
  639SOL     OW 2815   5.320   4.499   3.484
  639SOL    HW1 2816   5.349   4.492   3.389
  639SOL    HW2 2817   5.248   4.568   3.492
  640SOL     OW 2818   0.217   3.796   3.537
  640SOL    HW1 2819   0.156   3.873   3.518
  640SOL    HW2 2820   0.274   3.778   3.458
  641SOL     OW 2821   1.761   4.896   5.641
  641SOL    HW1 2822   1.673   4.941   5.627
  641SOL    HW2 2823   1.834   4.964   5.638
  642SOL     OW 2824   1.633   3.177   4.746
  642SOL    HW1 2825   1.724   3.143   4.767
  642SOL    HW2 2826   1.631   3.214   4.653
  643SOL     OW 2827   6.454   0.072   6.603
  643SOL    HW1 2828   6.408   0.070   6.514
  643SOL    HW2 2829   6.519   7.021   6.609
  644SOL     OW 2830   1.187   0.910   4.452
  644SOL    HW1 2831   1.179   1.004   4.419
  644SOL    HW2 2832   1.224   0.911   4.545
  645SOL     OW 2833   3.414   5.092   3.269
  645SOL    HW1 2834   3.446   5.081   3.363
  645SOL    HW2 2835   3.431   5.008   3.217
  646SOL     OW 2836   3.648   0.883   4.726
  646SOL    HW1 2837   3.588   0.930   4.791
  646SOL    HW2 2838   3.690   0.951   4.665
  647SOL     OW 2839   5.041   1.787   4.754
  647SOL    HW1 2840   5.084   1.875   4.735
  647SOL    HW2 2841   5.106   1.714   4.731
  648SOL     OW 2842   6.435   3.229   3.411
  648SOL    HW1 2843   6.342   3.201   3.391
  648SOL    HW2 2844   6.500   3.165   3.369
  649SOL     OW 2845   2.107   4.644   0.102
  649SOL    HW1 2846   2.206   4.647   0.105
  649SOL    HW2 2847   2.070   4.722   0.153
  650SOL     OW 2848   0.018   5.530   0.550
  650SOL    HW1 2849   0.018   5.605   0.484
  650SOL    HW2 2850   0.014   5.567   0.643
  651SOL     OW 2851   1.805   0.489   5.528
  651SOL    HW1 2852   1.722   0.544   5.513
  651SOL    HW2 2853   1.819   0.429   5.449
  652SOL     OW 2854   4.361   6.623   2.016
  652SOL    HW1 2855   4.378   6.604   2.113
  652SOL    HW2 2856   4.328   6.717   2.006
  653SOL     OW 2857   0.673   6.518   0.430
  653SOL    HW1 2858   0.665   6.544   0.334
  653SOL    HW2 2859   0.693   6.420   0.436
  654SOL     OW 2860   6.868   6.638   6.256
  654SOL    HW1 2861   6.945   6.616   6.196
  654SOL    HW2 2862   6.880   6.592   6.344
  655SOL     OW 2863   0.258   5.445   1.782
  655SOL    HW1 2864   0.208   5.370   1.740
  655SOL    HW2 2865   0.255   5.436   1.881
  656SOL     OW 2866   2.301   6.493   0.834
  656SOL    HW1 2867   2.249   6.548   0.768
  656SOL    HW2 2868   2.318   6.402   0.795
  657SOL     OW 2869   3.076   3.783   0.854
  657SOL    HW1 2870   3.137   3.761   0.778
  657SOL    HW2 2871   3.034   3.699   0.888
  658SOL     OW 2872   1.862   4.284   5.684
  658SOL    HW1 2873   1.922   4.233   5.623
  658SOL    HW2 2874   1.917   4.332   5.753
  659SOL     OW 2875   3.126   5.445   4.891
  659SOL    HW1 2876   3.077   5.398   4.965
  659SOL    HW2 2877   3.223   5.421   4.895
  660SOL     OW 2878   4.752   4.958   2.420
  660SOL    HW1 2879   4.749   5.052   2.386
  660SOL    HW2 2880   4.659   4.921   2.422
  661SOL     OW 2881   4.777   4.088   4.665
  661SOL    HW1 2882   4.727   4.100   4.580
  661SOL    HW2 2883   4.767   4.169   4.722
  662SOL     OW 2884   4.411   2.056   6.423
  662SOL    HW1 2885   4.454   2.043   6.512
  662SOL    HW2 2886   4.355   1.977   6.400
  663SOL     OW 2887   0.658   4.674   6.996
  663SOL    HW1 2888   0.748   4.652   0.008
  663SOL    HW2 2889   0.652   4.773   6.980
  664SOL     OW 2890   1.763   5.377   6.944
  664SOL    HW1 2891   1.856   5.409   6.965
  664SOL    HW2 2892   1.765   5.324   6.859
  665SOL     OW 2893   4.181   5.451   1.297
  665SOL    HW1 2894   4.128   5.524   1.253
  665SOL    HW2 2895   4.129   5.366   1.294
  666SOL     OW 2896   3.714   1.946   1.053
  666SOL    HW1 2897   3.764   2.031   1.070
  666SOL    HW2 2898   3.777   1.877   1.016
  667SOL     OW 2899   0.589   2.781   4.043
  667SOL    HW1 2900   0.563   2.731   3.960
  667SOL    HW2 2901   0.591   2.718   4.121
  668SOL     OW 2902   4.745   5.707   6.852
  668SOL    HW1 2903   4.789   5.723   6.764
  668SOL    HW2 2904   4.776   5.619   6.889
  669SOL     OW 2905   1.565   6.802   3.052
  669SOL    HW1 2906   1.539   6.745   2.974
  669SOL    HW2 2907   1.531   6.761   3.136
  670SOL     OW 2908   2.865   3.506   2.399
  670SOL    HW1 2909   2.838   3.443   2.327
  670SOL    HW2 2910   2.859   3.459   2.488
  671SOL     OW 2911   2.215   6.131   5.914
  671SOL    HW1 2912   2.294   6.074   5.936
  671SOL    HW2 2913   2.246   6.212   5.864
  672SOL     OW 2914   1.245   3.404   3.571
  672SOL    HW1 2915   1.195   3.484   3.606
  672SOL    HW2 2916   1.207   3.378   3.482
  673SOL     OW 2917   4.434   6.619   0.359
  673SOL    HW1 2918   4.439   6.711   0.321
  673SOL    HW2 2919   4.483   6.617   0.446
  674SOL     OW 2920   0.324   3.368   4.048
  674SOL    HW1 2921   0.347   3.371   4.145
  674SOL    HW2 2922   0.399   3.407   3.995
  675SOL     OW 2923   0.638   1.844   5.098
  675SOL    HW1 2924   0.567   1.839   5.169
  675SOL    HW2 2925   0.720   1.887   5.136
  676SOL     OW 2926   3.094   4.884   4.261
  676SOL    HW1 2927   3.188   4.901   4.292
  676SOL    HW2 2928   3.045   4.834   4.332
  677SOL     OW 2929   5.961   1.137   0.187
  677SOL    HW1 2930   5.872   1.176   0.208
  677SOL    HW2 2931   6.030   1.178   0.246
  678SOL     OW 2932   2.738   1.349   5.148
  678SOL    HW1 2933   2.646   1.309   5.152
  678SOL    HW2 2934   2.776   1.356   5.240
  679SOL     OW 2935   4.123   1.007   4.894
  679SOL    HW1 2936   4.157   1.071   4.825
  679SOL    HW2 2937   4.145   0.913   4.866
  680SOL     OW 2938   5.906   4.493   5.893
  680SOL    HW1 2939   5.990   4.484   5.840
  680SOL    HW2 2940   5.843   4.420   5.867
  681SOL     OW 2941   6.660   0.172   0.871
  681SOL    HW1 2942   6.698   0.222   0.949
  681SOL    HW2 2943   6.716   0.092   0.852
  682SOL     OW 2944   2.629   6.591   6.036
  682SOL    HW1 2945   2.702   6.659   6.043
  682SOL    HW2 2946   2.540   6.635   6.048
  683SOL     OW 2947   3.351   0.341   6.102
  683SOL    HW1 2948   3.409   0.286   6.042
  683SOL    HW2 2949   3.286   0.394   6.047
  684SOL     OW 2950   6.151   1.462   6.191
  684SOL    HW1 2951   6.230   1.502   6.237
  684SOL    HW2 2952   6.078   1.530   6.184
  685SOL     OW 2953   5.039   0.644   5.997
  685SOL    HW1 2954   5.127   0.597   5.992
  685SOL    HW2 2955   4.994   0.621   6.083
  686SOL     OW 2956   5.961   2.872   3.150
  686SOL    HW1 2957   5.908   2.787   3.152
  686SOL    HW2 2958   6.058   2.850   3.163
  687SOL     OW 2959   6.858   3.119   5.966
  687SOL    HW1 2960   6.760   3.107   5.985
  687SOL    HW2 2961   6.893   3.195   6.020
  688SOL     OW 2962   2.050   3.661   0.057
  688SOL    HW1 2963   2.023   3.571   0.093
  688SOL    HW2 2964   2.132   3.650   0.001
  689SOL     OW 2965   0.911   4.251   5.950
  689SOL    HW1 2966   0.952   4.329   5.904
  689SOL    HW2 2967   0.900   4.271   6.048
  690SOL     OW 2968   0.796   3.110   3.263
  690SOL    HW1 2969   0.855   3.109   3.183
  690SOL    HW2 2970   0.851   3.128   3.345
  691SOL     OW 2971   2.375   1.350   6.476
  691SOL    HW1 2972   2.380   1.295   6.559
  691SOL    HW2 2973   2.320   1.432   6.494
  692SOL     OW 2974   3.030   6.907   3.861
  692SOL    HW1 2975   3.114   6.916   3.915
  692SOL    HW2 2976   3.051   6.922   3.764
  693SOL     OW 2977   6.546   1.550   3.728
  693SOL    HW1 2978   6.504   1.476   3.676
  693SOL    HW2 2979   6.632   1.577   3.685
  694SOL     OW 2980   3.279   5.666   2.314
  694SOL    HW1 2981   3.305   5.649   2.409
  694SOL    HW2 2982   3.242   5.582   2.274
  695SOL     OW 2983   5.068   4.971   5.211
  695SOL    HW1 2984   5.007   5.002   5.284
  695SOL    HW2 2985   5.074   4.871   5.213
  696SOL     OW 2986   3.280   5.220   2.546
  696SOL    HW1 2987   3.326   5.150   2.600
  696SOL    HW2 2988   3.221   5.177   2.478
  697SOL     OW 2989   1.238   3.492   6.241
  697SOL    HW1 2990   1.170   3.475   6.169
  697SOL    HW2 2991   1.282   3.407   6.266
  698SOL     OW 2992   5.859   0.081   5.075
  698SOL    HW1 2993   5.917   0.033   5.008
  698SOL    HW2 2994   5.853   0.026   5.158
  699SOL     OW 2995   1.148   4.281   0.163
  699SOL    HW1 2996   1.211   4.269   0.086
  699SOL    HW2 2997   1.177   4.361   0.217
  700SOL     OW 2998   2.879   2.335   3.688
  700SOL    HW1 2999   2.882   2.427   3.726
  700SOL    HW2 3000   2.788   2.295   3.705
  701SOL     OW 3001   1.299   4.867   6.904
  701SOL    HW1 3002   1.243   4.949   6.913
  701SOL    HW2 3003   1.289   4.829   6.812
  702SOL     OW 3004   5.923   6.140   6.554
  702SOL    HW1 3005   5.962   6.185   6.474
  702SOL    HW2 3006   5.828   6.168   6.565
  703SOL     OW 3007   4.164   3.411   6.993
  703SOL    HW1 3008   4.073   3.411   6.951
  703SOL    HW2 3009   4.234   3.412   6.922
  704SOL     OW 3010   1.589   1.115   6.047
  704SOL    HW1 3011   1.662   1.181   6.026
  704SOL    HW2 3012   1.609   1.071   6.135
  705SOL     OW 3013   5.014   6.958   3.771
  705SOL    HW1 3014   5.028   6.877   3.828
  705SOL    HW2 3015   4.968   6.931   3.686
  706SOL     OW 3016   4.192   1.559   3.529
  706SOL    HW1 3017   4.273   1.500   3.534
  706SOL    HW2 3018   4.126   1.520   3.466
  707SOL     OW 3019   4.310   6.843   2.247
  707SOL    HW1 3020   4.316   6.874   2.342
  707SOL    HW2 3021   4.369   6.900   2.190
  708SOL     OW 3022   4.300   0.155   0.977
  708SOL    HW1 3023   4.368   0.222   0.946
  708SOL    HW2 3024   4.252   0.191   1.057
  709SOL     OW 3025   1.371   5.442   0.969
  709SOL    HW1 3026   1.379   5.533   1.010
  709SOL    HW2 3027   1.458   5.394   0.975
  710SOL     OW 3028   3.708   4.084   2.815
  710SOL    HW1 3029   3.673   4.084   2.722
  710SOL    HW2 3030   3.633   4.099   2.880
  711SOL     OW 3031   0.572   2.087   5.712
  711SOL    HW1 3032   0.483   2.113   5.673
  711SOL    HW2 3033   0.567   2.092   5.812
  712SOL     OW 3034   1.845   4.566   0.782
  712SOL    HW1 3035   1.865   4.551   0.878
  712SOL    HW2 3036   1.891   4.497   0.726
  713SOL     OW 3037   3.201   4.351   0.554
  713SOL    HW1 3038   3.112   4.394   0.569
  713SOL    HW2 3039   3.251   4.347   0.641
  714SOL     OW 3040   6.040   4.520   5.238
  714SOL    HW1 3041   6.082   4.553   5.322
  714SOL    HW2 3042   5.964   4.580   5.212
  715SOL     OW 3043   4.911   5.917   0.079
  715SOL    HW1 3044   4.918   5.821   0.052
  715SOL    HW2 3045   5.001   5.950   0.108
  716SOL     OW 3046   0.844   5.405   1.081
  716SOL    HW1 3047   0.843   5.406   0.981
  716SOL    HW2 3048   0.887   5.320   1.112
  717SOL     OW 3049   6.383   4.730   6.467
  717SOL    HW1 3050   6.400   4.660   6.398
  717SOL    HW2 3051   6.327   4.803   6.428
  718SOL     OW 3052   3.586   2.055   6.097
  718SOL    HW1 3053   3.651   2.107   6.153
  718SOL    HW2 3054   3.588   2.088   6.003
  719SOL     OW 3055   6.284   2.139   1.971
  719SOL    HW1 3056   6.352   2.184   2.029
  719SOL    HW2 3057   6.293   2.039   1.979
  720SOL     OW 3058   2.660   1.526   6.067
  720SOL    HW1 3059   2.740   1.580   6.094
  720SOL    HW2 3060   2.645   1.453   6.134
  721SOL     OW 3061   1.269   0.519   4.621
  721SOL    HW1 3062   1.342   0.483   4.680
  721SOL    HW2 3063   1.213   0.444   4.588
  722SOL     OW 3064   4.251   6.527   5.111
  722SOL    HW1 3065   4.233   6.527   5.210
  722SOL    HW2 3066   4.310   6.604   5.087
  723SOL     OW 3067   2.413   2.964   1.687
  723SOL    HW1 3068   2.507   2.971   1.652
  723SOL    HW2 3069   2.395   3.040   1.750
  724SOL     OW 3070   1.349   1.336   4.787
  724SOL    HW1 3071   1.447   1.354   4.774
  724SOL    HW2 3072   1.304   1.420   4.818
  725SOL     OW 3073   2.936   5.151   1.913
  725SOL    HW1 3074   2.946   5.206   1.830
  725SOL    HW2 3075   2.968   5.058   1.895
  726SOL     OW 3076   3.891   4.421   0.221
  726SOL    HW1 3077   3.895   4.409   0.321
  726SOL    HW2 3078   3.954   4.494   0.194
  727SOL     OW 3079   4.583   5.974   4.258
  727SOL    HW1 3080   4.652   5.986   4.186
  727SOL    HW2 3081   4.536   5.887   4.244
  728SOL     OW 3082   0.247   4.732   5.129
  728SOL    HW1 3083   0.263   4.637   5.100
  728SOL    HW2 3084   0.286   4.747   5.220
  729SOL     OW 3085   2.427   0.622   0.377
  729SOL    HW1 3086   2.399   0.718   0.380
  729SOL    HW2 3087   2.371   0.573   0.310
  730SOL     OW 3088   5.781   0.003   3.373
  730SOL    HW1 3089   5.701   0.035   3.322
  730SOL    HW2 3090   5.833   6.963   3.317
  731SOL     OW 3091   5.553   3.261   6.341
  731SOL    HW1 3092   5.580   3.324   6.415
  731SOL    HW2 3093   5.502   3.312   6.272
  732SOL     OW 3094   0.409   3.662   0.823
  732SOL    HW1 3095   0.457   3.590   0.874
  732SOL    HW2 3096   0.340   3.621   0.765
  733SOL     OW 3097   5.310   4.162   4.776
  733SOL    HW1 3098   5.333   4.259   4.768
  733SOL    HW2 3099   5.391   4.107   4.759
  734SOL     OW 3100   6.451   4.708   2.800
  734SOL    HW1 3101   6.441   4.675   2.894
  734SOL    HW2 3102   6.505   4.792   2.799
  735SOL     OW 3103   3.246   2.425   1.036
  735SOL    HW1 3104   3.189   2.355   1.078
  735SOL    HW2 3105   3.190   2.504   1.012
  736SOL     OW 3106   0.139   6.665   2.396
  736SOL    HW1 3107   0.171   6.687   2.488
  736SOL    HW2 3108   0.213   6.623   2.344
  737SOL     OW 3109   4.880   3.353   0.939
  737SOL    HW1 3110   4.819   3.322   1.012
  737SOL    HW2 3111   4.863   3.300   0.856
  738SOL     OW 3112   1.683   5.210   4.138
  738SOL    HW1 3113   1.599   5.155   4.134
  738SOL    HW2 3114   1.755   5.164   4.087
  739SOL     OW 3115   4.947   6.141   5.541
  739SOL    HW1 3116   4.892   6.147   5.624
  739SOL    HW2 3117   4.977   6.047   5.527
  740SOL     OW 3118   5.566   0.513   0.792
  740SOL    HW1 3119   5.589   0.585   0.727
  740SOL    HW2 3120   5.506   0.550   0.863
  741SOL     OW 3121   2.107   6.312   3.643
  741SOL    HW1 3122   2.016   6.354   3.650
  741SOL    HW2 3123   2.096   6.213   3.630
  742SOL     OW 3124   2.045   6.981   2.331
  742SOL    HW1 3125   2.111   6.930   2.276
  742SOL    HW2 3126   2.065   6.968   2.428
  743SOL     OW 3127   1.500   4.387   4.609
  743SOL    HW1 3128   1.549   4.303   4.631
  743SOL    HW2 3129   1.559   4.449   4.558
  744SOL     OW 3130   6.857   0.072   6.363
  744SOL    HW1 3131   6.793   0.001   6.336
  744SOL    HW2 3132   6.822   0.161   6.333
  745SOL     OW 3133   1.087   6.172   4.412
  745SOL    HW1 3134   1.153   6.097   4.423
  745SOL    HW2 3135   1.086   6.201   4.316
  746SOL     OW 3136   0.335   6.643   5.197
  746SOL    HW1 3137   0.364   6.733   5.164
  746SOL    HW2 3138   0.264   6.607   5.137
  747SOL     OW 3139   4.534   4.946   4.436
  747SOL    HW1 3140   4.479   4.867   4.463
  747SOL    HW2 3141   4.477   5.012   4.389
  748SOL     OW 3142   4.062   5.434   2.818
  748SOL    HW1 3143   4.153   5.414   2.782
  748SOL    HW2 3144   4.069   5.454   2.916
  749SOL     OW 3145   6.862   3.522   5.022
  749SOL    HW1 3146   6.876   3.458   4.946
  749SOL    HW2 3147   6.767   3.518   5.052
  750SOL     OW 3148   1.754   3.111   0.666
  750SOL    HW1 3149   1.699   3.163   0.731
  750SOL    HW2 3150   1.694   3.057   0.607
  751SOL     OW 3151   3.836   1.836   6.035
  751SOL    HW1 3152   3.825   1.798   5.943
  751SOL    HW2 3153   3.746   1.842   6.080
  752SOL     OW 3154   4.095   1.985   2.005
  752SOL    HW1 3155   4.113   2.010   2.100
  752SOL    HW2 3156   4.080   1.886   1.999
  753SOL     OW 3157   2.131   3.245   4.151
  753SOL    HW1 3158   2.064   3.193   4.204
  753SOL    HW2 3159   2.112   3.235   4.054
  754SOL     OW 3160   6.087   3.773   6.154
  754SOL    HW1 3161   6.178   3.812   6.166
  754SOL    HW2 3162   6.019   3.831   6.199
  755SOL     OW 3163   1.136   6.150   0.160
  755SOL    HW1 3164   1.154   6.246   0.136
  755SOL    HW2 3165   1.041   6.128   0.140
  756SOL     OW 3166   4.923   6.847   0.994
  756SOL    HW1 3167   4.880   6.805   1.074
  756SOL    HW2 3168   4.925   6.781   0.919
  757SOL     OW 3169   0.668   5.981   3.150
  757SOL    HW1 3170   0.610   6.020   3.221
  757SOL    HW2 3171   0.611   5.944   3.076
  758SOL     OW 3172   4.019   0.922   1.021
  758SOL    HW1 3173   3.924   0.950   1.031
  758SOL    HW2 3174   4.039   0.846   1.083
  759SOL     OW 3175   6.824   0.914   0.745
  759SOL    HW1 3176   6.854   0.995   0.695
  759SOL    HW2 3177   6.726   0.902   0.733
  760SOL     OW 3178   4.181   1.357   6.566
  760SOL    HW1 3179   4.251   1.398   6.507
  760SOL    HW2 3180   4.100   1.415   6.567
  761SOL     OW 3181   5.158   3.790   6.740
  761SOL    HW1 3182   5.166   3.741   6.826
  761SOL    HW2 3183   5.085   3.749   6.685
  762SOL     OW 3184   2.414   6.156   3.473
  762SOL    HW1 3185   2.391   6.077   3.529
  762SOL    HW2 3186   2.378   6.239   3.517
  763SOL     OW 3187   4.256   5.477   6.389
  763SOL    HW1 3188   4.212   5.521   6.310
  763SOL    HW2 3189   4.273   5.545   6.460
  764SOL     OW 3190   4.722   0.144   4.247
  764SOL    HW1 3191   4.674   0.230   4.234
  764SOL    HW2 3192   4.706   0.084   4.169
  765SOL     OW 3193   1.456   6.432   1.402
  765SOL    HW1 3194   1.491   6.369   1.470
  765SOL    HW2 3195   1.523   6.442   1.328
  766SOL     OW 3196   0.488   1.871   0.345
  766SOL    HW1 3197   0.468   1.780   0.382
  766SOL    HW2 3198   0.426   1.891   0.269
  767SOL     OW 3199   0.517   6.069   2.451
  767SOL    HW1 3200   0.523   6.155   2.401
  767SOL    HW2 3201   0.427   6.061   2.493
  768SOL     OW 3202   2.111   0.586   2.297
  768SOL    HW1 3203   2.099   0.681   2.325
  768SOL    HW2 3204   2.043   0.563   2.228
  769SOL     OW 3205   2.624   6.746   3.788
  769SOL    HW1 3206   2.633   6.798   3.704
  769SOL    HW2 3207   2.690   6.779   3.855
  770SOL     OW 3208   1.849   4.509   2.961
  770SOL    HW1 3209   1.934   4.502   3.015
  770SOL    HW2 3210   1.868   4.484   2.866
  771SOL     OW 3211   1.977   5.365   2.691
  771SOL    HW1 3212   2.056   5.375   2.630
  771SOL    HW2 3213   1.986   5.281   2.744
  772SOL     OW 3214   6.771   5.213   0.591
  772SOL    HW1 3215   6.723   5.128   0.612
  772SOL    HW2 3216   6.823   5.242   0.672
  773SOL     OW 3217   0.643   3.627   3.751
  773SOL    HW1 3218   0.667   3.684   3.672
  773SOL    HW2 3219   0.552   3.650   3.783
  774SOL     OW 3220   1.009   1.578   2.208
  774SOL    HW1 3221   0.923   1.580   2.158
  774SOL    HW2 3222   1.000   1.629   2.293
  775SOL     OW 3223   0.942   1.958   3.429
  775SOL    HW1 3224   1.013   2.015   3.471
  775SOL    HW2 3225   0.934   1.981   3.332
  776SOL     OW 3226   6.939   1.406   5.986
  776SOL    HW1 3227   6.889   1.335   6.036
  776SOL    HW2 3228   7.006   1.448   6.047
  777SOL     OW 3229   3.076   6.544   1.121
  777SOL    HW1 3230   3.054   6.558   1.217
  777SOL    HW2 3231   3.102   6.631   1.080
  778SOL     OW 3232   3.431   1.561   3.901
  778SOL    HW1 3233   3.470   1.563   3.992
  778SOL    HW2 3234   3.498   1.595   3.835
  779SOL     OW 3235   0.806   1.872   2.686
  779SOL    HW1 3236   0.744   1.816   2.631
  779SOL    HW2 3237   0.894   1.825   2.696
  780SOL     OW 3238   5.913   3.712   4.839
  780SOL    HW1 3239   5.981   3.777   4.874
  780SOL    HW2 3240   5.958   3.648   4.776
  781SOL     OW 3241   5.877   1.652   5.995
  781SOL    HW1 3242   5.896   1.566   5.947
  781SOL    HW2 3243   5.914   1.647   6.088
  782SOL     OW 3244   1.221   3.984   0.300
  782SOL    HW1 3245   1.134   3.973   0.250
  782SOL    HW2 3246   1.203   4.030   0.387
  783SOL     OW 3247   3.871   4.435   0.908
  783SOL    HW1 3248   3.882   4.389   0.820
  783SOL    HW2 3249   3.777   4.422   0.940
  784SOL     OW 3250   5.287   6.763   5.757
  784SOL    HW1 3251   5.210   6.763   5.692
  784SOL    HW2 3252   5.266   6.701   5.833
  785SOL     OW 3253   0.075   2.247   3.258
  785SOL    HW1 3254   0.142   2.180   3.226
  785SOL    HW2 3255   0.051   2.227   3.353
  786SOL     OW 3256   1.382   0.634   0.794
  786SOL    HW1 3257   1.439   0.649   0.713
  786SOL    HW2 3258   1.338   0.545   0.788
  787SOL     OW 3259   3.258   1.727   6.241
  787SOL    HW1 3260   3.244   1.811   6.292
  787SOL    HW2 3261   3.178   1.667   6.254
  788SOL     OW 3262   2.322   2.755   4.952
  788SOL    HW1 3263   2.334   2.849   4.983
  788SOL    HW2 3264   2.392   2.697   4.994
  789SOL     OW 3265   5.959   4.194   1.276
  789SOL    HW1 3266   6.018   4.181   1.196
  789SOL    HW2 3267   5.867   4.160   1.255
  790SOL     OW 3268   2.593   1.573   4.002
  790SOL    HW1 3269   2.572   1.476   4.017
  790SOL    HW2 3270   2.548   1.627   4.073
  791SOL     OW 3271   3.767   0.223   3.631
  791SOL    HW1 3272   3.776   0.287   3.554
  791SOL    HW2 3273   3.856   0.207   3.672
  792SOL     OW 3274   0.151   0.312   1.304
  792SOL    HW1 3275   0.250   0.305   1.309
  792SOL    HW2 3276   0.125   0.351   1.215
  793SOL     OW 3277   4.098   6.252   2.245
  793SOL    HW1 3278   4.097   6.242   2.145
  793SOL    HW2 3279   4.057   6.340   2.270
  794SOL     OW 3280   2.683   3.368   5.617
  794SOL    HW1 3281   2.715   3.443   5.559
  794SOL    HW2 3282   2.732   3.284   5.594
  795SOL     OW 3283   2.742   5.429   5.261
  795SOL    HW1 3284   2.667   5.439   5.195
  795SOL    HW2 3285   2.716   5.470   5.348
  796SOL     OW 3286   0.974   2.402   6.590
  796SOL    HW1 3287   0.920   2.320   6.572
  796SOL    HW2 3288   1.039   2.416   6.515
  797SOL     OW 3289   5.474   2.439   2.394
  797SOL    HW1 3290   5.406   2.394   2.451
  797SOL    HW2 3291   5.481   2.535   2.420
  798SOL     OW 3292   4.997   0.212   1.212
  798SOL    HW1 3293   4.909   0.172   1.239
  798SOL    HW2 3294   5.035   0.158   1.136
  799SOL     OW 3295   6.656   1.158   4.091
  799SOL    HW1 3296   6.608   1.242   4.064
  799SOL    HW2 3297   6.755   1.173   4.084
  800SOL     OW 3298   5.682   1.195   2.577
  800SOL    HW1 3299   5.726   1.273   2.621
  800SOL    HW2 3300   5.731   1.172   2.493
  801SOL     OW 3301   1.331   3.786   2.832
  801SOL    HW1 3302   1.365   3.826   2.917
  801SOL    HW2 3303   1.331   3.855   2.760
  802SOL     OW 3304   4.280   0.606   0.369
  802SOL    HW1 3305   4.330   0.572   0.289
  802SOL    HW2 3306   4.241   0.529   0.418
  803SOL     OW 3307   6.974   5.926   5.198
  803SOL    HW1 3308   6.927   5.949   5.113
  803SOL    HW2 3309   6.908   5.925   5.274
  804SOL     OW 3310   6.227   6.109   6.882
  804SOL    HW1 3311   6.163   6.073   6.814
  804SOL    HW2 3312   6.238   6.208   6.867
  805SOL     OW 3313   4.143   2.425   5.818
  805SOL    HW1 3314   4.148   2.346   5.879
  805SOL    HW2 3315   4.049   2.437   5.785
  806SOL     OW 3316   4.347   1.159   4.791
  806SOL    HW1 3317   4.283   1.217   4.740
  806SOL    HW2 3318   4.433   1.207   4.805
  807SOL     OW 3319   0.642   1.587   3.498
  807SOL    HW1 3320   0.661   1.526   3.575
  807SOL    HW2 3321   0.634   1.681   3.531
  808SOL     OW 3322   4.951   3.697   6.573
  808SOL    HW1 3323   4.984   3.737   6.488
  808SOL    HW2 3324   4.988   3.605   6.583
  809SOL     OW 3325   0.921   4.608   1.384
  809SOL    HW1 3326   0.843   4.616   1.323
  809SOL    HW2 3327   1.006   4.610   1.330
  810SOL     OW 3328   4.136   2.531   1.339
  810SOL    HW1 3329   4.049   2.481   1.344
  810SOL    HW2 3330   4.153   2.577   1.426
  811SOL     OW 3331   4.577   5.094   3.544
  811SOL    HW1 3332   4.629   5.111   3.460
  811SOL    HW2 3333   4.580   5.176   3.602
  812SOL     OW 3334   0.121   1.352   1.859
  812SOL    HW1 3335   0.123   1.320   1.954
  812SOL    HW2 3336   0.032   1.333   1.819
  813SOL     OW 3337   4.072   4.754   4.106
  813SOL    HW1 3338   4.049   4.779   4.012
  813SOL    HW2 3339   4.164   4.714   4.109
  814SOL     OW 3340   5.213   6.495   3.603
  814SOL    HW1 3341   5.240   6.407   3.565
  814SOL    HW2 3342   5.156   6.544   3.537
  815SOL     OW 3343   6.529   3.007   2.350
  815SOL    HW1 3344   6.495   2.972   2.263
  815SOL    HW2 3345   6.508   2.942   2.423
  816SOL     OW 3346   6.968   0.055   7.008
  816SOL    HW1 3347   6.901   7.009   6.989
  816SOL    HW2 3348   0.022   0.016   0.030
  817SOL     OW 3349   1.973   3.500   2.086
  817SOL    HW1 3350   1.991   3.583   2.140
  817SOL    HW2 3351   2.058   3.468   2.044
  818SOL     OW 3352   6.593   3.297   1.076
  818SOL    HW1 3353   6.605   3.396   1.075
  818SOL    HW2 3354   6.496   3.275   1.075
  819SOL     OW 3355   6.061   3.134   3.880
  819SOL    HW1 3356   6.030   3.048   3.921
  819SOL    HW2 3357   6.161   3.137   3.880
  820SOL     OW 3358   1.374   2.626   6.136
  820SOL    HW1 3359   1.285   2.605   6.097
  820SOL    HW2 3360   1.445   2.605   6.069
  821SOL     OW 3361   2.665   4.871   0.312
  821SOL    HW1 3362   2.694   4.964   0.288
  821SOL    HW2 3363   2.614   4.831   0.236
  822SOL     OW 3364   1.121   4.991   4.877
  822SOL    HW1 3365   1.178   4.917   4.911
  822SOL    HW2 3366   1.175   5.051   4.817
  823SOL     OW 3367   4.687   4.738   6.784
  823SOL    HW1 3368   4.667   4.646   6.817
  823SOL    HW2 3369   4.633   4.805   6.836
  824SOL     OW 3370   5.724   1.093   5.620
  824SOL    HW1 3371   5.702   1.125   5.528
  824SOL    HW2 3372   5.674   1.148   5.688
  825SOL     OW 3373   1.838   3.862   1.525
  825SOL    HW1 3374   1.761   3.812   1.564
  825SOL    HW2 3375   1.816   3.891   1.432
  826SOL     OW 3376   5.452   3.926   0.463
  826SOL    HW1 3377   5.410   3.836   0.461
  826SOL    HW2 3378   5.418   3.981   0.386
  827SOL     OW 3379   2.916   5.258   5.439
  827SOL    HW1 3380   2.872   5.300   5.518
  827SOL    HW2 3381   2.864   5.278   5.356
  828SOL     OW 3382   6.211   0.730   5.473
  828SOL    HW1 3383   6.151   0.650   5.472
  828SOL    HW2 3384   6.162   0.808   5.433
  829SOL     OW 3385   2.967   3.644   4.482
  829SOL    HW1 3386   3.044   3.686   4.433
  829SOL    HW2 3387   2.931   3.709   4.549
  830SOL     OW 3388   5.247   4.638   5.823
  830SOL    HW1 3389   5.247   4.692   5.739
  830SOL    HW2 3390   5.329   4.581   5.826
  831SOL     OW 3391   6.874   0.634   4.763
  831SOL    HW1 3392   6.922   0.569   4.703
  831SOL    HW2 3393   6.914   0.630   4.855
  832SOL     OW 3394   1.889   0.951   6.867
  832SOL    HW1 3395   1.797   0.966   6.830
  832SOL    HW2 3396   1.892   0.983   6.962
  833SOL     OW 3397   0.699   5.766   6.026
  833SOL    HW1 3398   0.663   5.673   6.015
  833SOL    HW2 3399   0.799   5.764   6.022
  834SOL     OW 3400   3.938   4.093   1.776
  834SOL    HW1 3401   3.880   4.158   1.727
  834SOL    HW2 3402   3.890   4.006   1.786
  835SOL     OW 3403   3.511   0.115   4.106
  835SOL    HW1 3404   3.503   0.097   4.204
  835SOL    HW2 3405   3.527   0.212   4.091
  836SOL     OW 3406   2.795   6.225   6.630
  836SOL    HW1 3407   2.816   6.134   6.665
  836SOL    HW2 3408   2.863   6.251   6.561
  837SOL     OW 3409   5.075   6.723   6.679
  837SOL    HW1 3410   5.013   6.696   6.753
  837SOL    HW2 3411   5.156   6.767   6.718
  838SOL     OW 3412   0.609   0.479   4.447
  838SOL    HW1 3413   0.555   0.427   4.513
  838SOL    HW2 3414   0.661   0.549   4.495
  839SOL     OW 3415   2.609   1.488   2.091
  839SOL    HW1 3416   2.576   1.572   2.049
  839SOL    HW2 3417   2.704   1.500   2.120
  840SOL     OW 3418   5.903   0.477   5.565
  840SOL    HW1 3419   5.821   0.421   5.565
  840SOL    HW2 3420   5.931   0.495   5.471
  841SOL     OW 3421   5.912   4.539   0.558
  841SOL    HW1 3422   5.931   4.542   0.656
  841SOL    HW2 3423   5.834   4.478   0.541
  842SOL     OW 3424   4.245   5.010   4.150
  842SOL    HW1 3425   4.179   4.939   4.171
  842SOL    HW2 3426   4.284   5.046   4.234
  843SOL     OW 3427   4.998   2.098   0.157
  843SOL    HW1 3428   5.088   2.138   0.139
  843SOL    HW2 3429   4.929   2.143   0.100
  844SOL     OW 3430   4.799   6.675   1.217
  844SOL    HW1 3431   4.736   6.725   1.276
  844SOL    HW2 3432   4.868   6.630   1.274
  845SOL     OW 3433   6.510   3.413   4.065
  845SOL    HW1 3434   6.599   3.423   4.021
  845SOL    HW2 3435   6.440   3.397   3.995
  846SOL     OW 3436   5.004   1.528   6.656
  846SOL    HW1 3437   4.963   1.451   6.704
  846SOL    HW2 3438   4.964   1.537   6.565
  847SOL     OW 3439   6.368   3.471   0.690
  847SOL    HW1 3440   6.347   3.556   0.737
  847SOL    HW2 3441   6.303   3.400   0.717
  848SOL     OW 3442   6.130   1.295   6.606
  848SOL    HW1 3443   6.089   1.258   6.523
  848SOL    HW2 3444   6.210   1.351   6.582
  849SOL     OW 3445   0.913   5.702   5.375
  849SOL    HW1 3446   0.964   5.624   5.411
  849SOL    HW2 3447   0.831   5.717   5.431
  850SOL     OW 3448   5.005   0.721   3.300
  850SOL    HW1 3449   4.925   0.687   3.349
  850SOL    HW2 3450   4.980   0.802   3.246
  851SOL     OW 3451   0.011   1.418   0.677
  851SOL    HW1 3452   6.948   1.394   0.637
  851SOL    HW2 3453   0.023   1.369   0.764
  852SOL     OW 3454   2.407   2.648   0.033
  852SOL    HW1 3455   2.381   2.554   0.059
  852SOL    HW2 3456   2.354   2.676   6.979
  853SOL     OW 3457   1.154   3.650   3.663
  853SOL    HW1 3458   1.199   3.733   3.697
  853SOL    HW2 3459   1.058   3.651   3.693
  854SOL     OW 3460   5.145   6.110   2.279
  854SOL    HW1 3461   5.109   6.017   2.269
  854SOL    HW2 3462   5.198   6.116   2.364
  855SOL     OW 3463   6.032   6.681   1.248
  855SOL    HW1 3464   6.036   6.599   1.191
  855SOL    HW2 3465   6.047   6.761   1.190
  856SOL     OW 3466   2.195   1.190   4.972
  856SOL    HW1 3467   2.252   1.271   4.961
  856SOL    HW2 3468   2.101   1.211   4.947
  857SOL     OW 3469   5.902   5.198   1.218
  857SOL    HW1 3470   5.871   5.224   1.126
  857SOL    HW2 3471   5.822   5.186   1.278
  858SOL     OW 3472   2.572   4.623   2.126
  858SOL    HW1 3473   2.569   4.722   2.136
  858SOL    HW2 3474   2.644   4.598   2.061
  859SOL     OW 3475   5.625   5.371   6.563
  859SOL    HW1 3476   5.647   5.440   6.493
  859SOL    HW2 3477   5.616   5.282   6.519
  860SOL     OW 3478   4.633   4.247   0.663
  860SOL    HW1 3479   4.596   4.280   0.750
  860SOL    HW2 3480   4.732   4.258   0.663
  861SOL     OW 3481   2.178   0.037   4.506
  861SOL    HW1 3482   2.235   0.099   4.452
  861SOL    HW2 3483   2.094   0.084   4.532
  862SOL     OW 3484   6.072   3.946   4.911
  862SOL    HW1 3485   6.132   4.015   4.869
  862SOL    HW2 3486   6.057   3.969   5.007
  863SOL     OW 3487   1.325   0.286   0.499
  863SOL    HW1 3488   1.407   0.276   0.443
  863SOL    HW2 3489   1.332   0.226   0.579
  864SOL     OW 3490   5.382   4.501   3.841
  864SOL    HW1 3491   5.405   4.543   3.929
  864SOL    HW2 3492   5.438   4.542   3.769
  865SOL     OW 3493   0.824   6.562   4.955
  865SOL    HW1 3494   0.899   6.496   4.945
  865SOL    HW2 3495   0.751   6.539   4.891
  866SOL     OW 3496   2.001   1.667   1.679
  866SOL    HW1 3497   2.045   1.693   1.594
  866SOL    HW2 3498   2.062   1.609   1.733
  867SOL     OW 3499   2.966   2.397   1.221
  867SOL    HW1 3500   2.966   2.342   1.304
  867SOL    HW2 3501   3.029   2.474   1.232
  868SOL     OW 3502   6.029   6.208   1.267
  868SOL    HW1 3503   6.066   6.299   1.279
  868SOL    HW2 3504   6.094   6.151   1.217
  869SOL     OW 3505   6.176   5.579   3.025
  869SOL    HW1 3506   6.218   5.505   3.078
  869SOL    HW2 3507   6.096   5.544   2.977
  870SOL     OW 3508   5.941   3.877   1.109
  870SOL    HW1 3509   5.871   3.884   1.180
  870SOL    HW2 3510   5.976   3.968   1.087
  871SOL     OW 3511   0.091   3.164   1.989
  871SOL    HW1 3512   0.077   3.067   2.004
  871SOL    HW2 3513   0.022   3.199   1.925
  872SOL     OW 3514   6.626   3.596   4.227
  872SOL    HW1 3515   6.721   3.621   4.205
  872SOL    HW2 3516   6.600   3.516   4.173
  873SOL     OW 3517   4.260   0.669   2.924
  873SOL    HW1 3518   4.346   0.668   2.872
  873SOL    HW2 3519   4.245   0.761   2.960
  874SOL     OW 3520   1.433   4.028   5.290
  874SOL    HW1 3521   1.464   4.086   5.366
  874SOL    HW2 3522   1.333   4.027   5.288
  875SOL     OW 3523   4.895   4.207   0.725
  875SOL    HW1 3524   4.890   4.176   0.820
  875SOL    HW2 3525   4.931   4.301   0.723
  876SOL     OW 3526   6.613   4.466   3.598
  876SOL    HW1 3527   6.526   4.514   3.587
  876SOL    HW2 3528   6.685   4.533   3.615
  877SOL     OW 3529   4.951   4.736   6.770
  877SOL    HW1 3530   5.001   4.783   6.842
  877SOL    HW2 3531   4.854   4.734   6.791
  878SOL     OW 3532   3.994   5.498   6.963
  878SOL    HW1 3533   3.936   5.578   6.949
  878SOL    HW2 3534   4.042   5.476   6.879
  879SOL     OW 3535   4.266   1.636   2.659
  879SOL    HW1 3536   4.192   1.703   2.662
  879SOL    HW2 3537   4.334   1.658   2.730
  880SOL     OW 3538   3.227   4.471   0.162
  880SOL    HW1 3539   3.135   4.444   0.189
  880SOL    HW2 3540   3.284   4.481   0.243
  881SOL     OW 3541   4.313   4.812   5.133
  881SOL    HW1 3542   4.301   4.719   5.097
  881SOL    HW2 3543   4.235   4.869   5.107
  882SOL     OW 3544   2.019   1.458   3.890
  882SOL    HW1 3545   1.992   1.552   3.868
  882SOL    HW2 3546   1.939   1.398   3.883
  883SOL     OW 3547   4.475   5.050   5.606
  883SOL    HW1 3548   4.377   5.053   5.591
  883SOL    HW2 3549   4.508   5.142   5.629
  884SOL     OW 3550   6.856   3.573   2.428
  884SOL    HW1 3551   6.809   3.646   2.477
  884SOL    HW2 3552   6.805   3.551   2.345
  885SOL     OW 3553   5.940   6.654   0.147
  885SOL    HW1 3554   5.994   6.573   0.125
  885SOL    HW2 3555   5.849   6.646   0.107
  886SOL     OW 3556   4.187   1.132   0.331
  886SOL    HW1 3557   4.227   1.040   0.323
  886SOL    HW2 3558   4.131   1.150   0.250
  887SOL     OW 3559   4.315   6.359   5.687
  887SOL    HW1 3560   4.229   6.382   5.641
  887SOL    HW2 3561   4.376   6.437   5.684
  888SOL     OW 3562   7.014   6.169   3.492
  888SOL    HW1 3563   6.924   6.210   3.508
  888SOL    HW2 3564   7.017   6.078   3.533
  889SOL     OW 3565   0.095   0.120   5.819
  889SOL    HW1 3566   0.006   0.088   5.787
  889SOL    HW2 3567   0.125   0.063   5.895
  890SOL     OW 3568   2.852   4.779   2.173
  890SOL    HW1 3569   2.924   4.819   2.116
  890SOL    HW2 3570   2.816   4.697   2.129
  891SOL     OW 3571   5.775   3.515   1.410
  891SOL    HW1 3572   5.785   3.581   1.485
  891SOL    HW2 3573   5.719   3.555   1.337
  892SOL     OW 3574   3.914   3.782   0.628
  892SOL    HW1 3575   3.959   3.719   0.692
  892SOL    HW2 3576   3.823   3.746   0.605
  893SOL     OW 3577   1.642   0.818   0.747
  893SOL    HW1 3578   1.599   0.851   0.831
  893SOL    HW2 3579   1.576   0.766   0.694
  894SOL     OW 3580   2.034   4.301   4.422
  894SOL    HW1 3581   2.066   4.206   4.416
  894SOL    HW2 3582   2.109   4.363   4.400
  895SOL     OW 3583   1.760   7.013   4.492
  895SOL    HW1 3584   1.663   6.988   4.496
  895SOL    HW2 3585   1.807   6.978   4.573
  896SOL     OW 3586   6.012   5.958   4.147
  896SOL    HW1 3587   6.064   5.911   4.219
  896SOL    HW2 3588   6.033   5.917   4.059
  897SOL     OW 3589   4.679   1.141   0.703
  897SOL    HW1 3590   4.622   1.126   0.621
  897SOL    HW2 3591   4.633   1.103   0.783
  898SOL     OW 3592   4.873   6.027   4.163
  898SOL    HW1 3593   4.940   6.058   4.231
  898SOL    HW2 3594   4.850   6.104   4.103
  899SOL     OW 3595   0.513   4.968   7.015
  899SOL    HW1 3596   0.578   4.985   6.941
  899SOL    HW2 3597   0.560   4.972   0.078
  900SOL     OW 3598   6.127   5.936   2.062
  900SOL    HW1 3599   6.092   6.025   2.090
  900SOL    HW2 3600   6.211   5.916   2.113
  901SOL     OW 3601   0.259   1.736   4.511
  901SOL    HW1 3602   0.265   1.818   4.454
  901SOL    HW2 3603   0.306   1.752   4.598
  902SOL     OW 3604   0.157   1.060   6.331
  902SOL    HW1 3605   0.228   1.085   6.397
  902SOL    HW2 3606   0.182   1.094   6.241
  903SOL     OW 3607   6.428   4.566   0.291
  903SOL    HW1 3608   6.430   4.663   0.317
  903SOL    HW2 3609   6.499   4.517   0.341
  904SOL     OW 3610   1.605   1.807   3.972
  904SOL    HW1 3611   1.644   1.894   4.003
  904SOL    HW2 3612   1.515   1.824   3.933
  905SOL     OW 3613   5.230   2.554   0.154
  905SOL    HW1 3614   5.268   2.569   0.063
  905SOL    HW2 3615   5.225   2.456   0.172
  906SOL     OW 3616   0.325   4.241   0.018
  906SOL    HW1 3617   0.389   4.261   0.092
  906SOL    HW2 3618   0.234   4.274   0.044
  907SOL     OW 3619   6.113   2.087   3.058
  907SOL    HW1 3620   6.132   2.000   3.104
  907SOL    HW2 3621   6.137   2.163   3.118
  908SOL     OW 3622   1.082   6.718   4.131
  908SOL    HW1 3623   1.083   6.780   4.053
  908SOL    HW2 3624   1.079   6.771   4.216
  909SOL     OW 3625   2.925   1.082   0.529
  909SOL    HW1 3626   2.964   1.100   0.439
  909SOL    HW2 3627   2.919   0.983   0.543
  910SOL     OW 3628   1.927   0.442   0.925
  910SOL    HW1 3629   1.972   0.469   0.840
  910SOL    HW2 3630   1.834   0.479   0.928
  911SOL     OW 3631   0.312   4.802   1.446
  911SOL    HW1 3632   0.284   4.719   1.399
  911SOL    HW2 3633   0.319   4.784   1.544
  912SOL     OW 3634   0.757   1.376   5.591
  912SOL    HW1 3635   0.810   1.448   5.547
  912SOL    HW2 3636   0.659   1.391   5.575
  913SOL     OW 3637   1.756   0.641   3.432
  913SOL    HW1 3638   1.657   0.651   3.424
  913SOL    HW2 3639   1.796   0.727   3.462
  914SOL     OW 3640   2.560   5.730   4.922
  914SOL    HW1 3641   2.492   5.734   4.995
  914SOL    HW2 3642   2.526   5.779   4.842
  915SOL     OW 3643   0.779   3.308   0.695
  915SOL    HW1 3644   0.761   3.368   0.617
  915SOL    HW2 3645   0.771   3.213   0.666
  916SOL     OW 3646   2.217   2.045   1.919
  916SOL    HW1 3647   2.281   1.984   1.872
  916SOL    HW2 3648   2.125   2.007   1.915
  917SOL     OW 3649   3.888   0.817   1.357
  917SOL    HW1 3650   3.970   0.771   1.323
  917SOL    HW2 3651   3.812   0.753   1.359
  918SOL     OW 3652   3.008   6.223   6.455
  918SOL    HW1 3653   3.058   6.143   6.488
  918SOL    HW2 3654   3.074   6.293   6.427
  919SOL     OW 3655   1.640   6.594   1.991
  919SOL    HW1 3656   1.558   6.577   2.045
  919SOL    HW2 3657   1.629   6.556   1.900
  920SOL     OW 3658   2.369   0.745   2.836
  920SOL    HW1 3659   2.346   0.755   2.739
  920SOL    HW2 3660   2.365   0.834   2.881
  921SOL     OW 3661   6.089   4.501   4.052
  921SOL    HW1 3662   6.119   4.551   4.134
  921SOL    HW2 3663   6.043   4.417   4.080
  922SOL     OW 3664   3.486   3.822   6.408
  922SOL    HW1 3665   3.566   3.821   6.347
  922SOL    HW2 3666   3.515   3.850   6.500
  923SOL     OW 3667   2.569   6.001   0.203
  923SOL    HW1 3668   2.490   6.001   0.143
  923SOL    HW2 3669   2.626   5.921   0.185
  924SOL     OW 3670   5.308   2.856   2.247
  924SOL    HW1 3671   5.326   2.777   2.189
  924SOL    HW2 3672   5.267   2.825   2.334
  925SOL     OW 3673   6.753   1.893   5.789
  925SOL    HW1 3674   6.777   1.946   5.708
  925SOL    HW2 3675   6.793   1.936   5.870
  926SOL     OW 3676   5.871   0.078   0.363
  926SOL    HW1 3677   5.791   0.109   0.413
  926SOL    HW2 3678   5.865   7.004   0.348
  927SOL     OW 3679   4.777   4.058   3.566
  927SOL    HW1 3680   4.770   4.113   3.483
  927SOL    HW2 3681   4.782   3.961   3.542
  928SOL     OW 3682   1.503   0.047   0.846
  928SOL    HW1 3683   1.405   0.035   0.861
  928SOL    HW2 3684   1.554   0.013   0.925
  929SOL     OW 3685   0.048   2.905   2.056
  929SOL    HW1 3686   7.017   2.858   2.124
  929SOL    HW2 3687   0.075   2.840   1.985
  930SOL     OW 3688   6.274   4.826   4.332
  930SOL    HW1 3689   6.336   4.842   4.256
  930SOL    HW2 3690   6.238   4.733   4.326
  931SOL     OW 3691   0.145   3.245   3.214
  931SOL    HW1 3692   0.048   3.258   3.194
  931SOL    HW2 3693   0.185   3.182   3.148
  932SOL     OW 3694   3.559   6.343   2.046
  932SOL    HW1 3695   3.480   6.349   2.107
  932SOL    HW2 3696   3.628   6.284   2.088
  933SOL     OW 3697   1.115   4.449   3.245
  933SOL    HW1 3698   1.044   4.394   3.201
  933SOL    HW2 3699   1.080   4.487   3.330
  934SOL     OW 3700   2.624   1.292   4.656
  934SOL    HW1 3701   2.557   1.251   4.595
  934SOL    HW2 3702   2.687   1.221   4.688
  935SOL     OW 3703   4.882   3.864   6.160
  935SOL    HW1 3704   4.850   3.882   6.067
  935SOL    HW2 3705   4.811   3.891   6.225
  936SOL     OW 3706   0.213   6.710   0.928
  936SOL    HW1 3707   0.308   6.683   0.944
  936SOL    HW2 3708   0.210   6.780   0.856
  937SOL     OW 3709   5.187   1.630   4.278
  937SOL    HW1 3710   5.182   1.537   4.241
  937SOL    HW2 3711   5.137   1.693   4.219
  938SOL     OW 3712   0.468   4.127   6.543
  938SOL    HW1 3713   0.434   4.145   6.635
  938SOL    HW2 3714   0.552   4.073   6.548
  939SOL     OW 3715   5.241   1.155   6.215
  939SOL    HW1 3716   5.233   1.199   6.305
  939SOL    HW2 3717   5.153   1.162   6.167
  940SOL     OW 3718   6.900   1.548   2.844
  940SOL    HW1 3719   6.916   1.578   2.938
  940SOL    HW2 3720   6.968   1.479   2.819
  941SOL     OW 3721   5.822   1.232   3.919
  941SOL    HW1 3722   5.902   1.174   3.927
  941SOL    HW2 3723   5.826   1.284   3.834
  942SOL     OW 3724   5.104   0.128   4.941
  942SOL    HW1 3725   5.169   0.136   4.866
  942SOL    HW2 3726   5.109   0.037   4.980
  943SOL     OW 3727   0.248   3.378   2.437
  943SOL    HW1 3728   0.174   3.331   2.390
  943SOL    HW2 3729   0.211   3.453   2.492
  944SOL     OW 3730   6.243   3.696   4.873
  944SOL    HW1 3731   6.328   3.709   4.823
  944SOL    HW2 3732   6.196   3.784   4.884
  945SOL     OW 3733   5.024   4.650   4.289
  945SOL    HW1 3734   4.994   4.730   4.342
  945SOL    HW2 3735   4.989   4.567   4.332
  946SOL     OW 3736   6.246   2.734   6.234
  946SOL    HW1 3737   6.320   2.668   6.223
  946SOL    HW2 3738   6.204   2.723   6.324
  947SOL     OW 3739   3.283   3.831   6.216
  947SOL    HW1 3740   3.217   3.821   6.290
  947SOL    HW2 3741   3.373   3.800   6.246
  948SOL     OW 3742   4.055   1.172   0.093
  948SOL    HW1 3743   4.004   1.087   0.080
  948SOL    HW2 3744   4.029   1.238   0.022
  949SOL     OW 3745   6.794   6.124   5.836
  949SOL    HW1 3746   6.790   6.072   5.921
  949SOL    HW2 3747   6.713   6.182   5.829
  950SOL     OW 3748   3.989   5.183   2.571
  950SOL    HW1 3749   3.947   5.141   2.490
  950SOL    HW2 3750   4.066   5.126   2.601
  951SOL     OW 3751   0.842   0.396   1.849
  951SOL    HW1 3752   0.764   0.445   1.888
  951SOL    HW2 3753   0.922   0.409   1.908
  952SOL     OW 3754   5.477   2.102   2.588
  952SOL    HW1 3755   5.397   2.067   2.635
  952SOL    HW2 3756   5.485   2.058   2.498
  953SOL     OW 3757   4.528   5.970   5.603
  953SOL    HW1 3758   4.515   6.064   5.636
  953SOL    HW2 3759   4.515   5.907   5.679
  954SOL     OW 3760   5.886   7.017   1.202
  954SOL    HW1 3761   5.818   0.062   1.178
  954SOL    HW2 3762   5.897   7.014   1.302
  955SOL     OW 3763   0.748   4.999   3.799
  955SOL    HW1 3764   0.653   4.966   3.794
  955SOL    HW2 3765   0.767   5.031   3.892
  956SOL     OW 3766   1.033   1.533   1.159
  956SOL    HW1 3767   1.133   1.529   1.154
  956SOL    HW2 3768   1.000   1.612   1.108
  957SOL     OW 3769   1.529   4.999   5.511
  957SOL    HW1 3770   1.433   4.972   5.503
  957SOL    HW2 3771   1.563   5.030   5.422
  958SOL     OW 3772   5.484   2.008   0.600
  958SOL    HW1 3773   5.434   1.944   0.659
  958SOL    HW2 3774   5.526   1.957   0.525
  959SOL     OW 3775   2.804   4.796   2.954
  959SOL    HW1 3776   2.739   4.772   2.883
  959SOL    HW2 3777   2.791   4.892   2.980
  960SOL     OW 3778   1.238   5.918   4.404
  960SOL    HW1 3779   1.241   5.819   4.421
  960SOL    HW2 3780   1.309   5.942   4.338
  961SOL     OW 3781   4.061   6.797   2.131
  961SOL    HW1 3782   4.133   6.809   2.199
  961SOL    HW2 3783   3.975   6.834   2.167
  962SOL     OW 3784   1.394   1.301   3.646
  962SOL    HW1 3785   1.423   1.326   3.553
  962SOL    HW2 3786   1.475   1.281   3.701
  963SOL     OW 3787   6.314   0.374   0.614
  963SOL    HW1 3788   6.275   0.339   0.529
  963SOL    HW2 3789   6.407   0.340   0.625
  964SOL     OW 3790   5.386   3.084   0.908
  964SOL    HW1 3791   5.397   3.168   0.856
  964SOL    HW2 3792   5.310   3.094   0.972
  965SOL     OW 3793   6.072   2.003   0.770
  965SOL    HW1 3794   6.019   2.071   0.720
  965SOL    HW2 3795   6.085   2.033   0.864
  966SOL     OW 3796   5.956   1.332   2.984
  966SOL    HW1 3797   5.891   1.273   2.936
  966SOL    HW2 3798   6.042   1.284   2.996
  967SOL     OW 3799   1.398   5.660   1.113
  967SOL    HW1 3800   1.453   5.744   1.116
  967SOL    HW2 3801   1.307   5.681   1.078
  968SOL     OW 3802   4.894   2.461   2.270
  968SOL    HW1 3803   4.944   2.511   2.199
  968SOL    HW2 3804   4.801   2.498   2.277
  969SOL     OW 3805   3.528   5.740   5.420
  969SOL    HW1 3806   3.563   5.649   5.399
  969SOL    HW2 3807   3.491   5.782   5.338
  970SOL     OW 3808   4.546   1.634   5.424
  970SOL    HW1 3809   4.545   1.694   5.504
  970SOL    HW2 3810   4.629   1.577   5.426
  971SOL     OW 3811   0.083   1.089   2.462
  971SOL    HW1 3812   0.105   1.014   2.398
  971SOL    HW2 3813   0.097   1.058   2.556
  972SOL     OW 3814   5.901   4.489   0.830
  972SOL    HW1 3815   5.861   4.429   0.899
  972SOL    HW2 3816   5.911   4.581   0.867
  973SOL     OW 3817   0.369   4.872   6.559
  973SOL    HW1 3818   0.418   4.790   6.589
  973SOL    HW2 3819   0.393   4.948   6.619
  974SOL     OW 3820   3.609   0.810   2.389
  974SOL    HW1 3821   3.647   0.866   2.463
  974SOL    HW2 3822   3.574   0.724   2.428
  975SOL     OW 3823   2.832   6.311   6.221
  975SOL    HW1 3824   2.858   6.298   6.316
  975SOL    HW2 3825   2.738   6.278   6.207
  976SOL     OW 3826   6.868   2.790   2.185
  976SOL    HW1 3827   6.904   2.734   2.259
  976SOL    HW2 3828   6.811   2.734   2.126
  977SOL     OW 3829   1.999   1.487   4.185
  977SOL    HW1 3830   1.970   1.447   4.098
  977SOL    HW2 3831   1.919   1.501   4.243
  978SOL     OW 3832   5.259   3.873   4.705
  978SOL    HW1 3833   5.250   3.971   4.721
  978SOL    HW2 3834   5.179   3.826   4.743
  979SOL     OW 3835   6.358   1.297   3.264
  979SOL    HW1 3836   6.418   1.377   3.265
  979SOL    HW2 3837   6.301   1.297   3.346
  980SOL     OW 3838   5.247   2.286   3.472
  980SOL    HW1 3839   5.347   2.287   3.470
  980SOL    HW2 3840   5.213   2.380   3.471
  981SOL     OW 3841   1.673   1.805   4.943
  981SOL    HW1 3842   1.736   1.786   4.868
  981SOL    HW2 3843   1.702   1.889   4.990
  982SOL     OW 3844   1.936   2.648   2.667
  982SOL    HW1 3845   2.013   2.645   2.603
  982SOL    HW2 3846   1.965   2.694   2.751
  983SOL     OW 3847   5.891   2.577   3.738
  983SOL    HW1 3848   5.891   2.676   3.719
  983SOL    HW2 3849   5.806   2.537   3.703
  984SOL     OW 3850   4.160   0.325   4.820
  984SOL    HW1 3851   4.157   0.424   4.829
  984SOL    HW2 3852   4.068   0.288   4.836
  985SOL     OW 3853   4.517   4.812   7.001
  985SOL    HW1 3854   4.478   4.729   0.013
  985SOL    HW2 3855   4.444   4.872   6.969
  986SOL     OW 3856   5.464   5.660   6.941
  986SOL    HW1 3857   5.467   5.589   7.011
  986SOL    HW2 3858   5.451   5.618   6.851
  987SOL     OW 3859   3.672   6.592   1.175
  987SOL    HW1 3860   3.766   6.575   1.147
  987SOL    HW2 3861   3.671   6.656   1.251
  988SOL     OW 3862   4.373   2.336   1.189
  988SOL    HW1 3863   4.341   2.298   1.276
  988SOL    HW2 3864   4.473   2.330   1.186
  989SOL     OW 3865   0.674   0.931   5.689
  989SOL    HW1 3866   0.708   0.846   5.731
  989SOL    HW2 3867   0.580   0.918   5.658
  990SOL     OW 3868   5.115   6.755   3.954
  990SOL    HW1 3869   5.099   6.674   3.897
  990SOL    HW2 3870   5.210   6.755   3.985
  991SOL     OW 3871   1.819   1.739   4.726
  991SOL    HW1 3872   1.918   1.756   4.727
  991SOL    HW2 3873   1.775   1.806   4.666
  992SOL     OW 3874   0.679   3.055   0.237
  992SOL    HW1 3875   0.630   3.074   0.152
  992SOL    HW2 3876   0.704   2.958   0.240
  993SOL     OW 3877   2.446   5.512   2.356
  993SOL    HW1 3878   2.470   5.601   2.394
  993SOL    HW2 3879   2.355   5.516   2.316
  994SOL     OW 3880   3.548   3.837   2.678
  994SOL    HW1 3881   3.584   3.856   2.769
  994SOL    HW2 3882   3.453   3.805   2.685
  995SOL     OW 3883   2.268   2.417   6.225
  995SOL    HW1 3884   2.245   2.514   6.225
  995SOL    HW2 3885   2.366   2.406   6.244
  996SOL     OW 3886   1.703   3.944   4.103
  996SOL    HW1 3887   1.701   3.874   4.174
  996SOL    HW2 3888   1.746   3.907   4.021
  997SOL     OW 3889   6.938   0.056   1.713
  997SOL    HW1 3890   7.001   0.099   1.648
  997SOL    HW2 3891   6.869   0.123   1.741
  998SOL     OW 3892   4.682   0.020   3.331
  998SOL    HW1 3893   4.592   7.003   3.342
  998SOL    HW2 3894   4.720   7.020   3.242
  999SOL     OW 3895   5.203   5.692   1.450
  999SOL    HW1 3896   5.282   5.742   1.485
  999SOL    HW2 3897   5.121   5.721   1.499
 1000SOL     OW 3898   0.570   1.240   2.572
 1000SOL    HW1 3899   0.640   1.285   2.517
 1000SOL    HW2 3900   0.489   1.224   2.516
 1001SOL     OW 3901   4.375   6.679   6.585
 1001SOL    HW1 3902   4.349   6.708   6.493
 1001SOL    HW2 3903   4.466   6.714   6.607
 1002SOL     OW 3904   5.276   1.533   6.617
 1002SOL    HW1 3905   5.268   1.473   6.538
 1002SOL    HW2 3906   5.188   1.537   6.664
 1003SOL     OW 3907   2.731   0.026   1.760
 1003SOL    HW1 3908   2.685   6.982   1.704
 1003SOL    HW2 3909   2.665   0.065   1.825
 1004SOL     OW 3910   6.919   0.654   0.259
 1004SOL    HW1 3911   6.825   0.630   0.281
 1004SOL    HW2 3912   6.968   0.573   0.227
 1005SOL     OW 3913   6.967   0.728   3.095
 1005SOL    HW1 3914   6.942   0.792   3.022
 1005SOL    HW2 3915   6.896   0.729   3.166
 1006SOL     OW 3916   2.260   5.969   1.136
 1006SOL    HW1 3917   2.185   6.032   1.121
 1006SOL    HW2 3918   2.293   5.979   1.230
 1007SOL     OW 3919   6.079   6.802   3.498
 1007SOL    HW1 3920   6.129   6.784   3.413
 1007SOL    HW2 3921   6.142   6.830   3.570
 1008SOL     OW 3922   1.396   2.966   4.400
 1008SOL    HW1 3923   1.419   2.926   4.311
 1008SOL    HW2 3924   1.329   3.038   4.387
 1009SOL     OW 3925   6.792   5.198   3.954
 1009SOL    HW1 3926   6.807   5.262   4.029
 1009SOL    HW2 3927   6.726   5.237   3.890
 1010SOL     OW 3928   4.212   2.566   0.259
 1010SOL    HW1 3929   4.223   2.664   0.274
 1010SOL    HW2 3930   4.276   2.515   0.317
 1011SOL     OW 3931   3.179   5.068   3.097
 1011SOL    HW1 3932   3.113   5.005   3.137
 1011SOL    HW2 3933   3.193   5.145   3.160
 1012SOL     OW 3934   6.360   5.402   0.591
 1012SOL    HW1 3935   6.304   5.337   0.643
 1012SOL    HW2 3936   6.366   5.488   0.642
 1013SOL     OW 3937   0.282   1.533   6.574
 1013SOL    HW1 3938   0.373   1.522   6.533
 1013SOL    HW2 3939   0.224   1.586   6.513
 1014SOL     OW 3940   5.448   5.445   6.741
 1014SOL    HW1 3941   5.467   5.369   6.802
 1014SOL    HW2 3942   5.502   5.435   6.658
 1015SOL     OW 3943   3.582   6.838   4.872
 1015SOL    HW1 3944   3.523   6.804   4.798
 1015SOL    HW2 3945   3.526   6.853   4.954
 1016SOL     OW 3946   2.115   2.987   0.871
 1016SOL    HW1 3947   2.078   3.050   0.939
 1016SOL    HW2 3948   2.172   3.037   0.806
 1017SOL     OW 3949   4.454   2.736   0.406
 1017SOL    HW1 3950   4.361   2.772   0.403
 1017SOL    HW2 3951   4.451   2.637   0.422
 1018SOL     OW 3952   1.837   3.527   3.965
 1018SOL    HW1 3953   1.824   3.450   3.902
 1018SOL    HW2 3954   1.781   3.604   3.934
 1019SOL     OW 3955   0.546   0.933   0.218
 1019SOL    HW1 3956   0.573   0.848   0.172
 1019SOL    HW2 3957   0.448   0.930   0.237
 1020SOL     OW 3958   1.124   6.752   1.148
 1020SOL    HW1 3959   1.177   6.712   1.222
 1020SOL    HW2 3960   1.040   6.700   1.134
 1021SOL     OW 3961   6.019   1.055   1.076
 1021SOL    HW1 3962   6.067   0.971   1.049
 1021SOL    HW2 3963   6.085   1.120   1.114
 1022SOL     OW 3964   4.336   5.080   6.203
 1022SOL    HW1 3965   4.307   5.016   6.275
 1022SOL    HW2 3966   4.433   5.068   6.185
 1023SOL     OW 3967   0.053   0.046   2.868
 1023SOL    HW1 3968   0.017   0.090   2.950
 1023SOL    HW2 3969   0.125   7.006   2.894
 1024SOL     OW 3970   6.493   2.628   4.445
 1024SOL    HW1 3971   6.421   2.696   4.431
 1024SOL    HW2 3972   6.581   2.668   4.423
 1025SOL     OW 3973   3.646   4.344   0.143
 1025SOL    HW1 3974   3.612   4.257   0.180
 1025SOL    HW2 3975   3.744   4.351   0.161
 1026SOL     OW 3976   1.460   1.362   0.731
 1026SOL    HW1 3977   1.433   1.266   0.723
 1026SOL    HW2 3978   1.380   1.420   0.714
 1027SOL     OW 3979   3.077   5.771   1.795
 1027SOL    HW1 3980   3.093   5.706   1.870
 1027SOL    HW2 3981   3.159   5.777   1.738
 1028SOL     OW 3982   3.047   6.100   0.134
 1028SOL    HW1 3983   3.057   6.182   0.190
 1028SOL    HW2 3984   2.991   6.121   0.053
 1029SOL     OW 3985   2.122   0.955   0.185
 1029SOL    HW1 3986   2.178   1.018   0.132
 1029SOL    HW2 3987   2.030   0.951   0.147
 1030SOL     OW 3988   3.651   2.854   3.259
 1030SOL    HW1 3989   3.616   2.873   3.351
 1030SOL    HW2 3990   3.746   2.882   3.254
 1031SOL     OW 3991   4.462   5.513   1.292
 1031SOL    HW1 3992   4.469   5.589   1.228
 1031SOL    HW2 3993   4.366   5.494   1.311
 1032SOL     OW 3994   1.671   1.608   5.352
 1032SOL    HW1 3995   1.730   1.689   5.350
 1032SOL    HW2 3996   1.577   1.635   5.330
 1033SOL     OW 3997   1.688   6.970   1.655
 1033SOL    HW1 3998   1.663   6.932   1.566
 1033SOL    HW2 3999   1.745   0.026   1.642
 1034SOL     OW 4000   2.073   6.350   4.634
 1034SOL    HW1 4001   2.142   6.389   4.572
 1034SOL    HW2 4002   1.983   6.386   4.610
 1035SOL     OW 4003   2.718   1.708   3.549
 1035SOL    HW1 4004   2.709   1.631   3.486
 1035SOL    HW2 4005   2.812   1.712   3.584
 1036SOL     OW 4006   3.506   0.029   1.017
 1036SOL    HW1 4007   3.488   0.078   1.103
 1036SOL    HW2 4008   3.547   0.092   0.951
 1037SOL     OW 4009   1.114   1.147   1.369
 1037SOL    HW1 4010   1.062   1.214   1.316
 1037SOL    HW2 4011   1.141   1.071   1.310
 1038SOL     OW 4012   0.614   1.108   5.091
 1038SOL    HW1 4013   0.566   1.196   5.097
 1038SOL    HW2 4014   0.710   1.121   5.115
 1039SOL     OW 4015   4.517   1.816   5.609
 1039SOL    HW1 4016   4.598   1.869   5.582
 1039SOL    HW2 4017   4.495   1.835   5.705
 1040SOL     OW 4018   5.552   2.846   3.263
 1040SOL    HW1 4019   5.603   2.932   3.263
 1040SOL    HW2 4020   5.522   2.825   3.356
 1041SOL     OW 4021   6.555   7.002   4.513
 1041SOL    HW1 4022   6.561   0.066   4.469
 1041SOL    HW2 4023   6.459   6.974   4.518
 1042SOL     OW 4024   3.549   5.200   2.953
 1042SOL    HW1 4025   3.472   5.257   2.925
 1042SOL    HW2 4026   3.517   5.127   3.012
 1043SOL     OW 4027   3.981   1.049   6.234
 1043SOL    HW1 4028   4.001   1.050   6.136
 1043SOL    HW2 4029   3.958   0.955   6.262
 1044SOL     OW 4030   4.182   2.647   1.635
 1044SOL    HW1 4031   4.264   2.615   1.683
 1044SOL    HW2 4032   4.187   2.746   1.624
 1045SOL     OW 4033   2.948   6.961   1.541
 1045SOL    HW1 4034   2.873   7.003   1.491
 1045SOL    HW2 4035   2.914   6.920   1.626
 1046SOL     OW 4036   2.550   6.920   6.184
 1046SOL    HW1 4037   2.642   6.880   6.191
 1046SOL    HW2 4038   2.484   6.848   6.164
 1047SOL     OW 4039   1.571   5.477   2.834
 1047SOL    HW1 4040   1.615   5.527   2.759
 1047SOL    HW2 4041   1.568   5.380   2.812
 1048SOL     OW 4042   4.904   5.510   5.345
 1048SOL    HW1 4043   4.964   5.570   5.292
 1048SOL    HW2 4044   4.844   5.565   5.404
 1049SOL     OW 4045   0.454   4.298   4.974
 1049SOL    HW1 4046   0.551   4.286   4.997
 1049SOL    HW2 4047   0.444   4.299   4.875
 1050SOL     OW 4048   2.453   5.437   0.871
 1050SOL    HW1 4049   2.480   5.430   0.967
 1050SOL    HW2 4050   2.496   5.363   0.819
 1051SOL     OW 4051   3.922   4.418   0.475
 1051SOL    HW1 4052   3.900   4.352   0.546
 1051SOL    HW2 4053   3.889   4.508   0.502
 1052SOL     OW 4054   4.582   0.654   4.090
 1052SOL    HW1 4055   4.635   0.583   4.136
 1052SOL    HW2 4056   4.531   0.613   4.015
 1053SOL     OW 4057   6.002   5.839   3.600
 1053SOL    HW1 4058   6.040   5.778   3.530
 1053SOL    HW2 4059   5.943   5.906   3.556
 1054SOL     OW 4060   2.687   4.684   5.581
 1054SOL    HW1 4061   2.720   4.681   5.675
 1054SOL    HW2 4062   2.606   4.627   5.571
 1055SOL     OW 4063   5.575   5.869   4.770
 1055SOL    HW1 4064   5.516   5.874   4.850
 1055SOL    HW2 4065   5.520   5.866   4.687
 1056SOL     OW 4066   1.672   6.245   5.605
 1056SOL    HW1 4067   1.749   6.222   5.545
 1056SOL    HW2 4068   1.673   6.343   5.625
 1057SOL     OW 4069   3.081   4.001   2.904
 1057SOL    HW1 4070   3.143   4.014   2.827
 1057SOL    HW2 4071   2.987   3.997   2.871
 1058SOL     OW 4072   4.738   1.125   2.297
 1058SOL    HW1 4073   4.784   1.116   2.208
 1058SOL    HW2 4074   4.639   1.126   2.284
 1059SOL     OW 4075   3.259   0.708   1.746
 1059SOL    HW1 4076   3.247   0.659   1.661
 1059SOL    HW2 4077   3.233   0.804   1.733
 1060SOL     OW 4078   0.042   3.619   5.612
 1060SOL    HW1 4079   0.104   3.668   5.673
 1060SOL    HW2 4080   0.036   3.524   5.640
 1061SOL     OW 4081   4.180   4.578   0.947
 1061SOL    HW1 4082   4.228   4.666   0.941
 1061SOL    HW2 4083   4.082   4.594   0.956
 1062SOL     OW 4084   7.022   6.171   5.739
 1062SOL    HW1 4085   6.925   6.156   5.756
 1062SOL    HW2 4086   0.009   6.216   5.650
 1063SOL     OW 4087   1.291   4.264   0.807
 1063SOL    HW1 4088   1.332   4.258   0.716
 1063SOL    HW2 4089   1.207   4.212   0.810
 1064SOL     OW 4090   1.214   3.602   2.484
 1064SOL    HW1 4091   1.176   3.584   2.575
 1064SOL    HW2 4092   1.204   3.699   2.463
 1065SOL     OW 4093   4.296   0.971   5.140
 1065SOL    HW1 4094   4.396   0.966   5.135
 1065SOL    HW2 4095   4.260   1.006   5.053
 1066SOL     OW 4096   5.104   0.582   4.362
 1066SOL    HW1 4097   5.099   0.501   4.421
 1066SOL    HW2 4098   5.199   0.595   4.332
 1067SOL     OW 4099   1.273   2.919   0.788
 1067SOL    HW1 4100   1.277   2.948   0.883
 1067SOL    HW2 4101   1.183   2.941   0.750
 1068SOL     OW 4102   5.936   3.394   1.246
 1068SOL    HW1 4103   5.888   3.440   1.321
 1068SOL    HW2 4104   6.026   3.365   1.277
 1069SOL     OW 4105   4.477   4.609   1.058
 1069SOL    HW1 4106   4.457   4.662   0.976
 1069SOL    HW2 4107   4.402   4.621   1.124
 1070SOL     OW 4108   1.252   0.932   6.666
 1070SOL    HW1 4109   1.174   0.910   6.608
 1070SOL    HW2 4110   1.274   1.029   6.656
 1071SOL     OW 4111   3.742   0.539   3.518
 1071SOL    HW1 4112   3.792   0.621   3.546
 1071SOL    HW2 4113   3.655   0.535   3.568
 1072SOL     OW 4114   2.144   6.176   2.401
 1072SOL    HW1 4115   2.135   6.233   2.483
 1072SOL    HW2 4116   2.057   6.131   2.381
 1073SOL     OW 4117   3.264   6.003   2.244
 1073SOL    HW1 4118   3.193   6.061   2.283
 1073SOL    HW2 4119   3.224   5.917   2.212
 1074SOL     OW 4120   2.297   5.800   1.555
 1074SOL    HW1 4121   2.305   5.702   1.537
 1074SOL    HW2 4122   2.245   5.815   1.639
 1075SOL     OW 4123   4.821   5.162   3.400
 1075SOL    HW1 4124   4.874   5.182   3.483
 1075SOL    HW2 4125   4.786   5.248   3.361
 1076SOL     OW 4126   0.732   4.617   5.181
 1076SOL    HW1 4127   0.756   4.597   5.086
 1076SOL    HW2 4128   0.700   4.711   5.188
 1077SOL     OW 4129   6.122   6.842   0.013
 1077SOL    HW1 4130   6.082   6.751   0.009
 1077SOL    HW2 4131   6.166   6.856   0.102
 1078SOL     OW 4132   1.553   1.238   2.199
 1078SOL    HW1 4133   1.567   1.324   2.151
 1078SOL    HW2 4134   1.637   1.185   2.199
 1079SOL     OW 4135   2.243   4.909   3.620
 1079SOL    HW1 4136   2.192   4.954   3.546
 1079SOL    HW2 4137   2.306   4.842   3.581
 1080SOL     OW 4138   1.988   4.685   3.421
 1080SOL    HW1 4139   1.951   4.595   3.395
 1080SOL    HW2 4140   2.085   4.689   3.397
 1081SOL     OW 4141   0.218   1.765   5.439
 1081SOL    HW1 4142   0.179   1.684   5.484
 1081SOL    HW2 4143   0.197   1.761   5.341
 1082SOL     OW 4144   1.598   0.094   5.688
 1082SOL    HW1 4145   1.555   0.165   5.633
 1082SOL    HW2 4146   1.591   0.118   5.785
 1083SOL     OW 4147   4.015   3.705   2.014
 1083SOL    HW1 4148   4.044   3.759   1.935
 1083SOL    HW2 4149   4.095   3.662   2.056
 1084SOL     OW 4150   6.679   5.502   0.805
 1084SOL    HW1 4151   6.582   5.503   0.784
 1084SOL    HW2 4152   6.732   5.487   0.721
 1085SOL     OW 4153   1.859   4.188   4.051
 1085SOL    HW1 4154   1.805   4.108   4.079
 1085SOL    HW2 4155   1.813   4.271   4.083
 1086SOL     OW 4156   6.031   5.692   3.370
 1086SOL    HW1 4157   6.080   5.755   3.310
 1086SOL    HW2 4158   5.934   5.691   3.344
 1087SOL     OW 4159   5.102   2.849   5.783
 1087SOL    HW1 4160   5.066   2.863   5.875
 1087SOL    HW2 4161   5.043   2.894   5.716
 1088SOL     OW 4162   5.791   4.440   3.479
 1088SOL    HW1 4163   5.842   4.439   3.393
 1088SOL    HW2 4164   5.847   4.403   3.552
 1089SOL     OW 4165   0.760   0.901   4.180
 1089SOL    HW1 4166   0.709   0.964   4.238
 1089SOL    HW2 4167   0.790   0.822   4.234
 1090SOL     OW 4168   2.919   1.336   4.604
 1090SOL    HW1 4169   2.899   1.371   4.696
 1090SOL    HW2 4170   2.835   1.302   4.562
 1091SOL     OW 4171   1.902   1.975   3.659
 1091SOL    HW1 4172   1.974   1.936   3.716
 1091SOL    HW2 4173   1.840   2.029   3.717
 1092SOL     OW 4174   2.371   3.894   1.756
 1092SOL    HW1 4175   2.354   3.944   1.671
 1092SOL    HW2 4176   2.293   3.836   1.777
 1093SOL     OW 4177   1.859   1.776   2.712
 1093SOL    HW1 4178   1.823   1.829   2.789
 1093SOL    HW2 4179   1.899   1.837   2.644
 1094SOL     OW 4180   0.073   6.364   2.344
 1094SOL    HW1 4181   0.101   6.397   2.435
 1094SOL    HW2 4182   7.024   6.421   2.309
 1095SOL     OW 4183   5.964   2.236   6.233
 1095SOL    HW1 4184   5.882   2.197   6.275
 1095SOL    HW2 4185   5.970   2.206   6.138
 1096SOL     OW 4186   3.669   5.056   1.612
 1096SOL    HW1 4187   3.718   5.042   1.525
 1096SOL    HW2 4188   3.574   5.078   1.593
 1097SOL     OW 4189   1.310   4.801   4.920
 1097SOL    HW1 4190   1.380   4.836   4.858
 1097SOL    HW2 4191   1.330   4.706   4.944
 1098SOL     OW 4192   5.188   2.235   0.852
 1098SOL    HW1 4193   5.166   2.207   0.758
 1098SOL    HW2 4194   5.207   2.333   0.854
 1099SOL     OW 4195   4.278   1.663   4.707
 1099SOL    HW1 4196   4.201   1.726   4.695
 1099SOL    HW2 4197   4.257   1.598   4.780
 1100SOL     OW 4198   0.841   1.724   6.343
 1100SOL    HW1 4199   0.785   1.721   6.426
 1100SOL    HW2 4200   0.851   1.819   6.313
 1101SOL     OW 4201   5.400   3.206   1.237
 1101SOL    HW1 4202   5.462   3.237   1.308
 1101SOL    HW2 4203   5.451   3.159   1.165
 1102SOL     OW 4204   1.034   4.779   3.983
 1102SOL    HW1 4205   0.957   4.772   4.046
 1102SOL    HW2 4206   1.100   4.846   4.018
 1103SOL     OW 4207   2.183   1.138   1.730
 1103SOL    HW1 4208   2.215   1.172   1.642
 1103SOL    HW2 4209   2.244   1.171   1.802
 1104SOL     OW 4210   1.928   4.384   6.288
 1104SOL    HW1 4211   1.984   4.327   6.227
 1104SOL    HW2 4212   1.862   4.436   6.234
 1105SOL     OW 4213   4.693   4.219   6.476
 1105SOL    HW1 4214   4.673   4.309   6.438
 1105SOL    HW2 4215   4.754   4.228   6.554
 1106SOL     OW 4216   1.072   2.086   6.339
 1106SOL    HW1 4217   1.153   2.052   6.386
 1106SOL    HW2 4218   1.031   2.159   6.393
 1107SOL     OW 4219   0.628   0.300   6.639
 1107SOL    HW1 4220   0.713   0.264   6.602
 1107SOL    HW2 4221   0.611   0.392   6.604
 1108SOL     OW 4222   2.629   0.884   5.450
 1108SOL    HW1 4223   2.701   0.952   5.434
 1108SOL    HW2 4224   2.562   0.889   5.376
 1109SOL     OW 4225   4.039   5.566   4.461
 1109SOL    HW1 4226   3.956   5.516   4.487
 1109SOL    HW2 4227   4.015   5.643   4.403
 1110SOL     OW 4228   2.978   2.105   1.691
 1110SOL    HW1 4229   2.997   2.203   1.697
 1110SOL    HW2 4230   2.900   2.090   1.630
 1111SOL     OW 4231   5.437   6.413   6.957
 1111SOL    HW1 4232   5.467   6.378   0.021
 1111SOL    HW2 4233   5.389   6.500   6.970
 1112SOL     OW 4234   5.986   0.910   3.161
 1112SOL    HW1 4235   5.920   0.936   3.231
 1112SOL    HW2 4236   5.946   0.839   3.103
 1113SOL     OW 4237   6.090   3.280   2.167
 1113SOL    HW1 4238   6.037   3.326   2.238
 1113SOL    HW2 4239   6.105   3.185   2.193
 1114SOL     OW 4240   4.687   0.941   6.477
 1114SOL    HW1 4241   4.715   0.845   6.473
 1114SOL    HW2 4242   4.587   0.947   6.480
 1115SOL     OW 4243   4.208   2.839   0.370
 1115SOL    HW1 4244   4.111   2.859   0.383
 1115SOL    HW2 4245   4.261   2.923   0.380
 1116SOL     OW 4246   5.534   5.139   3.994
 1116SOL    HW1 4247   5.519   5.158   4.091
 1116SOL    HW2 4248   5.600   5.204   3.957
 1117SOL     OW 4249   2.741   2.961   1.325
 1117SOL    HW1 4250   2.667   3.014   1.284
 1117SOL    HW2 4251   2.724   2.950   1.423
 1118SOL     OW 4252   0.926   4.836   2.754
 1118SOL    HW1 4253   0.923   4.737   2.767
 1118SOL    HW2 4254   0.995   4.859   2.686
 1119SOL     OW 4255   3.845   4.255   1.584
 1119SOL    HW1 4256   3.760   4.305   1.569
 1119SOL    HW2 4257   3.908   4.272   1.509
 1120SOL     OW 4258   5.308   6.861   6.159
 1120SOL    HW1 4259   5.389   6.826   6.206
 1120SOL    HW2 4260   5.272   6.791   6.096
 1121SOL     OW 4261   5.074   2.987   2.253
 1121SOL    HW1 4262   5.013   2.910   2.274
 1121SOL    HW2 4263   5.159   2.952   2.213
 1122SOL     OW 4264   5.130   3.078   6.750
 1122SOL    HW1 4265   5.107   3.122   6.664
 1122SOL    HW2 4266   5.220   3.110   6.782
 1123SOL     OW 4267   4.513   1.308   2.000
 1123SOL    HW1 4268   4.515   1.235   1.932
 1123SOL    HW2 4269   4.480   1.393   1.957
 1124SOL     OW 4270   6.925   3.778   4.937
 1124SOL    HW1 4271   6.934   3.820   5.027
 1124SOL    HW2 4272   6.890   3.685   4.947
 1125SOL     OW 4273   2.782   2.220   5.013
 1125SOL    HW1 4274   2.868   2.208   4.962
 1125SOL    HW2 4275   2.758   2.134   5.058
 1126SOL     OW 4276   4.617   6.772   6.659
 1126SOL    HW1 4277   4.601   6.757   6.756
 1126SOL    HW2 4278   4.629   6.870   6.641
 1127SOL     OW 4279   3.071   4.470   5.620
 1127SOL    HW1 4280   3.015   4.552   5.635
 1127SOL    HW2 4281   3.167   4.493   5.638
 1128SOL     OW 4282   4.550   2.141   4.100
 1128SOL    HW1 4283   4.460   2.122   4.061
 1128SOL    HW2 4284   4.593   2.215   4.049
 1129SOL     OW 4285   3.563   6.983   0.032
 1129SOL    HW1 4286   3.496   6.986   6.984
 1129SOL    HW2 4287   3.518   6.956   0.117
 1130SOL     OW 4288   1.918   4.500   1.034
 1130SOL    HW1 4289   1.900   4.455   1.121
 1130SOL    HW2 4290   1.863   4.584   1.028
 1131SOL     OW 4291   0.505   6.603   5.901
 1131SOL    HW1 4292   0.455   6.546   5.836
 1131SOL    HW2 4293   0.469   6.589   5.993
 1132SOL     OW 4294   4.900   0.385   6.966
 1132SOL    HW1 4295   4.942   0.420   0.024
 1132SOL    HW2 4296   4.857   0.460   6.916
 1133SOL     OW 4297   0.327   1.977   1.660
 1133SOL    HW1 4298   0.243   2.025   1.686
 1133SOL    HW2 4299   0.303   1.897   1.604
 1134SOL     OW 4300   5.761   2.204   6.816
 1134SOL    HW1 4301   5.805   2.266   6.750
 1134SOL    HW2 4302   5.683   2.250   6.858
 1135SOL     OW 4303   3.150   2.143   3.081
 1135SOL    HW1 4304   3.075   2.154   3.017
 1135SOL    HW2 4305   3.196   2.231   3.093
 1136SOL     OW 4306   2.897   4.767   4.071
 1136SOL    HW1 4307   2.951   4.775   3.988
 1136SOL    HW2 4308   2.950   4.801   4.149
 1137SOL     OW 4309   0.996   2.521   0.028
 1137SOL    HW1 4310   1.052   2.523   0.110
 1137SOL    HW2 4311   0.997   2.429   7.014
 1138SOL     OW 4312   2.208   2.706   6.002
 1138SOL    HW1 4313   2.158   2.770   5.944
 1138SOL    HW2 4314   2.200   2.613   5.965
 1139SOL     OW 4315   1.860   6.275   2.947
 1139SOL    HW1 4316   1.956   6.277   2.975
 1139SOL    HW2 4317   1.804   6.239   3.022
 1140SOL     OW 4318   4.025   2.126   2.973
 1140SOL    HW1 4319   4.119   2.128   2.938
 1140SOL    HW2 4320   4.027   2.129   3.073
 1141SOL     OW 4321   5.771   5.779   5.876
 1141SOL    HW1 4322   5.739   5.723   5.800
 1141SOL    HW2 4323   5.698   5.841   5.904
 1142SOL     OW 4324   5.396   0.405   4.553
 1142SOL    HW1 4325   5.402   0.340   4.628
 1142SOL    HW2 4326   5.311   0.390   4.502
 1143SOL     OW 4327   3.720   2.003   2.496
 1143SOL    HW1 4328   3.697   2.019   2.399
 1143SOL    HW2 4329   3.665   2.065   2.553
 1144SOL     OW 4330   0.132   4.183   4.758
 1144SOL    HW1 4331   0.224   4.220   4.750
 1144SOL    HW2 4332   0.106   4.177   4.854
 1145SOL     OW 4333   0.053   5.190   3.405
 1145SOL    HW1 4334   0.153   5.191   3.409
 1145SOL    HW2 4335   0.019   5.104   3.442
 1146SOL     OW 4336   5.153   1.500   1.212
 1146SOL    HW1 4337   5.215   1.454   1.148
 1146SOL    HW2 4338   5.133   1.592   1.179
 1147SOL     OW 4339   1.603   3.754   0.783
 1147SOL    HW1 4340   1.559   3.752   0.873
 1147SOL    HW2 4341   1.640   3.664   0.762
 1148SOL     OW 4342   3.282   6.184   6.249
 1148SOL    HW1 4343   3.226   6.261   6.278
 1148SOL    HW2 4344   3.378   6.213   6.242
 1149SOL     OW 4345   5.690   3.397   2.701
 1149SOL    HW1 4346   5.776   3.418   2.748
 1149SOL    HW2 4347   5.702   3.410   2.603
 1150SOL     OW 4348   2.329   4.287   1.096
 1150SOL    HW1 4349   2.294   4.377   1.121
 1150SOL    HW2 4350   2.279   4.253   1.016
 1151SOL     OW 4351   5.620   5.812   6.509
 1151SOL    HW1 4352   5.554   5.737   6.516
 1151SOL    HW2 4353   5.601   5.880   6.580
 1152SOL     OW 4354   1.248   6.682   4.994
 1152SOL    HW1 4355   1.189   6.604   5.017
 1152SOL    HW2 4356   1.196   6.767   5.004
 1153SOL     OW 4357   2.105   6.473   2.655
 1153SOL    HW1 4358   2.034   6.402   2.654
 1153SOL    HW2 4359   2.093   6.531   2.736
 1154SOL     OW 4360   0.087   3.570   1.420
 1154SOL    HW1 4361   0.125   3.500   1.482
 1154SOL    HW2 4362   0.049   3.525   1.339
 1155SOL     OW 4363   3.443   6.024   6.920
 1155SOL    HW1 4364   3.475   5.932   6.899
 1155SOL    HW2 4365   3.511   6.091   6.888
 1156SOL     OW 4366   2.127   0.451   3.528
 1156SOL    HW1 4367   2.097   0.449   3.433
 1156SOL    HW2 4368   2.049   0.436   3.589
 1157SOL     OW 4369   0.079   2.387   4.683
 1157SOL    HW1 4370   0.155   2.350   4.630
 1157SOL    HW2 4371   7.018   2.350   4.649
 1158SOL     OW 4372   5.791   5.323   5.226
 1158SOL    HW1 4373   5.811   5.357   5.135
 1158SOL    HW2 4374   5.807   5.394   5.294
 1159SOL     OW 4375   4.228   0.349   2.545
 1159SOL    HW1 4376   4.206   0.342   2.643
 1159SOL    HW2 4377   4.266   0.440   2.526
 1160SOL     OW 4378   3.878   3.744   1.564
 1160SOL    HW1 4379   3.824   3.662   1.544
 1160SOL    HW2 4380   3.822   3.825   1.548
 1161SOL     OW 4381   5.211   0.063   5.229
 1161SOL    HW1 4382   5.294   0.113   5.205
 1161SOL    HW2 4383   5.235   7.005   5.278
 1162SOL     OW 4384   3.674   2.491   1.055
 1162SOL    HW1 4385   3.737   2.494   1.133
 1162SOL    HW2 4386   3.708   2.425   0.988
 1163SOL     OW 4387   5.422   2.161   2.202
 1163SOL    HW1 4388   5.462   2.096   2.266
 1163SOL    HW2 4389   5.350   2.213   2.248
 1164SOL     OW 4390   5.169   2.897   3.585
 1164SOL    HW1 4391   5.226   2.816   3.580
 1164SOL    HW2 4392   5.074   2.873   3.565
 1165SOL     OW 4393   1.405   3.460   3.804
 1165SOL    HW1 4394   1.362   3.427   3.720
 1165SOL    HW2 4395   1.450   3.385   3.851
 1166SOL     OW 4396   4.152   1.651   6.738
 1166SOL    HW1 4397   4.153   1.747   6.709
 1166SOL    HW2 4398   4.245   1.621   6.756
 1167SOL     OW 4399   3.679   0.211   5.488
 1167SOL    HW1 4400   3.725   0.300   5.485
 1167SOL    HW2 4401   3.673   0.174   5.395
 1168SOL     OW 4402   6.052   6.908   2.460
 1168SOL    HW1 4403   6.124   6.850   2.423
 1168SOL    HW2 4404   5.979   6.918   2.392
 1169SOL     OW 4405   7.016   2.925   0.621
 1169SOL    HW1 4406   0.008   2.866   0.700
 1169SOL    HW2 4407   0.074   2.929   0.564
 1170SOL     OW 4408   3.899   0.368   1.974
 1170SOL    HW1 4409   3.857   0.340   2.060
 1170SOL    HW2 4410   3.828   0.400   1.911
 1171SOL     OW 4411   2.775   5.876   0.731
 1171SOL    HW1 4412   2.766   5.914   0.823
 1171SOL    HW2 4413   2.871   5.881   0.702
 1172SOL     OW 4414   3.215   3.939   3.487
 1172SOL    HW1 4415   3.168   3.988   3.414
 1172SOL    HW2 4416   3.272   4.003   3.539
 1173SOL     OW 4417   3.643   0.308   5.732
 1173SOL    HW1 4418   3.728   0.317   5.784
 1173SOL    HW2 4419   3.664   0.274   5.641
 1174SOL     OW 4420   2.131   5.792   0.690
 1174SOL    HW1 4421   2.061   5.724   0.708
 1174SOL    HW2 4422   2.218   5.762   0.729
 1175SOL     OW 4423   5.589   4.868   0.071
 1175SOL    HW1 4424   5.511   4.911   0.115
 1175SOL    HW2 4425   5.672   4.891   0.121
 1176SOL     OW 4426   6.082   4.985   1.126
 1176SOL    HW1 4427   6.126   5.072   1.144
 1176SOL    HW2 4428   5.983   4.994   1.140
 1177SOL     OW 4429   0.190   2.313   5.316
 1177SOL    HW1 4430   0.181   2.270   5.406
 1177SOL    HW2 4431   0.208   2.411   5.327
 1178SOL     OW 4432   4.780   4.101   1.881
 1178SOL    HW1 4433   4.704   4.164   1.870
 1178SOL    HW2 4434   4.756   4.013   1.841
 1179SOL     OW 4435   2.256   4.214   0.576
 1179SOL    HW1 4436   2.300   4.258   0.654
 1179SOL    HW2 4437   2.251   4.278   0.500
 1180SOL     OW 4438   2.236   0.954   3.467
 1180SOL    HW1 4439   2.178   1.035   3.476
 1180SOL    HW2 4440   2.332   0.981   3.466
 1181SOL     OW 4441   0.911   4.112   4.823
 1181SOL    HW1 4442   0.888   4.045   4.752
 1181SOL    HW2 4443   0.952   4.193   4.780
 1182SOL     OW 4444   1.876   4.456   3.331
 1182SOL    HW1 4445   1.829   4.484   3.248
 1182SOL    HW2 4446   1.811   4.452   3.407
 1183SOL     OW 4447   4.525   5.581   2.026
 1183SOL    HW1 4448   4.583   5.632   2.090
 1183SOL    HW2 4449   4.442   5.552   2.073
 1184SOL     OW 4450   3.312   3.179   5.746
 1184SOL    HW1 4451   3.262   3.257   5.784
 1184SOL    HW2 4452   3.397   3.211   5.703
 1185SOL     OW 4453   2.097   0.242   0.136
 1185SOL    HW1 4454   2.037   0.218   0.212
 1185SOL    HW2 4455   2.092   0.171   0.066
 1186SOL     OW 4456   5.698   0.324   5.578
 1186SOL    HW1 4457   5.601   0.314   5.556
 1186SOL    HW2 4458   5.740   0.233   5.583
 1187SOL     OW 4459   5.594   6.119   5.567
 1187SOL    HW1 4460   5.515   6.090   5.514
 1187SOL    HW2 4461   5.570   6.196   5.626
 1188SOL     OW 4462   3.197   6.411   6.374
 1188SOL    HW1 4463   3.201   6.474   6.452
 1188SOL    HW2 4464   3.177   6.462   6.291
 1189SOL     OW 4465   4.765   1.494   2.326
 1189SOL    HW1 4466   4.696   1.457   2.388
 1189SOL    HW2 4467   4.799   1.581   2.362
 1190SOL     OW 4468   4.332   4.657   4.074
 1190SOL    HW1 4469   4.383   4.573   4.092
 1190SOL    HW2 4470   4.380   4.712   4.006
 1191SOL     OW 4471   3.734   5.175   6.044
 1191SOL    HW1 4472   3.731   5.191   6.143
 1191SOL    HW2 4473   3.739   5.076   6.026
 1192SOL     OW 4474   5.830   4.552   2.994
 1192SOL    HW1 4475   5.760   4.549   3.065
 1192SOL    HW2 4476   5.819   4.473   2.934
 1193SOL     OW 4477   5.803   6.912   4.538
 1193SOL    HW1 4478   5.766   6.953   4.621
 1193SOL    HW2 4479   5.868   6.840   4.562
 1194SOL     OW 4480   0.229   0.958   0.289
 1194SOL    HW1 4481   0.135   0.930   0.313
 1194SOL    HW2 4482   0.291   0.926   0.360
 1195SOL     OW 4483   6.309   1.681   0.245
 1195SOL    HW1 4484   6.319   1.710   0.150
 1195SOL    HW2 4485   6.212   1.670   0.266
 1196SOL     OW 4486   6.963   4.833   1.883
 1196SOL    HW1 4487   6.906   4.907   1.848
 1196SOL    HW2 4488   6.967   4.759   1.816
 1197SOL     OW 4489   4.233   5.636   5.674
 1197SOL    HW1 4490   4.145   5.603   5.708
 1197SOL    HW2 4491   4.218   5.694   5.594
 1198SOL     OW 4492   2.055   2.838   2.009
 1198SOL    HW1 4493   2.106   2.805   1.929
 1198SOL    HW2 4494   2.115   2.836   2.089
 1199SOL     OW 4495   3.976   3.703   3.272
 1199SOL    HW1 4496   3.970   3.690   3.371
 1199SOL    HW2 4497   3.927   3.786   3.245
 1200SOL     OW 4498   4.185   3.918   5.298
 1200SOL    HW1 4499   4.156   4.013   5.311
 1200SOL    HW2 4500   4.268   3.901   5.351
 1201SOL     OW 4501   1.201   1.610   4.796
 1201SOL    HW1 4502   1.216   1.698   4.841
 1201SOL    HW2 4503   1.104   1.586   4.802
 1202SOL     OW 4504   5.824   0.318   6.061
 1202SOL    HW1 4505   5.833   0.288   5.966
 1202SOL    HW2 4506   5.761   0.395   6.066
 1203SOL     OW 4507   5.696   0.125   0.991
 1203SOL    HW1 4508   5.648   0.113   1.078
 1203SOL    HW2 4509   5.706   0.036   0.946
 1204SOL     OW 4510   4.031   1.394   0.438
 1204SOL    HW1 4511   3.935   1.371   0.426
 1204SOL    HW2 4512   4.072   1.331   0.505
 1205SOL     OW 4513   5.620   3.205   0.022
 1205SOL    HW1 4514   5.629   3.305   0.017
 1205SOL    HW2 4515   5.527   3.182   0.051
 1206SOL     OW 4516   1.878   1.408   4.889
 1206SOL    HW1 4517   1.838   1.316   4.883
 1206SOL    HW2 4518   1.879   1.449   4.798
 1207SOL     OW 4519   6.701   6.409   0.723
 1207SOL    HW1 4520   6.637   6.483   0.745
 1207SOL    HW2 4521   6.689   6.381   0.628
 1208SOL     OW 4522   3.744   3.976   2.496
 1208SOL    HW1 4523   3.841   3.950   2.502
 1208SOL    HW2 4524   3.698   3.950   2.581
 1209SOL     OW 4525   6.276   5.873   5.602
 1209SOL    HW1 4526   6.248   5.935   5.675
 1209SOL    HW2 4527   6.196   5.827   5.564
 1210SOL     OW 4528   4.148   0.337   2.818
 1210SOL    HW1 4529   4.185   0.428   2.837
 1210SOL    HW2 4530   4.082   0.313   2.889
 1211SOL     OW 4531   1.617   3.620   3.828
 1211SOL    HW1 4532   1.679   3.621   3.750
 1211SOL    HW2 4533   1.545   3.553   3.813
 1212SOL     OW 4534   0.961   2.743   5.308
 1212SOL    HW1 4535   0.899   2.668   5.284
 1212SOL    HW2 4536   0.913   2.808   5.367
 1213SOL     OW 4537   6.099   2.756   5.201
 1213SOL    HW1 4538   6.056   2.802   5.123
 1213SOL    HW2 4539   6.132   2.665   5.172
 1214SOL     OW 4540   1.438   3.444   4.143
 1214SOL    HW1 4541   1.469   3.362   4.094
 1214SOL    HW2 4542   1.338   3.441   4.153
 1215SOL     OW 4543   2.255   4.382   2.146
 1215SOL    HW1 4544   2.323   4.373   2.219
 1215SOL    HW2 4545   2.298   4.358   2.058
 1216SOL     OW 4546   0.050   6.853   1.788
 1216SOL    HW1 4547   0.137   6.839   1.740
 1216SOL    HW2 4548   0.005   6.934   1.751
 1217SOL     OW 4549   0.850   6.550   0.787
 1217SOL    HW1 4550   0.772   6.488   0.796
 1217SOL    HW2 4551   0.845   6.596   0.698
 1218SOL     OW 4552   1.426   3.094   4.916
 1218SOL    HW1 4553   1.503   3.116   4.856
 1218SOL    HW2 4554   1.439   3.139   5.005
 1219SOL     OW 4555   4.367   5.232   0.740
 1219SOL    HW1 4556   4.369   5.149   0.685
 1219SOL    HW2 4557   4.381   5.312   0.682
 1220SOL     OW 4558   5.431   3.713   2.206
 1220SOL    HW1 4559   5.516   3.744   2.248
 1220SOL    HW2 4560   5.420   3.614   2.221
 1221SOL     OW 4561   6.013   3.744   6.966
 1221SOL    HW1 4562   6.029   3.719   0.036
 1221SOL    HW2 4563   6.056   3.833   6.948
 1222SOL     OW 4564   0.092   6.848   0.691
 1222SOL    HW1 4565   0.191   6.831   0.693
 1222SOL    HW2 4566   0.075   6.946   0.692
 1223SOL     OW 4567   5.909   0.581   0.425
 1223SOL    HW1 4568   5.991   0.549   0.379
 1223SOL    HW2 4569   5.886   0.673   0.392
 1224SOL     OW 4570   4.311   6.279   6.775
 1224SOL    HW1 4571   4.263   6.332   6.705
 1224SOL    HW2 4572   4.312   6.330   6.861
 1225SOL     OW 4573   4.221   1.654   0.939
 1225SOL    HW1 4574   4.297   1.674   0.877
 1225SOL    HW2 4575   4.136   1.648   0.886
 1226SOL     OW 4576   5.952   6.723   0.726
 1226SOL    HW1 4577   5.866   6.687   0.689
 1226SOL    HW2 4578   5.963   6.818   0.697
 1227SOL     OW 4579   5.803   4.851   5.561
 1227SOL    HW1 4580   5.728   4.915   5.545
 1227SOL    HW2 4581   5.797   4.814   5.653
 1228SOL     OW 4582   4.054   2.980   1.783
 1228SOL    HW1 4583   3.965   3.024   1.774
 1228SOL    HW2 4584   4.072   2.924   1.702
 1229SOL     OW 4585   0.748   0.071   2.303
 1229SOL    HW1 4586   0.721   0.129   2.226
 1229SOL    HW2 4587   0.827   0.016   2.277
 1230SOL     OW 4588   5.642   5.560   2.857
 1230SOL    HW1 4589   5.579   5.635   2.876
 1230SOL    HW2 4590   5.636   5.535   2.760
 1231SOL     OW 4591   1.864   2.663   5.969
 1231SOL    HW1 4592   1.946   2.665   6.027
 1231SOL    HW2 4593   1.837   2.756   5.947
 1232SOL     OW 4594   4.162   1.499   4.905
 1232SOL    HW1 4595   4.118   1.409   4.896
 1232SOL    HW2 4596   4.219   1.499   4.988
 1233SOL     OW 4597   0.885   5.033   3.093
 1233SOL    HW1 4598   0.840   4.944   3.097
 1233SOL    HW2 4599   0.982   5.023   3.113
 1234SOL     OW 4600   6.916   3.043   0.033
 1234SOL    HW1 4601   6.825   3.022   0.071
 1234SOL    HW2 4602   6.964   3.104   0.096
 1235SOL     OW 4603   6.362   4.947   6.768
 1235SOL    HW1 4604   6.404   4.907   6.687
 1235SOL    HW2 4605   6.392   4.899   6.849
 1236SOL     OW 4606   3.519   1.706   0.495
 1236SOL    HW1 4607   3.576   1.635   0.454
 1236SOL    HW2 4608   3.558   1.735   0.582
 1237SOL     OW 4609   1.703   0.133   4.860
 1237SOL    HW1 4610   1.642   0.190   4.806
 1237SOL    HW2 4611   1.793   0.177   4.867
 1238SOL     OW 4612   0.489   6.594   3.092
 1238SOL    HW1 4613   0.582   6.568   3.118
 1238SOL    HW2 4614   0.493   6.645   3.006
 1239SOL     OW 4615   6.918   5.053   4.124
 1239SOL    HW1 4616   6.872   5.019   4.206
 1239SOL    HW2 4617   6.851   5.090   4.061
 1240SOL     OW 4618   6.276   5.713   2.187
 1240SOL    HW1 4619   6.363   5.681   2.224
 1240SOL    HW2 4620   6.243   5.649   2.118
 1241SOL     OW 4621   0.185   4.623   4.377
 1241SOL    HW1 4622   0.176   4.565   4.296
 1241SOL    HW2 4623   0.094   4.646   4.412
 1242SOL     OW 4624   1.968   3.880   6.656
 1242SOL    HW1 4625   2.048   3.893   6.714
 1242SOL    HW2 4626   1.940   3.784   6.660
 1243SOL     OW 4627   0.464   2.565   5.263
 1243SOL    HW1 4628   0.423   2.521   5.183
 1243SOL    HW2 4629   0.447   2.509   5.344
 1244SOL     OW 4630   5.825   6.498   5.693
 1244SOL    HW1 4631   5.758   6.424   5.702
 1244SOL    HW2 4632   5.780   6.580   5.657
 1245SOL     OW 4633   5.546   5.604   1.247
 1245SOL    HW1 4634   5.567   5.683   1.304
 1245SOL    HW2 4635   5.622   5.540   1.249
 1246SOL     OW 4636   4.714   0.606   1.359
 1246SOL    HW1 4637   4.776   0.651   1.295
 1246SOL    HW2 4638   4.622   0.646   1.351
 1247SOL     OW 4639   6.393   6.474   4.475
 1247SOL    HW1 4640   6.354   6.387   4.445
 1247SOL    HW2 4641   6.493   6.471   4.464
 1248SOL     OW 4642   0.317   6.420   4.491
 1248SOL    HW1 4643   0.313   6.520   4.487
 1248SOL    HW2 4644   0.410   6.389   4.467
 1249SOL     OW 4645   0.399   3.991   1.344
 1249SOL    HW1 4646   0.388   3.973   1.246
 1249SOL    HW2 4647   0.371   3.910   1.396
 1250SOL     OW 4648   6.055   3.613   5.223
 1250SOL    HW1 4649   6.129   3.627   5.289
 1250SOL    HW2 4650   5.974   3.662   5.254
 1251SOL     OW 4651   2.177   1.744   2.748
 1251SOL    HW1 4652   2.087   1.779   2.775
 1251SOL    HW2 4653   2.247   1.810   2.773
 1252SOL     OW 4654   3.278   5.499   6.919
 1252SOL    HW1 4655   3.272   5.465   6.825
 1252SOL    HW2 4656   3.189   5.490   6.963
 1253SOL     OW 4657   3.051   0.760   1.090
 1253SOL    HW1 4658   3.022   0.697   1.162
 1253SOL    HW2 4659   2.986   0.757   1.014
 1254SOL     OW 4660   5.860   1.551   3.139
 1254SOL    HW1 4661   5.799   1.519   3.212
 1254SOL    HW2 4662   5.896   1.472   3.089
 1255SOL     OW 4663   5.720   2.631   5.164
 1255SOL    HW1 4664   5.785   2.635   5.240
 1255SOL    HW2 4665   5.636   2.585   5.194
 1256SOL     OW 4666   6.449   5.795   3.311
 1256SOL    HW1 4667   6.386   5.853   3.260
 1256SOL    HW2 4668   6.529   5.775   3.253
 1257SOL     OW 4669   0.117   4.401   4.235
 1257SOL    HW1 4670   0.027   4.399   4.191
 1257SOL    HW2 4671   0.185   4.357   4.176
 1258SOL     OW 4672   2.062   6.052   3.602
 1258SOL    HW1 4673   2.152   6.023   3.567
 1258SOL    HW2 4674   2.018   5.976   3.649
 1259SOL     OW 4675   4.667   0.105   4.875
 1259SOL    HW1 4676   4.724   0.154   4.941
 1259SOL    HW2 4677   4.590   0.063   4.922
 1260SOL     OW 4678   2.809   0.474   2.380
 1260SOL    HW1 4679   2.896   0.425   2.383
 1260SOL    HW2 4680   2.767   0.463   2.289
 1261SOL     OW 4681   0.041   3.371   6.852
 1261SOL    HW1 4682   6.987   3.431   6.867
 1261SOL    HW2 4683   0.112   3.421   6.803
 1262SOL     OW 4684   4.143   4.753   1.396
 1262SOL    HW1 4685   4.230   4.789   1.363
 1262SOL    HW2 4686   4.155   4.659   1.428
 1263SOL     OW 4687   6.524   2.179   1.159
 1263SOL    HW1 4688   6.620   2.180   1.189
 1263SOL    HW2 4689   6.512   2.238   1.080
 1264SOL     OW 4690   0.163   4.092   3.135
 1264SOL    HW1 4691   0.169   4.018   3.067
 1264SOL    HW2 4692   0.243   4.087   3.196
 1265SOL     OW 4693   0.062   3.999   3.936
 1265SOL    HW1 4694   0.062   3.901   3.914
 1265SOL    HW2 4695   6.993   4.032   3.945
 1266SOL     OW 4696   2.764   1.677   4.808
 1266SOL    HW1 4697   2.730   1.711   4.895
 1266SOL    HW2 4698   2.862   1.696   4.800
 1267SOL     OW 4699   6.429   5.983   2.121
 1267SOL    HW1 4700   6.359   6.046   2.155
 1267SOL    HW2 4701   6.466   5.931   2.198
 1268SOL     OW 4702   5.845   2.392   0.202
 1268SOL    HW1 4703   5.773   2.356   0.261
 1268SOL    HW2 4704   5.814   2.476   0.159
 1269SOL     OW 4705   6.575   6.956   5.565
 1269SOL    HW1 4706   6.609   6.882   5.624
 1269SOL    HW2 4707   6.637   6.969   5.489
 1270SOL     OW 4708   1.891   4.057   4.695
 1270SOL    HW1 4709   1.977   4.012   4.718
 1270SOL    HW2 4710   1.867   4.121   4.767
 1271SOL     OW 4711   3.524   2.021   3.192
 1271SOL    HW1 4712   3.450   2.005   3.127
 1271SOL    HW2 4713   3.598   2.072   3.147
 1272SOL     OW 4714   0.466   6.114   0.857
 1272SOL    HW1 4715   0.377   6.154   0.833
 1272SOL    HW2 4716   0.499   6.156   0.941
 1273SOL     OW 4717   2.329   3.989   0.368
 1273SOL    HW1 4718   2.382   3.904   0.365
 1273SOL    HW2 4719   2.360   4.044   0.446
 1274SOL     OW 4720   0.470   3.320   1.973
 1274SOL    HW1 4721   0.487   3.253   2.045
 1274SOL    HW2 4722   0.375   3.351   1.977
 1275SOL     OW 4723   4.509   0.564   3.806
 1275SOL    HW1 4724   4.510   0.644   3.746
 1275SOL    HW2 4725   4.417   0.526   3.810
 1276SOL     OW 4726   6.669   0.184   3.492
 1276SOL    HW1 4727   6.692   0.145   3.403
 1276SOL    HW2 4728   6.692   0.281   3.492
 1277SOL     OW 4729   0.634   1.100   4.336
 1277SOL    HW1 4730   0.552   1.084   4.391
 1277SOL    HW2 4731   0.691   1.170   4.380
 1278SOL     OW 4732   2.136   2.139   5.066
 1278SOL    HW1 4733   2.138   2.208   4.994
 1278SOL    HW2 4734   2.078   2.170   5.141
 1279SOL     OW 4735   2.133   0.266   0.713
 1279SOL    HW1 4736   2.128   0.225   0.805
 1279SOL    HW2 4737   2.227   0.262   0.680
 1280SOL     OW 4738   2.812   6.745   3.274
 1280SOL    HW1 4739   2.893   6.706   3.230
 1280SOL    HW2 4740   2.731   6.694   3.246
 1281SOL     OW 4741   0.928   5.499   2.927
 1281SOL    HW1 4742   0.946   5.549   2.842
 1281SOL    HW2 4743   1.014   5.465   2.965
 1282SOL     OW 4744   0.679   0.657   0.880
 1282SOL    HW1 4745   0.696   0.570   0.834
 1282SOL    HW2 4746   0.671   0.729   0.811
 1283SOL     OW 4747   5.210   3.558   5.717
 1283SOL    HW1 4748   5.136   3.570   5.783
 1283SOL    HW2 4749   5.295   3.595   5.754
 1284SOL     OW 4750   3.128   2.706   1.748
 1284SOL    HW1 4751   3.167   2.751   1.828
 1284SOL    HW2 4752   3.168   2.614   1.739
 1285SOL     OW 4753   5.603   3.813   6.408
 1285SOL    HW1 4754   5.534   3.810   6.480
 1285SOL    HW2 4755   5.640   3.906   6.401
 1286SOL     OW 4756   4.509   4.730   2.291
 1286SOL    HW1 4757   4.597   4.683   2.283
 1286SOL    HW2 4758   4.466   4.736   2.201
 1287SOL     OW 4759   5.743   4.640   6.781
 1287SOL    HW1 4760   5.656   4.667   6.823
 1287SOL    HW2 4761   5.789   4.720   6.743
 1288SOL     OW 4762   0.003   2.837   0.899
 1288SOL    HW1 4763   0.039   2.753   0.857
 1288SOL    HW2 4764   0.002   2.826   0.998
 1289SOL     OW 4765   0.352   5.733   1.495
 1289SOL    HW1 4766   0.377   5.678   1.574
 1289SOL    HW2 4767   0.409   5.708   1.417
 1290SOL     OW 4768   0.818   0.997   0.378
 1290SOL    HW1 4769   0.722   0.990   0.350
 1290SOL    HW2 4770   0.836   1.091   0.409
 1291SOL     OW 4771   1.563   4.657   6.269
 1291SOL    HW1 4772   1.626   4.596   6.221
 1291SOL    HW2 4773   1.607   4.692   6.352
 1292SOL     OW 4774   6.842   4.714   2.092
 1292SOL    HW1 4775   6.899   4.764   2.027
 1292SOL    HW2 4776   6.875   4.620   2.100
 1293SOL     OW 4777   3.288   1.202   6.132
 1293SOL    HW1 4778   3.347   1.220   6.053
 1293SOL    HW2 4779   3.287   1.104   6.152
 1294SOL     OW 4780   0.371   2.897   0.915
 1294SOL    HW1 4781   0.405   2.934   0.828
 1294SOL    HW2 4782   0.314   2.818   0.897
 1295SOL     OW 4783   6.115   3.667   2.510
 1295SOL    HW1 4784   6.091   3.694   2.603
 1295SOL    HW2 4785   6.175   3.736   2.469
 1296SOL     OW 4786   4.038   1.667   6.097
 1296SOL    HW1 4787   4.009   1.584   6.051
 1296SOL    HW2 4788   3.963   1.734   6.093
 1297SOL     OW 4789   5.514   0.888   6.148
 1297SOL    HW1 4790   5.587   0.863   6.084
 1297SOL    HW2 4791   5.465   0.968   6.114
 1298SOL     OW 4792   6.032   3.143   3.043
 1298SOL    HW1 4793   6.051   3.203   3.120
 1298SOL    HW2 4794   5.980   3.063   3.074
 1299SOL     OW 4795   1.949   4.175   3.218
 1299SOL    HW1 4796   1.890   4.254   3.233
 1299SOL    HW2 4797   1.911   4.119   3.145
 1300SOL     OW 4798   3.345   3.673   1.746
 1300SOL    HW1 4799   3.372   3.669   1.650
 1300SOL    HW2 4800   3.250   3.641   1.756
 1301SOL     OW 4801   1.094   6.180   2.583
 1301SOL    HW1 4802   1.126   6.141   2.669
 1301SOL    HW2 4803   1.054   6.109   2.526
 1302SOL     OW 4804   2.835   6.935   4.508
 1302SOL    HW1 4805   2.844   7.022   4.459
 1302SOL    HW2 4806   2.860   6.860   4.446
 1303SOL     OW 4807   3.844   1.120   0.739
 1303SOL    HW1 4808   3.799   1.073   0.664
 1303SOL    HW2 4809   3.932   1.157   0.708
 1304SOL     OW 4810   1.867   1.393   6.290
 1304SOL    HW1 4811   1.944   1.329   6.294
 1304SOL    HW2 4812   1.822   1.384   6.201
 1305SOL     OW 4813   6.132   5.572   6.189
 1305SOL    HW1 4814   6.035   5.573   6.163
 1305SOL    HW2 4815   6.158   5.478   6.214
 1306SOL     OW 4816   0.800   4.633   5.640
 1306SOL    HW1 4817   0.837   4.581   5.562
 1306SOL    HW2 4818   0.700   4.637   5.632
 1307SOL     OW 4819   1.884   2.903   4.134
 1307SOL    HW1 4820   1.921   2.929   4.045
 1307SOL    HW2 4821   1.923   2.961   4.205
 1308SOL     OW 4822   4.348   5.933   4.837
 1308SOL    HW1 4823   4.321   5.837   4.848
 1308SOL    HW2 4824   4.309   5.970   4.753
 1309SOL     OW 4825   5.535   3.055   5.431
 1309SOL    HW1 4826   5.472   3.132   5.431
 1309SOL    HW2 4827   5.620   3.081   5.386
 1310SOL     OW 4828   5.500   3.661   5.137
 1310SOL    HW1 4829   5.549   3.595   5.194
 1310SOL    HW2 4830   5.566   3.719   5.090
 1311SOL     OW 4831   6.505   6.392   3.909
 1311SOL    HW1 4832   6.418   6.439   3.895
 1311SOL    HW2 4833   6.497   6.297   3.880
 1312SOL     OW 4834   0.646   0.736   6.776
 1312SOL    HW1 4835   0.547   0.745   6.764
 1312SOL    HW2 4836   0.687   0.827   6.780
 1313SOL     OW 4837   2.629   5.682   5.774
 1313SOL    HW1 4838   2.623   5.779   5.798
 1313SOL    HW2 4839   2.698   5.638   5.831
 1314SOL     OW 4840   1.759   1.393   5.621
 1314SOL    HW1 4841   1.760   1.352   5.530
 1314SOL    HW2 4842   1.672   1.441   5.635
 1315SOL     OW 4843   0.863   1.478   0.444
 1315SOL    HW1 4844   0.774   1.478   0.400
 1315SOL    HW2 4845   0.854   1.506   0.540
 1316SOL     OW 4846   2.071   0.083   2.998
 1316SOL    HW1 4847   2.135   0.153   2.966
 1316SOL    HW2 4848   2.025   0.041   2.920
 1317SOL     OW 4849   0.763   4.552   4.664
 1317SOL    HW1 4850   0.744   4.466   4.615
 1317SOL    HW2 4851   0.825   4.608   4.609
 1318SOL     OW 4852   0.598   0.855   0.699
 1318SOL    HW1 4853   0.648   0.931   0.740
 1318SOL    HW2 4854   0.524   0.891   0.642
 1319SOL     OW 4855   6.720   1.735   0.492
 1319SOL    HW1 4856   6.658   1.662   0.462
 1319SOL    HW2 4857   6.729   1.803   0.419
 1320SOL     OW 4858   5.981   4.857   0.417
 1320SOL    HW1 4859   5.890   4.818   0.431
 1320SOL    HW2 4860   5.995   4.934   0.479
 1321SOL     OW 4861   3.768   2.562   0.212
 1321SOL    HW1 4862   3.858   2.521   0.222
 1321SOL    HW2 4863   3.741   2.605   0.298
 1322SOL     OW 4864   5.296   1.258   3.267
 1322SOL    HW1 4865   5.217   1.223   3.316
 1322SOL    HW2 4866   5.278   1.258   3.169
 1323SOL     OW 4867   5.448   2.008   5.310
 1323SOL    HW1 4868   5.476   1.912   5.313
 1323SOL    HW2 4869   5.494   2.058   5.383
 1324SOL     OW 4870   1.465   1.985   1.796
 1324SOL    HW1 4871   1.564   1.980   1.812
 1324SOL    HW2 4872   1.417   1.978   1.883
 1325SOL     OW 4873   2.756   6.725   2.924
 1325SOL    HW1 4874   2.784   6.813   2.963
 1325SOL    HW2 4875   2.656   6.720   2.921
 1326SOL     OW 4876   4.722   2.734   4.632
 1326SOL    HW1 4877   4.750   2.713   4.538
 1326SOL    HW2 4878   4.641   2.680   4.654
 1327SOL     OW 4879   3.041   5.643   2.749
 1327SOL    HW1 4880   3.097   5.583   2.692
 1327SOL    HW2 4881   2.951   5.602   2.763
 1328SOL     OW 4882   0.781   2.514   0.876
 1328SOL    HW1 4883   0.787   2.419   0.909
 1328SOL    HW2 4884   0.869   2.559   0.890
 1329SOL     OW 4885   6.698   1.667   0.890
 1329SOL    HW1 4886   6.770   1.734   0.912
 1329SOL    HW2 4887   6.640   1.653   0.970
 1330SOL     OW 4888   6.405   0.032   0.879
 1330SOL    HW1 4889   6.495   0.074   0.874
 1330SOL    HW2 4890   6.335   0.103   0.868
 1331SOL     OW 4891   4.854   2.075   3.043
 1331SOL    HW1 4892   4.877   2.157   3.096
 1331SOL    HW2 4893   4.755   2.063   3.042
 1332SOL     OW 4894   3.490   0.336   0.755
 1332SOL    HW1 4895   3.538   0.282   0.824
 1332SOL    HW2 4896   3.555   0.364   0.684
 1333SOL     OW 4897   3.548   4.384   5.709
 1333SOL    HW1 4898   3.584   4.420   5.795
 1333SOL    HW2 4899   3.604   4.416   5.633
 1334SOL     OW 4900   0.668   3.152   4.516
 1334SOL    HW1 4901   0.660   3.094   4.597
 1334SOL    HW2 4902   0.638   3.101   4.435
 1335SOL     OW 4903   2.133   6.027   2.746
 1335SOL    HW1 4904   2.181   5.966   2.809
 1335SOL    HW2 4905   2.191   6.107   2.726
 1336SOL     OW 4906   1.426   0.997   5.844
 1336SOL    HW1 4907   1.479   1.049   5.910
 1336SOL    HW2 4908   1.401   0.908   5.882
 1337SOL     OW 4909   1.082   2.602   4.791
 1337SOL    HW1 4910   1.077   2.688   4.841
 1337SOL    HW2 4911   1.009   2.598   4.724
 1338SOL     OW 4912   4.517   3.876   6.159
 1338SOL    HW1 4913   4.577   3.922   6.225
 1338SOL    HW2 4914   4.529   3.917   6.069
 1339SOL     OW 4915   6.768   5.540   6.888
 1339SOL    HW1 4916   6.746   5.541   6.790
 1339SOL    HW2 4917   6.866   5.523   6.900
 1340SOL     OW 4918   0.996   1.562   1.726
 1340SOL    HW1 4919   1.049   1.495   1.673
 1340SOL    HW2 4920   0.910   1.520   1.755
 1341SOL     OW 4921   4.415   0.744   5.330
 1341SOL    HW1 4922   4.446   0.751   5.424
 1341SOL    HW2 4923   4.362   0.825   5.306
 1342SOL     OW 4924   1.107   5.996   6.444
 1342SOL    HW1 4925   1.101   5.899   6.464
 1342SOL    HW2 4926   1.092   6.011   6.346
 1343SOL     OW 4927   3.463   6.654   2.404
 1343SOL    HW1 4928   3.481   6.648   2.306
 1343SOL    HW2 4929   3.374   6.614   2.424
 1344SOL     OW 4930   6.971   2.681   3.484
 1344SOL    HW1 4931   7.016   2.613   3.426
 1344SOL    HW2 4932   6.892   2.718   3.435
 1345SOL     OW 4933   0.345   1.181   3.584
 1345SOL    HW1 4934   0.415   1.229   3.531
 1345SOL    HW2 4935   0.382   1.094   3.616
 1346SOL     OW 4936   1.401   0.159   2.567
 1346SOL    HW1 4937   1.494   0.125   2.551
 1346SOL    HW2 4938   1.371   0.213   2.488
 1347SOL     OW 4939   6.272   6.369   3.730
 1347SOL    HW1 4940   6.227   6.418   3.805
 1347SOL    HW2 4941   6.256   6.271   3.740
 1348SOL     OW 4942   5.907   5.343   3.469
 1348SOL    HW1 4943   5.944   5.286   3.543
 1348SOL    HW2 4944   5.823   5.387   3.501
 1349SOL     OW 4945   5.002   2.774   6.432
 1349SOL    HW1 4946   5.003   2.873   6.449
 1349SOL    HW2 4947   4.933   2.753   6.363
 1350SOL     OW 4948   3.825   5.223   6.964
 1350SOL    HW1 4949   3.855   5.184   6.877
 1350SOL    HW2 4950   3.862   5.315   6.974
 1351SOL     OW 4951   0.821   1.091   3.006
 1351SOL    HW1 4952   0.758   1.018   3.032
 1351SOL    HW2 4953   0.858   1.135   3.088
 1352SOL     OW 4954   0.429   0.140   3.701
 1352SOL    HW1 4955   0.411   0.141   3.603
 1352SOL    HW2 4956   0.475   0.225   3.727
 1353SOL     OW 4957   6.754   4.325   6.197
 1353SOL    HW1 4958   6.723   4.241   6.241
 1353SOL    HW2 4959   6.834   4.360   6.246
 1354SOL     OW 4960   0.041   1.545   0.958
 1354SOL    HW1 4961   0.014   1.631   0.915
 1354SOL    HW2 4962   6.988   1.483   0.961
 1355SOL     OW 4963   5.306   3.938   0.000
 1355SOL    HW1 4964   5.365   3.974   6.953
 1355SOL    HW2 4965   5.299   3.839   7.016
 1356SOL     OW 4966   3.465   3.873   3.678
 1356SOL    HW1 4967   3.549   3.821   3.695
 1356SOL    HW2 4968   3.410   3.876   3.761
 1357SOL     OW 4969   2.261   3.392   6.145
 1357SOL    HW1 4970   2.319   3.411   6.223
 1357SOL    HW2 4971   2.317   3.366   6.067
 1358SOL     OW 4972   2.507   2.182   5.953
 1358SOL    HW1 4973   2.559   2.264   5.929
 1358SOL    HW2 4974   2.566   2.102   5.945
 1359SOL     OW 4975   6.549   3.805   1.371
 1359SOL    HW1 4976   6.499   3.751   1.303
 1359SOL    HW2 4977   6.630   3.844   1.328
 1360SOL     OW 4978   4.134   3.631   2.484
 1360SOL    HW1 4979   4.102   3.537   2.468
 1360SOL    HW2 4980   4.225   3.642   2.444
 1361SOL     OW 4981   0.561   0.070   6.435
 1361SOL    HW1 4982   0.522   0.136   6.499
 1361SOL    HW2 4983   0.596   7.016   6.486
 1362SOL     OW 4984   2.807   3.131   5.520
 1362SOL    HW1 4985   2.851   3.218   5.497
 1362SOL    HW2 4986   2.864   3.081   5.584
 1363SOL     OW 4987   6.568   5.859   3.935
 1363SOL    HW1 4988   6.660   5.900   3.931
 1363SOL    HW2 4989   6.564   5.793   4.010
 1364SOL     OW 4990   6.884   2.658   0.024
 1364SOL    HW1 4991   6.834   2.613   6.975
 1364SOL    HW2 4992   6.934   2.589   0.076
 1365SOL     OW 4993   0.685   4.046   5.511
 1365SOL    HW1 4994   0.626   4.024   5.588
 1365SOL    HW2 4995   0.752   4.115   5.539
 1366SOL     OW 4996   0.040   3.147   1.237
 1366SOL    HW1 4997   0.128   3.104   1.217
 1366SOL    HW2 4998   0.020   3.138   1.335
 1367SOL     OW 4999   1.229   5.210   3.604
 1367SOL    HW1 5000   1.301   5.141   3.607
 1367SOL    HW2 5001   1.157   5.180   3.541
 1368SOL     OW 5002   6.608   0.439   4.183
 1368SOL    HW1 5003   6.622   0.537   4.196
 1368SOL    HW2 5004   6.668   0.405   4.111
 1369SOL     OW 5005   2.526   6.114   1.606
 1369SOL    HW1 5006   2.497   6.078   1.517
 1369SOL    HW2 5007   2.606   6.172   1.593
 1370SOL     OW 5008   7.015   1.546   4.019
 1370SOL    HW1 5009   6.964   1.468   3.981
 1370SOL    HW2 5010   0.028   1.522   4.107
 1371SOL     OW 5011   4.766   1.467   4.911
 1371SOL    HW1 5012   4.720   1.536   4.967
 1371SOL    HW2 5013   4.820   1.407   4.970
 1372SOL     OW 5014   6.260   2.302   0.890
 1372SOL    HW1 5015   6.205   2.314   0.808
 1372SOL    HW2 5016   6.246   2.210   0.926
 1373SOL     OW 5017   5.394   1.838   0.773
 1373SOL    HW1 5018   5.480   1.817   0.821
 1373SOL    HW2 5019   5.328   1.766   0.793
 1374SOL     OW 5020   5.586   4.604   0.058
 1374SOL    HW1 5021   5.683   4.581   0.063
 1374SOL    HW2 5022   5.576   4.703   0.056
 1375SOL     OW 5023   6.889   6.487   6.486
 1375SOL    HW1 5024   6.964   6.428   6.519
 1375SOL    HW2 5025   6.802   6.439   6.497
 1376SOL     OW 5026   3.362   4.713   6.210
 1376SOL    HW1 5027   3.317   4.657   6.141
 1376SOL    HW2 5028   3.297   4.736   6.282
 1377SOL     OW 5029   1.172   2.364   4.006
 1377SOL    HW1 5030   1.267   2.392   4.019
 1377SOL    HW2 5031   1.154   2.282   4.061
 1378SOL     OW 5032   4.857   2.564   4.852
 1378SOL    HW1 5033   4.838   2.604   4.762
 1378SOL    HW2 5034   4.788   2.596   4.917
 1379SOL     OW 5035   4.633   5.559   2.861
 1379SOL    HW1 5036   4.607   5.640   2.914
 1379SOL    HW2 5037   4.603   5.477   2.910
 1380SOL     OW 5038   6.867   6.564   2.589
 1380SOL    HW1 5039   6.808   6.644   2.577
 1380SOL    HW2 5040   6.959   6.593   2.615
 1381SOL     OW 5041   5.639   1.718   6.614
 1381SOL    HW1 5042   5.734   1.689   6.602
 1381SOL    HW2 5043   5.637   1.814   6.643
 1382SOL     OW 5044   4.973   2.858   1.090
 1382SOL    HW1 5045   4.902   2.905   1.143
 1382SOL    HW2 5046   4.947   2.762   1.076
 1383SOL     OW 5047   0.570   0.203   1.305
 1383SOL    HW1 5048   0.530   0.143   1.235
 1383SOL    HW2 5049   0.589   0.150   1.387
 1384SOL     OW 5050   4.460   6.934   0.990
 1384SOL    HW1 5051   4.548   6.949   0.944
 1384SOL    HW2 5052   4.411   7.020   0.996
 1385SOL     OW 5053   1.815   4.459   3.770
 1385SOL    HW1 5054   1.790   4.451   3.674
 1385SOL    HW2 5055   1.745   4.418   3.827
 1386SOL     OW 5056   3.443   0.164   3.500
 1386SOL    HW1 5057   3.410   0.142   3.408
 1386SOL    HW2 5058   3.509   0.095   3.530
 1387SOL     OW 5059   2.871   5.677   2.037
 1387SOL    HW1 5060   2.775   5.674   2.067
 1387SOL    HW2 5061   2.895   5.589   1.995
 1388SOL     OW 5062   6.448   6.651   1.523
 1388SOL    HW1 5063   6.354   6.680   1.504
 1388SOL    HW2 5064   6.460   6.640   1.621
 1389SOL     OW 5065   6.068   2.323   3.631
 1389SOL    HW1 5066   6.003   2.395   3.607
 1389SOL    HW2 5067   6.032   2.235   3.601
 1390SOL     OW 5068   0.132   3.958   6.711
 1390SOL    HW1 5069   0.117   3.863   6.737
 1390SOL    HW2 5070   0.092   3.975   6.621
 1391SOL     OW 5071   6.290   6.929   4.480
 1391SOL    HW1 5072   6.243   6.840   4.476
 1391SOL    HW2 5073   6.232   6.994   4.530
 1392SOL     OW 5074   5.396   5.860   6.311
 1392SOL    HW1 5075   5.321   5.840   6.375
 1392SOL    HW2 5076   5.483   5.852   6.359
 1393SOL     OW 5077   6.108   4.809   5.519
 1393SOL    HW1 5078   6.123   4.891   5.465
 1393SOL    HW2 5079   6.011   4.800   5.540
 1394SOL     OW 5080   3.030   6.159   5.004
 1394SOL    HW1 5081   3.069   6.079   5.049
 1394SOL    HW2 5082   2.965   6.130   4.934
 1395SOL     OW 5083   2.453   4.188   5.881
 1395SOL    HW1 5084   2.368   4.211   5.928
 1395SOL    HW2 5085   2.481   4.095   5.905
 1396SOL     OW 5086   1.713   1.192   4.949
 1396SOL    HW1 5087   1.724   1.121   5.019
 1396SOL    HW2 5088   1.665   1.153   4.870
 1397SOL     OW 5089   0.594   0.343   3.841
 1397SOL    HW1 5090   0.617   0.298   3.928
 1397SOL    HW2 5091   0.638   0.433   3.837
 1398SOL     OW 5092   2.649   0.828   6.001
 1398SOL    HW1 5093   2.704   0.881   5.937
 1398SOL    HW2 5094   2.707   0.792   6.074
 1399SOL     OW 5095   3.282   5.913   0.568
 1399SOL    HW1 5096   3.209   5.961   0.616
 1399SOL    HW2 5097   3.252   5.820   0.544
 1400SOL     OW 5098   0.220   1.306   2.976
 1400SOL    HW1 5099   0.256   1.225   2.930
 1400SOL    HW2 5100   0.276   1.385   2.952
 1401SOL     OW 5101   6.947   2.180   4.826
 1401SOL    HW1 5102   6.883   2.128   4.882
 1401SOL    HW2 5103   6.899   2.222   4.749
 1402SOL     OW 5104   0.730   3.845   0.264
 1402SOL    HW1 5105   0.788   3.787   0.321
 1402SOL    HW2 5106   0.657   3.790   0.224
 1403SOL     OW 5107   2.520   2.173   1.633
 1403SOL    HW1 5108   2.556   2.196   1.724
 1403SOL    HW2 5109   2.587   2.201   1.564
 1404SOL     OW 5110   5.514   6.941   0.303
 1404SOL    HW1 5111   5.601   6.989   0.305
 1404SOL    HW2 5112   5.490   6.912   0.396
 1405SOL     OW 5113   2.091   3.773   0.857
 1405SOL    HW1 5114   2.103   3.674   0.856
 1405SOL    HW2 5115   2.159   3.815   0.796
 1406SOL     OW 5116   1.288   5.299   1.276
 1406SOL    HW1 5117   1.317   5.304   1.181
 1406SOL    HW2 5118   1.248   5.386   1.304
 1407SOL     OW 5119   0.357   1.938   2.357
 1407SOL    HW1 5120   0.374   1.967   2.451
 1407SOL    HW2 5121   0.353   1.839   2.353
 1408SOL     OW 5122   5.722   1.385   5.744
 1408SOL    HW1 5123   5.707   1.339   5.831
 1408SOL    HW2 5124   5.817   1.414   5.737
 1409SOL     OW 5125   0.590   0.967   4.844
 1409SOL    HW1 5126   0.581   1.008   4.935
 1409SOL    HW2 5127   0.658   1.017   4.791
 1410SOL     OW 5128   1.986   3.111   6.254
 1410SOL    HW1 5129   2.083   3.096   6.237
 1410SOL    HW2 5130   1.960   3.202   6.222
 1411SOL     OW 5131   2.629   6.632   1.992
 1411SOL    HW1 5132   2.689   6.641   1.913
 1411SOL    HW2 5133   2.684   6.622   2.075
 1412SOL     OW 5134   0.137   2.128   1.011
 1412SOL    HW1 5135   0.061   2.141   0.947
 1412SOL    HW2 5136   0.121   2.046   1.066
 1413SOL     OW 5137   1.654   1.334   5.335
 1413SOL    HW1 5138   1.557   1.337   5.356
 1413SOL    HW2 5139   1.688   1.427   5.321
 1414SOL     OW 5140   2.537   1.353   1.799
 1414SOL    HW1 5141   2.557   1.257   1.782
 1414SOL    HW2 5142   2.623   1.404   1.805
 1415SOL     OW 5143   2.365   0.742   4.535
 1415SOL    HW1 5144   2.364   0.737   4.635
 1415SOL    HW2 5145   2.397   0.654   4.498
 1416SOL     OW 5146   4.657   4.382   4.271
 1416SOL    HW1 5147   4.576   4.439   4.258
 1416SOL    HW2 5148   4.725   4.405   4.201
 1417SOL     OW 5149   3.122   1.851   0.247
 1417SOL    HW1 5150   3.048   1.871   0.310
 1417SOL    HW2 5151   3.208   1.842   0.298
 1418SOL     OW 5152   3.224   3.702   3.674
 1418SOL    HW1 5153   3.220   3.620   3.617
 1418SOL    HW2 5154   3.220   3.783   3.615
 1419SOL     OW 5155   2.604   6.228   4.968
 1419SOL    HW1 5156   2.550   6.146   4.949
 1419SOL    HW2 5157   2.549   6.309   4.948
 1420SOL     OW 5158   2.424   0.126   1.631
 1420SOL    HW1 5159   2.402   0.112   1.728
 1420SOL    HW2 5160   2.347   0.095   1.576
 1421SOL     OW 5161   1.810   3.612   3.623
 1421SOL    HW1 5162   1.909   3.622   3.627
 1421SOL    HW2 5163   1.781   3.601   3.528
 1422SOL     OW 5164   1.577   3.641   1.285
 1422SOL    HW1 5165   1.528   3.693   1.355
 1422SOL    HW2 5166   1.663   3.688   1.263
 1423SOL     OW 5167   5.514   6.409   3.157
 1423SOL    HW1 5168   5.546   6.346   3.228
 1423SOL    HW2 5169   5.507   6.501   3.195
 1424SOL     OW 5170   6.396   4.852   5.550
 1424SOL    HW1 5171   6.431   4.760   5.529
 1424SOL    HW2 5172   6.297   4.848   5.560
 1425SOL     OW 5173   1.053   6.382   4.950
 1425SOL    HW1 5174   1.013   6.294   4.975
 1425SOL    HW2 5175   1.151   6.382   4.972
 1426SOL     OW 5176   1.850   2.151   6.235
 1426SOL    HW1 5177   1.764   2.179   6.278
 1426SOL    HW2 5178   1.917   2.225   6.243
 1427SOL     OW 5179   0.313   6.463   3.276
 1427SOL    HW1 5180   0.387   6.469   3.209
 1427SOL    HW2 5181   0.226   6.480   3.231
 1428SOL     OW 5182   5.847   2.951   0.878
 1428SOL    HW1 5183   5.927   2.913   0.833
 1428SOL    HW2 5184   5.848   2.929   0.975
 1429SOL     OW 5185   5.258   2.441   0.476
 1429SOL    HW1 5186   5.188   2.378   0.442
 1429SOL    HW2 5187   5.347   2.394   0.476
 1430SOL     OW 5188   1.693   4.396   4.198
 1430SOL    HW1 5189   1.643   4.319   4.236
 1430SOL    HW2 5190   1.721   4.458   4.272
 1431SOL     OW 5191   2.217   1.841   0.817
 1431SOL    HW1 5192   2.262   1.814   0.733
 1431SOL    HW2 5193   2.234   1.939   0.834
 1432SOL     OW 5194   3.110   1.641   2.656
 1432SOL    HW1 5195   3.115   1.559   2.714
 1432SOL    HW2 5196   3.192   1.697   2.670
 1433SOL     OW 5197   4.009   1.326   5.382
 1433SOL    HW1 5198   3.996   1.238   5.336
 1433SOL    HW2 5199   4.005   1.400   5.315
 1434SOL     OW 5200   0.264   0.887   6.013
 1434SOL    HW1 5201   0.306   0.976   6.027
 1434SOL    HW2 5202   0.320   0.816   6.057
 1435SOL     OW 5203   6.130   7.000   2.933
 1435SOL    HW1 5204   6.086   0.048   2.881
 1435SOL    HW2 5205   6.192   0.015   3.001
 1436SOL     OW 5206   5.797   4.039   0.022
 1436SOL    HW1 5207   5.873   4.011   0.081
 1436SOL    HW2 5208   5.718   3.981   0.040
 1437SOL     OW 5209   2.572   2.492   3.296
 1437SOL    HW1 5210   2.542   2.530   3.383
 1437SOL    HW2 5211   2.562   2.561   3.224
 1438SOL     OW 5212   3.295   5.840   1.459
 1438SOL    HW1 5213   3.326   5.935   1.459
 1438SOL    HW2 5214   3.285   5.809   1.554
 1439SOL     OW 5215   6.883   5.688   1.435
 1439SOL    HW1 5216   6.921   5.621   1.500
 1439SOL    HW2 5217   6.955   5.719   1.373
 1440SOL     OW 5218   3.034   3.534   0.060
 1440SOL    HW1 5219   2.987   3.557   7.000
 1440SOL    HW2 5220   2.966   3.507   0.128
 1441SOL     OW 5221   5.825   0.894   3.387
 1441SOL    HW1 5222   5.728   0.886   3.365
 1441SOL    HW2 5223   5.835   0.904   3.486
 1442SOL     OW 5224   6.858   5.803   7.002
 1442SOL    HW1 5225   6.874   5.809   0.075
 1442SOL    HW2 5226   6.804   5.721   6.982
 1443SOL     OW 5227   0.455   3.024   2.652
 1443SOL    HW1 5228   0.435   2.930   2.682
 1443SOL    HW2 5229   0.437   3.087   2.727
 1444SOL     OW 5230   5.233   5.894   1.044
 1444SOL    HW1 5231   5.238   5.946   1.129
 1444SOL    HW2 5232   5.138   5.882   1.017
 1445SOL     OW 5233   0.718   2.609   2.871
 1445SOL    HW1 5234   0.639   2.575   2.820
 1445SOL    HW2 5235   0.767   2.676   2.815
 1446SOL     OW 5236   6.248   1.436   0.132
 1446SOL    HW1 5237   6.296   1.504   0.187
 1446SOL    HW2 5238   6.189   1.482   0.066
 1447SOL     OW 5239   6.287   6.172   4.140
 1447SOL    HW1 5240   6.271   6.086   4.189
 1447SOL    HW2 5241   6.353   6.156   4.066
 1448SOL     OW 5242   6.309   2.982   5.609
 1448SOL    HW1 5243   6.382   2.922   5.643
 1448SOL    HW2 5244   6.260   3.022   5.686
 1449SOL     OW 5245   1.198   3.554   5.438
 1449SOL    HW1 5246   1.275   3.615   5.455
 1449SOL    HW2 5247   1.148   3.539   5.524
 1450SOL     OW 5248   0.949   2.274   6.927
 1450SOL    HW1 5249   0.885   2.202   6.899
 1450SOL    HW2 5250   1.026   2.277   6.863
 1451SOL     OW 5251   1.088   6.428   2.429
 1451SOL    HW1 5252   1.073   6.487   2.509
 1451SOL    HW2 5253   1.155   6.357   2.452
 1452SOL     OW 5254   4.268   2.490   5.490
 1452SOL    HW1 5255   4.356   2.533   5.470
 1452SOL    HW2 5256   4.230   2.529   5.574
 1453SOL     OW 5257   0.570   4.240   6.271
 1453SOL    HW1 5258   0.515   4.223   6.353
 1453SOL    HW2 5259   0.630   4.162   6.254
 1454SOL     OW 5260   1.209   2.300   1.663
 1454SOL    HW1 5261   1.256   2.256   1.740
 1454SOL    HW2 5262   1.240   2.259   1.577
 1455SOL     OW 5263   1.623   6.844   2.505
 1455SOL    HW1 5264   1.565   6.776   2.549
 1455SOL    HW2 5265   1.718   6.814   2.508
 1456SOL     OW 5266   6.452   0.346   6.229
 1456SOL    HW1 5267   6.456   0.444   6.251
 1456SOL    HW2 5268   6.408   0.334   6.140
 1457SOL     OW 5269   1.093   6.003   0.646
 1457SOL    HW1 5270   1.147   6.014   0.562
 1457SOL    HW2 5271   1.009   6.057   0.638
 1458SOL     OW 5272   6.027   4.975   5.317
 1458SOL    HW1 5273   6.001   4.906   5.248
 1458SOL    HW2 5274   5.947   4.999   5.372
 1459SOL     OW 5275   4.060   6.627   5.311
 1459SOL    HW1 5276   4.141   6.631   5.369
 1459SOL    HW2 5277   4.014   6.716   5.313
 1460SOL     OW 5278   0.987   0.010   5.364
 1460SOL    HW1 5279   0.971   0.068   5.285
 1460SOL    HW2 5280   0.913   0.021   5.430
 1461SOL     OW 5281   6.737   4.145   2.995
 1461SOL    HW1 5282   6.810   4.212   3.012
 1461SOL    HW2 5283   6.721   4.138   2.897
 1462SOL     OW 5284   1.092   1.072   6.848
 1462SOL    HW1 5285   1.040   1.117   6.776
 1462SOL    HW2 5286   1.141   0.994   6.810
 1463SOL     OW 5287   1.099   5.548   5.754
 1463SOL    HW1 5288   1.003   5.554   5.729
 1463SOL    HW2 5289   1.154   5.601   5.690
 1464SOL     OW 5290   0.143   5.885   2.355
 1464SOL    HW1 5291   0.194   5.810   2.312
 1464SOL    HW2 5292   0.145   5.965   2.295
 1465SOL     OW 5293   1.670   0.861   4.140
 1465SOL    HW1 5294   1.646   0.916   4.060
 1465SOL    HW2 5295   1.590   0.853   4.200
 1466SOL     OW 5296   3.367   1.504   2.023
 1466SOL    HW1 5297   3.332   1.590   2.060
 1466SOL    HW2 5298   3.417   1.522   1.938
 1467SOL     OW 5299   1.704   1.326   3.466
 1467SOL    HW1 5300   1.730   1.401   3.406
 1467SOL    HW2 5301   1.623   1.280   3.430
 1468SOL     OW 5302   2.165   5.591   2.312
 1468SOL    HW1 5303   2.220   5.648   2.252
 1468SOL    HW2 5304   2.120   5.648   2.381
 1469SOL     OW 5305   6.831   0.347   3.244
 1469SOL    HW1 5306   6.776   0.411   3.297
 1469SOL    HW2 5307   6.778   0.263   3.228
 1470SOL     OW 5308   0.780   1.473   1.846
 1470SOL    HW1 5309   0.758   1.512   1.935
 1470SOL    HW2 5310   0.739   1.382   1.838
 1471SOL     OW 5311   0.712   0.268   0.300
 1471SOL    HW1 5312   0.774   0.345   0.313
 1471SOL    HW2 5313   0.720   0.204   0.377
 1472SOL     OW 5314   2.761   6.029   6.382
 1472SOL    HW1 5315   2.793   6.003   6.291
 1472SOL    HW2 5316   2.839   6.040   6.444
 1473SOL     OW 5317   3.563   5.495   5.198
 1473SOL    HW1 5318   3.610   5.577   5.165
 1473SOL    HW2 5319   3.465   5.503   5.179
 1474SOL     OW 5320   4.615   4.571   1.364
 1474SOL    HW1 5321   4.579   4.499   1.423
 1474SOL    HW2 5322   4.710   4.550   1.340
 1475SOL     OW 5323   5.433   0.953   0.841
 1475SOL    HW1 5324   5.345   0.909   0.823
 1475SOL    HW2 5325   5.507   0.894   0.808
 1476SOL     OW 5326   2.508   1.317   0.988
 1476SOL    HW1 5327   2.574   1.245   1.011
 1476SOL    HW2 5328   2.493   1.375   1.068
 1477SOL     OW 5329   3.667   6.112   6.600
 1477SOL    HW1 5330   3.664   6.180   6.673
 1477SOL    HW2 5331   3.758   6.072   6.594
 1478SOL     OW 5332   6.404   5.652   5.189
 1478SOL    HW1 5333   6.350   5.665   5.273
 1478SOL    HW2 5334   6.481   5.591   5.208
 1479SOL     OW 5335   2.988   3.531   0.926
 1479SOL    HW1 5336   2.917   3.461   0.922
 1479SOL    HW2 5337   3.077   3.488   0.943
 1480SOL     OW 5338   2.880   6.682   3.976
 1480SOL    HW1 5339   2.892   6.587   3.946
 1480SOL    HW2 5340   2.932   6.743   3.916
 1481SOL     OW 5341   5.922   3.518   6.167
 1481SOL    HW1 5342   5.912   3.503   6.069
 1481SOL    HW2 5343   5.956   3.611   6.184
 1482SOL     OW 5344   4.573   0.450   1.784
 1482SOL    HW1 5345   4.476   0.451   1.807
 1482SOL    HW2 5346   4.609   0.543   1.791
 1483SOL     OW 5347   5.561   2.446   5.333
 1483SOL    HW1 5348   5.479   2.489   5.295
 1483SOL    HW2 5349   5.581   2.487   5.422
 1484SOL     OW 5350   4.727   4.749   3.708
 1484SOL    HW1 5351   4.660   4.776   3.777
 1484SOL    HW2 5352   4.793   4.686   3.749
 1485SOL     OW 5353   5.087   0.342   4.491
 1485SOL    HW1 5354   5.082   0.371   4.587
 1485SOL    HW2 5355   5.034   0.258   4.479
 1486SOL     OW 5356   5.231   0.532   3.271
 1486SOL    HW1 5357   5.140   0.572   3.274
 1486SOL    HW2 5358   5.290   0.589   3.214
 1487SOL     OW 5359   0.192   2.276   6.776
 1487SOL    HW1 5360   0.143   2.357   6.746
 1487SOL    HW2 5361   0.127   2.207   6.806
 1488SOL     OW 5362   5.002   0.091   3.349
 1488SOL    HW1 5363   5.095   0.061   3.369
 1488SOL    HW2 5364   4.939   0.057   3.419
 1489SOL     OW 5365   3.624   4.814   6.564
 1489SOL    HW1 5366   3.569   4.883   6.611
 1489SOL    HW2 5367   3.577   4.726   6.569
 1490SOL     OW 5368   7.002   3.462   1.198
 1490SOL    HW1 5369   7.017   3.511   1.112
 1490SOL    HW2 5370   7.006   3.363   1.182
 1491SOL     OW 5371   6.528   4.062   2.291
 1491SOL    HW1 5372   6.454   4.127   2.312
 1491SOL    HW2 5373   6.505   4.011   2.208
 1492SOL     OW 5374   6.068   0.613   2.185
 1492SOL    HW1 5375   6.029   0.702   2.163
 1492SOL    HW2 5376   6.062   0.553   2.105
 1493SOL     OW 5377   4.004   0.346   6.007
 1493SOL    HW1 5378   4.063   0.327   5.929
 1493SOL    HW2 5379   3.933   0.275   6.014
 1494SOL     OW 5380   5.636   2.710   6.580
 1494SOL    HW1 5381   5.643   2.643   6.507
 1494SOL    HW2 5382   5.555   2.768   6.564
 1495SOL     OW 5383   0.229   4.308   5.455
 1495SOL    HW1 5384   0.290   4.230   5.458
 1495SOL    HW2 5385   0.223   4.343   5.362
 1496SOL     OW 5386   1.614   1.152   0.494
 1496SOL    HW1 5387   1.645   1.206   0.572
 1496SOL    HW2 5388   1.681   1.081   0.473
 1497SOL     OW 5389   5.346   2.934   1.910
 1497SOL    HW1 5390   5.256   2.972   1.890
 1497SOL    HW2 5391   5.409   3.007   1.935
 1498SOL     OW 5392   2.614   4.604   0.639
 1498SOL    HW1 5393   2.533   4.593   0.582
 1498SOL    HW2 5394   2.683   4.658   0.590
 1499SOL     OW 5395   0.433   2.444   5.862
 1499SOL    HW1 5396   0.532   2.429   5.854
 1499SOL    HW2 5397   0.416   2.529   5.912
 1500SOL     OW 5398   0.342   6.696   0.378
 1500SOL    HW1 5399   0.302   6.776   0.335
 1500SOL    HW2 5400   0.270   6.628   0.395
 1501SOL     OW 5401   5.756   1.887   6.364
 1501SOL    HW1 5402   5.853   1.872   6.384
 1501SOL    HW2 5403   5.730   1.979   6.392
 1502SOL     OW 5404   4.847   0.751   0.079
 1502SOL    HW1 5405   4.889   0.781   7.019
 1502SOL    HW2 5406   4.890   0.666   0.109
 1503SOL     OW 5407   1.462   3.019   2.195
 1503SOL    HW1 5408   1.462   2.919   2.200
 1503SOL    HW2 5409   1.544   3.055   2.239
 1504SOL     OW 5410   0.255   0.044   4.172
 1504SOL    HW1 5411   0.182   0.082   4.230
 1504SOL    HW2 5412   0.265   6.972   4.191
 1505SOL     OW 5413   4.759   0.276   5.937
 1505SOL    HW1 5414   4.848   0.234   5.954
 1505SOL    HW2 5415   4.763   0.374   5.960
 1506SOL     OW 5416   0.861   6.951   0.182
 1506SOL    HW1 5417   0.862   6.854   0.207
 1506SOL    HW2 5418   0.822   7.004   0.258
 1507SOL     OW 5419   0.063   2.002   5.749
 1507SOL    HW1 5420   0.039   1.982   5.844
 1507SOL    HW2 5421   0.157   1.972   5.731
 1508SOL     OW 5422   5.987   1.413   1.368
 1508SOL    HW1 5423   6.003   1.321   1.404
 1508SOL    HW2 5424   5.896   1.417   1.327
 1509SOL     OW 5425   4.736   2.226   4.936
 1509SOL    HW1 5426   4.684   2.277   4.867
 1509SOL    HW2 5427   4.834   2.234   4.917
 1510SOL     OW 5428   5.303   6.832   4.903
 1510SOL    HW1 5429   5.283   6.832   4.805
 1510SOL    HW2 5430   5.306   6.737   4.936
 1511SOL     OW 5431   4.108   3.641   4.203
 1511SOL    HW1 5432   4.038   3.603   4.142
 1511SOL    HW2 5433   4.144   3.570   4.262
 1512SOL     OW 5434   6.618   5.639   1.457
 1512SOL    HW1 5435   6.604   5.559   1.516
 1512SOL    HW2 5436   6.715   5.652   1.441
 1513SOL     OW 5437   3.754   0.457   4.618
 1513SOL    HW1 5438   3.736   0.449   4.716
 1513SOL    HW2 5439   3.780   0.551   4.596
 1514SOL     OW 5440   3.932   3.125   5.773
 1514SOL    HW1 5441   3.971   3.036   5.798
 1514SOL    HW2 5442   3.968   3.196   5.833
 1515SOL     OW 5443   5.493   1.595   2.577
 1515SOL    HW1 5444   5.502   1.527   2.650
 1515SOL    HW2 5445   5.404   1.640   2.585
 1516SOL     OW 5446   6.144   5.356   5.943
 1516SOL    HW1 5447   6.112   5.275   5.895
 1516SOL    HW2 5448   6.134   5.343   6.042
 1517SOL     OW 5449   4.469   6.222   2.506
 1517SOL    HW1 5450   4.429   6.182   2.424
 1517SOL    HW2 5451   4.495   6.149   2.570
 1518SOL     OW 5452   0.059   1.936   0.423
 1518SOL    HW1 5453   0.002   1.948   0.342
 1518SOL    HW2 5454   0.054   2.019   0.479
 1519SOL     OW 5455   6.339   4.377   1.280
 1519SOL    HW1 5456   6.359   4.437   1.357
 1519SOL    HW2 5457   6.253   4.404   1.237
 1520SOL     OW 5458   0.263   4.270   1.752
 1520SOL    HW1 5459   0.358   4.246   1.773
 1520SOL    HW2 5460   0.256   4.303   1.658
 1521SOL     OW 5461   2.490   4.644   6.583
 1521SOL    HW1 5462   2.390   4.653   6.583
 1521SOL    HW2 5463   2.517   4.578   6.653
 1522SOL     OW 5464   6.188   5.836   4.870
 1522SOL    HW1 5465   6.240   5.751   4.881
 1522SOL    HW2 5466   6.222   5.904   4.936
 1523SOL     OW 5467   3.759   6.568   7.020
 1523SOL    HW1 5468   3.835   6.509   0.023
 1523SOL    HW2 5469   3.740   6.553   6.923
 1524SOL     OW 5470   2.576   1.712   1.710
 1524SOL    HW1 5471   2.651   1.659   1.749
 1524SOL    HW2 5472   2.580   1.806   1.744
 1525SOL     OW 5473   6.253   3.133   0.661
 1525SOL    HW1 5474   6.162   3.099   0.637
 1525SOL    HW2 5475   6.262   3.138   0.760
 1526SOL     OW 5476   6.994   0.998   6.955
 1526SOL    HW1 5477   6.957   1.030   6.868
 1526SOL    HW2 5478   6.919   0.965   7.013
 1527SOL     OW 5479   3.259   1.223   3.889
 1527SOL    HW1 5480   3.358   1.211   3.890
 1527SOL    HW2 5481   3.234   1.295   3.954
 1528SOL     OW 5482   4.186   4.759   2.890
 1528SOL    HW1 5483   4.139   4.829   2.836
 1528SOL    HW2 5484   4.228   4.692   2.829
 1529SOL     OW 5485   4.470   0.560   7.003
 1529SOL    HW1 5486   4.407   0.491   0.014
 1529SOL    HW2 5487   4.509   0.612   0.053
 1530SOL     OW 5488   3.681   1.605   2.213
 1530SOL    HW1 5489   3.719   1.620   2.121
 1530SOL    HW2 5490   3.617   1.679   2.235
 1531SOL     OW 5491   4.776   0.846   5.130
 1531SOL    HW1 5492   4.759   0.749   5.148
 1531SOL    HW2 5493   4.859   0.856   5.076
 1532SOL     OW 5494   3.597   4.214   6.111
 1532SOL    HW1 5495   3.562   4.306   6.124
 1532SOL    HW2 5496   3.538   4.149   6.159
 1533SOL     OW 5497   6.305   5.005   0.473
 1533SOL    HW1 5498   6.288   5.085   0.531
 1533SOL    HW2 5499   6.257   5.016   0.386
 1534SOL     OW 5500   3.005   6.313   6.013
 1534SOL    HW1 5501   2.952   6.311   6.098
 1534SOL    HW2 5502   3.052   6.401   6.006
 1535SOL     OW 5503   5.375   5.817   4.206
 1535SOL    HW1 5504   5.409   5.839   4.298
 1535SOL    HW2 5505   5.311   5.887   4.176
 1536SOL     OW 5506   4.088   5.140   6.107
 1536SOL    HW1 5507   4.079   5.214   6.040
 1536SOL    HW2 5508   4.184   5.127   6.130
 1537SOL     OW 5509   4.419   5.554   4.025
 1537SOL    HW1 5510   4.514   5.572   4.051
 1537SOL    HW2 5511   4.363   5.633   4.049
 1538SOL     OW 5512   3.153   6.973   6.788
 1538SOL    HW1 5513   3.056   6.957   6.806
 1538SOL    HW2 5514   3.186   6.907   6.721
 1539SOL     OW 5515   4.617   3.499   1.747
 1539SOL    HW1 5516   4.540   3.560   1.728
 1539SOL    HW2 5517   4.593   3.437   1.822
 1540SOL     OW 5518   0.318   6.713   5.501
 1540SOL    HW1 5519   0.244   6.657   5.539
 1540SOL    HW2 5520   0.312   6.713   5.401
 1541SOL     OW 5521   3.188   3.004   4.544
 1541SOL    HW1 5522   3.138   2.918   4.553
 1541SOL    HW2 5523   3.141   3.064   4.480
 1542SOL     OW 5524   6.051   0.762   2.747
 1542SOL    HW1 5525   6.033   0.816   2.665
 1542SOL    HW2 5526   6.111   0.685   2.723
 1543SOL     OW 5527   3.651   4.958   4.803
 1543SOL    HW1 5528   3.608   4.957   4.713
 1543SOL    HW2 5529   3.581   4.960   4.874
 1544SOL     OW 5530   3.163   3.729   3.277
 1544SOL    HW1 5531   3.239   3.724   3.213
 1544SOL    HW2 5532   3.156   3.643   3.328
 1545SOL     OW 5533   4.630   0.207   3.006
 1545SOL    HW1 5534   4.625   0.267   3.085
 1545SOL    HW2 5535   4.556   0.140   3.010
 1546SOL     OW 5536   4.936   6.979   5.526
 1546SOL    HW1 5537   4.890   7.014   5.607
 1546SOL    HW2 5538   4.886   6.899   5.491
 1547SOL     OW 5539   1.947   4.117   1.074
 1547SOL    HW1 5540   1.951   4.017   1.073
 1547SOL    HW2 5541   2.035   4.154   1.044
 1548SOL     OW 5542   5.521   4.086   6.883
 1548SOL    HW1 5543   5.474   4.090   6.795
 1548SOL    HW2 5544   5.619   4.094   6.870
 1549SOL     OW 5545   4.066   1.683   1.671
 1549SOL    HW1 5546   4.072   1.674   1.771
 1549SOL    HW2 5547   3.980   1.728   1.647
 1550SOL     OW 5548   2.772   3.479   0.459
 1550SOL    HW1 5549   2.844   3.508   0.523
 1550SOL    HW2 5550   2.682   3.503   0.498
 1551SOL     OW 5551   1.932   3.974   6.365
 1551SOL    HW1 5552   1.925   3.949   6.461
 1551SOL    HW2 5553   2.028   3.991   6.342
 1552SOL     OW 5554   2.452   5.721   0.841
 1552SOL    HW1 5555   2.485   5.626   0.835
 1552SOL    HW2 5556   2.486   5.773   0.762
 1553SOL     OW 5557   5.872   1.618   6.761
 1553SOL    HW1 5558   5.831   1.530   6.739
 1553SOL    HW2 5559   5.833   1.653   6.847
 1554SOL     OW 5560   3.431   1.710   3.522
 1554SOL    HW1 5561   3.422   1.785   3.457
 1554SOL    HW2 5562   3.381   1.732   3.606
 1555SOL     OW 5563   5.738   3.035   0.238
 1555SOL    HW1 5564   5.674   3.110   0.222
 1555SOL    HW2 5565   5.832   3.070   0.239
 1556SOL     OW 5566   2.548   2.320   0.013
 1556SOL    HW1 5567   2.539   2.227   7.003
 1556SOL    HW2 5568   2.641   2.334   0.046
 1557SOL     OW 5569   1.846   2.355   4.653
 1557SOL    HW1 5570   1.931   2.408   4.649
 1557SOL    HW2 5571   1.801   2.371   4.741
 1558SOL     OW 5572   5.953   0.333   4.741
 1558SOL    HW1 5573   5.864   0.308   4.703
 1558SOL    HW2 5574   6.022   0.329   4.670
 1559SOL     OW 5575   1.926   2.845   6.608
 1559SOL    HW1 5576   2.002   2.892   6.653
 1559SOL    HW2 5577   1.873   2.909   6.553
 1560SOL     OW 5578   6.949   1.015   5.997
 1560SOL    HW1 5579   6.910   0.950   5.932
 1560SOL    HW2 5580   7.016   1.073   5.950
 1561SOL     OW 5581   5.608   6.578   3.764
 1561SOL    HW1 5582   5.555   6.613   3.687
 1561SOL    HW2 5583   5.689   6.531   3.730
 1562SOL     OW 5584   5.107   6.216   2.686
 1562SOL    HW1 5585   5.117   6.312   2.713
 1562SOL    HW2 5586   5.178   6.193   2.619
 1563SOL     OW 5587   2.255   0.334   4.655
 1563SOL    HW1 5588   2.229   0.264   4.722
 1563SOL    HW2 5589   2.288   0.290   4.572
 1564SOL     OW 5590   1.555   2.010   3.309
 1564SOL    HW1 5591   1.642   2.038   3.270
 1564SOL    HW2 5592   1.481   2.036   3.247
 1565SOL     OW 5593   4.890   4.505   3.501
 1565SOL    HW1 5594   4.814   4.495   3.565
 1565SOL    HW2 5595   4.862   4.563   3.424
 1566SOL     OW 5596   5.977   4.327   2.731
 1566SOL    HW1 5597   6.056   4.310   2.789
 1566SOL    HW2 5598   5.894   4.298   2.779
 1567SOL     OW 5599   6.447   6.175   0.741
 1567SOL    HW1 5600   6.484   6.087   0.773
 1567SOL    HW2 5601   6.488   6.249   0.794
 1568SOL     OW 5602   1.609   6.790   6.887
 1568SOL    HW1 5603   1.697   6.838   6.886
 1568SOL    HW2 5604   1.549   6.833   6.954
 1569SOL     OW 5605   4.764   6.056   3.476
 1569SOL    HW1 5606   4.784   6.148   3.509
 1569SOL    HW2 5607   4.666   6.041   3.477
 1570SOL     OW 5608   1.655   0.509   0.902
 1570SOL    HW1 5609   1.641   0.442   0.830
 1570SOL    HW2 5610   1.600   0.590   0.884
 1571SOL     OW 5611   5.683   2.597   0.951
 1571SOL    HW1 5612   5.698   2.686   0.910
 1571SOL    HW2 5613   5.672   2.608   1.050
 1572SOL     OW 5614   0.222   6.711   1.583
 1572SOL    HW1 5615   0.138   6.684   1.535
 1572SOL    HW2 5616   0.248   6.639   1.647
 1573SOL     OW 5617   5.221   2.352   2.529
 1573SOL    HW1 5618   5.212   2.305   2.441
 1573SOL    HW2 5619   5.130   2.379   2.562
 1574SOL     OW 5620   6.135   0.767   1.899
 1574SOL    HW1 5621   6.190   0.761   1.816
 1574SOL    HW2 5622   6.124   0.863   1.925
 1575SOL     OW 5623   3.370   1.079   0.414
 1575SOL    HW1 5624   3.291   1.028   0.449
 1575SOL    HW2 5625   3.385   1.161   0.469
 1576SOL     OW 5626   0.086   5.862   3.871
 1576SOL    HW1 5627   0.112   5.901   3.959
 1576SOL    HW2 5628   0.095   5.763   3.874
 1577SOL     OW 5629   3.709   1.897   4.407
 1577SOL    HW1 5630   3.631   1.853   4.451
 1577SOL    HW2 5631   3.680   1.984   4.367
 1578SOL     OW 5632   6.183   3.875   5.666
 1578SOL    HW1 5633   6.278   3.853   5.643
 1578SOL    HW2 5634   6.145   3.803   5.725
 1579SOL     OW 5635   6.868   1.845   3.162
 1579SOL    HW1 5636   6.939   1.881   3.102
 1579SOL    HW2 5637   6.787   1.822   3.108
 1580SOL     OW 5638   2.676   3.587   5.467
 1580SOL    HW1 5639   2.709   3.651   5.398
 1580SOL    HW2 5640   2.578   3.572   5.454
 1581SOL     OW 5641   0.044   4.792   4.904
 1581SOL    HW1 5642   0.016   4.886   4.924
 1581SOL    HW2 5643   0.102   4.758   4.977
 1582SOL     OW 5644   1.500   6.556   4.421
 1582SOL    HW1 5645   1.532   6.546   4.515
 1582SOL    HW2 5646   1.407   6.519   4.414
 1583SOL     OW 5647   0.899   3.312   3.728
 1583SOL    HW1 5648   0.959   3.350   3.799
 1583SOL    HW2 5649   0.835   3.248   3.769
 1584SOL     OW 5650   1.483   6.842   4.757
 1584SOL    HW1 5651   1.495   6.767   4.822
 1584SOL    HW2 5652   1.569   6.893   4.750
 1585SOL     OW 5653   5.388   1.525   3.218
 1585SOL    HW1 5654   5.329   1.448   3.241
 1585SOL    HW2 5655   5.374   1.550   3.122
 1586SOL     OW 5656   3.246   4.432   1.062
 1586SOL    HW1 5657   3.259   4.529   1.082
 1586SOL    HW2 5658   3.220   4.384   1.145
 1587SOL     OW 5659   2.776   5.117   0.203
 1587SOL    HW1 5660   2.824   5.069   0.129
 1587SOL    HW2 5661   2.839   5.178   0.250
 1588SOL     OW 5662   4.900   0.992   3.218
 1588SOL    HW1 5663   4.865   1.081   3.187
 1588SOL    HW2 5664   4.824   0.936   3.252
 1589SOL     OW 5665   6.326   4.036   3.099
 1589SOL    HW1 5666   6.255   4.002   3.160
 1589SOL    HW2 5667   6.378   3.959   3.062
 1590SOL     OW 5668   2.760   6.816   5.789
 1590SOL    HW1 5669   2.688   6.770   5.737
 1590SOL    HW2 5670   2.730   6.908   5.814
 1591SOL     OW 5671   0.641   4.875   2.748
 1591SOL    HW1 5672   0.740   4.861   2.748
 1591SOL    HW2 5673   0.621   4.969   2.777
 1592SOL     OW 5674   2.638   4.625   1.520
 1592SOL    HW1 5675   2.604   4.557   1.455
 1592SOL    HW2 5676   2.635   4.587   1.613
 1593SOL     OW 5677   0.959   6.288   4.137
 1593SOL    HW1 5678   0.930   6.379   4.106
 1593SOL    HW2 5679   0.896   6.219   4.101
 1594SOL     OW 5680   0.099   5.296   2.903
 1594SOL    HW1 5681   0.091   5.292   3.003
 1594SOL    HW2 5682   0.126   5.206   2.869
 1595SOL     OW 5683   1.078   5.090   6.445
 1595SOL    HW1 5684   1.163   5.108   6.396
 1595SOL    HW2 5685   1.002   5.137   6.399
 1596SOL     OW 5686   0.948   2.570   5.577
 1596SOL    HW1 5687   0.849   2.573   5.563
 1596SOL    HW2 5688   0.988   2.656   5.546
 1597SOL     OW 5689   2.731   5.794   0.153
 1597SOL    HW1 5690   2.730   5.728   0.228
 1597SOL    HW2 5691   2.704   5.749   0.068
 1598SOL     OW 5692   0.992   3.888   6.872
 1598SOL    HW1 5693   0.924   3.818   6.894
 1598SOL    HW2 5694   1.022   3.877   6.777
 1599SOL     OW 5695   5.122   4.134   5.869
 1599SOL    HW1 5696   5.083   4.137   5.961
 1599SOL    HW2 5697   5.110   4.223   5.824
 1600SOL     OW 5698   5.209   1.993   4.775
 1600SOL    HW1 5699   5.187   2.083   4.737
 1600SOL    HW2 5700   5.307   1.988   4.794
 1601SOL     OW 5701   0.584   5.277   4.655
 1601SOL    HW1 5702   0.609   5.184   4.683
 1601SOL    HW2 5703   0.581   5.281   4.555
 1602SOL     OW 5704   2.237   5.388   4.206
 1602SOL    HW1 5705   2.274   5.442   4.130
 1602SOL    HW2 5706   2.211   5.450   4.280
 1603SOL     OW 5707   0.692   5.869   2.268
 1603SOL    HW1 5708   0.675   5.771   2.258
 1603SOL    HW2 5709   0.620   5.909   2.324
 1604SOL     OW 5710   6.216   4.765   6.963
 1604SOL    HW1 5711   6.203   4.766   0.037
 1604SOL    HW2 5712   6.266   4.682   6.938
 1605SOL     OW 5713   6.187   6.981   2.040
 1605SOL    HW1 5714   6.235   6.948   1.959
 1605SOL    HW2 5715   6.099   6.935   2.048
 1606SOL     OW 5716   3.942   0.213   4.905
 1606SOL    HW1 5717   3.958   0.264   4.990
 1606SOL    HW2 5718   3.849   0.177   4.905
 1607SOL     OW 5719   4.443   2.462   0.361
 1607SOL    HW1 5720   4.535   2.442   0.327
 1607SOL    HW2 5721   4.446   2.469   0.461
 1608SOL     OW 5722   1.560   0.659   5.942
 1608SOL    HW1 5723   1.605   0.693   5.859
 1608SOL    HW2 5724   1.575   0.560   5.950
 1609SOL     OW 5725   4.255   0.728   6.930
 1609SOL    HW1 5726   4.188   0.711   6.858
 1609SOL    HW2 5727   4.325   0.658   6.928
 1610SOL     OW 5728   6.349   4.003   5.367
 1610SOL    HW1 5729   6.335   3.928   5.303
 1610SOL    HW2 5730   6.407   4.073   5.324
 1611SOL     OW 5731   3.352   3.661   1.464
 1611SOL    HW1 5732   3.444   3.654   1.425
 1611SOL    HW2 5733   3.295   3.588   1.428
 1612SOL     OW 5734   2.928   1.208   5.631
 1612SOL    HW1 5735   2.866   1.229   5.707
 1612SOL    HW2 5736   3.022   1.230   5.658
 1613SOL     OW 5737   2.003   6.008   1.667
 1613SOL    HW1 5738   2.055   6.037   1.587
 1613SOL    HW2 5739   2.063   5.961   1.731
 1614SOL     OW 5740   6.433   3.735   0.454
 1614SOL    HW1 5741   6.360   3.804   0.455
 1614SOL    HW2 5742   6.464   3.719   0.548
 1615SOL     OW 5743   6.109   4.424   1.148
 1615SOL    HW1 5744   6.074   4.513   1.174
 1615SOL    HW2 5745   6.082   4.404   1.053
 1616SOL     OW 5746   4.197   2.707   5.714
 1616SOL    HW1 5747   4.296   2.710   5.700
 1616SOL    HW2 5748   4.172   2.622   5.760
 1617SOL     OW 5749   5.803   6.705   1.429
 1617SOL    HW1 5750   5.742   6.749   1.363
 1617SOL    HW2 5751   5.894   6.696   1.389
 1618SOL     OW 5752   0.566   3.891   0.849
 1618SOL    HW1 5753   0.641   3.889   0.783
 1618SOL    HW2 5754   0.496   3.826   0.822
 1619SOL     OW 5755   1.343   1.854   3.889
 1619SOL    HW1 5756   1.373   1.843   3.794
 1619SOL    HW2 5757   1.250   1.891   3.890
 1620SOL     OW 5758   1.815   6.149   0.691
 1620SOL    HW1 5759   1.892   6.098   0.728
 1620SOL    HW2 5760   1.735   6.136   0.750
 1621SOL     OW 5761   0.552   1.126   0.604
 1621SOL    HW1 5762   0.458   1.134   0.638
 1621SOL    HW2 5763   0.553   1.148   0.507
 1622SOL     OW 5764   1.478   2.336   4.263
 1622SOL    HW1 5765   1.565   2.289   4.249
 1622SOL    HW2 5766   1.481   2.388   4.349
 1623SOL     OW 5767   2.712   2.796   6.016
 1623SOL    HW1 5768   2.745   2.705   6.038
 1623SOL    HW2 5769   2.612   2.796   6.015
 1624SOL     OW 5770   3.164   0.879   5.930
 1624SOL    HW1 5771   3.182   0.791   5.888
 1624SOL    HW2 5772   3.065   0.895   5.933
 1625SOL     OW 5773   1.479   6.065   1.931
 1625SOL    HW1 5774   1.424   6.035   1.853
 1625SOL    HW2 5775   1.420   6.113   1.996
 1626SOL     OW 5776   2.906   1.924   6.449
 1626SOL    HW1 5777   2.858   1.869   6.381
 1626SOL    HW2 5778   2.934   1.867   6.525
 1627SOL     OW 5779   6.395   2.621   4.023
 1627SOL    HW1 5780   6.337   2.569   4.086
 1627SOL    HW2 5781   6.341   2.692   3.979
 1628SOL     OW 5782   4.840   4.996   6.682
 1628SOL    HW1 5783   4.857   5.043   6.769
 1628SOL    HW2 5784   4.854   4.898   6.694
 1629SOL     OW 5785   3.515   2.010   4.658
 1629SOL    HW1 5786   3.487   2.054   4.743
 1629SOL    HW2 5787   3.601   2.050   4.625
 1630SOL     OW 5788   1.127   6.334   5.542
 1630SOL    HW1 5789   1.146   6.403   5.611
 1630SOL    HW2 5790   1.194   6.341   5.468
 1631SOL     OW 5791   0.080   1.203   5.868
 1631SOL    HW1 5792   0.120   1.189   5.778
 1631SOL    HW2 5793   0.013   1.277   5.863
 1632SOL     OW 5794   0.311   1.432   6.848
 1632SOL    HW1 5795   0.405   1.451   6.875
 1632SOL    HW2 5796   0.286   1.492   6.772
 1633SOL     OW 5797   5.119   2.115   3.662
 1633SOL    HW1 5798   5.172   2.149   3.584
 1633SOL    HW2 5799   5.165   2.035   3.701
 1634SOL     OW 5800   4.178   5.334   5.591
 1634SOL    HW1 5801   4.269   5.372   5.609
 1634SOL    HW2 5802   4.109   5.392   5.634
 1635SOL     OW 5803   6.225   5.107   5.173
 1635SOL    HW1 5804   6.143   5.068   5.216
 1635SOL    HW2 5805   6.305   5.052   5.199
 1636SOL     OW 5806   2.137   4.507   1.339
 1636SOL    HW1 5807   2.176   4.527   1.249
 1636SOL    HW2 5808   2.055   4.451   1.329
 1637SOL     OW 5809   6.163   0.348   2.958
 1637SOL    HW1 5810   6.079   0.398   2.974
 1637SOL    HW2 5811   6.239   0.393   3.005
 1638SOL     OW 5812   0.667   3.952   3.969
 1638SOL    HW1 5813   0.568   3.937   3.978
 1638SOL    HW2 5814   0.684   4.041   3.927
 1639SOL     OW 5815   4.482   6.659   2.750
 1639SOL    HW1 5816   4.526   6.719   2.682
 1639SOL    HW2 5817   4.388   6.688   2.763
 1640SOL     OW 5818   5.613   1.776   0.905
 1640SOL    HW1 5819   5.692   1.815   0.952
 1640SOL    HW2 5820   5.630   1.680   0.885
 1641SOL     OW 5821   5.518   2.881   3.817
 1641SOL    HW1 5822   5.445   2.950   3.822
 1641SOL    HW2 5823   5.542   2.851   3.910
 1642SOL     OW 5824   6.506   3.391   0.251
 1642SOL    HW1 5825   6.522   3.310   0.307
 1642SOL    HW2 5826   6.549   3.470   0.294
 1643SOL     OW 5827   2.943   5.947   4.177
 1643SOL    HW1 5828   2.847   5.945   4.149
 1643SOL    HW2 5829   3.001   5.970   4.098
 1644SOL     OW 5830   1.843   2.405   1.131
 1644SOL    HW1 5831   1.887   2.351   1.202
 1644SOL    HW2 5832   1.912   2.450   1.074
 1645SOL     OW 5833   3.542   6.484   4.956
 1645SOL    HW1 5834   3.617   6.443   4.904
 1645SOL    HW2 5835   3.466   6.419   4.961
 1646SOL     OW 5836   2.529   5.421   1.145
 1646SOL    HW1 5837   2.550   5.510   1.184
 1646SOL    HW2 5838   2.595   5.353   1.179
 1647SOL     OW 5839   5.536   2.633   4.338
 1647SOL    HW1 5840   5.550   2.579   4.256
 1647SOL    HW2 5841   5.438   2.640   4.357
 1648SOL     OW 5842   5.971   6.073   1.729
 1648SOL    HW1 5843   5.939   6.130   1.654
 1648SOL    HW2 5844   5.991   6.130   1.809
 1649SOL     OW 5845   3.484   0.443   3.561
 1649SOL    HW1 5846   3.470   0.345   3.549
 1649SOL    HW2 5847   3.463   0.469   3.655
 1650SOL     OW 5848   2.694   6.873   4.038
 1650SOL    HW1 5849   2.781   6.833   4.010
 1650SOL    HW2 5850   2.648   6.811   4.103
 1651SOL     OW 5851   0.925   0.692   1.063
 1651SOL    HW1 5852   1.007   0.727   1.017
 1651SOL    HW2 5853   0.844   0.720   1.013
 1652SOL     OW 5854   1.322   2.578   1.902
 1652SOL    HW1 5855   1.280   2.511   1.963
 1652SOL    HW2 5856   1.268   2.587   1.819
 1653SOL     OW 5857   0.597   6.292   1.900
 1653SOL    HW1 5858   0.622   6.292   1.803
 1653SOL    HW2 5859   0.660   6.349   1.951
 1654SOL     OW 5860   0.139   2.729   1.843
 1654SOL    HW1 5861   0.040   2.720   1.827
 1654SOL    HW2 5862   0.186   2.731   1.755
 1655SOL     OW 5863   5.300   3.963   6.257
 1655SOL    HW1 5864   5.317   4.055   6.290
 1655SOL    HW2 5865   5.386   3.922   6.225
 1656SOL     OW 5866   1.602   4.559   3.238
 1656SOL    HW1 5867   1.590   4.460   3.247
 1656SOL    HW2 5868   1.564   4.589   3.150
 1657SOL     OW 5869   0.056   1.238   4.562
 1657SOL    HW1 5870   0.015   1.226   4.472
 1657SOL    HW2 5871   0.010   1.313   4.610
 1658SOL     OW 5872   0.674   6.779   3.428
 1658SOL    HW1 5873   0.645   6.856   3.371
 1658SOL    HW2 5874   0.611   6.702   3.416
 1659SOL     OW 5875   3.912   2.118   6.081
 1659SOL    HW1 5876   3.995   2.131   6.135
 1659SOL    HW2 5877   3.900   2.021   6.061
 1660SOL     OW 5878   1.754   4.731   4.077
 1660SOL    HW1 5879   1.817   4.678   4.019
 1660SOL    HW2 5880   1.784   4.725   4.172
 1661SOL     OW 5881   3.266   1.445   1.632
 1661SOL    HW1 5882   3.327   1.466   1.708
 1661SOL    HW2 5883   3.319   1.432   1.548
 1662SOL     OW 5884   6.083   1.169   3.752
 1662SOL    HW1 5885   6.098   1.130   3.661
 1662SOL    HW2 5886   6.085   1.269   3.747
 1663SOL     OW 5887   2.208   1.367   2.614
 1663SOL    HW1 5888   2.159   1.454   2.619
 1663SOL    HW2 5889   2.297   1.381   2.570
 1664SOL     OW 5890   1.329   0.140   4.063
 1664SOL    HW1 5891   1.374   0.228   4.055
 1664SOL    HW2 5892   1.305   0.106   3.972
 1665SOL     OW 5893   6.837   1.733   2.621
 1665SOL    HW1 5894   6.843   1.667   2.696
 1665SOL    HW2 5895   6.743   1.734   2.586
 1666SOL     OW 5896   5.979   3.521   0.578
 1666SOL    HW1 5897   6.060   3.531   0.521
 1666SOL    HW2 5898   5.931   3.437   0.552
 1667SOL     OW 5899   5.631   6.637   0.806
 1667SOL    HW1 5900   5.691   6.609   0.881
 1667SOL    HW2 5901   5.650   6.581   0.725
 1668SOL     OW 5902   4.949   6.330   5.852
 1668SOL    HW1 5903   4.898   6.413   5.876
 1668SOL    HW2 5904   4.988   6.289   5.934
 1669SOL     OW 5905   6.448   6.977   0.608
 1669SOL    HW1 5906   6.401   6.896   0.572
 1669SOL    HW2 5907   6.419   6.992   0.703
 1670SOL     OW 5908   6.957   5.774   5.965
 1670SOL    HW1 5909   7.015   5.825   5.902
 1670SOL    HW2 5910   6.921   5.693   5.919
 1671SOL     OW 5911   4.357   2.683   0.795
 1671SOL    HW1 5912   4.260   2.685   0.819
 1671SOL    HW2 5913   4.396   2.774   0.808
 1672SOL     OW 5914   2.093   4.095   2.545
 1672SOL    HW1 5915   2.121   4.175   2.598
 1672SOL    HW2 5916   1.994   4.099   2.529
 1673SOL     OW 5917   0.630   2.478   4.534
 1673SOL    HW1 5918   0.654   2.381   4.541
 1673SOL    HW2 5919   0.714   2.532   4.532
 1674SOL     OW 5920   1.366   3.886   1.224
 1674SOL    HW1 5921   1.356   3.798   1.272
 1674SOL    HW2 5922   1.436   3.876   1.152
 1675SOL     OW 5923   4.013   0.108   6.194
 1675SOL    HW1 5924   4.033   0.201   6.223
 1675SOL    HW2 5925   4.059   0.089   6.107
 1676SOL     OW 5926   3.674   1.132   2.347
 1676SOL    HW1 5927   3.576   1.122   2.328
 1676SOL    HW2 5928   3.725   1.069   2.288
 1677SOL     OW 5929   4.483   2.614   5.687
 1677SOL    HW1 5930   4.501   2.522   5.721
 1677SOL    HW2 5931   4.486   2.614   5.587
 1678SOL     OW 5932   5.209   4.579   4.530
 1678SOL    HW1 5933   5.229   4.632   4.448
 1678SOL    HW2 5934   5.187   4.642   4.606
 1679SOL     OW 5935   2.212   3.603   5.505
 1679SOL    HW1 5936   2.152   3.612   5.585
 1679SOL    HW2 5937   2.231   3.694   5.468
 1680SOL     OW 5938   1.107   1.705   4.198
 1680SOL    HW1 5939   1.131   1.619   4.243
 1680SOL    HW2 5940   1.071   1.686   4.106
 1681SOL     OW 5941   6.712   5.819   0.977
 1681SOL    HW1 5942   6.633   5.782   1.024
 1681SOL    HW2 5943   6.733   5.910   1.012
 1682SOL     OW 5944   0.335   3.010   4.964
 1682SOL    HW1 5945   0.371   2.948   4.895
 1682SOL    HW2 5946   0.257   3.060   4.927
 1683SOL     OW 5947   3.789   5.489   1.226
 1683SOL    HW1 5948   3.792   5.443   1.315
 1683SOL    HW2 5949   3.875   5.538   1.211
 1684SOL     OW 5950   0.958   6.374   2.771
 1684SOL    HW1 5951   0.933   6.328   2.856
 1684SOL    HW2 5952   0.969   6.307   2.698
 1685SOL     OW 5953   2.793   1.563   6.574
 1685SOL    HW1 5954   2.881   1.515   6.571
 1685SOL    HW2 5955   2.805   1.651   6.620
 1686SOL     OW 5956   2.601   5.097   5.548
 1686SOL    HW1 5957   2.541   5.176   5.543
 1686SOL    HW2 5958   2.637   5.086   5.641
 1687SOL     OW 5959   1.882   3.534   1.261
 1687SOL    HW1 5960   1.977   3.561   1.247
 1687SOL    HW2 5961   1.876   3.475   1.342
 1688SOL     OW 5962   1.606   2.437   3.543
 1688SOL    HW1 5963   1.642   2.530   3.530
 1688SOL    HW2 5964   1.680   2.371   3.530
 1689SOL     OW 5965   3.453   0.732   1.927
 1689SOL    HW1 5966   3.380   0.716   1.861
 1689SOL    HW2 5967   3.429   0.808   1.987
 1690SOL     OW 5968   1.278   3.025   3.258
 1690SOL    HW1 5969   1.355   2.994   3.203
 1690SOL    HW2 5970   1.194   3.020   3.204
 1691SOL     OW 5971   4.983   3.830   3.046
 1691SOL    HW1 5972   4.919   3.897   3.010
 1691SOL    HW2 5973   4.946   3.790   3.130
 1692SOL     OW 5974   6.557   6.901   1.449
 1692SOL    HW1 5975   6.506   6.815   1.446
 1692SOL    HW2 5976   6.624   6.897   1.523
 1693SOL     OW 5977   1.197   2.439   2.080
 1693SOL    HW1 5978   1.165   2.522   2.127
 1693SOL    HW2 5979   1.136   2.363   2.101
 1694SOL     OW 5980   4.430   6.748   4.199
 1694SOL    HW1 5981   4.426   6.802   4.115
 1694SOL    HW2 5982   4.489   6.669   4.185
 1695SOL     OW 5983   2.446   1.029   4.960
 1695SOL    HW1 5984   2.374   1.097   4.974
 1695SOL    HW2 5985   2.530   1.059   5.004
 1696SOL     OW 5986   5.490   5.302   0.918
 1696SOL    HW1 5987   5.408   5.246   0.930
 1696SOL    HW2 5988   5.465   5.399   0.920
 1697SOL     OW 5989   6.650   6.650   1.866
 1697SOL    HW1 5990   6.686   6.687   1.781
 1697SOL    HW2 5991   6.550   6.650   1.863
 1698SOL     OW 5992   4.386   1.701   0.721
 1698SOL    HW1 5993   4.394   1.789   0.675
 1698SOL    HW2 5994   4.392   1.628   0.653
 1699SOL     OW 5995   3.147   1.373   2.323
 1699SOL    HW1 5996   3.154   1.360   2.224
 1699SOL    HW2 5997   3.061   1.418   2.345
 1700SOL     OW 5998   6.406   2.331   3.838
 1700SOL    HW1 5999   6.314   2.367   3.853
 1700SOL    HW2 6000   6.436   2.353   3.745
 1701SOL     OW 6001   4.915   3.059   4.999
 1701SOL    HW1 6002   4.861   3.021   4.924
 1701SOL    HW2 6003   4.856   3.073   5.079
 1702SOL     OW 6004   6.886   3.594   0.485
 1702SOL    HW1 6005   6.957   3.611   0.417
 1702SOL    HW2 6006   6.870   3.677   0.538
 1703SOL     OW 6007   3.874   3.992   3.270
 1703SOL    HW1 6008   3.929   4.005   3.187
 1703SOL    HW2 6009   3.783   4.029   3.255
 1704SOL     OW 6010   0.558   1.131   0.941
 1704SOL    HW1 6011   0.563   1.230   0.927
 1704SOL    HW2 6012   0.648   1.096   0.966
 1705SOL     OW 6013   3.496   2.014   1.915
 1705SOL    HW1 6014   3.407   2.059   1.908
 1705SOL    HW2 6015   3.566   2.081   1.938
 1706SOL     OW 6016   4.158   6.335   1.244
 1706SOL    HW1 6017   4.256   6.332   1.226
 1706SOL    HW2 6018   4.140   6.301   1.336
 1707SOL     OW 6019   4.339   1.296   2.461
 1707SOL    HW1 6020   4.342   1.288   2.362
 1707SOL    HW2 6021   4.362   1.208   2.503
 1708SOL     OW 6022   5.324   5.511   2.353
 1708SOL    HW1 6023   5.268   5.578   2.304
 1708SOL    HW2 6024   5.349   5.548   2.443
 1709SOL     OW 6025   2.968   6.024   1.879
 1709SOL    HW1 6026   3.036   6.095   1.862
 1709SOL    HW2 6027   2.992   5.941   1.828
 1710SOL     OW 6028   5.843   4.589   3.942
 1710SOL    HW1 6029   5.926   4.548   3.980
 1710SOL    HW2 6030   5.865   4.634   3.855
 1711SOL     OW 6031   1.140   4.667   5.356
 1711SOL    HW1 6032   1.106   4.731   5.425
 1711SOL    HW2 6033   1.092   4.580   5.364
 1712SOL     OW 6034   0.367   3.267   6.284
 1712SOL    HW1 6035   0.351   3.240   6.189
 1712SOL    HW2 6036   0.384   3.186   6.340
 1713SOL     OW 6037   3.377   1.580   1.132
 1713SOL    HW1 6038   3.303   1.534   1.084
 1713SOL    HW2 6039   3.392   1.671   1.092
 1714SOL     OW 6040   4.256   1.812   6.033
 1714SOL    HW1 6041   4.340   1.783   6.079
 1714SOL    HW2 6042   4.180   1.754   6.064
 1715SOL     OW 6043   6.726   3.780   2.540
 1715SOL    HW1 6044   6.755   3.865   2.496
 1715SOL    HW2 6045   6.641   3.748   2.497
 1716SOL     OW 6046   5.475   6.548   1.641
 1716SOL    HW1 6047   5.402   6.496   1.597
 1716SOL    HW2 6048   5.438   6.596   1.721
 1717SOL     OW 6049   1.857   6.167   6.645
 1717SOL    HW1 6050   1.794   6.221   6.590
 1717SOL    HW2 6051   1.877   6.081   6.598
 1718SOL     OW 6052   1.948   1.795   0.812
 1718SOL    HW1 6053   1.911   1.828   0.899
 1718SOL    HW2 6054   2.044   1.821   0.804
 1719SOL     OW 6055   2.600   4.407   1.341
 1719SOL    HW1 6056   2.593   4.439   1.246
 1719SOL    HW2 6057   2.677   4.343   1.349
 1720SOL     OW 6058   6.905   1.219   1.278
 1720SOL    HW1 6059   6.893   1.252   1.371
 1720SOL    HW2 6060   6.816   1.192   1.240
 1721SOL     OW 6061   1.425   6.687   2.615
 1721SOL    HW1 6062   1.354   6.693   2.544
 1721SOL    HW2 6063   1.457   6.592   2.621
 1722SOL     OW 6064   5.373   1.262   3.796
 1722SOL    HW1 6065   5.276   1.268   3.773
 1722SOL    HW2 6066   5.404   1.351   3.830
 1723SOL     OW 6067   6.816   2.506   3.626
 1723SOL    HW1 6068   6.881   2.568   3.582
 1723SOL    HW2 6069   6.726   2.516   3.583
 1724SOL     OW 6070   5.825   1.735   0.506
 1724SOL    HW1 6071   5.867   1.680   0.434
 1724SOL    HW2 6072   5.895   1.762   0.572
 1725SOL     OW 6073   3.030   4.762   0.149
 1725SOL    HW1 6074   3.086   4.790   0.071
 1725SOL    HW2 6075   2.970   4.687   0.121
 1726SOL     OW 6076   0.309   4.606   5.831
 1726SOL    HW1 6077   0.239   4.647   5.889
 1726SOL    HW2 6078   0.271   4.525   5.786
 1727SOL     OW 6079   3.599   2.973   4.387
 1727SOL    HW1 6080   3.690   3.011   4.371
 1727SOL    HW2 6081   3.587   2.954   4.485
 1728SOL     OW 6082   5.568   5.392   4.677
 1728SOL    HW1 6083   5.530   5.359   4.591
 1728SOL    HW2 6084   5.599   5.314   4.732
 1729SOL     OW 6085   2.139   3.586   3.926
 1729SOL    HW1 6086   2.051   3.545   3.950
 1729SOL    HW2 6087   2.133   3.685   3.936
 1730SOL     OW 6088   6.595   0.797   4.828
 1730SOL    HW1 6089   6.544   0.883   4.830
 1730SOL    HW2 6090   6.672   0.802   4.892
 1731SOL     OW 6091   0.971   5.269   2.337
 1731SOL    HW1 6092   0.989   5.260   2.435
 1731SOL    HW2 6093   1.000   5.359   2.305
 1732SOL     OW 6094   2.577   4.638   5.841
 1732SOL    HW1 6095   2.623   4.556   5.874
 1732SOL    HW2 6096   2.483   4.615   5.815
 1733SOL     OW 6097   1.119   3.625   2.744
 1733SOL    HW1 6098   1.039   3.656   2.797
 1733SOL    HW2 6099   1.201   3.669   2.779
 1734SOL     OW 6100   4.682   2.926   1.647
 1734SOL    HW1 6101   4.698   2.998   1.580
 1734SOL    HW2 6102   4.635   2.965   1.727
 1735SOL     OW 6103   5.671   5.147   1.407
 1735SOL    HW1 6104   5.669   5.048   1.390
 1735SOL    HW2 6105   5.687   5.163   1.505
 1736SOL     OW 6106   4.892   1.496   0.505
 1736SOL    HW1 6107   4.897   1.401   0.476
 1736SOL    HW2 6108   4.802   1.533   0.482
 1737SOL     OW 6109   2.894   0.588   4.111
 1737SOL    HW1 6110   2.843   0.673   4.101
 1737SOL    HW2 6111   2.869   0.525   4.037
 1738SOL     OW 6112   2.060   2.300   3.776
 1738SOL    HW1 6113   1.992   2.248   3.827
 1738SOL    HW2 6114   2.044   2.289   3.678
 1739SOL     OW 6115   4.811   2.652   5.420
 1739SOL    HW1 6116   4.718   2.668   5.388
 1739SOL    HW2 6117   4.876   2.687   5.353
 1740SOL     OW 6118   6.804   1.751   6.658
 1740SOL    HW1 6119   6.861   1.682   6.703
 1740SOL    HW2 6120   6.852   1.839   6.658
 1741SOL     OW 6121   2.509   0.780   2.500
 1741SOL    HW1 6122   2.421   0.732   2.501
 1741SOL    HW2 6123   2.564   0.747   2.423
 1742SOL     OW 6124   4.450   6.169   5.795
 1742SOL    HW1 6125   4.404   6.135   5.877
 1742SOL    HW2 6126   4.396   6.243   5.755
 1743SOL     OW 6127   2.089   1.485   1.901
 1743SOL    HW1 6128   2.021   1.446   1.964
 1743SOL    HW2 6129   2.138   1.411   1.855
 1744SOL     OW 6130   0.575   6.869   1.959
 1744SOL    HW1 6131   0.629   6.951   1.940
 1744SOL    HW2 6132   0.478   6.894   1.964
 1745SOL     OW 6133   0.019   1.198   4.257
 1745SOL    HW1 6134   0.052   1.157   4.172
 1745SOL    HW2 6135   6.981   1.135   4.302
 1746SOL     OW 6136   2.018   5.686   5.606
 1746SOL    HW1 6137   1.918   5.673   5.603
 1746SOL    HW2 6138   2.056   5.635   5.683
 1747SOL     OW 6139   4.765   6.626   2.638
 1747SOL    HW1 6140   4.693   6.618   2.570
 1747SOL    HW2 6141   4.812   6.538   2.648
 1748SOL     OW 6142   0.188   0.479   3.670
 1748SOL    HW1 6143   0.190   0.558   3.609
 1748SOL    HW2 6144   0.198   0.510   3.765
 1749SOL     OW 6145   3.191   6.750   5.060
 1749SOL    HW1 6146   3.123   6.692   5.105
 1749SOL    HW2 6147   3.198   6.724   4.964
 1750SOL     OW 6148   5.544   1.118   3.656
 1750SOL    HW1 6149   5.499   1.183   3.717
 1750SOL    HW2 6150   5.540   1.027   3.696
 1751SOL     OW 6151   3.428   5.363   4.549
 1751SOL    HW1 6152   3.457   5.276   4.588
 1751SOL    HW2 6153   3.328   5.370   4.553
 1752SOL     OW 6154   6.673   2.322   2.381
 1752SOL    HW1 6155   6.722   2.235   2.388
 1752SOL    HW2 6156   6.646   2.352   2.472
 1753SOL     OW 6157   0.454   1.630   0.555
 1753SOL    HW1 6158   0.360   1.652   0.529
 1753SOL    HW2 6159   0.492   1.705   0.609
 1754SOL     OW 6160   3.353   3.209   1.457
 1754SOL    HW1 6161   3.368   3.111   1.469
 1754SOL    HW2 6162   3.388   3.237   1.367
 1755SOL     OW 6163   5.825   5.045   1.970
 1755SOL    HW1 6164   5.732   5.017   1.993
 1755SOL    HW2 6165   5.852   5.002   1.884
 1756SOL     OW 6166   4.124   4.336   6.287
 1756SOL    HW1 6167   4.044   4.276   6.296
 1756SOL    HW2 6168   4.100   4.428   6.317
 1757SOL     OW 6169   2.620   6.115   4.674
 1757SOL    HW1 6170   2.549   6.183   4.696
 1757SOL    HW2 6171   2.635   6.114   4.575
 1758SOL     OW 6172   2.422   0.300   3.225
 1758SOL    HW1 6173   2.487   0.365   3.263
 1758SOL    HW2 6174   2.466   0.211   3.214
 1759SOL     OW 6175   1.409   5.382   6.446
 1759SOL    HW1 6176   1.326   5.391   6.392
 1759SOL    HW2 6177   1.461   5.302   6.415
 1760SOL     OW 6178   6.570   1.549   1.653
 1760SOL    HW1 6179   6.660   1.569   1.616
 1760SOL    HW2 6180   6.580   1.500   1.740
 1761SOL     OW 6181   7.024   0.122   0.304
 1761SOL    HW1 6182   6.929   0.102   0.280
 1761SOL    HW2 6183   0.054   0.039   0.296
 1762SOL     OW 6184   6.104   1.247   5.166
 1762SOL    HW1 6185   6.022   1.193   5.152
 1762SOL    HW2 6186   6.176   1.189   5.204
 1763SOL     OW 6187   1.730   3.688   4.914
 1763SOL    HW1 6188   1.761   3.594   4.903
 1763SOL    HW2 6189   1.807   3.746   4.939
 1764SOL     OW 6190   1.867   3.963   3.037
 1764SOL    HW1 6191   1.913   3.944   2.951
 1764SOL    HW2 6192   1.852   3.878   3.087
 1765SOL     OW 6193   3.351   2.453   0.007
 1765SOL    HW1 6194   3.413   2.415   0.076
 1765SOL    HW2 6195   3.387   2.434   6.941
 1766SOL     OW 6196   4.753   2.933   4.363
 1766SOL    HW1 6197   4.758   2.985   4.448
 1766SOL    HW2 6198   4.820   2.968   4.298
 1767SOL     OW 6199   5.748   3.764   2.576
 1767SOL    HW1 6200   5.666   3.770   2.634
 1767SOL    HW2 6201   5.829   3.780   2.632
 1768SOL     OW 6202   3.827   1.324   4.640
 1768SOL    HW1 6203   3.839   1.382   4.720
 1768SOL    HW2 6204   3.755   1.361   4.581
 1769SOL     OW 6205   4.431   2.361   4.830
 1769SOL    HW1 6206   4.354   2.367   4.894
 1769SOL    HW2 6207   4.429   2.273   4.783
 1770SOL     OW 6208   0.978   5.794   4.708
 1770SOL    HW1 6209   0.887   5.809   4.747
 1770SOL    HW2 6210   1.001   5.869   4.646
 1771SOL     OW 6211   2.686   4.921   6.954
 1771SOL    HW1 6212   2.690   4.905   6.855
 1771SOL    HW2 6213   2.603   4.972   6.976
 1772SOL     OW 6214   3.208   6.370   3.673
 1772SOL    HW1 6215   3.173   6.337   3.761
 1772SOL    HW2 6216   3.227   6.468   3.679
 1773SOL     OW 6217   2.694   5.107   5.804
 1773SOL    HW1 6218   2.685   5.023   5.856
 1773SOL    HW2 6219   2.650   5.182   5.854
 1774SOL     OW 6220   4.107   6.251   1.489
 1774SOL    HW1 6221   4.161   6.322   1.534
 1774SOL    HW2 6222   4.052   6.202   1.557
 1775SOL     OW 6223   1.309   4.552   3.985
 1775SOL    HW1 6224   1.325   4.627   3.921
 1775SOL    HW2 6225   1.321   4.464   3.939
 1776SOL     OW 6226   2.908   0.192   4.027
 1776SOL    HW1 6227   2.986   0.239   3.987
 1776SOL    HW2 6228   2.856   0.145   3.955
 1777SOL     OW 6229   3.025   4.909   5.935
 1777SOL    HW1 6230   3.046   4.894   5.838
 1777SOL    HW2 6231   3.010   5.006   5.951
 1778SOL     OW 6232   4.294   3.421   5.344
 1778SOL    HW1 6233   4.220   3.480   5.309
 1778SOL    HW2 6234   4.271   3.390   5.436
 1779SOL     OW 6235   4.038   0.849   4.587
 1779SOL    HW1 6236   4.050   0.948   4.591
 1779SOL    HW2 6237   4.128   0.805   4.578
 1780SOL     OW 6238   3.292   3.094   6.084
 1780SOL    HW1 6239   3.320   3.015   6.029
 1780SOL    HW2 6240   3.289   3.068   6.181
 1781SOL     OW 6241   4.777   5.806   3.788
 1781SOL    HW1 6242   4.777   5.710   3.819
 1781SOL    HW2 6243   4.828   5.813   3.702
 1782SOL     OW 6244   3.659   1.802   2.693
 1782SOL    HW1 6245   3.694   1.881   2.643
 1782SOL    HW2 6246   3.708   1.719   2.664
 1783SOL     OW 6247   1.353   5.033   6.358
 1783SOL    HW1 6248   1.337   4.940   6.324
 1783SOL    HW2 6249   1.449   5.058   6.344
 1784SOL     OW 6250   3.231   1.023   5.545
 1784SOL    HW1 6251   3.273   1.028   5.635
 1784SOL    HW2 6252   3.271   0.948   5.493
 1785SOL     OW 6253   6.392   4.587   3.420
 1785SOL    HW1 6254   6.412   4.685   3.423
 1785SOL    HW2 6255   6.310   4.569   3.475
 1786SOL     OW 6256   1.707   2.271   0.718
 1786SOL    HW1 6257   1.730   2.352   0.772
 1786SOL    HW2 6258   1.789   2.213   0.708
 1787SOL     OW 6259   2.455   0.693   4.843
 1787SOL    HW1 6260   2.525   0.764   4.829
 1787SOL    HW2 6261   2.376   0.734   4.889
 1788SOL     OW 6262   3.369   3.233   0.748
 1788SOL    HW1 6263   3.452   3.289   0.748
 1788SOL    HW2 6264   3.364   3.180   0.664
 1789SOL     OW 6265   6.252   2.301   3.252
 1789SOL    HW1 6266   6.194   2.382   3.263
 1789SOL    HW2 6267   6.289   2.274   3.341
 1790SOL     OW 6268   4.106   6.126   4.330
 1790SOL    HW1 6269   4.194   6.174   4.325
 1790SOL    HW2 6270   4.039   6.185   4.374
 1791SOL     OW 6271   6.483   0.896   3.595
 1791SOL    HW1 6272   6.401   0.867   3.643
 1791SOL    HW2 6273   6.458   0.939   3.508
 1792SOL     OW 6274   6.962   2.861   4.826
 1792SOL    HW1 6275   0.001   2.877   4.901
 1792SOL    HW2 6276   6.906   2.943   4.812
 1793SOL     OW 6277   0.015   6.622   3.781
 1793SOL    HW1 6278   0.097   6.678   3.790
 1793SOL    HW2 6279   0.014   6.552   3.852
 1794SOL     OW 6280   5.626   6.220   6.547
 1794SOL    HW1 6281   5.561   6.161   6.500
 1794SOL    HW2 6282   5.621   6.312   6.508
 1795SOL     OW 6283   1.282   2.655   1.198
 1795SOL    HW1 6284   1.188   2.621   1.209
 1795SOL    HW2 6285   1.331   2.647   1.285
 1796SOL     OW 6286   2.437   0.606   4.140
 1796SOL    HW1 6287   2.343   0.596   4.107
 1796SOL    HW2 6288   2.438   0.601   4.240
 1797SOL     OW 6289   1.440   0.100   6.834
 1797SOL    HW1 6290   1.379   0.025   6.860
 1797SOL    HW2 6291   1.405   0.144   6.751
 1798SOL     OW 6292   5.393   2.218   3.983
 1798SOL    HW1 6293   5.444   2.199   3.899
 1798SOL    HW2 6294   5.359   2.133   4.022
 1799SOL     OW 6295   6.583   1.440   6.084
 1799SOL    HW1 6296   6.640   1.358   6.089
 1799SOL    HW2 6297   6.610   1.503   6.157
 1800SOL     OW 6298   3.822   4.841   2.458
 1800SOL    HW1 6299   3.792   4.912   2.521
 1800SOL    HW2 6300   3.746   4.817   2.396
 1801SOL     OW 6301   0.265   0.371   2.143
 1801SOL    HW1 6302   0.254   0.465   2.173
 1801SOL    HW2 6303   0.184   0.342   2.092
 1802SOL     OW 6304   5.593   5.505   3.238
 1802SOL    HW1 6305   5.527   5.430   3.231
 1802SOL    HW2 6306   5.686   5.469   3.228
 1803SOL     OW 6307   0.796   6.152   0.072
 1803SOL    HW1 6308   0.850   6.160   7.013
 1803SOL    HW2 6309   0.792   6.056   0.100
 1804SOL     OW 6310   2.655   3.837   5.308
 1804SOL    HW1 6311   2.637   3.871   5.401
 1804SOL    HW2 6312   2.582   3.867   5.248
 1805SOL     OW 6313   6.642   4.266   5.694
 1805SOL    HW1 6314   6.684   4.249   5.784
 1805SOL    HW2 6315   6.572   4.197   5.677
 1806SOL     OW 6316   0.585   0.663   0.364
 1806SOL    HW1 6317   0.642   0.696   0.288
 1806SOL    HW2 6318   0.582   0.563   0.362
 1807SOL     OW 6319   4.893   2.380   5.484
 1807SOL    HW1 6320   4.992   2.387   5.484
 1807SOL    HW2 6321   4.853   2.471   5.473
 1808SOL     OW 6322   0.754   4.049   6.271
 1808SOL    HW1 6323   0.713   3.970   6.226
 1808SOL    HW2 6324   0.854   4.041   6.268
 1809SOL     OW 6325   2.297   2.374   4.353
 1809SOL    HW1 6326   2.202   2.363   4.323
 1809SOL    HW2 6327   2.344   2.285   4.348
 1810SOL     OW 6328   3.102   6.925   3.560
 1810SOL    HW1 6329   3.166   6.995   3.593
 1810SOL    HW2 6330   3.109   6.918   3.460
 1811SOL     OW 6331   5.576   5.019   3.421
 1811SOL    HW1 6332   5.544   5.102   3.467
 1811SOL    HW2 6333   5.675   5.023   3.409
 1812SOL     OW 6334   4.365   6.299   5.374
 1812SOL    HW1 6335   4.396   6.380   5.425
 1812SOL    HW2 6336   4.299   6.328   5.305
 1813SOL     OW 6337   6.644   5.303   1.063
 1813SOL    HW1 6338   6.676   5.214   1.095
 1813SOL    HW2 6339   6.717   5.371   1.075
 1814SOL     OW 6340   5.946   1.604   0.818
 1814SOL    HW1 6341   6.009   1.655   0.760
 1814SOL    HW2 6342   5.977   1.509   0.827
 1815SOL     OW 6343   6.604   2.092   1.966
 1815SOL    HW1 6344   6.542   2.085   1.888
 1815SOL    HW2 6345   6.602   2.005   2.017
 1816SOL     OW 6346   2.701   3.639   1.132
 1816SOL    HW1 6347   2.613   3.591   1.123
 1816SOL    HW2 6348   2.741   3.651   1.041
 1817SOL     OW 6349   3.826   0.048   2.649
 1817SOL    HW1 6350   3.801   0.015   2.558
 1817SOL    HW2 6351   3.744   0.080   2.696
 1818SOL     OW 6352   1.861   6.336   2.642
 1818SOL    HW1 6353   1.832   6.306   2.733
 1818SOL    HW2 6354   1.785   6.379   2.595
 1819SOL     OW 6355   0.910   4.899   1.736
 1819SOL    HW1 6356   0.987   4.848   1.697
 1819SOL    HW2 6357   0.872   4.962   1.668
 1820SOL     OW 6358   4.431   0.528   2.348
 1820SOL    HW1 6359   4.345   0.575   2.327
 1820SOL    HW2 6360   4.469   0.489   2.264
 1821SOL     OW 6361   0.785   0.803   1.962
 1821SOL    HW1 6362   0.832   0.860   2.029
 1821SOL    HW2 6363   0.846   0.785   1.885
 1822SOL     OW 6364   2.563   3.153   1.235
 1822SOL    HW1 6365   2.524   3.162   1.143
 1822SOL    HW2 6366   2.493   3.175   1.303
 1823SOL     OW 6367   3.079   5.697   3.005
 1823SOL    HW1 6368   3.053   5.682   2.910
 1823SOL    HW2 6369   3.030   5.632   3.064
 1824SOL     OW 6370   3.309   2.482   1.681
 1824SOL    HW1 6371   3.316   2.399   1.736
 1824SOL    HW2 6372   3.350   2.466   1.591
 1825SOL     OW 6373   1.546   1.701   2.906
 1825SOL    HW1 6374   1.556   1.623   2.844
 1825SOL    HW2 6375   1.622   1.765   2.892
 1826SOL     OW 6376   3.223   0.097   1.279
 1826SOL    HW1 6377   3.159   0.020   1.283
 1826SOL    HW2 6378   3.283   0.095   1.358
 1827SOL     OW 6379   6.958   5.450   2.735
 1827SOL    HW1 6380   7.025   5.399   2.789
 1827SOL    HW2 6381   6.907   5.511   2.796
 1828SOL     OW 6382   0.955   2.335   0.709
 1828SOL    HW1 6383   0.892   2.284   0.768
 1828SOL    HW2 6384   0.939   2.311   0.614
 1829SOL     OW 6385   4.001   0.188   3.795
 1829SOL    HW1 6386   4.047   0.252   3.857
 1829SOL    HW2 6387   4.070   0.134   3.746
 1830SOL     OW 6388   6.045   5.840   3.887
 1830SOL    HW1 6389   6.031   5.848   3.789
 1830SOL    HW2 6390   6.142   5.827   3.907
 1831SOL     OW 6391   5.919   0.193   2.156
 1831SOL    HW1 6392   6.015   0.222   2.154
 1831SOL    HW2 6393   5.878   0.221   2.242
 1832SOL     OW 6394   5.224   1.274   1.068
 1832SOL    HW1 6395   5.272   1.257   1.154
 1832SOL    HW2 6396   5.175   1.191   1.041
 1833SOL     OW 6397   5.427   0.308   5.499
 1833SOL    HW1 6398   5.391   0.350   5.581
 1833SOL    HW2 6399   5.431   0.375   5.425
 1834SOL     OW 6400   2.765   3.957   0.614
 1834SOL    HW1 6401   2.681   3.903   0.609
 1834SOL    HW2 6402   2.757   4.025   0.687
 1835SOL     OW 6403   1.397   4.187   1.280
 1835SOL    HW1 6404   1.386   4.091   1.253
 1835SOL    HW2 6405   1.306   4.229   1.287
 1836SOL     OW 6406   5.285   1.464   1.456
 1836SOL    HW1 6407   5.230   1.473   1.373
 1836SOL    HW2 6408   5.272   1.546   1.513
 1837SOL     OW 6409   1.067   2.473   4.404
 1837SOL    HW1 6410   1.132   2.410   4.446
 1837SOL    HW2 6411   1.117   2.539   4.348
 1838SOL     OW 6412   0.198   1.927   4.093
 1838SOL    HW1 6413   0.189   2.023   4.067
 1838SOL    HW2 6414   0.117   1.877   4.062
 1839SOL     OW 6415   4.742   2.773   5.002
 1839SOL    HW1 6416   4.649   2.737   4.995
 1839SOL    HW2 6417   4.759   2.837   4.928
 1840SOL     OW 6418   3.612   5.730   1.275
 1840SOL    HW1 6419   3.516   5.700   1.272
 1840SOL    HW2 6420   3.672   5.651   1.261
 1841SOL     OW 6421   2.414   2.135   4.308
 1841SOL    HW1 6422   2.347   2.101   4.242
 1841SOL    HW2 6423   2.506   2.109   4.279
 1842SOL     OW 6424   0.840   5.372   0.815
 1842SOL    HW1 6425   0.937   5.349   0.805
 1842SOL    HW2 6426   0.816   5.442   0.747
 1843SOL     OW 6427   0.248   1.960   4.361
 1843SOL    HW1 6428   0.212   2.049   4.387
 1843SOL    HW2 6429   0.232   1.944   4.264
 1844SOL     OW 6430   3.616   0.755   5.763
 1844SOL    HW1 6431   3.626   0.854   5.772
 1844SOL    HW2 6432   3.706   0.712   5.769
 1845SOL     OW 6433   2.054   6.677   4.672
 1845SOL    HW1 6434   1.967   6.639   4.641
 1845SOL    HW2 6435   2.038   6.760   4.725
 1846SOL     OW 6436   4.400   2.200   0.474
 1846SOL    HW1 6437   4.430   2.280   0.421
 1846SOL    HW2 6438   4.339   2.230   0.547
 1847SOL     OW 6439   1.000   0.479   5.933
 1847SOL    HW1 6440   1.025   0.575   5.948
 1847SOL    HW2 6441   0.922   0.456   5.991
 1848SOL     OW 6442   0.693   6.889   2.541
 1848SOL    HW1 6443   0.693   6.951   2.618
 1848SOL    HW2 6444   0.728   6.936   2.460
 1849SOL     OW 6445   3.830   1.950   0.704
 1849SOL    HW1 6446   3.848   1.963   0.801
 1849SOL    HW2 6447   3.765   1.875   0.691
 1850SOL     OW 6448   6.976   3.072   2.494
 1850SOL    HW1 6449   6.917   3.083   2.413
 1850SOL    HW2 6450   0.037   3.120   2.479
 1851SOL     OW 6451   0.829   2.033   1.546
 1851SOL    HW1 6452   0.744   1.984   1.525
 1851SOL    HW2 6453   0.905   1.988   1.498
 1852SOL     OW 6454   5.933   3.384   1.812
 1852SOL    HW1 6455   5.884   3.369   1.897
 1852SOL    HW2 6456   5.868   3.388   1.736
 1853SOL     OW 6457   0.314   3.018   3.068
 1853SOL    HW1 6458   0.377   2.971   3.131
 1853SOL    HW2 6459   0.244   2.954   3.036
 1854SOL     OW 6460   2.369   6.216   2.972
 1854SOL    HW1 6461   2.273   6.207   2.995
 1854SOL    HW2 6462   2.425   6.167   3.039
 1855SOL     OW 6463   4.876   4.270   6.682
 1855SOL    HW1 6464   4.946   4.341   6.678
 1855SOL    HW2 6465   4.887   4.217   6.766
 1856SOL     OW 6466   6.320   3.835   5.142
 1856SOL    HW1 6467   6.312   3.744   5.102
 1856SOL    HW2 6468   6.416   3.863   5.140
 1857SOL     OW 6469   3.562   1.015   6.138
 1857SOL    HW1 6470   3.473   0.972   6.151
 1857SOL    HW2 6471   3.604   1.031   6.227
 1858SOL     OW 6472   5.962   2.989   3.556
 1858SOL    HW1 6473   6.041   3.047   3.578
 1858SOL    HW2 6474   5.879   3.045   3.557
 1859SOL     OW 6475   4.340   1.295   3.258
 1859SOL    HW1 6476   4.417   1.267   3.200
 1859SOL    HW2 6477   4.282   1.358   3.207
 1860SOL     OW 6478   6.418   0.523   3.887
 1860SOL    HW1 6479   6.472   0.561   3.961
 1860SOL    HW2 6480   6.474   0.459   3.834
 1861SOL     OW 6481   5.197   6.792   2.677
 1861SOL    HW1 6482   5.159   6.833   2.760
 1861SOL    HW2 6483   5.191   6.859   2.602
 1862SOL     OW 6484   2.418   0.579   6.377
 1862SOL    HW1 6485   2.398   0.636   6.298
 1862SOL    HW2 6486   2.471   0.499   6.348
 1863SOL     OW 6487   1.998   1.524   0.231
 1863SOL    HW1 6488   1.975   1.506   0.326
 1863SOL    HW2 6489   1.973   1.445   0.175
 1864SOL     OW 6490   0.679   6.818   6.135
 1864SOL    HW1 6491   0.669   6.782   6.042
 1864SOL    HW2 6492   0.768   6.790   6.172
 1865SOL     OW 6493   3.704   0.320   6.060
 1865SOL    HW1 6494   3.618   0.271   6.046
 1865SOL    HW2 6495   3.691   0.417   6.041
 1866SOL     OW 6496   4.413   5.343   3.211
 1866SOL    HW1 6497   4.428   5.245   3.223
 1866SOL    HW2 6498   4.360   5.379   3.287
 1867SOL     OW 6499   0.720   4.071   0.052
 1867SOL    HW1 6500   0.795   4.097   7.016
 1867SOL    HW2 6501   0.755   4.009   0.122
 1868SOL     OW 6502   4.975   3.638   0.166
 1868SOL    HW1 6503   5.047   3.569   0.163
 1868SOL    HW2 6504   5.005   3.715   0.222
 1869SOL     OW 6505   5.950   2.588   5.717
 1869SOL    HW1 6506   5.875   2.585   5.784
 1869SOL    HW2 6507   5.990   2.496   5.708
 1870SOL     OW 6508   1.959   2.991   5.390
 1870SOL    HW1 6509   2.046   2.997   5.343
 1870SOL    HW2 6510   1.884   3.004   5.325
 1871SOL     OW 6511   0.366   1.079   6.523
 1871SOL    HW1 6512   0.354   1.113   6.617
 1871SOL    HW2 6513   0.453   1.112   6.486
 1872SOL     OW 6514   3.449   2.827   0.314
 1872SOL    HW1 6515   3.382   2.901   0.305
 1872SOL    HW2 6516   3.541   2.866   0.319
 1873SOL     OW 6517   4.685   1.762   5.920
 1873SOL    HW1 6518   4.783   1.761   5.940
 1873SOL    HW2 6519   4.667   1.706   5.839
 1874SOL     OW 6520   3.337   1.219   1.026
 1874SOL    HW1 6521   3.288   1.182   1.105
 1874SOL    HW2 6522   3.274   1.274   0.971
 1875SOL     OW 6523   0.523   1.245   0.322
 1875SOL    HW1 6524   0.589   1.234   0.248
 1875SOL    HW2 6525   0.432   1.219   0.290
 1876SOL     OW 6526   4.194   0.023   5.975
 1876SOL    HW1 6527   4.154   6.983   5.911
 1876SOL    HW2 6528   4.229   0.102   5.924
 1877SOL     OW 6529   0.211   6.991   2.576
 1877SOL    HW1 6530   0.239   0.025   2.501
 1877SOL    HW2 6531   0.283   6.925   2.596
 1878SOL     OW 6532   6.791   2.096   3.801
 1878SOL    HW1 6533   6.826   2.139   3.718
 1878SOL    HW2 6534   6.751   2.165   3.861
 1879SOL     OW 6535   1.031   4.387   4.249
 1879SOL    HW1 6536   1.010   4.412   4.155
 1879SOL    HW2 6537   1.099   4.450   4.286
 1880SOL     OW 6538   0.128   2.035   4.722
 1880SOL    HW1 6539   0.041   2.081   4.741
 1880SOL    HW2 6540   0.188   2.044   4.802
 1881SOL     OW 6541   5.638   1.882   3.201
 1881SOL    HW1 6542   5.597   1.838   3.121
 1881SOL    HW2 6543   5.730   1.845   3.215
 1882SOL     OW 6544   1.454   3.834   6.299
 1882SOL    HW1 6545   1.551   3.850   6.315
 1882SOL    HW2 6546   1.440   3.806   6.203
 1883SOL     OW 6547   6.835   2.121   3.337
 1883SOL    HW1 6548   6.890   2.099   3.257
 1883SOL    HW2 6549   6.783   2.040   3.366
 1884SOL     OW 6550   0.088   2.132   0.662
 1884SOL    HW1 6551   0.005   2.151   0.714
 1884SOL    HW2 6552   0.130   2.048   0.697
 1885SOL     OW 6553   1.775   1.865   6.461
 1885SOL    HW1 6554   1.826   1.821   6.386
 1885SOL    HW2 6555   1.836   1.876   6.539
 1886SOL     OW 6556   1.587   0.543   1.268
 1886SOL    HW1 6557   1.601   0.515   1.363
 1886SOL    HW2 6558   1.610   0.466   1.207
 1887SOL     OW 6559   1.269   5.532   5.147
 1887SOL    HW1 6560   1.216   5.592   5.087
 1887SOL    HW2 6561   1.325   5.588   5.208
 1888SOL     OW 6562   2.927   2.257   6.803
 1888SOL    HW1 6563   3.016   2.214   6.817
 1888SOL    HW2 6564   2.901   2.307   6.885
 1889SOL     OW 6565   0.485   3.218   5.482
 1889SOL    HW1 6566   0.442   3.213   5.392
 1889SOL    HW2 6567   0.451   3.299   5.530
 1890SOL     OW 6568   1.623   5.982   4.050
 1890SOL    HW1 6569   1.673   5.952   4.131
 1890SOL    HW2 6570   1.577   5.904   4.008
 1891SOL     OW 6571   5.112   2.249   2.070
 1891SOL    HW1 6572   5.181   2.315   2.039
 1891SOL    HW2 6573   5.088   2.187   1.994
 1892SOL     OW 6574   1.893   0.915   2.539
 1892SOL    HW1 6575   1.839   0.868   2.469
 1892SOL    HW2 6576   1.908   0.852   2.616
 1893SOL     OW 6577   3.118   3.788   1.368
 1893SOL    HW1 6578   3.047   3.820   1.431
 1893SOL    HW2 6579   3.196   3.754   1.421
 1894SOL     OW 6580   3.496   4.155   3.872
 1894SOL    HW1 6581   3.561   4.167   3.947
 1894SOL    HW2 6582   3.422   4.221   3.881
 1895SOL     OW 6583   4.384   0.468   1.215
 1895SOL    HW1 6584   4.454   0.498   1.151
 1895SOL    HW2 6585   4.426   0.449   1.304
 1896SOL     OW 6586   5.301   1.225   1.620
 1896SOL    HW1 6587   5.287   1.250   1.524
 1896SOL    HW2 6588   5.323   1.306   1.673
 1897SOL     OW 6589   2.327   5.504   1.614
 1897SOL    HW1 6590   2.230   5.492   1.635
 1897SOL    HW2 6591   2.343   5.480   1.518
 1898SOL     OW 6592   2.310   5.241   3.838
 1898SOL    HW1 6593   2.239   5.309   3.857
 1898SOL    HW2 6594   2.271   5.149   3.844
 1899SOL     OW 6595   0.404   1.318   1.478
 1899SOL    HW1 6596   0.494   1.285   1.505
 1899SOL    HW2 6597   0.334   1.272   1.533
 1900SOL     OW 6598   2.318   0.629   6.958
 1900SOL    HW1 6599   2.285   0.583   6.875
 1900SOL    HW2 6600   2.316   0.728   6.944
 1901SOL     OW 6601   1.698   1.970   0.570
 1901SOL    HW1 6602   1.608   2.014   0.576
 1901SOL    HW2 6603   1.744   1.974   0.658
 1902SOL     OW 6604   1.796   0.574   5.136
 1902SOL    HW1 6605   1.863   0.518   5.185
 1902SOL    HW2 6606   1.790   0.664   5.179
 1903SOL     OW 6607   0.206   3.840   2.993
 1903SOL    HW1 6608   0.202   3.840   2.893
 1903SOL    HW2 6609   0.280   3.781   3.023
 1904SOL     OW 6610   5.969   5.391   3.933
 1904SOL    HW1 6611   6.027   5.388   4.015
 1904SOL    HW2 6612   5.975   5.481   3.891
 1905SOL     OW 6613   0.809   0.097   3.396
 1905SOL    HW1 6614   0.875   0.047   3.340
 1905SOL    HW2 6615   0.716   0.075   3.367
 1906SOL     OW 6616   1.986   0.145   5.061
 1906SOL    HW1 6617   2.057   0.151   4.991
 1906SOL    HW2 6618   2.027   0.158   5.151
 1907SOL     OW 6619   4.068   1.726   2.016
 1907SOL    HW1 6620   3.987   1.672   1.992
 1907SOL    HW2 6621   4.106   1.693   2.102
 1908SOL     OW 6622   3.774   6.443   5.671
 1908SOL    HW1 6623   3.713   6.522   5.669
 1908SOL    HW2 6624   3.725   6.365   5.709
 1909SOL     OW 6625   0.840   3.479   3.468
 1909SOL    HW1 6626   0.893   3.545   3.414
 1909SOL    HW2 6627   0.885   3.464   3.556
 1910SOL     OW 6628   0.311   5.642   6.017
 1910SOL    HW1 6629   0.257   5.686   5.945
 1910SOL    HW2 6630   0.356   5.712   6.072
 1911SOL     OW 6631   0.130   3.587   5.062
 1911SOL    HW1 6632   0.138   3.627   5.153
 1911SOL    HW2 6633   0.035   3.558   5.047
 1912SOL     OW 6634   3.125   5.687   1.057
 1912SOL    HW1 6635   3.133   5.676   0.958
 1912SOL    HW2 6636   3.031   5.667   1.086
 1913SOL     OW 6637   2.600   0.203   4.663
 1913SOL    HW1 6638   2.643   0.280   4.711
 1913SOL    HW2 6639   2.646   0.188   4.576
 1914SOL     OW 6640   3.764   2.981   6.324
 1914SOL    HW1 6641   3.831   2.919   6.367
 1914SOL    HW2 6642   3.744   3.056   6.387
 1915SOL     OW 6643   3.655   2.846   5.739
 1915SOL    HW1 6644   3.681   2.922   5.799
 1915SOL    HW2 6645   3.591   2.786   5.787
 1916SOL     OW 6646   4.098   5.806   1.552
 1916SOL    HW1 6647   4.182   5.768   1.590
 1916SOL    HW2 6648   4.092   5.782   1.455
 1917SOL     OW 6649   2.231   3.244   6.986
 1917SOL    HW1 6650   2.317   3.250   6.935
 1917SOL    HW2 6651   2.183   3.332   6.980
 1918SOL     OW 6652   1.482   1.637   4.999
 1918SOL    HW1 6653   1.526   1.552   5.029
 1918SOL    HW2 6654   1.552   1.705   4.979
 1919SOL     OW 6655   1.474   1.683   1.707
 1919SOL    HW1 6656   1.433   1.774   1.701
 1919SOL    HW2 6657   1.553   1.686   1.768
 1920SOL     OW 6658   6.635   4.461   2.913
 1920SOL    HW1 6659   6.570   4.492   2.843
 1920SOL    HW2 6660   6.591   4.396   2.974
 1921SOL     OW 6661   1.966   3.397   0.101
 1921SOL    HW1 6662   1.951   3.366   0.007
 1921SOL    HW2 6663   1.891   3.366   0.160
 1922SOL     OW 6664   2.879   3.588   1.495
 1922SOL    HW1 6665   2.907   3.651   1.567
 1922SOL    HW2 6666   2.871   3.496   1.532
 1923SOL     OW 6667   4.204   1.886   6.352
 1923SOL    HW1 6668   4.205   1.786   6.341
 1923SOL    HW2 6669   4.120   1.913   6.399
 1924SOL     OW 6670   4.636   6.592   0.787
 1924SOL    HW1 6671   4.593   6.504   0.766
 1924SOL    HW2 6672   4.577   6.667   0.756
 1925SOL     OW 6673   1.544   4.732   0.872
 1925SOL    HW1 6674   1.470   4.675   0.905
 1925SOL    HW2 6675   1.550   4.725   0.772
 1926SOL     OW 6676   3.369   0.139   2.604
 1926SOL    HW1 6677   3.325   0.092   2.527
 1926SOL    HW2 6678   3.434   0.206   2.569
 1927SOL     OW 6679   2.396   4.609   0.216
 1927SOL    HW1 6680   2.383   4.658   0.303
 1927SOL    HW2 6681   2.472   4.650   0.166
 1928SOL     OW 6682   5.670   4.407   5.026
 1928SOL    HW1 6683   5.768   4.427   5.026
 1928SOL    HW2 6684   5.631   4.435   5.114
 1929SOL     OW 6685   2.503   0.786   1.762
 1929SOL    HW1 6686   2.596   0.798   1.727
 1929SOL    HW2 6687   2.449   0.735   1.695
 1930SOL     OW 6688   5.410   3.822   6.632
 1930SOL    HW1 6689   5.337   3.795   6.694
 1930SOL    HW2 6690   5.411   3.922   6.623
 1931SOL     OW 6691   0.927   2.262   0.185
 1931SOL    HW1 6692   0.955   2.169   0.206
 1931SOL    HW2 6693   0.914   2.272   0.086
 1932SOL     OW 6694   4.842   2.607   3.467
 1932SOL    HW1 6695   4.838   2.510   3.492
 1932SOL    HW2 6696   4.764   2.629   3.408
 1933SOL     OW 6697   1.000   3.048   0.783
 1933SOL    HW1 6698   0.984   2.968   0.841
 1933SOL    HW2 6699   0.969   3.130   0.830
 1934SOL     OW 6700   0.277   1.409   4.542
 1934SOL    HW1 6701   0.255   1.491   4.594
 1934SOL    HW2 6702   0.206   1.340   4.557
 1935SOL     OW 6703   4.389   4.892   3.529
 1935SOL    HW1 6704   4.453   4.970   3.530
 1935SOL    HW2 6705   4.440   4.808   3.511
 1936SOL     OW 6706   4.805   3.903   3.814
 1936SOL    HW1 6707   4.900   3.934   3.822
 1936SOL    HW2 6708   4.755   3.964   3.753
 1937SOL     OW 6709   4.249   6.243   0.238
 1937SOL    HW1 6710   4.241   6.330   0.191
 1937SOL    HW2 6711   4.170   6.231   0.299
 1938SOL     OW 6712   1.483   2.016   0.972
 1938SOL    HW1 6713   1.579   1.998   0.992
 1938SOL    HW2 6714   1.476   2.079   0.895
 1939SOL     OW 6715   6.550   6.678   4.640
 1939SOL    HW1 6716   6.510   6.604   4.695
 1939SOL    HW2 6717   6.601   6.638   4.563
 1940SOL     OW 6718   6.120   4.098   1.098
 1940SOL    HW1 6719   6.202   4.121   1.150
 1940SOL    HW2 6720   6.123   4.143   1.008
 1941SOL     OW 6721   1.563   2.739   3.843
 1941SOL    HW1 6722   1.613   2.782   3.768
 1941SOL    HW2 6723   1.618   2.744   3.927
 1942SOL     OW 6724   5.175   3.382   2.878
 1942SOL    HW1 6725   5.225   3.350   2.958
 1942SOL    HW2 6726   5.095   3.435   2.908
 1943SOL     OW 6727   1.319   0.693   2.400
 1943SOL    HW1 6728   1.314   0.669   2.497
 1943SOL    HW2 6729   1.371   0.624   2.351
 1944SOL     OW 6730   6.001   4.256   0.353
 1944SOL    HW1 6731   6.049   4.186   0.301
 1944SOL    HW2 6732   6.067   4.323   0.387
 1945SOL     OW 6733   3.587   5.700   0.385
 1945SOL    HW1 6734   3.635   5.664   0.465
 1945SOL    HW2 6735   3.580   5.799   0.392
 1946SOL     OW 6736   5.808   6.985   1.494
 1946SOL    HW1 6737   5.858   6.900   1.478
 1946SOL    HW2 6738   5.859   0.017   1.558
 1947SOL     OW 6739   5.722   5.631   3.866
 1947SOL    HW1 6740   5.686   5.589   3.782
 1947SOL    HW2 6741   5.776   5.563   3.917
 1948SOL     OW 6742   6.151   5.289   2.638
 1948SOL    HW1 6743   6.158   5.308   2.736
 1948SOL    HW2 6744   6.142   5.191   2.623
 1949SOL     OW 6745   4.073   3.514   0.203
 1949SOL    HW1 6746   4.130   3.485   0.126
 1949SOL    HW2 6747   4.008   3.441   0.225
 1950SOL     OW 6748   3.899   3.037   3.225
 1950SOL    HW1 6749   3.878   3.040   3.127
 1950SOL    HW2 6750   3.973   3.101   3.246
 1951SOL     OW 6751   0.316   4.514   6.412
 1951SOL    HW1 6752   0.265   4.588   6.369
 1951SOL    HW2 6753   0.414   4.527   6.396
 1952SOL     OW 6754   5.593   4.907   1.288
 1952SOL    HW1 6755   5.533   4.986   1.282
 1952SOL    HW2 6756   5.543   4.830   1.329
 1953SOL     OW 6757   6.642   1.624   6.290
 1953SOL    HW1 6758   6.709   1.681   6.242
 1953SOL    HW2 6759   6.689   1.552   6.340
 1954SOL     OW 6760   5.608   0.141   1.254
 1954SOL    HW1 6761   5.600   0.097   1.343
 1954SOL    HW2 6762   5.582   0.237   1.260
 1955SOL     OW 6763   0.127   0.897   2.099
 1955SOL    HW1 6764   0.138   0.871   2.003
 1955SOL    HW2 6765   0.216   0.920   2.138
 1956SOL     OW 6766   4.590   0.137   2.117
 1956SOL    HW1 6767   4.492   0.157   2.121
 1956SOL    HW2 6768   4.609   0.052   2.166
 1957SOL     OW 6769   5.247   4.495   4.257
 1957SOL    HW1 6770   5.226   4.413   4.204
 1957SOL    HW2 6771   5.165   4.550   4.268
 1958SOL     OW 6772   4.739   1.071   1.828
 1958SOL    HW1 6773   4.794   1.051   1.910
 1958SOL    HW2 6774   4.642   1.076   1.854
 1959SOL     OW 6775   0.108   6.407   3.911
 1959SOL    HW1 6776   0.183   6.341   3.918
 1959SOL    HW2 6777   0.021   6.359   3.925
 1960SOL     OW 6778   0.086   3.641   2.350
 1960SOL    HW1 6779   7.015   3.623   2.368
 1960SOL    HW2 6780   0.103   3.641   2.252
 1961SOL     OW 6781   5.794   4.516   4.571
 1961SOL    HW1 6782   5.720   4.452   4.551
 1961SOL    HW2 6783   5.780   4.600   4.517
 1962SOL     OW 6784   1.189   6.559   2.987
 1962SOL    HW1 6785   1.149   6.467   2.993
 1962SOL    HW2 6786   1.115   6.627   2.988
 1963SOL     OW 6787   1.529   2.146   1.592
 1963SOL    HW1 6788   1.520   2.086   1.512
 1963SOL    HW2 6789   1.498   2.097   1.674
 1964SOL     OW 6790   4.570   4.851   1.850
 1964SOL    HW1 6791   4.538   4.804   1.932
 1964SOL    HW2 6792   4.527   4.941   1.845
 1965SOL     OW 6793   2.048   2.273   4.235
 1965SOL    HW1 6794   2.020   2.356   4.187
 1965SOL    HW2 6795   1.967   2.227   4.272
 1966SOL     OW 6796   1.549   5.851   1.357
 1966SOL    HW1 6797   1.610   5.895   1.423
 1966SOL    HW2 6798   1.574   5.879   1.264
 1967SOL     OW 6799   6.181   2.924   4.167
 1967SOL    HW1 6800   6.187   2.873   4.082
 1967SOL    HW2 6801   6.087   2.920   4.202
 1968SOL     OW 6802   2.660   0.539   5.327
 1968SOL    HW1 6803   2.572   0.497   5.308
 1968SOL    HW2 6804   2.692   0.588   5.245
 1969SOL     OW 6805   3.396   0.597   1.488
 1969SOL    HW1 6806   3.437   0.534   1.422
 1969SOL    HW2 6807   3.341   0.665   1.439
 1970SOL     OW 6808   0.090   0.199   5.409
 1970SOL    HW1 6809   0.162   0.241   5.352
 1970SOL    HW2 6810   0.120   0.109   5.439
 1971SOL     OW 6811   0.435   0.909   5.560
 1971SOL    HW1 6812   0.474   0.890   5.469
 1971SOL    HW2 6813   0.337   0.887   5.558
 1972SOL     OW 6814   5.552   2.515   1.599
 1972SOL    HW1 6815   5.629   2.468   1.555
 1972SOL    HW2 6816   5.470   2.504   1.544
 1973SOL     OW 6817   2.592   4.237   1.626
 1973SOL    HW1 6818   2.492   4.237   1.624
 1973SOL    HW2 6819   2.625   4.321   1.669
 1974SOL     OW 6820   4.571   6.591   4.564
 1974SOL    HW1 6821   4.527   6.543   4.640
 1974SOL    HW2 6822   4.655   6.634   4.596
 1975SOL     OW 6823   2.296   1.891   3.960
 1975SOL    HW1 6824   2.259   1.966   4.014
 1975SOL    HW2 6825   2.365   1.843   4.014
 1976SOL     OW 6826   5.427   5.983   6.992
 1976SOL    HW1 6827   5.513   6.002   0.015
 1976SOL    HW2 6828   5.422   5.886   6.971
 1977SOL     OW 6829   1.990   3.336   5.210
 1977SOL    HW1 6830   1.902   3.375   5.235
 1977SOL    HW2 6831   2.057   3.354   5.282
 1978SOL     OW 6832   1.700   5.960   2.964
 1978SOL    HW1 6833   1.794   5.926   2.957
 1978SOL    HW2 6834   1.694   6.028   3.037
 1979SOL     OW 6835   5.488   5.217   6.900
 1979SOL    HW1 6836   5.580   5.182   6.921
 1979SOL    HW2 6837   5.424   5.141   6.895
 1980SOL     OW 6838   3.781   0.601   3.093
 1980SOL    HW1 6839   3.749   0.512   3.060
 1980SOL    HW2 6840   3.786   0.599   3.193
 1981SOL     OW 6841   5.453   2.689   2.459
 1981SOL    HW1 6842   5.384   2.752   2.495
 1981SOL    HW2 6843   5.523   2.742   2.410
 1982SOL     OW 6844   6.588   3.784   3.777
 1982SOL    HW1 6845   6.683   3.765   3.752
 1982SOL    HW2 6846   6.532   3.788   3.694
 1983SOL     OW 6847   1.089   0.224   1.777
 1983SOL    HW1 6848   1.092   0.317   1.738
 1983SOL    HW2 6849   1.011   0.175   1.740
 1984SOL     OW 6850   4.512   2.589   5.416
 1984SOL    HW1 6851   4.505   2.665   5.352
 1984SOL    HW2 6852   4.549   2.509   5.369
 1985SOL     OW 6853   6.878   5.903   2.379
 1985SOL    HW1 6854   6.972   5.869   2.378
 1985SOL    HW2 6855   6.819   5.841   2.327
 1986SOL     OW 6856   2.921   1.078   6.125
 1986SOL    HW1 6857   2.941   0.988   6.164
 1986SOL    HW2 6858   2.823   1.088   6.113
 1987SOL     OW 6859   2.183   1.704   3.577
 1987SOL    HW1 6860   2.282   1.711   3.588
 1987SOL    HW2 6861   2.138   1.723   3.664
 1988SOL     OW 6862   0.560   1.632   1.009
 1988SOL    HW1 6863   0.628   1.597   1.072
 1988SOL    HW2 6864   0.549   1.568   0.932
 1989SOL     OW 6865   2.262   5.879   4.282
 1989SOL    HW1 6866   2.197   5.945   4.243
 1989SOL    HW2 6867   2.212   5.801   4.318
 1990SOL     OW 6868   3.546   6.577   0.389
 1990SOL    HW1 6869   3.526   6.572   0.291
 1990SOL    HW2 6870   3.464   6.551   0.440
 1991SOL     OW 6871   1.996   5.416   0.069
 1991SOL    HW1 6872   2.084   5.368   0.061
 1991SOL    HW2 6873   2.002   5.487   0.139
 1992SOL     OW 6874   6.647   0.564   0.383
 1992SOL    HW1 6875   6.695   0.516   0.457
 1992SOL    HW2 6876   6.579   0.627   0.423
 1993SOL     OW 6877   3.521   1.917   4.950
 1993SOL    HW1 6878   3.556   1.982   5.018
 1993SOL    HW2 6879   3.445   1.959   4.900
 1994SOL     OW 6880   5.013   2.029   1.007
 1994SOL    HW1 6881   4.920   2.014   0.974
 1994SOL    HW2 6882   5.069   2.064   0.932
 1995SOL     OW 6883   5.719   3.171   3.794
 1995SOL    HW1 6884   5.804   3.212   3.761
 1995SOL    HW2 6885   5.673   3.123   3.719
 1996SOL     OW 6886   2.910   1.888   1.187
 1996SOL    HW1 6887   2.814   1.872   1.212
 1996SOL    HW2 6888   2.920   1.982   1.153
 1997SOL     OW 6889   3.181   1.562   3.851
 1997SOL    HW1 6890   3.136   1.553   3.940
 1997SOL    HW2 6891   3.277   1.537   3.860
 1998SOL     OW 6892   1.522   3.929   0.594
 1998SOL    HW1 6893   1.559   4.021   0.580
 1998SOL    HW2 6894   1.549   3.897   0.685
 1999SOL     OW 6895   0.644   0.524   5.155
 1999SOL    HW1 6896   0.691   0.445   5.116
 1999SOL    HW2 6897   0.651   0.601   5.092
 2000SOL     OW 6898   4.452   3.290   5.886
 2000SOL    HW1 6899   4.408   3.218   5.940
 2000SOL    HW2 6900   4.396   3.373   5.888
 2001SOL     OW 6901   1.979   1.265   6.969
 2001SOL    HW1 6902   1.939   1.332   6.908
 2001SOL    HW2 6903   1.971   1.297   0.039
 2002SOL     OW 6904   0.661   5.635   0.718
 2002SOL    HW1 6905   0.611   5.719   0.735
 2002SOL    HW2 6906   0.605   5.557   0.746
 2003SOL     OW 6907   6.834   5.137   1.813
 2003SOL    HW1 6908   6.763   5.085   1.767
 2003SOL    HW2 6909   6.794   5.189   1.888
 2004SOL     OW 6910   4.433   0.783   4.970
 2004SOL    HW1 6911   4.465   0.819   5.058
 2004SOL    HW2 6912   4.482   0.698   4.950
 2005SOL     OW 6913   0.031   4.981   6.981
 2005SOL    HW1 6914   0.119   4.940   7.006
 2005SOL    HW2 6915   0.039   5.025   6.892
 2006SOL     OW 6916   5.534   6.783   4.665
 2006SOL    HW1 6917   5.572   6.875   4.669
 2006SOL    HW2 6918   5.585   6.729   4.597
 2007SOL     OW 6919   5.350   3.919   1.206
 2007SOL    HW1 6920   5.312   3.831   1.234
 2007SOL    HW2 6921   5.437   3.905   1.160
 2008SOL     OW 6922   2.009   3.353   3.591
 2008SOL    HW1 6923   1.928   3.349   3.648
 2008SOL    HW2 6924   2.028   3.448   3.566
 2009SOL     OW 6925   5.404   6.456   2.222
 2009SOL    HW1 6926   5.494   6.492   2.195
 2009SOL    HW2 6927   5.338   6.531   2.225
 2010SOL     OW 6928   1.857   1.459   1.355
 2010SOL    HW1 6929   1.938   1.506   1.388
 2010SOL    HW2 6930   1.777   1.490   1.406
 2011SOL     OW 6931   0.118   0.866   4.808
 2011SOL    HW1 6932   0.094   0.782   4.857
 2011SOL    HW2 6933   0.157   0.843   4.719
 2012SOL     OW 6934   1.363   3.468   1.860
 2012SOL    HW1 6935   1.370   3.416   1.775
 2012SOL    HW2 6936   1.451   3.512   1.879
 2013SOL     OW 6937   6.722   2.935   3.671
 2013SOL    HW1 6938   6.803   2.974   3.628
 2013SOL    HW2 6939   6.655   3.008   3.687
 2014SOL     OW 6940   3.134   0.093   3.063
 2014SOL    HW1 6941   3.068   0.023   3.036
 2014SOL    HW2 6942   3.137   0.165   2.994
 2015SOL     OW 6943   3.325   6.559   0.582
 2015SOL    HW1 6944   3.311   6.627   0.653
 2015SOL    HW2 6945   3.237   6.537   0.539
 2016SOL     OW 6946   1.630   5.788   5.402
 2016SOL    HW1 6947   1.556   5.728   5.371
 2016SOL    HW2 6948   1.693   5.806   5.326
 2017SOL     OW 6949   4.141   0.453   3.328
 2017SOL    HW1 6950   4.132   0.490   3.235
 2017SOL    HW2 6951   4.050   0.440   3.368
 2018SOL     OW 6952   6.805   2.972   3.967
 2018SOL    HW1 6953   6.845   2.989   3.877
 2018SOL    HW2 6954   6.878   2.947   4.031
 2019SOL     OW 6955   6.136   4.207   6.355
 2019SOL    HW1 6956   6.096   4.298   6.350
 2019SOL    HW2 6957   6.232   4.213   6.381
 2020SOL     OW 6958   1.849   6.413   5.794
 2020SOL    HW1 6959   1.921   6.426   5.726
 2020SOL    HW2 6960   1.862   6.325   5.839
 2021SOL     OW 6961   6.235   6.538   3.937
 2021SOL    HW1 6962   6.245   6.634   3.912
 2021SOL    HW2 6963   6.223   6.530   4.036
 2022SOL     OW 6964   2.211   4.571   4.375
 2022SOL    HW1 6965   2.247   4.652   4.328
 2022SOL    HW2 6966   2.224   4.581   4.474
 2023SOL     OW 6967   0.171   0.132   6.836
 2023SOL    HW1 6968   0.241   0.204   6.842
 2023SOL    HW2 6969   0.117   0.132   6.920
 2024SOL     OW 6970   0.011   5.598   3.849
 2024SOL    HW1 6971   0.052   5.563   3.765
 2024SOL    HW2 6972   6.938   5.609   3.836
 2025SOL     OW 6973   3.222   0.440   3.463
 2025SOL    HW1 6974   3.141   0.452   3.521
 2025SOL    HW2 6975   3.298   0.492   3.501
 2026SOL     OW 6976   6.602   2.068   6.689
 2026SOL    HW1 6977   6.594   2.003   6.765
 2026SOL    HW2 6978   6.537   2.044   6.618
 2027SOL     OW 6979   0.808   6.206   1.444
 2027SOL    HW1 6980   0.812   6.177   1.348
 2027SOL    HW2 6981   0.827   6.304   1.450
 2028SOL     OW 6982   3.358   5.698   2.980
 2028SOL    HW1 6983   3.260   5.712   2.989
 2028SOL    HW2 6984   3.402   5.712   3.069
 2029SOL     OW 6985   6.680   2.583   6.858
 2029SOL    HW1 6986   6.693   2.490   6.894
 2029SOL    HW2 6987   6.583   2.605   6.857
 2030SOL     OW 6988   3.218   6.929   2.439
 2030SOL    HW1 6989   3.144   6.870   2.406
 2030SOL    HW2 6990   3.294   6.928   2.374
 2031SOL     OW 6991   6.761   6.332   2.455
 2031SOL    HW1 6992   6.739   6.355   2.361
 2031SOL    HW2 6993   6.809   6.408   2.498
 2032SOL     OW 6994   3.565   1.096   1.173
 2032SOL    HW1 6995   3.504   1.024   1.209
 2032SOL    HW2 6996   3.510   1.168   1.131
 2033SOL     OW 6997   2.193   0.925   0.942
 2033SOL    HW1 6998   2.170   0.842   0.993
 2033SOL    HW2 6999   2.187   0.905   0.844
 2034SOL     OW 7000   1.930   5.117   5.690
 2034SOL    HW1 7001   2.028   5.129   5.674
 2034SOL    HW2 7002   1.889   5.205   5.714
 2035SOL     OW 7003   6.390   7.013   2.247
 2035SOL    HW1 7004   6.375   6.982   2.341
 2035SOL    HW2 7005   6.354   6.944   2.183
 2036SOL     OW 7006   1.675   3.602   3.395
 2036SOL    HW1 7007   1.579   3.603   3.423
 2036SOL    HW2 7008   1.700   3.509   3.366
 2037SOL     OW 7009   6.494   2.996   6.236
 2037SOL    HW1 7010   6.395   2.989   6.224
 2037SOL    HW2 7011   6.539   2.923   6.185
 2038SOL     OW 7012   2.641   0.895   0.425
 2038SOL    HW1 7013   2.558   0.882   0.370
 2038SOL    HW2 7014   2.662   0.993   0.429
 2039SOL     OW 7015   0.191   6.387   2.609
 2039SOL    HW1 7016   0.192   6.402   2.708
 2039SOL    HW2 7017   0.284   6.369   2.577
 2040SOL     OW 7018   1.802   1.939   6.974
 2040SOL    HW1 7019   1.888   1.990   6.984
 2040SOL    HW2 7020   1.790   1.878   0.027
 2041SOL     OW 7021   0.998   0.389   5.411
 2041SOL    HW1 7022   0.954   0.331   5.342
 2041SOL    HW2 7023   1.005   0.483   5.377
 2042SOL     OW 7024   4.938   0.386   6.173
 2042SOL    HW1 7025   4.963   0.387   6.076
 2042SOL    HW2 7026   4.979   0.306   6.217
 2043SOL     OW 7027   6.490   2.231   2.189
 2043SOL    HW1 7028   6.548   2.259   2.266
 2043SOL    HW2 7029   6.547   2.193   2.116
 2044SOL     OW 7030   6.033   0.889   1.421
 2044SOL    HW1 7031   5.949   0.909   1.370
 2044SOL    HW2 7032   6.089   0.824   1.370
 2045SOL     OW 7033   1.305   5.819   4.749
 2045SOL    HW1 7034   1.390   5.785   4.710
 2045SOL    HW2 7035   1.246   5.853   4.676
 2046SOL     OW 7036   6.456   2.523   5.207
 2046SOL    HW1 7037   6.435   2.467   5.288
 2046SOL    HW2 7038   6.412   2.483   5.127
 2047SOL     OW 7039   5.675   2.301   1.145
 2047SOL    HW1 7040   5.643   2.240   1.073
 2047SOL    HW2 7041   5.678   2.395   1.111
 2048SOL     OW 7042   0.133   0.838   4.498
 2048SOL    HW1 7043   0.174   0.773   4.434
 2048SOL    HW2 7044   0.082   0.907   4.448
 2049SOL     OW 7045   4.671   1.215   4.515
 2049SOL    HW1 7046   4.650   1.244   4.608
 2049SOL    HW2 7047   4.758   1.166   4.515
 2050SOL     OW 7048   0.416   2.667   4.538
 2050SOL    HW1 7049   0.374   2.662   4.629
 2050SOL    HW2 7050   0.506   2.624   4.541
 2051SOL     OW 7051   2.009   5.973   0.042
 2051SOL    HW1 7052   1.960   6.049   7.024
 2051SOL    HW2 7053   2.107   5.994   0.044
 2052SOL     OW 7054   1.496   3.024   0.947
 2052SOL    HW1 7055   1.452   3.029   0.857
 2052SOL    HW2 7056   1.498   2.929   0.978
 2053SOL     OW 7057   1.258   5.241   4.808
 2053SOL    HW1 7058   1.339   5.275   4.857
 2053SOL    HW2 7059   1.178   5.295   4.834
 2054SOL     OW 7060   3.272   3.417   3.009
 2054SOL    HW1 7061   3.332   3.340   3.027
 2054SOL    HW2 7062   3.296   3.494   3.068
 2055SOL     OW 7063   0.095   2.572   4.878
 2055SOL    HW1 7064   0.095   2.494   4.816
 2055SOL    HW2 7065   0.009   2.622   4.870
 2056SOL     OW 7066   4.425   4.326   1.212
 2056SOL    HW1 7067   4.396   4.418   1.185
 2056SOL    HW2 7068   4.446   4.325   1.309
 2057SOL     OW 7069   5.294   3.232   4.414
 2057SOL    HW1 7070   5.275   3.134   4.413
 2057SOL    HW2 7071   5.361   3.253   4.485
 2058SOL     OW 7072   0.811   6.604   2.544
 2058SOL    HW1 7073   0.770   6.694   2.552
 2058SOL    HW2 7074   0.859   6.597   2.456
 2059SOL     OW 7075   2.832   0.462   5.555
 2059SOL    HW1 7076   2.794   0.486   5.466
 2059SOL    HW2 7077   2.864   0.367   5.553
 2060SOL     OW 7078   0.577   3.135   1.359
 2060SOL    HW1 7079   0.651   3.127   1.425
 2060SOL    HW2 7080   0.548   3.044   1.330
 2061SOL     OW 7081   1.820   2.573   2.379
 2061SOL    HW1 7082   1.838   2.578   2.477
 2061SOL    HW2 7083   1.850   2.658   2.336
 2062SOL     OW 7084   6.601   5.454   5.285
 2062SOL    HW1 7085   6.604   5.445   5.384
 2062SOL    HW2 7086   6.561   5.372   5.245
 2063SOL     OW 7087   1.576   6.594   4.684
 2063SOL    HW1 7088   1.534   6.685   4.678
 2063SOL    HW2 7089   1.587   6.569   4.780
 2064SOL     OW 7090   1.287   3.204   4.247
 2064SOL    HW1 7091   1.192   3.210   4.217
 2064SOL    HW2 7092   1.339   3.147   4.184
 2065SOL     OW 7093   5.282   3.610   6.185
 2065SOL    HW1 7094   5.191   3.601   6.143
 2065SOL    HW2 7095   5.350   3.627   6.114
 2066SOL     OW 7096   6.715   3.961   5.480
 2066SOL    HW1 7097   6.805   4.003   5.493
 2066SOL    HW2 7098   6.726   3.865   5.455
 2067SOL     OW 7099   6.236   4.921   1.459
 2067SOL    HW1 7100   6.159   4.865   1.428
 2067SOL    HW2 7101   6.210   5.018   1.459
 2068SOL     OW 7102   3.950   1.496   4.210
 2068SOL    HW1 7103   3.930   1.496   4.308
 2068SOL    HW2 7104   4.007   1.575   4.187
 2069SOL     OW 7105   0.363   2.171   4.015
 2069SOL    HW1 7106   0.454   2.131   4.027
 2069SOL    HW2 7107   0.324   2.192   4.105
 2070SOL     OW 7108   1.493   2.778   1.037
 2070SOL    HW1 7109   1.517   2.733   0.951
 2070SOL    HW2 7110   1.410   2.737   1.074
 2071SOL     OW 7111   5.938   1.620   6.258
 2071SOL    HW1 7112   5.883   1.574   6.327
 2071SOL    HW2 7113   5.949   1.717   6.283
 2072SOL     OW 7114   3.920   5.041   5.664
 2072SOL    HW1 7115   3.881   5.107   5.728
 2072SOL    HW2 7116   3.866   5.041   5.580
 2073SOL     OW 7117   3.779   6.228   6.077
 2073SOL    HW1 7118   3.822   6.250   6.165
 2073SOL    HW2 7119   3.841   6.252   6.003
 2074SOL     OW 7120   1.688   2.640   6.446
 2074SOL    HW1 7121   1.745   2.583   6.505
 2074SOL    HW2 7122   1.747   2.691   6.383
 2075SOL     OW 7123   6.520   2.324   3.130
 2075SOL    HW1 7124   6.433   2.286   3.162
 2075SOL    HW2 7125   6.586   2.323   3.204
 2076SOL     OW 7126   6.544   0.379   5.061
 2076SOL    HW1 7127   6.451   0.400   5.030
 2076SOL    HW2 7128   6.583   0.460   5.105
 2077SOL     OW 7129   6.448   2.089   1.697
 2077SOL    HW1 7130   6.491   2.046   1.617
 2077SOL    HW2 7131   6.349   2.077   1.692
 2078SOL     OW 7132   1.444   4.853   5.896
 2078SOL    HW1 7133   1.437   4.800   5.981
 2078SOL    HW2 7134   1.537   4.848   5.861
 2079SOL     OW 7135   5.857   1.177   2.355
 2079SOL    HW1 7136   5.923   1.127   2.299
 2079SOL    HW2 7137   5.869   1.276   2.342
 2080SOL     OW 7138   3.713   1.826   4.777
 2080SOL    HW1 7139   3.626   1.831   4.727
 2080SOL    HW2 7140   3.697   1.844   4.874
 2081SOL     OW 7141   0.902   6.406   3.802
 2081SOL    HW1 7142   0.884   6.325   3.857
 2081SOL    HW2 7143   0.912   6.486   3.862
 2082SOL     OW 7144   1.059   5.888   3.280
 2082SOL    HW1 7145   1.008   5.974   3.288
 2082SOL    HW2 7146   1.146   5.905   3.234
 2083SOL     OW 7147   0.780   5.724   4.021
 2083SOL    HW1 7148   0.761   5.640   3.969
 2083SOL    HW2 7149   0.735   5.802   3.977
 2084SOL     OW 7150   1.448   2.394   1.492
 2084SOL    HW1 7151   1.480   2.401   1.397
 2084SOL    HW2 7152   1.485   2.311   1.533
 2085SOL     OW 7153   4.850   6.006   0.703
 2085SOL    HW1 7154   4.941   5.970   0.721
 2085SOL    HW2 7155   4.823   5.983   0.609
 2086SOL     OW 7156   3.262   6.426   6.975
 2086SOL    HW1 7157   3.164   6.426   6.955
 2086SOL    HW2 7158   3.313   6.428   6.890
 2087SOL     OW 7159   4.062   2.306   6.976
 2087SOL    HW1 7160   4.062   2.406   6.987
 2087SOL    HW2 7161   3.981   2.279   6.924
 2088SOL     OW 7162   0.920   6.155   5.595
 2088SOL    HW1 7163   0.934   6.059   5.618
 2088SOL    HW2 7164   1.007   6.196   5.567
 2089SOL     OW 7165   3.963   2.436   5.397
 2089SOL    HW1 7166   3.903   2.506   5.436
 2089SOL    HW2 7167   4.021   2.477   5.327
 2090SOL     OW 7168   4.977   2.990   5.561
 2090SOL    HW1 7169   4.883   2.999   5.527
 2090SOL    HW2 7170   5.001   3.072   5.614
 2091SOL     OW 7171   6.982   5.988   1.280
 2091SOL    HW1 7172   0.035   5.950   1.329
 2091SOL    HW2 7173   6.906   6.000   1.343
 2092SOL     OW 7174   5.239   3.951   0.681
 2092SOL    HW1 7175   5.249   3.963   0.780
 2092SOL    HW2 7176   5.329   3.941   0.639
 2093SOL     OW 7177   3.637   2.079   2.260
 2093SOL    HW1 7178   3.653   2.121   2.171
 2093SOL    HW2 7179   3.542   2.094   2.288
 2094SOL     OW 7180   5.663   2.557   0.521
 2094SOL    HW1 7181   5.751   2.599   0.497
 2094SOL    HW2 7182   5.598   2.573   0.447
 2095SOL     OW 7183   5.938   6.231   3.155
 2095SOL    HW1 7184   5.910   6.135   3.156
 2095SOL    HW2 7185   6.008   6.247   3.226
 2096SOL     OW 7186   4.494   6.096   3.063
 2096SOL    HW1 7187   4.447   6.174   3.022
 2096SOL    HW2 7188   4.579   6.078   3.013
 2097SOL     OW 7189   3.058   4.075   6.218
 2097SOL    HW1 7190   3.050   3.991   6.271
 2097SOL    HW2 7191   3.095   4.053   6.128
 2098SOL     OW 7192   4.098   6.297   3.128
 2098SOL    HW1 7193   4.056   6.206   3.131
 2098SOL    HW2 7194   4.192   6.289   3.094
 2099SOL     OW 7195   4.446   2.034   0.004
 2099SOL    HW1 7196   4.362   2.088   0.006
 2099SOL    HW2 7197   4.489   2.035   0.095
 2100SOL     OW 7198   5.080   1.032   0.629
 2100SOL    HW1 7199   5.020   1.092   0.682
 2100SOL    HW2 7200   5.162   1.082   0.602
 2101SOL     OW 7201   0.272   6.326   0.736
 2101SOL    HW1 7202   0.257   6.365   0.646
 2101SOL    HW2 7203   0.344   6.377   0.783
 2102SOL     OW 7204   4.036   3.520   1.220
 2102SOL    HW1 7205   4.090   3.539   1.302
 2102SOL    HW2 7206   3.963   3.456   1.242
 2103SOL     OW 7207   3.067   3.789   0.187
 2103SOL    HW1 7208   3.020   3.797   0.274
 2103SOL    HW2 7209   3.059   3.694   0.154
 2104SOL     OW 7210   1.596   4.613   2.215
 2104SOL    HW1 7211   1.688   4.646   2.233
 2104SOL    HW2 7212   1.559   4.568   2.296
 2105SOL     OW 7213   4.435   4.591   0.100
 2105SOL    HW1 7214   4.340   4.559   0.101
 2105SOL    HW2 7215   4.496   4.512   0.100
 2106SOL     OW 7216   5.153   3.501   1.469
 2106SOL    HW1 7217   5.183   3.536   1.558
 2106SOL    HW2 7218   5.151   3.577   1.404
 2107SOL     OW 7219   5.786   3.302   5.610
 2107SOL    HW1 7220   5.716   3.263   5.670
 2107SOL    HW2 7221   5.757   3.393   5.580
 2108SOL     OW 7222   5.635   6.502   6.394
 2108SOL    HW1 7223   5.573   6.560   6.447
 2108SOL    HW2 7224   5.685   6.558   6.328
 2109SOL     OW 7225   3.198   5.408   2.214
 2109SOL    HW1 7226   3.203   5.327   2.156
 2109SOL    HW2 7227   3.103   5.424   2.241
 2110SOL     OW 7228   4.165   0.855   6.048
 2110SOL    HW1 7229   4.096   0.783   6.040
 2110SOL    HW2 7230   4.233   0.844   5.975
 2111SOL     OW 7231   1.426   2.325   5.536
 2111SOL    HW1 7232   1.341   2.366   5.568
 2111SOL    HW2 7233   1.479   2.293   5.615
 2112SOL     OW 7234   6.072   1.748   6.652
 2112SOL    HW1 7235   6.003   1.676   6.662
 2112SOL    HW2 7236   6.079   1.800   6.737
 2113SOL     OW 7237   2.093   6.786   4.408
 2113SOL    HW1 7238   2.118   6.690   4.420
 2113SOL    HW2 7239   2.115   6.837   4.491
 2114SOL     OW 7240   2.784   2.937   0.197
 2114SOL    HW1 7241   2.872   2.915   0.239
 2114SOL    HW2 7242   2.756   3.029   0.223
 2115SOL     OW 7243   1.089   4.766   2.177
 2115SOL    HW1 7244   1.079   4.668   2.192
 2115SOL    HW2 7245   1.028   4.816   2.239
 2116SOL     OW 7246   0.607   2.619   1.035
 2116SOL    HW1 7247   0.550   2.667   0.969
 2116SOL    HW2 7248   0.683   2.574   0.987
 2117SOL     OW 7249   4.854   2.709   1.439
 2117SOL    HW1 7250   4.939   2.658   1.425
 2117SOL    HW2 7251   4.842   2.727   1.536
 2118SOL     OW 7252   6.252   3.793   2.295
 2118SOL    HW1 7253   6.276   3.699   2.270
 2118SOL    HW2 7254   6.169   3.820   2.247
 2119SOL     OW 7255   1.509   0.863   6.599
 2119SOL    HW1 7256   1.420   0.897   6.629
 2119SOL    HW2 7257   1.521   0.769   6.632
 2120SOL     OW 7258   6.565   2.091   2.960
 2120SOL    HW1 7259   6.661   2.091   2.932
 2120SOL    HW2 7260   6.550   2.162   3.028
 2121SOL     OW 7261   2.437   1.554   5.913
 2121SOL    HW1 7262   2.507   1.532   5.982
 2121SOL    HW2 7263   2.349   1.566   5.959
 2122SOL     OW 7264   5.908   6.986   5.849
 2122SOL    HW1 7265   5.941   6.967   5.941
 2122SOL    HW2 7266   5.972   6.949   5.782
 2123SOL     OW 7267   6.959   6.578   2.260
 2123SOL    HW1 7268   6.870   6.608   2.293
 2123SOL    HW2 7269   0.006   6.615   2.318
 2124SOL     OW 7270   3.051   2.411   5.592
 2124SOL    HW1 7271   3.142   2.372   5.600
 2124SOL    HW2 7272   3.044   2.462   5.507
 2125SOL     OW 7273   1.828   6.254   3.452
 2125SOL    HW1 7274   1.754   6.204   3.406
 2125SOL    HW2 7275   1.916   6.221   3.418
 2126SOL     OW 7276   3.977   3.144   0.511
 2126SOL    HW1 7277   3.911   3.213   0.543
 2126SOL    HW2 7278   4.037   3.118   0.587
 2127SOL     OW 7279   6.926   2.521   5.486
 2127SOL    HW1 7280   6.928   2.516   5.585
 2127SOL    HW2 7281   6.850   2.578   5.456
 2128SOL     OW 7282   5.303   3.617   0.422
 2128SOL    HW1 7283   5.312   3.575   0.332
 2128SOL    HW2 7284   5.383   3.593   0.478
 2129SOL     OW 7285   5.315   4.188   3.347
 2129SOL    HW1 7286   5.238   4.197   3.410
 2129SOL    HW2 7287   5.324   4.093   3.319
 2130SOL     OW 7288   2.477   1.846   1.047
 2130SOL    HW1 7289   2.572   1.873   1.035
 2130SOL    HW2 7290   2.457   1.766   0.991
 2131SOL     OW 7291   5.157   1.918   6.507
 2131SOL    HW1 7292   5.190   1.853   6.575
 2131SOL    HW2 7293   5.057   1.918   6.506
 2132SOL     OW 7294   3.277   1.238   6.791
 2132SOL    HW1 7295   3.275   1.272   6.885
 2132SOL    HW2 7296   3.205   1.284   6.738
 2133SOL     OW 7297   2.516   2.129   1.225
 2133SOL    HW1 7298   2.562   2.141   1.138
 2133SOL    HW2 7299   2.571   2.171   1.298
 2134SOL     OW 7300   0.767   0.625   4.227
 2134SOL    HW1 7301   0.840   0.563   4.196
 2134SOL    HW2 7302   0.702   0.574   4.283
 2135SOL     OW 7303   0.674   2.113   4.042
 2135SOL    HW1 7304   0.762   2.108   4.089
 2135SOL    HW2 7305   0.637   2.021   4.028
 2136SOL     OW 7306   1.037   3.816   5.019
 2136SOL    HW1 7307   1.071   3.905   4.988
 2136SOL    HW2 7308   1.012   3.822   5.116
 2137SOL     OW 7309   0.846   6.807   5.112
 2137SOL    HW1 7310   0.814   6.787   5.205
 2137SOL    HW2 7311   0.858   6.721   5.063
 2138SOL     OW 7312   6.510   2.366   1.637
 2138SOL    HW1 7313   6.472   2.277   1.662
 2138SOL    HW2 7314   6.470   2.396   1.550
 2139SOL     OW 7315   3.058   0.937   3.935
 2139SOL    HW1 7316   2.995   0.881   3.988
 2139SOL    HW2 7317   3.099   0.882   3.862
 2140SOL     OW 7318   2.347   6.230   2.707
 2140SOL    HW1 7319   2.371   6.216   2.803
 2140SOL    HW2 7320   2.382   6.318   2.677
 2141SOL     OW 7321   6.710   2.675   1.341
 2141SOL    HW1 7322   6.730   2.578   1.353
 2141SOL    HW2 7323   6.700   2.719   1.431
 2142SOL     OW 7324   1.777   2.129   3.189
 2142SOL    HW1 7325   1.876   2.144   3.188
 2142SOL    HW2 7326   1.730   2.217   3.182
 2143SOL     OW 7327   3.782   6.178   1.284
 2143SOL    HW1 7328   3.844   6.131   1.221
 2143SOL    HW2 7329   3.819   6.269   1.305
 2144SOL     OW 7330   1.300   0.750   3.205
 2144SOL    HW1 7331   1.227   0.682   3.198
 2144SOL    HW2 7332   1.268   0.838   3.172
 2145SOL     OW 7333   3.310   5.596   3.696
 2145SOL    HW1 7334   3.367   5.576   3.616
 2145SOL    HW2 7335   3.246   5.670   3.674
 2146SOL     OW 7336   3.087   3.860   1.823
 2146SOL    HW1 7337   3.118   3.823   1.911
 2146SOL    HW2 7338   2.998   3.821   1.800
 2147SOL     OW 7339   0.234   1.587   0.102
 2147SOL    HW1 7340   0.141   1.624   0.104
 2147SOL    HW2 7341   0.231   1.489   0.122
 2148SOL     OW 7342   4.867   3.782   3.541
 2148SOL    HW1 7343   4.958   3.740   3.544
 2148SOL    HW2 7344   4.836   3.799   3.635
 2149SOL     OW 7345   3.601   0.071   1.717
 2149SOL    HW1 7346   3.612   6.997   1.710
 2149SOL    HW2 7347   3.687   0.113   1.745
 2150SOL     OW 7348   3.534   2.145   2.634
 2150SOL    HW1 7349   3.503   2.239   2.621
 2150SOL    HW2 7350   3.499   2.110   2.721
 2151SOL     OW 7351   3.755   2.586   5.533
 2151SOL    HW1 7352   3.711   2.610   5.447
 2151SOL    HW2 7353   3.692   2.601   5.609
 2152SOL     OW 7354   5.860   6.193   2.427
 2152SOL    HW1 7355   5.772   6.162   2.390
 2152SOL    HW2 7356   5.844   6.262   2.497
 2153SOL     OW 7357   4.511   1.265   3.990
 2153SOL    HW1 7358   4.553   1.310   4.068
 2153SOL    HW2 7359   4.467   1.180   4.020
 2154SOL     OW 7360   3.170   5.921   4.789
 2154SOL    HW1 7361   3.133   5.845   4.735
 2154SOL    HW2 7362   3.117   6.003   4.772
 2155SOL     OW 7363   1.870   5.196   0.170
 2155SOL    HW1 7364   1.781   5.180   0.128
 2155SOL    HW2 7365   1.917   5.270   0.122
 2156SOL     OW 7366   1.934   0.423   1.252
 2156SOL    HW1 7367   2.002   0.414   1.179
 2156SOL    HW2 7368   1.912   0.519   1.266
 2157SOL     OW 7369   6.633   1.384   4.694
 2157SOL    HW1 7370   6.684   1.298   4.699
 2157SOL    HW2 7371   6.596   1.396   4.602
 2158SOL     OW 7372   3.135   6.630   0.078
 2158SOL    HW1 7373   3.164   6.678   0.162
 2158SOL    HW2 7374   3.213   6.580   0.040
 2159SOL     OW 7375   1.661   6.576   5.195
 2159SOL    HW1 7376   1.668   6.667   5.235
 2159SOL    HW2 7377   1.744   6.524   5.216
 2160SOL     OW 7378   4.255   4.240   1.621
 2160SOL    HW1 7379   4.306   4.220   1.704
 2160SOL    HW2 7380   4.215   4.156   1.585
 2161SOL     OW 7381   4.958   3.427   3.270
 2161SOL    HW1 7382   4.974   3.362   3.195
 2161SOL    HW2 7383   4.935   3.376   3.353
 2162SOL     OW 7384   1.946   0.749   6.524
 2162SOL    HW1 7385   1.876   0.696   6.571
 2162SOL    HW2 7386   2.016   0.777   6.591
 2163SOL     OW 7387   1.475   6.864   6.623
 2163SOL    HW1 7388   1.559   6.831   6.579
 2163SOL    HW2 7389   1.483   6.851   6.722
 2164SOL     OW 7390   2.373   0.728   6.162
 2164SOL    HW1 7391   2.423   0.813   6.175
 2164SOL    HW2 7392   2.292   0.745   6.105
 2165SOL     OW 7393   1.432   0.981   2.816
 2165SOL    HW1 7394   1.363   1.035   2.769
 2165SOL    HW2 7395   1.422   0.884   2.792
 2166SOL     OW 7396   1.589   2.670   5.401
 2166SOL    HW1 7397   1.664   2.716   5.448
 2166SOL    HW2 7398   1.548   2.732   5.335
 2167SOL     OW 7399   2.667   0.709   2.238
 2167SOL    HW1 7400   2.760   0.705   2.199
 2167SOL    HW2 7401   2.630   0.801   2.226
 2168SOL     OW 7402   6.137   3.042   5.286
 2168SOL    HW1 7403   6.097   3.133   5.298
 2168SOL    HW2 7404   6.115   3.008   5.194
 2169SOL     OW 7405   5.514   2.739   6.246
 2169SOL    HW1 7406   5.530   2.746   6.148
 2169SOL    HW2 7407   5.431   2.791   6.270
 2170SOL     OW 7408   5.021   4.700   5.255
 2170SOL    HW1 7409   4.995   4.724   5.348
 2170SOL    HW2 7410   4.939   4.677   5.202
 2171SOL     OW 7411   6.698   2.963   0.216
 2171SOL    HW1 7412   6.608   2.975   0.259
 2171SOL    HW2 7413   6.769   2.959   0.286
 2172SOL     OW 7414   3.042   0.579   0.428
 2172SOL    HW1 7415   3.022   0.512   0.357
 2172SOL    HW2 7416   2.958   0.628   0.453
 2173SOL     OW 7417   4.154   0.298   5.760
 2173SOL    HW1 7418   4.215   0.369   5.724
 2173SOL    HW2 7419   4.078   0.285   5.697
 2174SOL     OW 7420   6.701   4.406   5.465
 2174SOL    HW1 7421   6.686   4.357   5.551
 2174SOL    HW2 7422   6.799   4.419   5.450
 2175SOL     OW 7423   3.038   0.422   3.097
 2175SOL    HW1 7424   3.006   0.476   3.019
 2175SOL    HW2 7425   3.069   0.484   3.170
 2176SOL     OW 7426   1.736   1.972   1.854
 2176SOL    HW1 7427   1.788   2.026   1.788
 2176SOL    HW2 7428   1.766   1.877   1.851
 2177SOL     OW 7429   6.593   1.517   2.103
 2177SOL    HW1 7430   6.618   1.487   2.195
 2177SOL    HW2 7431   6.495   1.502   2.088
 2178SOL     OW 7432   0.982   4.606   0.392
 2178SOL    HW1 7433   1.074   4.577   0.366
 2178SOL    HW2 7434   0.915   4.538   0.361
 2179SOL     OW 7435   1.450   5.877   3.709
 2179SOL    HW1 7436   1.434   5.974   3.727
 2179SOL    HW2 7437   1.367   5.825   3.729
 2180SOL     OW 7438   3.288   3.965   2.692
 2180SOL    HW1 7439   3.249   3.905   2.622
 2180SOL    HW2 7440   3.344   4.035   2.648
 2181SOL     OW 7441   4.947   4.841   5.830
 2181SOL    HW1 7442   4.890   4.773   5.876
 2181SOL    HW2 7443   5.024   4.795   5.786
 2182SOL     OW 7444   0.106   3.532   6.260
 2182SOL    HW1 7445   0.029   3.577   6.305
 2182SOL    HW2 7446   0.187   3.539   6.319
 2183SOL     OW 7447   2.863   3.197   0.674
 2183SOL    HW1 7448   2.935   3.169   0.737
 2183SOL    HW2 7449   2.903   3.216   0.584
 2184SOL     OW 7450   3.889   0.798   6.301
 2184SOL    HW1 7451   3.793   0.770   6.312
 2184SOL    HW2 7452   3.931   0.808   6.391
 2185SOL     OW 7453   1.720   1.334   0.663
 2185SOL    HW1 7454   1.627   1.349   0.698
 2185SOL    HW2 7455   1.785   1.383   0.721
 2186SOL     OW 7456   0.052   4.348   2.331
 2186SOL    HW1 7457   6.982   4.367   2.311
 2186SOL    HW2 7458   0.058   4.278   2.403
 2187SOL     OW 7459   0.126   1.289   1.163
 2187SOL    HW1 7460   0.132   1.384   1.133
 2187SOL    HW2 7461   0.035   1.270   1.199
 2188SOL     OW 7462   4.754   6.234   4.002
 2188SOL    HW1 7463   4.802   6.251   3.915
 2188SOL    HW2 7464   4.668   6.285   4.001
 2189SOL     OW 7465   1.753   7.021   6.108
 2189SOL    HW1 7466   1.802   7.001   6.024
 2189SOL    HW2 7467   1.728   6.936   6.154
 2190SOL     OW 7468   6.447   2.649   1.793
 2190SOL    HW1 7469   6.350   2.667   1.777
 2190SOL    HW2 7470   6.489   2.613   1.709
 2191SOL     OW 7471   3.197   2.371   6.613
 2191SOL    HW1 7472   3.143   2.295   6.651
 2191SOL    HW2 7473   3.135   2.443   6.581
 2192SOL     OW 7474   4.268   6.064   5.449
 2192SOL    HW1 7475   4.344   6.000   5.465
 2192SOL    HW2 7476   4.304   6.149   5.412
 2193SOL     OW 7477   0.576   5.535   5.714
 2193SOL    HW1 7478   0.522   5.587   5.648
 2193SOL    HW2 7479   0.568   5.437   5.694
 2194SOL     OW 7480   1.916   5.900   0.306
 2194SOL    HW1 7481   1.999   5.882   0.359
 2194SOL    HW2 7482   1.936   5.892   0.209
 2195SOL     OW 7483   0.631   6.464   1.604
 2195SOL    HW1 7484   0.728   6.459   1.627
 2195SOL    HW2 7485   0.585   6.525   1.668
 2196SOL     OW 7486   3.326   0.554   5.379
 2196SOL    HW1 7487   3.383   0.490   5.431
 2196SOL    HW2 7488   3.245   0.508   5.345
 2197SOL     OW 7489   4.803   4.528   1.773
 2197SOL    HW1 7490   4.804   4.626   1.752
 2197SOL    HW2 7491   4.882   4.506   1.830
 2198SOL     OW 7492   6.613   3.676   6.864
 2198SOL    HW1 7493   6.664   3.686   6.779
 2198SOL    HW2 7494   6.526   3.631   6.846
 2199SOL     OW 7495   4.607   6.734   0.531
 2199SOL    HW1 7496   4.602   6.831   0.554
 2199SOL    HW2 7497   4.702   6.709   0.511
 2200SOL     OW 7498   4.290   0.738   4.589
 2200SOL    HW1 7499   4.342   0.793   4.656
 2200SOL    HW2 7500   4.354   0.684   4.535
 2201SOL     OW 7501   6.249   3.390   1.854
 2201SOL    HW1 7502   6.150   3.379   1.864
 2201SOL    HW2 7503   6.270   3.486   1.833
 2202SOL     OW 7504   3.716   4.954   4.316
 2202SOL    HW1 7505   3.779   4.931   4.390
 2202SOL    HW2 7506   3.741   5.042   4.277
 2203SOL     OW 7507   3.425   1.984   3.447
 2203SOL    HW1 7508   3.458   2.010   3.357
 2203SOL    HW2 7509   3.479   2.031   3.517
 2204SOL     OW 7510   3.683   1.465   6.978
 2204SOL    HW1 7511   3.752   1.508   6.920
 2204SOL    HW2 7512   3.606   1.528   6.990
 2205SOL     OW 7513   1.323   0.357   0.173
 2205SOL    HW1 7514   1.395   0.416   0.134
 2205SOL    HW2 7515   1.365   0.288   0.231
 2206SOL     OW 7516   3.103   3.517   6.392
 2206SOL    HW1 7517   3.083   3.612   6.411
 2206SOL    HW2 7518   3.196   3.509   6.355
 2207SOL     OW 7519   1.051   4.023   6.305
 2207SOL    HW1 7520   1.036   4.004   6.208
 2207SOL    HW2 7521   1.144   4.057   6.318
 2208SOL     OW 7522   0.223   3.414   1.971
 2208SOL    HW1 7523   0.170   3.331   1.989
 2208SOL    HW2 7524   0.169   3.494   1.996
 2209SOL     OW 7525   1.660   5.979   6.883
 2209SOL    HW1 7526   1.647   6.039   6.804
 2209SOL    HW2 7527   1.714   6.026   6.952
 2210SOL     OW 7528   0.836   5.268   3.269
 2210SOL    HW1 7529   0.877   5.359   3.273
 2210SOL    HW2 7530   0.868   5.220   3.187
 2211SOL     OW 7531   5.960   1.369   5.365
 2211SOL    HW1 7532   5.969   1.285   5.418
 2211SOL    HW2 7533   5.975   1.349   5.268
 2212SOL     OW 7534   0.486   6.853   6.304
 2212SOL    HW1 7535   0.488   6.943   6.348
 2212SOL    HW2 7536   0.556   6.850   6.232
 2213SOL     OW 7537   4.191   2.278   4.084
 2213SOL    HW1 7538   4.251   2.258   4.006
 2213SOL    HW2 7539   4.114   2.214   4.083
 2214SOL     OW 7540   4.957   0.592   5.131
 2214SOL    HW1 7541   4.983   0.673   5.080
 2214SOL    HW2 7542   4.965   0.511   5.072
 2215SOL     OW 7543   6.842   1.725   5.526
 2215SOL    HW1 7544   6.841   1.825   5.524
 2215SOL    HW2 7545   6.794   1.693   5.607
 2216SOL     OW 7546   1.355   6.884   1.325
 2216SOL    HW1 7547   1.301   6.912   1.404
 2216SOL    HW2 7548   1.355   6.785   1.317
 2217SOL     OW 7549   3.927   6.931   0.943
 2217SOL    HW1 7550   3.849   6.886   0.986
 2217SOL    HW2 7551   3.904   0.003   0.928
 2218SOL     OW 7552   1.154   6.417   6.622
 2218SOL    HW1 7553   1.210   6.444   6.544
 2218SOL    HW2 7554   1.122   6.324   6.611
 2219SOL     OW 7555   1.565   3.955   3.448
 2219SOL    HW1 7556   1.661   3.925   3.446
 2219SOL    HW2 7557   1.516   3.912   3.372
 2220SOL     OW 7558   0.623   2.068   4.857
 2220SOL    HW1 7559   0.640   1.991   4.919
 2220SOL    HW2 7560   0.699   2.075   4.792
 2221SOL     OW 7561   6.552   1.907   1.535
 2221SOL    HW1 7562   6.583   1.833   1.474
 2221SOL    HW2 7563   6.598   1.898   1.623
 2222SOL     OW 7564   4.189   0.060   1.768
 2222SOL    HW1 7565   4.226   0.135   1.822
 2222SOL    HW2 7566   4.123   0.095   1.702
 2223SOL     OW 7567   6.309   5.190   3.450
 2223SOL    HW1 7568   6.318   5.114   3.386
 2223SOL    HW2 7569   6.244   5.256   3.414
 2224SOL     OW 7570   1.617   4.999   1.516
 2224SOL    HW1 7571   1.684   5.071   1.536
 2224SOL    HW2 7572   1.544   5.002   1.584
 2225SOL     OW 7573   6.296   4.696   2.281
 2225SOL    HW1 7574   6.367   4.766   2.281
 2225SOL    HW2 7575   6.269   4.676   2.187
 2226SOL     OW 7576   3.768   2.619   1.311
 2226SOL    HW1 7577   3.826   2.569   1.376
 2226SOL    HW2 7578   3.756   2.713   1.342
 2227SOL     OW 7579   6.636   4.102   6.287
 2227SOL    HW1 7580   6.563   4.086   6.221
 2227SOL    HW2 7581   6.638   4.027   6.353
 2228SOL     OW 7582   3.248   4.564   6.892
 2228SOL    HW1 7583   3.206   4.488   6.842
 2228SOL    HW2 7584   3.304   4.527   6.966
 2229SOL     OW 7585   4.790   1.044   4.174
 2229SOL    HW1 7586   4.799   1.128   4.227
 2229SOL    HW2 7587   4.693   1.030   4.152
 2230SOL     OW 7588   1.286   5.323   4.227
 2230SOL    HW1 7589   1.356   5.270   4.274
 2230SOL    HW2 7590   1.224   5.261   4.178
 2231SOL     OW 7591   1.875   1.400   2.385
 2231SOL    HW1 7592   1.851   1.310   2.423
 2231SOL    HW2 7593   1.952   1.391   2.323
 2232SOL     OW 7594   0.126   3.330   2.762
 2232SOL    HW1 7595   0.039   3.368   2.730
 2232SOL    HW2 7596   0.111   3.238   2.800
 2233SOL     OW 7597   3.199   5.322   0.380
 2233SOL    HW1 7598   3.267   5.309   0.308
 2233SOL    HW2 7599   3.171   5.233   0.416
 2234SOL     OW 7600   4.125   2.047   1.083
 2234SOL    HW1 7601   4.182   2.092   1.151
 2234SOL    HW2 7602   4.086   1.963   1.122
 2235SOL     OW 7603   1.181   0.247   6.981
 2235SOL    HW1 7604   1.239   0.239   6.899
 2235SOL    HW2 7605   1.239   0.265   0.035
 2236SOL     OW 7606   0.355   4.362   0.992
 2236SOL    HW1 7607   0.419   4.426   0.949
 2236SOL    HW2 7608   0.334   4.288   0.928
 2237SOL     OW 7609   6.914   3.385   4.772
 2237SOL    HW1 7610   6.843   3.314   4.762
 2237SOL    HW2 7611   6.910   3.446   4.693
 2238SOL     OW 7612   0.265   5.467   2.103
 2238SOL    HW1 7613   0.254   5.548   2.161
 2238SOL    HW2 7614   0.333   5.406   2.143
 2239SOL     OW 7615   4.135   4.721   3.351
 2239SOL    HW1 7616   4.054   4.777   3.369
 2239SOL    HW2 7617   4.150   4.657   3.426
 2240SOL     OW 7618   6.761   5.033   3.654
 2240SOL    HW1 7619   6.699   4.992   3.721
 2240SOL    HW2 7620   6.743   5.131   3.646
 2241SOL     OW 7621   0.142   6.127   2.206
 2241SOL    HW1 7622   0.230   6.137   2.160
 2241SOL    HW2 7623   0.108   6.217   2.234
 2242SOL     OW 7624   4.849   1.777   3.182
 2242SOL    HW1 7625   4.814   1.864   3.216
 2242SOL    HW2 7626   4.834   1.770   3.084
 2243SOL     OW 7627   2.537   6.334   4.415
 2243SOL    HW1 7628   2.600   6.375   4.481
 2243SOL    HW2 7629   2.541   6.234   4.423
 2244SOL     OW 7630   3.626   0.584   4.348
 2244SOL    HW1 7631   3.678   0.588   4.434
 2244SOL    HW2 7632   3.601   0.677   4.321
 2245SOL     OW 7633   6.990   2.392   2.609
 2245SOL    HW1 7634   6.903   2.345   2.595
 2245SOL    HW2 7635   0.026   2.370   2.533
 2246SOL     OW 7636   1.484   3.242   5.792
 2246SOL    HW1 7637   1.420   3.207   5.723
 2246SOL    HW2 7638   1.527   3.325   5.758
 2247SOL     OW 7639   2.333   2.235   5.277
 2247SOL    HW1 7640   2.237   2.222   5.251
 2247SOL    HW2 7641   2.338   2.272   5.369
 2248SOL     OW 7642   4.827   4.183   5.032
 2248SOL    HW1 7643   4.909   4.230   5.065
 2248SOL    HW2 7644   4.795   4.227   4.948
 2249SOL     OW 7645   5.394   6.152   2.865
 2249SOL    HW1 7646   5.344   6.239   2.869
 2249SOL    HW2 7647   5.392   6.108   2.955
 2250SOL     OW 7648   5.360   3.461   1.166
 2250SOL    HW1 7649   5.314   3.475   1.078
 2250SOL    HW2 7650   5.358   3.363   1.189
 2251SOL     OW 7651   6.104   1.868   6.928
 2251SOL    HW1 7652   6.033   1.826   6.984
 2251SOL    HW2 7653   6.191   1.823   6.945
 2252SOL     OW 7654   5.555   2.850   5.596
 2252SOL    HW1 7655   5.558   2.934   5.541
 2252SOL    HW2 7656   5.461   2.834   5.626
 2253SOL     OW 7657   2.701   3.085   6.894
 2253SOL    HW1 7658   2.706   2.985   6.899
 2253SOL    HW2 7659   2.701   3.122   6.987
 2254SOL     OW 7660   1.748   3.615   5.878
 2254SOL    HW1 7661   1.685   3.574   5.944
 2254SOL    HW2 7662   1.796   3.543   5.829
 2255SOL     OW 7663   6.187   2.759   1.863
 2255SOL    HW1 7664   6.144   2.847   1.842
 2255SOL    HW2 7665   6.128   2.707   1.926
 2256SOL     OW 7666   3.720   4.971   2.657
 2256SOL    HW1 7667   3.771   4.938   2.737
 2256SOL    HW2 7668   3.726   5.070   2.651
 2257SOL     OW 7669   1.515   3.595   4.639
 2257SOL    HW1 7670   1.459   3.539   4.579
 2257SOL    HW2 7671   1.508   3.562   4.733
 2258SOL     OW 7672   1.967   4.845   5.306
 2258SOL    HW1 7673   2.018   4.762   5.282
 2258SOL    HW2 7674   1.870   4.823   5.315
 2259SOL     OW 7675   5.733   4.062   6.383
 2259SOL    HW1 7676   5.672   4.135   6.353
 2259SOL    HW2 7677   5.787   4.094   6.461
 2260SOL     OW 7678   4.335   5.253   2.388
 2260SOL    HW1 7679   4.389   5.185   2.339
 2260SOL    HW2 7680   4.260   5.208   2.437
 2261SOL     OW 7681   5.349   6.483   1.108
 2261SOL    HW1 7682   5.350   6.571   1.059
 2261SOL    HW2 7683   5.388   6.412   1.050
 2262SOL     OW 7684   5.383   2.273   4.285
 2262SOL    HW1 7685   5.447   2.196   4.282
 2262SOL    HW2 7686   5.416   2.347   4.227
 2263SOL     OW 7687   1.750   5.625   5.608
 2263SOL    HW1 7688   1.698   5.663   5.532
 2263SOL    HW2 7689   1.702   5.642   5.693
 2264SOL     OW 7690   3.061   3.577   2.734
 2264SOL    HW1 7691   3.016   3.605   2.819
 2264SOL    HW2 7692   3.082   3.658   2.680
 2265SOL     OW 7693   6.840   1.116   2.438
 2265SOL    HW1 7694   6.850   1.079   2.346
 2265SOL    HW2 7695   6.929   1.150   2.470
 2266SOL     OW 7696   6.518   0.833   0.954
 2266SOL    HW1 7697   6.582   0.798   1.023
 2266SOL    HW2 7698   6.481   0.756   0.902
 2267SOL     OW 7699   5.985   2.494   4.779
 2267SOL    HW1 7700   5.990   2.591   4.804
 2267SOL    HW2 7701   5.952   2.441   4.857
 2268SOL     OW 7702   6.948   6.392   0.459
 2268SOL    HW1 7703   6.954   6.465   0.528
 2268SOL    HW2 7704   6.919   6.431   0.372
 2269SOL     OW 7705   6.380   6.132   5.995
 2269SOL    HW1 7706   6.445   6.057   5.987
 2269SOL    HW2 7707   6.341   6.132   6.087
 2270SOL     OW 7708   3.049   3.086   2.136
 2270SOL    HW1 7709   3.089   3.087   2.228
 2270SOL    HW2 7710   3.108   3.138   2.074
 2271SOL     OW 7711   5.664   4.295   1.459
 2271SOL    HW1 7712   5.580   4.346   1.441
 2271SOL    HW2 7713   5.719   4.291   1.376
 2272SOL     OW 7714   4.909   2.154   5.299
 2272SOL    HW1 7715   4.886   2.226   5.364
 2272SOL    HW2 7716   4.827   2.103   5.275
 2273SOL     OW 7717   0.286   0.369   3.449
 2273SOL    HW1 7718   0.368   0.416   3.415
 2273SOL    HW2 7719   0.255   0.414   3.533
 2274SOL     OW 7720   1.505   3.822   4.956
 2274SOL    HW1 7721   1.580   3.759   4.936
 2274SOL    HW2 7722   1.426   3.771   4.989
 2275SOL     OW 7723   5.264   5.814   4.644
 2275SOL    HW1 7724   5.207   5.753   4.589
 2275SOL    HW2 7725   5.217   5.835   4.730
 2276SOL     OW 7726   4.112   4.129   0.729
 2276SOL    HW1 7727   4.168   4.206   0.759
 2276SOL    HW2 7728   4.016   4.158   0.723
 2277SOL     OW 7729   2.940   3.536   5.922
 2277SOL    HW1 7730   3.020   3.543   5.863
 2277SOL    HW2 7731   2.890   3.452   5.901
 2278SOL     OW 7732   5.503   6.350   2.458
 2278SOL    HW1 7733   5.440   6.400   2.399
 2278SOL    HW2 7734   5.549   6.279   2.405
 2279SOL     OW 7735   5.858   3.439   4.889
 2279SOL    HW1 7736   5.771   3.444   4.839
 2279SOL    HW2 7737   5.893   3.531   4.905
 2280SOL     OW 7738   6.942   6.318   5.269
 2280SOL    HW1 7739   6.937   6.320   5.169
 2280SOL    HW2 7740   6.851   6.334   5.307
 2281SOL     OW 7741   3.835   2.176   1.774
 2281SOL    HW1 7742   3.925   2.202   1.809
 2281SOL    HW2 7743   3.768   2.245   1.800
 2282SOL     OW 7744   4.553   5.444   4.408
 2282SOL    HW1 7745   4.617   5.383   4.455
 2282SOL    HW2 7746   4.459   5.413   4.425
 2283SOL     OW 7747   6.694   4.127   3.365
 2283SOL    HW1 7748   6.595   4.142   3.371
 2283SOL    HW2 7749   6.727   4.093   3.453
 2284SOL     OW 7750   2.337   2.401   1.615
 2284SOL    HW1 7751   2.304   2.424   1.707
 2284SOL    HW2 7752   2.404   2.328   1.620
 2285SOL     OW 7753   1.558   3.716   0.141
 2285SOL    HW1 7754   1.619   3.775   0.086
 2285SOL    HW2 7755   1.536   3.762   0.227
 2286SOL     OW 7756   6.553   5.529   4.871
 2286SOL    HW1 7757   6.600   5.441   4.866
 2286SOL    HW2 7758   6.461   5.516   4.907
 2287SOL     OW 7759   2.383   2.530   0.982
 2287SOL    HW1 7760   2.483   2.532   0.972
 2287SOL    HW2 7761   2.345   2.616   0.948
 2288SOL     OW 7762   0.492   6.565   3.462
 2288SOL    HW1 7763   0.516   6.488   3.520
 2288SOL    HW2 7764   0.421   6.538   3.398
 2289SOL     OW 7765   5.654   1.542   2.229
 2289SOL    HW1 7766   5.655   1.595   2.144
 2289SOL    HW2 7767   5.559   1.525   2.256
 2290SOL     OW 7768   3.128   4.040   3.169
 2290SOL    HW1 7769   3.080   3.965   3.213
 2290SOL    HW2 7770   3.111   4.037   3.070
 2291SOL     OW 7771   1.846   1.787   1.184
 2291SOL    HW1 7772   1.803   1.757   1.270
 2291SOL    HW2 7773   1.874   1.707   1.131
 2292SOL     OW 7774   4.872   2.097   3.805
 2292SOL    HW1 7775   4.967   2.106   3.775
 2292SOL    HW2 7776   4.866   2.027   3.876
 2293SOL     OW 7777   5.650   1.191   1.046
 2293SOL    HW1 7778   5.572   1.143   1.086
 2293SOL    HW2 7779   5.658   1.167   0.949
 2294SOL     OW 7780   1.585   2.587   5.941
 2294SOL    HW1 7781   1.558   2.564   5.847
 2294SOL    HW2 7782   1.679   2.619   5.942
 2295SOL     OW 7783   6.316   0.388   1.763
 2295SOL    HW1 7784   6.269   0.473   1.738
 2295SOL    HW2 7785   6.249   0.314   1.771
 2296SOL     OW 7786   2.238   5.167   3.251
 2296SOL    HW1 7787   2.183   5.130   3.326
 2296SOL    HW2 7788   2.192   5.246   3.212
 2297SOL     OW 7789   5.209   4.818   5.624
 2297SOL    HW1 7790   5.216   4.909   5.664
 2297SOL    HW2 7791   5.260   4.815   5.539
 2298SOL     OW 7792   3.978   3.123   4.610
 2298SOL    HW1 7793   4.058   3.089   4.659
 2298SOL    HW2 7794   3.896   3.111   4.667
 2299SOL     OW 7795   5.518   3.356   4.951
 2299SOL    HW1 7796   5.550   3.384   5.042
 2299SOL    HW2 7797   5.454   3.423   4.916
 2300SOL     OW 7798   4.132   0.075   3.503
 2300SOL    HW1 7799   4.116   0.006   3.574
 2300SOL    HW2 7800   4.158   0.028   3.418
 2301SOL     OW 7801   3.049   3.151   4.368
 2301SOL    HW1 7802   3.028   3.218   4.439
 2301SOL    HW2 7803   3.023   3.188   4.279
 2302SOL     OW 7804   3.940   1.640   0.483
 2302SOL    HW1 7805   3.935   1.689   0.396
 2302SOL    HW2 7806   3.971   1.546   0.468
 2303SOL     OW 7807   2.685   3.015   0.814
 2303SOL    HW1 7808   2.726   2.936   0.859
 2303SOL    HW2 7809   2.754   3.063   0.760
 2304SOL     OW 7810   6.446   6.012   2.994
 2304SOL    HW1 7811   6.380   5.939   2.975
 2304SOL    HW2 7812   6.537   5.981   2.967
 2305SOL     OW 7813   1.445   1.152   4.447
 2305SOL    HW1 7814   1.373   1.155   4.378
 2305SOL    HW2 7815   1.456   1.243   4.488
 2306SOL     OW 7816   1.816   4.857   3.511
 2306SOL    HW1 7817   1.885   4.787   3.495
 2306SOL    HW2 7818   1.725   4.819   3.494
 2307SOL     OW 7819   1.114   2.813   5.635
 2307SOL    HW1 7820   1.175   2.764   5.698
 2307SOL    HW2 7821   1.034   2.847   5.686
 2308SOL     OW 7822   1.919   4.630   1.535
 2308SOL    HW1 7823   2.015   4.604   1.531
 2308SOL    HW2 7824   1.898   4.693   1.460
 2309SOL     OW 7825   1.170   0.100   4.298
 2309SOL    HW1 7826   1.205   0.028   4.358
 2309SOL    HW2 7827   1.234   0.115   4.223
 2310SOL     OW 7828   4.527   6.675   1.790
 2310SOL    HW1 7829   4.591   6.741   1.829
 2310SOL    HW2 7830   4.475   6.631   1.863
 2311SOL     OW 7831   2.724   6.152   0.375
 2311SOL    HW1 7832   2.670   6.099   0.309
 2311SOL    HW2 7833   2.724   6.248   0.348
 2312SOL     OW 7834   3.461   6.163   2.433
 2312SOL    HW1 7835   3.507   6.082   2.395
 2312SOL    HW2 7836   3.370   6.137   2.465
 2313SOL     OW 7837   5.204   5.052   3.032
 2313SOL    HW1 7838   5.220   4.953   3.023
 2313SOL    HW2 7839   5.257   5.101   2.963
 2314SOL     OW 7840   2.888   5.512   3.105
 2314SOL    HW1 7841   2.849   5.489   3.194
 2314SOL    HW2 7842   2.826   5.481   3.033
 2315SOL     OW 7843   4.769   3.014   5.971
 2315SOL    HW1 7844   4.761   3.057   5.881
 2315SOL    HW2 7845   4.686   2.961   5.990
 2316SOL     OW 7846   5.578   2.615   2.843
 2316SOL    HW1 7847   5.642   2.571   2.780
 2316SOL    HW2 7848   5.526   2.686   2.794
 2317SOL     OW 7849   1.487   4.511   2.433
 2317SOL    HW1 7850   1.389   4.516   2.414
 2317SOL    HW2 7851   1.511   4.578   2.503
 2318SOL     OW 7852   0.332   1.569   2.949
 2318SOL    HW1 7853   0.343   1.656   2.900
 2318SOL    HW2 7854   0.284   1.585   3.035
 2319SOL     OW 7855   2.041   4.388   4.764
 2319SOL    HW1 7856   2.091   4.383   4.678
 2319SOL    HW2 7857   2.077   4.319   4.827
 2320SOL     OW 7858   0.318   2.421   3.914
 2320SOL    HW1 7859   0.339   2.332   3.954
 2320SOL    HW2 7860   0.234   2.415   3.861
 2321SOL     OW 7861   2.728   6.991   4.774
 2321SOL    HW1 7862   2.780   6.951   4.698
 2321SOL    HW2 7863   2.679   0.047   4.742
 2322SOL     OW 7864   1.199   1.217   5.292
 2322SOL    HW1 7865   1.143   1.136   5.307
 2322SOL    HW2 7866   1.215   1.230   5.194
 2323SOL     OW 7867   4.353   5.863   3.131
 2323SOL    HW1 7868   4.371   5.956   3.098
 2323SOL    HW2 7869   4.311   5.868   3.221
 2324SOL     OW 7870   0.827   6.028   2.862
 2324SOL    HW1 7871   0.814   5.997   2.768
 2324SOL    HW2 7872   0.837   5.949   2.923
 2325SOL     OW 7873   1.107   3.945   1.102
 2325SOL    HW1 7874   1.189   3.926   1.154
 2325SOL    HW2 7875   1.120   3.917   1.006
 2326SOL     OW 7876   1.696   5.203   6.729
 2326SOL    HW1 7877   1.742   5.116   6.748
 2326SOL    HW2 7878   1.600   5.185   6.706
 2327SOL     OW 7879   4.871   2.563   4.050
 2327SOL    HW1 7880   4.789   2.617   4.034
 2327SOL    HW2 7881   4.952   2.616   4.025
 2328SOL     OW 7882   4.783   1.244   3.176
 2328SOL    HW1 7883   4.806   1.330   3.221
 2328SOL    HW2 7884   4.691   1.215   3.205
 2329SOL     OW 7885   1.119   5.484   3.961
 2329SOL    HW1 7886   1.138   5.562   4.021
 2329SOL    HW2 7887   1.056   5.513   3.889
 2330SOL     OW 7888   0.924   4.537   2.127
 2330SOL    HW1 7889   0.850   4.582   2.178
 2330SOL    HW2 7890   0.938   4.584   2.040
 2331SOL     OW 7891   0.275   4.094   5.281
 2331SOL    HW1 7892   0.276   3.994   5.273
 2331SOL    HW2 7893   0.292   4.134   5.191
 2332SOL     OW 7894   5.330   2.975   6.103
 2332SOL    HW1 7895   5.269   3.050   6.127
 2332SOL    HW2 7896   5.296   2.890   6.143
 2333SOL     OW 7897   1.340   5.474   3.168
 2333SOL    HW1 7898   1.340   5.374   3.169
 2333SOL    HW2 7899   1.429   5.507   3.137
 2334SOL     OW 7900   3.191   0.217   6.760
 2334SOL    HW1 7901   3.146   0.128   6.774
 2334SOL    HW2 7902   3.283   0.214   6.800
 2335SOL     OW 7903   5.072   6.817   3.224
 2335SOL    HW1 7904   5.007   6.893   3.218
 2335SOL    HW2 7905   5.058   6.754   3.148
 2336SOL     OW 7906   4.794   1.272   6.071
 2336SOL    HW1 7907   4.780   1.219   6.154
 2336SOL    HW2 7908   4.742   1.358   6.077
 2337SOL     OW 7909   5.527   0.035   3.260
 2337SOL    HW1 7910   5.510   0.023   3.163
 2337SOL    HW2 7911   5.441   0.054   3.308
 2338SOL     OW 7912   0.004   6.939   6.754
 2338SOL    HW1 7913   0.101   6.954   6.737
 2338SOL    HW2 7914   6.983   0.002   6.769
 2339SOL     OW 7915   3.866   4.688   6.629
 2339SOL    HW1 7916   3.880   4.725   6.721
 2339SOL    HW2 7917   3.775   4.714   6.597
 2340SOL     OW 7918   3.715   5.739   4.547
 2340SOL    HW1 7919   3.623   5.724   4.510
 2340SOL    HW2 7920   3.710   5.801   4.625
 2341SOL     OW 7921   5.760   5.253   0.952
 2341SOL    HW1 7922   5.773   5.155   0.937
 2341SOL    HW2 7923   5.663   5.276   0.940
 2342SOL     OW 7924   6.662   0.401   4.812
 2342SOL    HW1 7925   6.630   0.393   4.906
 2342SOL    HW2 7926   6.663   0.497   4.785
 2343SOL     OW 7927   1.176   5.515   1.407
 2343SOL    HW1 7928   1.151   5.582   1.338
 2343SOL    HW2 7929   1.248   5.553   1.465
 2344SOL     OW 7930   2.343   2.141   2.694
 2344SOL    HW1 7931   2.406   2.065   2.712
 2344SOL    HW2 7932   2.396   2.225   2.677
 2345SOL     OW 7933   1.497   0.865   4.482
 2345SOL    HW1 7934   1.457   0.830   4.397
 2345SOL    HW2 7935   1.486   0.964   4.486
 2346SOL     OW 7936   4.760   3.563   5.667
 2346SOL    HW1 7937   4.774   3.524   5.758
 2346SOL    HW2 7938   4.665   3.590   5.656
 2347SOL     OW 7939   1.707   3.294   1.751
 2347SOL    HW1 7940   1.609   3.294   1.732
 2347SOL    HW2 7941   1.752   3.360   1.691
 2348SOL     OW 7942   3.035   6.421   3.298
 2348SOL    HW1 7943   3.009   6.348   3.362
 2348SOL    HW2 7944   2.995   6.402   3.208
 2349SOL     OW 7945   0.026   6.838   5.972
 2349SOL    HW1 7946   0.057   6.927   6.006
 2349SOL    HW2 7947   0.092   6.802   5.907
 2350SOL     OW 7948   2.933   0.190   5.502
 2350SOL    HW1 7949   2.880   0.157   5.424
 2350SOL    HW2 7950   2.982   0.113   5.543
 2351SOL     OW 7951   2.602   4.668   3.491
 2351SOL    HW1 7952   2.668   4.661   3.566
 2351SOL    HW2 7953   2.559   4.758   3.493
 2352SOL     OW 7954   6.906   4.567   2.960
 2352SOL    HW1 7955   6.811   4.538   2.952
 2352SOL    HW2 7956   6.946   4.528   3.043
 2353SOL     OW 7957   2.654   4.361   5.945
 2353SOL    HW1 7958   2.644   4.343   6.043
 2353SOL    HW2 7959   2.587   4.305   5.895
 2354SOL     OW 7960   3.752   2.311   0.871
 2354SOL    HW1 7961   3.676   2.267   0.822
 2354SOL    HW2 7962   3.822   2.339   0.806
 2355SOL     OW 7963   0.527   6.322   0.126
 2355SOL    HW1 7964   0.551   6.420   0.130
 2355SOL    HW2 7965   0.609   6.267   0.143
 2356SOL     OW 7966   2.283   4.969   2.755
 2356SOL    HW1 7967   2.185   4.980   2.737
 2356SOL    HW2 7968   2.334   5.034   2.700
 2357SOL     OW 7969   5.552   4.396   2.292
 2357SOL    HW1 7970   5.498   4.313   2.301
 2357SOL    HW2 7971   5.551   4.426   2.197
 2358SOL     OW 7972   3.912   0.517   5.489
 2358SOL    HW1 7973   3.827   0.556   5.454
 2358SOL    HW2 7974   3.980   0.590   5.498
 2359SOL     OW 7975   2.688   1.807   5.456
 2359SOL    HW1 7976   2.717   1.798   5.551
 2359SOL    HW2 7977   2.609   1.869   5.451
 2360SOL     OW 7978   4.000   4.891   1.191
 2360SOL    HW1 7979   4.008   4.821   1.120
 2360SOL    HW2 7980   4.051   4.862   1.272
 2361SOL     OW 7981   3.220   6.867   2.726
 2361SOL    HW1 7982   3.263   6.912   2.648
 2361SOL    HW2 7983   3.262   6.899   2.811
 2362SOL     OW 7984   4.963   5.696   4.660
 2362SOL    HW1 7985   4.871   5.671   4.689
 2362SOL    HW2 7986   4.964   5.792   4.631
 2363SOL     OW 7987   3.150   3.290   6.926
 2363SOL    HW1 7988   3.159   3.258   6.832
 2363SOL    HW2 7989   3.097   3.223   6.979
 2364SOL     OW 7990   4.708   1.663   1.802
 2364SOL    HW1 7991   4.649   1.583   1.811
 2364SOL    HW2 7992   4.655   1.741   1.770
 2365SOL     OW 7993   5.308   3.281   4.118
 2365SOL    HW1 7994   5.403   3.294   4.089
 2365SOL    HW2 7995   5.306   3.249   4.212
 2366SOL     OW 7996   2.205   3.999   5.865
 2366SOL    HW1 7997   2.239   3.910   5.897
 2366SOL    HW2 7998   2.188   3.994   5.767
 2367SOL     OW 7999   0.886   3.542   6.290
 2367SOL    HW1 8000   0.913   3.467   6.350
 2367SOL    HW2 8001   0.965   3.568   6.233
 2368SOL     OW 8002   5.664   0.498   4.267
 2368SOL    HW1 8003   5.575   0.469   4.233
 2368SOL    HW2 8004   5.723   0.418   4.278
 2369SOL     OW 8005   3.188   1.557   3.571
 2369SOL    HW1 8006   3.203   1.543   3.669
 2369SOL    HW2 8007   3.275   1.572   3.525
 2370SOL     OW 8008   4.729   2.661   1.086
 2370SOL    HW1 8009   4.706   2.721   1.163
 2370SOL    HW2 8010   4.717   2.565   1.114
 2371SOL     OW 8011   0.637   6.490   2.768
 2371SOL    HW1 8012   0.651   6.425   2.843
 2371SOL    HW2 8013   0.721   6.500   2.715
 2372SOL     OW 8014   6.390   1.469   5.891
 2372SOL    HW1 8015   6.401   1.447   5.794
 2372SOL    HW2 8016   6.468   1.433   5.942
 2373SOL     OW 8017   6.651   0.670   6.298
 2373SOL    HW1 8018   6.552   0.656   6.303
 2373SOL    HW2 8019   6.697   0.582   6.314
 2374SOL     OW 8020   5.840   5.974   3.132
 2374SOL    HW1 8021   5.742   5.983   3.147
 2374SOL    HW2 8022   5.861   5.881   3.101
 2375SOL     OW 8023   0.969   0.398   3.838
 2375SOL    HW1 8024   1.062   0.432   3.840
 2375SOL    HW2 8025   0.917   0.447   3.768
 2376SOL     OW 8026   6.570   2.594   3.323
 2376SOL    HW1 8027   6.650   2.556   3.277
 2376SOL    HW2 8028   6.502   2.622   3.255
 2377SOL     OW 8029   3.984   5.001   6.561
 2377SOL    HW1 8030   3.964   5.023   6.466
 2377SOL    HW2 8031   3.915   4.939   6.597
 2378SOL     OW 8032   6.012   2.125   0.473
 2378SOL    HW1 8033   6.045   2.187   0.401
 2378SOL    HW2 8034   5.923   2.088   0.446
 2379SOL     OW 8035   0.121   5.361   0.380
 2379SOL    HW1 8036   0.218   5.340   0.380
 2379SOL    HW2 8037   0.102   5.431   0.448
 2380SOL     OW 8038   5.668   3.590   5.451
 2380SOL    HW1 8039   5.570   3.610   5.457
 2380SOL    HW2 8040   5.711   3.651   5.385
 2381SOL     OW 8041   2.527   4.708   5.200
 2381SOL    HW1 8042   2.557   4.774   5.270
 2381SOL    HW2 8043   2.429   4.718   5.185
 2382SOL     OW 8044   1.487   5.948   2.815
 2382SOL    HW1 8045   1.554   5.980   2.882
 2382SOL    HW2 8046   1.506   5.990   2.726
 2383SOL     OW 8047   5.167   6.002   5.747
 2383SOL    HW1 8048   5.080   5.952   5.750
 2383SOL    HW2 8049   5.156   6.084   5.690
 2384SOL     OW 8050   0.918   2.289   1.550
 2384SOL    HW1 8051   0.877   2.198   1.542
 2384SOL    HW2 8052   1.003   2.283   1.602
 2385SOL     OW 8053   0.769   1.841   0.489
 2385SOL    HW1 8054   0.824   1.841   0.406
 2385SOL    HW2 8055   0.676   1.871   0.468
 2386SOL     OW 8056   3.409   5.373   4.220
 2386SOL    HW1 8057   3.419   5.389   4.122
 2386SOL    HW2 8058   3.347   5.441   4.259
 2387SOL     OW 8059   0.822   2.385   3.259
 2387SOL    HW1 8060   0.774   2.471   3.276
 2387SOL    HW2 8061   0.920   2.397   3.279
 2388SOL     OW 8062   6.801   2.260   6.187
 2388SOL    HW1 8063   6.808   2.186   6.119
 2388SOL    HW2 8064   6.883   2.261   6.243
 2389SOL     OW 8065   5.403   4.865   4.629
 2389SOL    HW1 8066   5.423   4.834   4.536
 2389SOL    HW2 8067   5.414   4.788   4.692
 2390SOL     OW 8068   4.682   3.237   6.102
 2390SOL    HW1 8069   4.630   3.303   6.047
 2390SOL    HW2 8070   4.712   3.162   6.043
 2391SOL     OW 8071   3.715   3.746   6.269
 2391SOL    HW1 8072   3.735   3.649   6.256
 2391SOL    HW2 8073   3.756   3.799   6.195
 2392SOL     OW 8074   3.235   5.414   5.785
 2392SOL    HW1 8075   3.198   5.322   5.774
 2392SOL    HW2 8076   3.295   5.417   5.865
 2393SOL     OW 8077   3.832   5.299   1.708
 2393SOL    HW1 8078   3.914   5.255   1.745
 2393SOL    HW2 8079   3.827   5.393   1.740
 2394SOL     OW 8080   6.947   3.662   3.267
 2394SOL    HW1 8081   7.006   3.640   3.345
 2394SOL    HW2 8082   6.995   3.725   3.206
 2395SOL     OW 8083   0.171   3.450   6.629
 2395SOL    HW1 8084   0.247   3.453   6.564
 2395SOL    HW2 8085   0.099   3.392   6.592
 2396SOL     OW 8086   5.303   0.607   5.048
 2396SOL    HW1 8087   5.403   0.606   5.042
 2396SOL    HW2 8088   5.265   0.664   4.975
 2397SOL     OW 8089   0.842   5.296   5.549
 2397SOL    HW1 8090   0.908   5.307   5.475
 2397SOL    HW2 8091   0.889   5.262   5.631
 2398SOL     OW 8092   2.732   5.432   3.339
 2398SOL    HW1 8093   2.709   5.508   3.401
 2398SOL    HW2 8094   2.648   5.395   3.300
 2399SOL     OW 8095   2.591   2.480   3.642
 2399SOL    HW1 8096   2.608   2.381   3.646
 2399SOL    HW2 8097   2.606   2.520   3.732
 2400SOL     OW 8098   2.016   3.877   0.252
 2400SOL    HW1 8099   2.088   3.941   0.224
 2400SOL    HW2 8100   1.994   3.815   0.177
 2401SOL     OW 8101   3.354   0.145   4.456
 2401SOL    HW1 8102   3.408   0.224   4.484
 2401SOL    HW2 8103   3.257   0.171   4.450
 2402SOL     OW 8104   0.766   2.095   2.494
 2402SOL    HW1 8105   0.777   2.042   2.578
 2402SOL    HW2 8106   0.670   2.094   2.466
 2403SOL     OW 8107   3.679   3.158   1.364
 2403SOL    HW1 8108   3.727   3.114   1.288
 2403SOL    HW2 8109   3.610   3.221   1.328
 2404SOL     OW 8110   6.710   1.699   1.399
 2404SOL    HW1 8111   6.796   1.660   1.432
 2404SOL    HW2 8112   6.673   1.640   1.327
 2405SOL     OW 8113   2.443   4.553   6.894
 2405SOL    HW1 8114   2.521   4.524   6.839
 2405SOL    HW2 8115   2.359   4.538   6.842
 2406SOL     OW 8116   1.652   0.742   3.811
 2406SOL    HW1 8117   1.603   0.819   3.851
 2406SOL    HW2 8118   1.709   0.699   3.882
 2407SOL     OW 8119   4.274   1.953   3.372
 2407SOL    HW1 8120   4.368   1.942   3.342
 2407SOL    HW2 8121   4.216   1.884   3.329
 2408SOL     OW 8122   2.286   5.886   3.523
 2408SOL    HW1 8123   2.273   5.879   3.425
 2408SOL    HW2 8124   2.291   5.794   3.563
 2409SOL     OW 8125   2.530   3.213   0.927
 2409SOL    HW1 8126   2.440   3.219   0.884
 2409SOL    HW2 8127   2.584   3.142   0.882
 2410SOL     OW 8128   5.932   3.476   5.892
 2410SOL    HW1 8129   5.891   3.387   5.910
 2410SOL    HW2 8130   5.948   3.487   5.794
 2411SOL     OW 8131   2.748   4.384   6.512
 2411SOL    HW1 8132   2.826   4.439   6.481
 2411SOL    HW2 8133   2.779   4.292   6.533
 2412SOL     OW 8134   2.825   2.822   6.960
 2412SOL    HW1 8135   2.872   2.736   6.940
 2412SOL    HW2 8136   2.800   2.825   0.031
 2413SOL     OW 8137   7.000   3.386   5.914
 2413SOL    HW1 8138   6.922   3.425   5.962
 2413SOL    HW2 8139   0.055   3.444   5.926
 2414SOL     OW 8140   5.497   2.786   4.066
 2414SOL    HW1 8141   5.499   2.850   4.142
 2414SOL    HW2 8142   5.523   2.695   4.099
 2415SOL     OW 8143   2.138   6.629   0.616
 2415SOL    HW1 8144   2.119   6.717   0.573
 2415SOL    HW2 8145   2.086   6.557   0.569
 2416SOL     OW 8146   0.364   3.431   2.835
 2416SOL    HW1 8147   0.280   3.401   2.790
 2416SOL    HW2 8148   0.422   3.478   2.769
 2417SOL     OW 8149   4.782   2.650   6.727
 2417SOL    HW1 8150   4.874   2.648   6.767
 2417SOL    HW2 8151   4.748   2.744   6.726
 2418SOL     OW 8152   4.049   4.216   5.282
 2418SOL    HW1 8153   4.012   4.303   5.316
 2418SOL    HW2 8154   3.980   4.171   5.224
 2419SOL     OW 8155   1.942   6.968   4.273
 2419SOL    HW1 8156   1.876   6.978   4.347
 2419SOL    HW2 8157   2.018   6.911   4.303
 2420SOL     OW 8158   3.490   5.746   2.135
 2420SOL    HW1 8159   3.395   5.771   2.156
 2420SOL    HW2 8160   3.518   5.672   2.195
 2421SOL     OW 8161   3.504   6.320   3.891
 2421SOL    HW1 8162   3.507   6.408   3.939
 2421SOL    HW2 8163   3.475   6.334   3.797
 2422SOL     OW 8164   3.753   6.806   1.345
 2422SOL    HW1 8165   3.838   6.843   1.307
 2422SOL    HW2 8166   3.770   6.770   1.437
 2423SOL     OW 8167   2.159   5.165   1.808
 2423SOL    HW1 8168   2.125   5.192   1.718
 2423SOL    HW2 8169   2.120   5.077   1.834
 2424SOL     OW 8170   5.471   6.858   0.045
 2424SOL    HW1 8171   5.458   6.886   0.140
 2424SOL    HW2 8172   5.419   6.918   7.009
 2425SOL     OW 8173   5.051   5.397   5.561
 2425SOL    HW1 8174   5.130   5.350   5.521
 2425SOL    HW2 8175   5.002   5.446   5.489
 2426SOL     OW 8176   1.416   5.942   5.000
 2426SOL    HW1 8177   1.514   5.959   5.014
 2426SOL    HW2 8178   1.401   5.911   4.906
 2427SOL     OW 8179   4.754   6.518   6.555
 2427SOL    HW1 8180   4.687   6.482   6.490
 2427SOL    HW2 8181   4.743   6.617   6.563
 2428SOL     OW 8182   7.018   1.343   3.696
 2428SOL    HW1 8183   0.081   1.390   3.696
 2428SOL    HW2 8184   6.947   1.406   3.666
 2429SOL     OW 8185   5.477   5.068   2.617
 2429SOL    HW1 8186   5.500   4.981   2.663
 2429SOL    HW2 8187   5.407   5.051   2.548
 2430SOL     OW 8188   5.759   2.153   0.689
 2430SOL    HW1 8189   5.684   2.139   0.754
 2430SOL    HW2 8190   5.808   2.238   0.713
 2431SOL     OW 8191   6.103   1.813   1.972
 2431SOL    HW1 8192   6.143   1.817   2.063
 2431SOL    HW2 8193   6.078   1.719   1.951
 2432SOL     OW 8194   3.256   5.140   1.795
 2432SOL    HW1 8195   3.199   5.127   1.714
 2432SOL    HW2 8196   3.269   5.237   1.811
 2433SOL     OW 8197   0.342   5.545   0.079
 2433SOL    HW1 8198   0.282   5.622   0.100
 2433SOL    HW2 8199   0.384   5.512   0.163
 2434SOL     OW 8200   4.191   2.311   2.437
 2434SOL    HW1 8201   4.174   2.213   2.428
 2434SOL    HW2 8202   4.109   2.356   2.474
 2435SOL     OW 8203   5.667   6.065   0.073
 2435SOL    HW1 8204   5.697   6.060   0.168
 2435SOL    HW2 8205   5.731   6.122   0.021
 2436SOL     OW 8206   1.446   1.196   1.487
 2436SOL    HW1 8207   1.540   1.200   1.452
 2436SOL    HW2 8208   1.382   1.210   1.412
 2437SOL     OW 8209   5.799   5.632   2.205
 2437SOL    HW1 8210   5.835   5.680   2.125
 2437SOL    HW2 8211   5.870   5.624   2.275
 2438SOL     OW 8212   4.079   1.869   4.684
 2438SOL    HW1 8213   4.007   1.839   4.622
 2438SOL    HW2 8214   4.089   1.968   4.678
 2439SOL     OW 8215   0.390   5.580   6.829
 2439SOL    HW1 8216   0.447   5.661   6.816
 2439SOL    HW2 8217   0.378   5.562   6.927
 2440SOL     OW 8218   4.461   0.567   4.466
 2440SOL    HW1 8219   4.546   0.595   4.422
 2440SOL    HW2 8220   4.467   0.469   4.489
 2441SOL     OW 8221   5.288   0.662   0.038
 2441SOL    HW1 8222   5.365   0.695   0.093
 2441SOL    HW2 8223   5.263   0.570   0.067
 2442SOL     OW 8224   5.402   3.426   2.230
 2442SOL    HW1 8225   5.310   3.390   2.247
 2442SOL    HW2 8226   5.469   3.356   2.251
 2443SOL     OW 8227   2.370   1.211   6.721
 2443SOL    HW1 8228   2.428   1.211   6.803
 2443SOL    HW2 8229   2.274   1.201   6.748
 2444SOL     OW 8230   4.139   4.538   0.149
 2444SOL    HW1 8231   4.165   4.497   0.237
 2444SOL    HW2 8232   4.142   4.468   0.077
 2445SOL     OW 8233   6.174   1.566   1.879
 2445SOL    HW1 8234   6.232   1.523   1.948
 2445SOL    HW2 8235   6.231   1.615   1.813
 2446SOL     OW 8236   0.992   2.653   2.093
 2446SOL    HW1 8237   1.060   2.724   2.079
 2446SOL    HW2 8238   0.931   2.648   2.014
 2447SOL     OW 8239   2.293   0.591   0.670
 2447SOL    HW1 8240   2.367   0.602   0.603
 2447SOL    HW2 8241   2.332   0.562   0.757
 2448SOL     OW 8242   6.237   2.448   4.218
 2448SOL    HW1 8243   6.210   2.488   4.306
 2448SOL    HW2 8244   6.176   2.371   4.197
 2449SOL     OW 8245   1.223   4.078   1.882
 2449SOL    HW1 8246   1.296   4.108   1.944
 2449SOL    HW2 8247   1.175   4.158   1.846
 2450SOL     OW 8248   3.194   5.169   7.013
 2450SOL    HW1 8249   3.233   5.258   0.013
 2450SOL    HW2 8250   3.166   5.172   6.917
 2451SOL     OW 8251   0.736   6.986   4.184
 2451SOL    HW1 8252   0.710   6.894   4.212
 2451SOL    HW2 8253   0.779   0.008   4.261
 2452SOL     OW 8254   2.485   2.345   3.033
 2452SOL    HW1 8255   2.528   2.385   2.952
 2452SOL    HW2 8256   2.463   2.417   3.098
 2453SOL     OW 8257   6.895   2.422   0.652
 2453SOL    HW1 8258   6.958   2.370   0.710
 2453SOL    HW2 8259   6.832   2.473   0.710
 2454SOL     OW 8260   3.073   5.684   0.048
 2454SOL    HW1 8261   3.034   5.758   0.102
 2454SOL    HW2 8262   3.168   5.670   0.075
 2455SOL     OW 8263   3.603   1.163   0.259
 2455SOL    HW1 8264   3.529   1.108   0.298
 2455SOL    HW2 8265   3.591   1.169   0.160
 2456SOL     OW 8266   0.812   3.511   6.811
 2456SOL    HW1 8267   0.794   3.588   6.873
 2456SOL    HW2 8268   0.782   3.426   6.854
 2457SOL     OW 8269   5.967   0.972   5.706
 2457SOL    HW1 8270   5.890   1.026   5.673
 2457SOL    HW2 8271   5.948   0.875   5.695
 2458SOL     OW 8272   0.870   0.702   3.338
 2458SOL    HW1 8273   0.900   0.679   3.430
 2458SOL    HW2 8274   0.906   0.793   3.313
 2459SOL     OW 8275   3.097   6.080   5.662
 2459SOL    HW1 8276   3.079   6.000   5.719
 2459SOL    HW2 8277   3.017   6.097   5.604
 2460SOL     OW 8278   1.185   0.904   0.374
 2460SOL    HW1 8279   1.166   0.806   0.363
 2460SOL    HW2 8280   1.103   0.956   0.350
 2461SOL     OW 8281   4.690   0.011   4.013
 2461SOL    HW1 8282   4.710   0.064   3.930
 2461SOL    HW2 8283   4.767   6.975   4.033
 2462SOL     OW 8284   1.517   5.030   0.786
 2462SOL    HW1 8285   1.581   5.104   0.812
 2462SOL    HW2 8286   1.472   4.995   0.868
 2463SOL     OW 8287   6.404   1.835   0.656
 2463SOL    HW1 8288   6.389   1.736   0.661
 2463SOL    HW2 8289   6.495   1.857   0.693
 2464SOL     OW 8290   1.247   2.778   2.576
 2464SOL    HW1 8291   1.201   2.827   2.650
 2464SOL    HW2 8292   1.253   2.681   2.599
 2465SOL     OW 8293   6.855   5.995   6.102
 2465SOL    HW1 8294   6.931   6.056   6.125
 2465SOL    HW2 8295   6.888   5.921   6.042
 2466SOL     OW 8296   1.598   2.055   2.661
 2466SOL    HW1 8297   1.612   1.956   2.669
 2466SOL    HW2 8298   1.634   2.101   2.742
 2467SOL     OW 8299   4.853   2.037   5.988
 2467SOL    HW1 8300   4.773   2.095   5.972
 2467SOL    HW2 8301   4.875   1.987   5.904
 2468SOL     OW 8302   4.264   0.190   6.865
 2468SOL    HW1 8303   4.252   0.108   6.810
 2468SOL    HW2 8304   4.184   0.249   6.853
 2469SOL     OW 8305   3.693   3.294   5.817
 2469SOL    HW1 8306   3.766   3.241   5.774
 2469SOL    HW2 8307   3.659   3.245   5.897
 2470SOL     OW 8308   4.072   5.253   6.554
 2470SOL    HW1 8309   4.137   5.272   6.481
 2470SOL    HW2 8310   4.060   5.154   6.563
 2471SOL     OW 8311   2.943   6.922   0.239
 2471SOL    HW1 8312   2.970   6.997   0.178
 2471SOL    HW2 8313   2.861   6.947   0.289
 2472SOL     OW 8314   4.265   2.084   3.610
 2472SOL    HW1 8315   4.176   2.043   3.632
 2472SOL    HW2 8316   4.293   2.055   3.519
 2473SOL     OW 8317   1.212   4.396   5.694
 2473SOL    HW1 8318   1.296   4.428   5.650
 2473SOL    HW2 8319   1.202   4.297   5.679
 2474SOL     OW 8320   1.183   5.322   0.801
 2474SOL    HW1 8321   1.263   5.367   0.841
 2474SOL    HW2 8322   1.169   5.356   0.708
 2475SOL     OW 8323   4.566   0.133   1.832
 2475SOL    HW1 8324   4.586   0.219   1.784
 2475SOL    HW2 8325   4.592   0.141   1.928
 2476SOL     OW 8326   5.543   0.335   2.518
 2476SOL    HW1 8327   5.500   0.245   2.524
 2476SOL    HW2 8328   5.504   0.386   2.442
 2477SOL     OW 8329   3.912   0.979   3.137
 2477SOL    HW1 8330   3.855   0.950   3.061
 2477SOL    HW2 8331   3.907   0.911   3.211
 2478SOL     OW 8332   5.330   0.963   1.969
 2478SOL    HW1 8333   5.317   1.044   2.026
 2478SOL    HW2 8334   5.258   0.959   1.899
 2479SOL     OW 8335   1.252   3.020   1.795
 2479SOL    HW1 8336   1.221   3.093   1.734
 2479SOL    HW2 8337   1.286   2.944   1.740
 2480SOL     OW 8338   3.876   2.726   1.050
 2480SOL    HW1 8339   3.793   2.780   1.064
 2480SOL    HW2 8340   3.876   2.649   1.114
 2481SOL     OW 8341   3.061   6.901   1.315
 2481SOL    HW1 8342   3.027   6.933   1.404
 2481SOL    HW2 8343   3.011   6.819   1.288
 2482SOL     OW 8344   5.584   3.586   6.678
 2482SOL    HW1 8345   5.609   3.550   6.588
 2482SOL    HW2 8346   5.545   3.678   6.667
 2483SOL     OW 8347   1.902   1.347   6.605
 2483SOL    HW1 8348   1.872   1.391   6.520
 2483SOL    HW2 8349   1.957   1.267   6.584
 2484SOL     OW 8350   3.486   0.820   0.380
 2484SOL    HW1 8351   3.461   0.911   0.413
 2484SOL    HW2 8352   3.418   0.754   0.410
 2485SOL     OW 8353   5.164   2.982   0.749
 2485SOL    HW1 8354   5.121   3.054   0.804
 2485SOL    HW2 8355   5.261   2.976   0.772
 2486SOL     OW 8356   1.450   5.221   5.648
 2486SOL    HW1 8357   1.476   5.313   5.619
 2486SOL    HW2 8358   1.484   5.154   5.582
 2487SOL     OW 8359   4.221   6.495   0.192
 2487SOL    HW1 8360   4.292   6.511   0.261
 2487SOL    HW2 8361   4.131   6.515   0.230
 2488SOL     OW 8362   0.520   3.838   2.129
 2488SOL    HW1 8363   0.504   3.761   2.068
 2488SOL    HW2 8364   0.462   3.829   2.210
 2489SOL     OW 8365   1.010   5.876   3.746
 2489SOL    HW1 8366   0.966   5.960   3.716
 2489SOL    HW2 8367   1.056   5.891   3.833
 2490SOL     OW 8368   0.534   5.402   0.863
 2490SOL    HW1 8369   0.567   5.307   0.860
 2490SOL    HW2 8370   0.544   5.437   0.956
 2491SOL     OW 8371   3.198   4.641   0.671
 2491SOL    HW1 8372   3.203   4.637   0.571
 2491SOL    HW2 8373   3.115   4.594   0.702
 2492SOL     OW 8374   4.393   3.964   0.755
 2492SOL    HW1 8375   4.316   4.013   0.715
 2492SOL    HW2 8376   4.469   3.960   0.690
 2493SOL     OW 8377   6.253   6.892   1.745
 2493SOL    HW1 8378   6.293   6.801   1.752
 2493SOL    HW2 8379   6.326   6.961   1.739
 2494SOL     OW 8380   5.397   4.283   2.656
 2494SOL    HW1 8381   5.478   4.340   2.644
 2494SOL    HW2 8382   5.417   4.189   2.626
 2495SOL     OW 8383   5.005   6.039   3.743
 2495SOL    HW1 8384   4.941   5.973   3.705
 2495SOL    HW2 8385   4.957   6.124   3.763
 2496SOL     OW 8386   0.235   2.956   0.068
 2496SOL    HW1 8387   0.227   2.983   0.164
 2496SOL    HW2 8388   0.166   2.888   0.046
 2497SOL     OW 8389   0.714   0.208   0.857
 2497SOL    HW1 8390   0.772   0.130   0.877
 2497SOL    HW2 8391   0.707   0.266   0.938
 2498SOL     OW 8392   2.877   2.082   5.382
 2498SOL    HW1 8393   2.842   2.176   5.389
 2498SOL    HW2 8394   2.880   2.041   5.472
 2499SOL     OW 8395   6.017   3.519   2.328
 2499SOL    HW1 8396   6.092   3.516   2.262
 2499SOL    HW2 8397   6.038   3.588   2.397
 2500SOL     OW 8398   3.524   4.344   6.758
 2500SOL    HW1 8399   3.622   4.330   6.771
 2500SOL    HW2 8400   3.475   4.319   6.842
 2501SOL     OW 8401   5.187   5.287   0.737
 2501SOL    HW1 8402   5.126   5.228   0.685
 2501SOL    HW2 8403   5.218   5.239   0.819
 2502SOL     OW 8404   0.961   0.433   4.527
 2502SOL    HW1 8405   1.003   0.519   4.497
 2502SOL    HW2 8406   0.915   0.389   4.450
 2503SOL     OW 8407   2.422   6.817   4.182
 2503SOL    HW1 8408   2.492   6.838   4.251
 2503SOL    HW2 8409   2.355   6.891   4.179
 2504SOL     OW 8410   3.626   5.402   3.779
 2504SOL    HW1 8411   3.648   5.485   3.727
 2504SOL    HW2 8412   3.540   5.416   3.828
 2505SOL     OW 8413   0.276   6.920   2.951
 2505SOL    HW1 8414   0.376   6.911   2.950
 2505SOL    HW2 8415   0.234   6.835   2.920
 2506SOL     OW 8416   6.993   3.683   6.420
 2506SOL    HW1 8417   6.992   3.778   6.388
 2506SOL    HW2 8418   7.003   3.682   6.519
 2507SOL     OW 8419   6.435   2.986   0.304
 2507SOL    HW1 8420   6.376   2.979   0.385
 2507SOL    HW2 8421   6.399   3.057   0.244
 2508SOL     OW 8422   2.949   1.426   3.498
 2508SOL    HW1 8423   3.035   1.450   3.543
 2508SOL    HW2 8424   2.969   1.379   3.412
 2509SOL     OW 8425   0.205   4.385   0.594
 2509SOL    HW1 8426   0.199   4.330   0.510
 2509SOL    HW2 8427   0.222   4.480   0.570
 2510SOL     OW 8428   2.511   4.969   0.884
 2510SOL    HW1 8429   2.411   4.962   0.891
 2510SOL    HW2 8430   2.553   4.928   0.964
 2511SOL     OW 8431   3.624   2.104   3.873
 2511SOL    HW1 8432   3.688   2.062   3.938
 2511SOL    HW2 8433   3.530   2.085   3.902
 2512SOL     OW 8434   4.455   3.927   5.378
 2512SOL    HW1 8435   4.458   3.847   5.318
 2512SOL    HW2 8436   4.523   3.916   5.451
 2513SOL     OW 8437   2.329   4.901   4.944
 2513SOL    HW1 8438   2.315   4.980   5.004
 2513SOL    HW2 8439   2.301   4.818   4.992
 2514SOL     OW 8440   0.401   3.693   5.240
 2514SOL    HW1 8441   0.439   3.748   5.167
 2514SOL    HW2 8442   0.470   3.681   5.312
 2515SOL     OW 8443   1.357   6.618   0.425
 2515SOL    HW1 8444   1.276   6.601   0.481
 2515SOL    HW2 8445   1.431   6.652   0.483
 2516SOL     OW 8446   5.027   1.507   2.922
 2516SOL    HW1 8447   5.032   1.606   2.939
 2516SOL    HW2 8448   4.935   1.475   2.944
 2517SOL     OW 8449   1.087   0.140   6.473
 2517SOL    HW1 8450   1.172   0.127   6.524
 2517SOL    HW2 8451   1.107   0.182   6.385
 2518SOL     OW 8452   1.727   5.528   0.926
 2518SOL    HW1 8453   1.649   5.580   0.891
 2518SOL    HW2 8454   1.809   5.554   0.876
 2519SOL     OW 8455   3.606   6.607   2.022
 2519SOL    HW1 8456   3.594   6.509   2.011
 2519SOL    HW2 8457   3.692   6.625   2.070
 2520SOL     OW 8458   3.220   1.657   0.822
 2520SOL    HW1 8459   3.208   1.729   0.753
 2520SOL    HW2 8460   3.314   1.623   0.817
 2521SOL     OW 8461   3.095   0.371   5.352
 2521SOL    HW1 8462   3.032   0.359   5.429
 2521SOL    HW2 8463   3.160   0.295   5.350
 2522SOL     OW 8464   0.452   2.363   5.480
 2522SOL    HW1 8465   0.399   2.333   5.559
 2522SOL    HW2 8466   0.467   2.286   5.419
 2523SOL     OW 8467   1.031   2.575   0.980
 2523SOL    HW1 8468   1.079   2.573   0.893
 2523SOL    HW2 8469   1.074   2.512   1.044
 2524SOL     OW 8470   0.105   6.524   5.077
 2524SOL    HW1 8471   0.036   6.579   5.125
 2524SOL    HW2 8472   0.071   6.432   5.063
 2525SOL     OW 8473   1.023   2.334   5.296
 2525SOL    HW1 8474   1.006   2.431   5.317
 2525SOL    HW2 8475   1.122   2.319   5.289
 2526SOL     OW 8476   1.612   5.136   6.326
 2526SOL    HW1 8477   1.703   5.151   6.367
 2526SOL    HW2 8478   1.615   5.162   6.230
 2527SOL     OW 8479   6.052   6.461   6.175
 2527SOL    HW1 8480   6.123   6.528   6.150
 2527SOL    HW2 8481   6.033   6.403   6.096
 2528SOL     OW 8482   6.462   4.851   0.287
 2528SOL    HW1 8483   6.426   4.913   0.357
 2528SOL    HW2 8484   6.501   4.904   0.212
 2529SOL     OW 8485   6.281   6.354   6.495
 2529SOL    HW1 8486   6.344   6.420   6.453
 2529SOL    HW2 8487   6.256   6.386   6.587
 2530SOL     OW 8488   2.924   6.206   4.442
 2530SOL    HW1 8489   2.838   6.155   4.439
 2530SOL    HW2 8490   2.930   6.265   4.362
 2531SOL     OW 8491   5.451   5.915   4.501
 2531SOL    HW1 8492   5.377   5.863   4.544
 2531SOL    HW2 8493   5.474   5.993   4.559
 2532SOL     OW 8494   0.335   6.070   0.479
 2532SOL    HW1 8495   0.328   6.154   0.425
 2532SOL    HW2 8496   0.254   6.060   0.536
 2533SOL     OW 8497   4.010   6.880   4.089
 2533SOL    HW1 8498   4.082   6.912   4.150
 2533SOL    HW2 8499   3.958   6.958   4.055
 2534SOL     OW 8500   3.774   1.146   2.074
 2534SOL    HW1 8501   3.823   1.168   1.990
 2534SOL    HW2 8502   3.683   1.188   2.072
 2535SOL     OW 8503   3.021   2.954   5.650
 2535SOL    HW1 8504   3.034   2.856   5.668
 2535SOL    HW2 8505   3.084   2.982   5.577
 2536SOL     OW 8506   1.188   1.627   5.101
 2536SOL    HW1 8507   1.173   1.726   5.096
 2536SOL    HW2 8508   1.278   1.605   5.064
 2537SOL     OW 8509   3.398   0.424   6.392
 2537SOL    HW1 8510   3.320   0.454   6.447
 2537SOL    HW2 8511   3.365   0.397   6.301
 2538SOL     OW 8512   0.815   4.077   3.407
 2538SOL    HW1 8513   0.848   4.065   3.501
 2538SOL    HW2 8514   0.761   3.997   3.381
 2539SOL     OW 8515   5.858   0.939   4.826
 2539SOL    HW1 8516   5.941   0.915   4.776
 2539SOL    HW2 8517   5.804   0.856   4.843
 2540SOL     OW 8518   4.074   1.888   2.813
 2540SOL    HW1 8519   4.052   1.961   2.879
 2540SOL    HW2 8520   4.021   1.902   2.730
 2541SOL     OW 8521   2.648   0.530   4.703
 2541SOL    HW1 8522   2.562   0.553   4.748
 2541SOL    HW2 8523   2.718   0.597   4.728
 2542SOL     OW 8524   3.115   2.835   5.997
 2542SOL    HW1 8525   3.189   2.886   5.953
 2542SOL    HW2 8526   3.068   2.779   5.928
 2543SOL     OW 8527   0.722   0.602   3.109
 2543SOL    HW1 8528   0.696   0.638   3.020
 2543SOL    HW2 8529   0.741   0.678   3.171
 2544SOL     OW 8530   0.490   5.680   1.255
 2544SOL    HW1 8531   0.506   5.762   1.199
 2544SOL    HW2 8532   0.543   5.604   1.218
 2545SOL     OW 8533   0.596   6.818   2.223
 2545SOL    HW1 8534   0.522   6.853   2.280
 2545SOL    HW2 8535   0.580   6.844   2.128
 2546SOL     OW 8536   6.697   1.141   2.009
 2546SOL    HW1 8537   6.795   1.136   2.027
 2546SOL    HW2 8538   6.646   1.104   2.087
 2547SOL     OW 8539   6.660   4.458   0.439
 2547SOL    HW1 8540   6.757   4.481   0.427
 2547SOL    HW2 8541   6.650   4.360   0.453
 2548SOL     OW 8542   0.806   0.019   5.550
 2548SOL    HW1 8543   0.802   6.993   5.636
 2548SOL    HW2 8544   0.778   0.113   5.566
 2549SOL     OW 8545   1.779   0.092   1.160
 2549SOL    HW1 8546   1.751   0.183   1.132
 2549SOL    HW2 8547   1.704   0.027   1.143
 2550SOL     OW 8548   0.406   0.809   6.712
 2550SOL    HW1 8549   0.350   0.739   6.756
 2550SOL    HW2 8550   0.368   0.829   6.622
 2551SOL     OW 8551   3.164   5.009   0.200
 2551SOL    HW1 8552   3.152   5.065   0.118
 2551SOL    HW2 8553   3.124   4.919   0.185
 2552SOL     OW 8554   1.924   6.049   4.428
 2552SOL    HW1 8555   1.976   6.132   4.406
 2552SOL    HW2 8556   1.853   6.071   4.494
 2553SOL     OW 8557   4.700   3.502   5.941
 2553SOL    HW1 8558   4.601   3.503   5.956
 2553SOL    HW2 8559   4.746   3.551   6.015
 2554SOL     OW 8560   2.124   6.932   0.118
 2554SOL    HW1 8561   2.125   6.962   0.214
 2554SOL    HW2 8562   2.029   6.921   0.088
 2555SOL     OW 8563   5.434   0.036   4.912
 2555SOL    HW1 8564   5.450   0.078   5.001
 2555SOL    HW2 8565   5.397   6.970   4.924
 2556SOL     OW 8566   4.113   6.108   6.922
 2556SOL    HW1 8567   4.154   6.022   6.954
 2556SOL    HW2 8568   4.177   6.155   6.862
 2557SOL     OW 8569   2.196   4.648   6.582
 2557SOL    HW1 8570   2.160   4.733   6.543
 2557SOL    HW2 8571   2.124   4.578   6.582
 2558SOL     OW 8572   5.098   1.643   5.038
 2558SOL    HW1 8573   5.078   1.648   4.940
 2558SOL    HW2 8574   5.069   1.554   5.073
 2559SOL     OW 8575   0.631   3.757   5.081
 2559SOL    HW1 8576   0.637   3.850   5.117
 2559SOL    HW2 8577   0.663   3.756   4.986
 2560SOL     OW 8578   5.558   2.964   4.707
 2560SOL    HW1 8579   5.523   3.017   4.784
 2560SOL    HW2 8580   5.487   2.899   4.677
 2561SOL     OW 8581   3.237   5.844   5.060
 2561SOL    HW1 8582   3.213   5.873   4.968
 2561SOL    HW2 8583   3.168   5.878   5.125
 2562SOL     OW 8584   2.352   5.057   1.267
 2562SOL    HW1 8585   2.282   5.046   1.196
 2562SOL    HW2 8586   2.308   5.068   1.356
 2563SOL     OW 8587   3.806   2.112   0.448
 2563SOL    HW1 8588   3.816   2.069   0.537
 2563SOL    HW2 8589   3.741   2.187   0.454
 2564SOL     OW 8590   2.531   5.705   6.519
 2564SOL    HW1 8591   2.616   5.653   6.506
 2564SOL    HW2 8592   2.477   5.662   6.591
 2565SOL     OW 8593   1.471   0.020   0.077
 2565SOL    HW1 8594   1.419   6.967   0.042
 2565SOL    HW2 8595   1.496   0.081   0.002
 2566SOL     OW 8596   2.347   6.849   1.155
 2566SOL    HW1 8597   2.364   6.943   1.129
 2566SOL    HW2 8598   2.272   6.811   1.101
 2567SOL     OW 8599   1.254   0.395   0.779
 2567SOL    HW1 8600   1.202   0.457   0.719
 2567SOL    HW2 8601   1.194   0.321   0.810
 2568SOL     OW 8602   4.376   0.916   0.062
 2568SOL    HW1 8603   4.316   0.869   7.022
 2568SOL    HW2 8604   4.374   1.014   0.043
 2569SOL     OW 8605   3.086   0.806   2.381
 2569SOL    HW1 8606   3.095   0.902   2.355
 2569SOL    HW2 8607   3.000   0.792   2.431
 2570SOL     OW 8608   5.764   0.141   6.780
 2570SOL    HW1 8609   5.814   0.225   6.757
 2570SOL    HW2 8610   5.825   0.079   6.830
 2571SOL     OW 8611   2.523   4.433   5.219
 2571SOL    HW1 8612   2.440   4.395   5.178
 2571SOL    HW2 8613   2.558   4.507   5.162
 2572SOL     OW 8614   2.348   6.234   0.725
 2572SOL    HW1 8615   2.300   6.226   0.638
 2572SOL    HW2 8616   2.438   6.190   0.717
 2573SOL     OW 8617   0.238   1.723   1.573
 2573SOL    HW1 8618   0.317   1.689   1.524
 2573SOL    HW2 8619   0.166   1.654   1.573
 2574SOL     OW 8620   5.749   3.900   0.369
 2574SOL    HW1 8621   5.655   3.929   0.389
 2574SOL    HW2 8622   5.814   3.962   0.413
 2575SOL     OW 8623   4.920   5.430   1.077
 2575SOL    HW1 8624   4.922   5.480   1.164
 2575SOL    HW2 8625   4.881   5.489   1.006
 2576SOL     OW 8626   4.526   6.513   4.852
 2576SOL    HW1 8627   4.543   6.609   4.870
 2576SOL    HW2 8628   4.613   6.464   4.847
 2577SOL     OW 8629   3.812   6.433   2.341
 2577SOL    HW1 8630   3.786   6.421   2.245
 2577SOL    HW2 8631   3.742   6.393   2.399
 2578SOL     OW 8632   4.805   1.653   4.701
 2578SOL    HW1 8633   4.800   1.588   4.777
 2578SOL    HW2 8634   4.882   1.715   4.716
 2579SOL     OW 8635   1.437   6.878   3.524
 2579SOL    HW1 8636   1.402   6.827   3.446
 2579SOL    HW2 8637   1.366   6.939   3.559
 2580SOL     OW 8638   3.262   4.746   6.491
 2580SOL    HW1 8639   3.189   4.678   6.493
 2580SOL    HW2 8640   3.325   4.731   6.567
 2581SOL     OW 8641   2.352   4.923   1.913
 2581SOL    HW1 8642   2.432   4.976   1.943
 2581SOL    HW2 8643   2.356   4.909   1.814
 2582SOL     OW 8644   0.507   4.374   1.270
 2582SOL    HW1 8645   0.484   4.321   1.189
 2582SOL    HW2 8646   0.498   4.316   1.351
 2583SOL     OW 8647   1.307   1.824   6.142
 2583SOL    HW1 8648   1.246   1.764   6.195
 2583SOL    HW2 8649   1.396   1.829   6.187
 2584SOL     OW 8650   5.201   5.283   6.169
 2584SOL    HW1 8651   5.126   5.241   6.220
 2584SOL    HW2 8652   5.242   5.215   6.109
 2585SOL     OW 8653   3.616   3.365   0.824
 2585SOL    HW1 8654   3.582   3.453   0.858
 2585SOL    HW2 8655   3.677   3.325   0.891
 2586SOL     OW 8656   3.354   0.742   4.916
 2586SOL    HW1 8657   3.278   0.688   4.952
 2586SOL    HW2 8658   3.378   0.710   4.824
 2587SOL     OW 8659   6.240   0.792   3.649
 2587SOL    HW1 8660   6.165   0.853   3.674
 2587SOL    HW2 8661   6.249   0.720   3.718
 2588SOL     OW 8662   4.859   2.145   6.232
 2588SOL    HW1 8663   4.863   2.124   6.134
 2588SOL    HW2 8664   4.925   2.217   6.253
 2589SOL     OW 8665   1.627   6.647   5.579
 2589SOL    HW1 8666   1.561   6.613   5.512
 2589SOL    HW2 8667   1.714   6.665   5.534
 2590SOL     OW 8668   3.705   5.003   0.100
 2590SOL    HW1 8669   3.733   5.093   0.066
 2590SOL    HW2 8670   3.613   5.009   0.140
 2591SOL     OW 8671   6.459   4.506   3.164
 2591SOL    HW1 8672   6.430   4.493   3.259
 2591SOL    HW2 8673   6.504   4.423   3.131
 2592SOL     OW 8674   3.032   5.112   0.437
 2592SOL    HW1 8675   3.099   5.046   0.471
 2592SOL    HW2 8676   3.022   5.102   0.338
 2593SOL     OW 8677   4.344   5.960   6.947
 2593SOL    HW1 8678   4.318   5.874   6.990
 2593SOL    HW2 8679   4.442   5.976   6.961
 2594SOL     OW 8680   1.761   4.107   5.924
 2594SOL    HW1 8681   1.774   4.198   5.884
 2594SOL    HW2 8682   1.847   4.077   5.966
 2595SOL     OW 8683   0.081   0.808   3.952
 2595SOL    HW1 8684   0.162   0.760   3.918
 2595SOL    HW2 8685   0.049   0.762   4.035
 2596SOL     OW 8686   3.029   2.372   1.660
 2596SOL    HW1 8687   3.106   2.431   1.636
 2596SOL    HW2 8688   2.997   2.395   1.752
 2597SOL     OW 8689   0.538   5.421   6.338
 2597SOL    HW1 8690   0.549   5.510   6.382
 2597SOL    HW2 8691   0.465   5.427   6.270
 2598SOL     OW 8692   6.163   1.692   2.880
 2598SOL    HW1 8693   6.247   1.745   2.878
 2598SOL    HW2 8694   6.087   1.747   2.845
 2599SOL     OW 8695   1.348   5.818   0.860
 2599SOL    HW1 8696   1.363   5.916   0.847
 2599SOL    HW2 8697   1.428   5.768   0.828
 2600SOL     OW 8698   5.752   2.798   4.488
 2600SOL    HW1 8699   5.705   2.883   4.509
 2600SOL    HW2 8700   5.685   2.724   4.481
 2601SOL     OW 8701   1.275   1.504   1.585
 2601SOL    HW1 8702   1.294   1.408   1.605
 2601SOL    HW2 8703   1.351   1.561   1.618
 2602SOL     OW 8704   1.051   4.628   4.985
 2602SOL    HW1 8705   1.043   4.721   4.952
 2602SOL    HW2 8706   1.120   4.579   4.932
 2603SOL     OW 8707   2.937   1.270   3.120
 2603SOL    HW1 8708   2.916   1.367   3.105
 2603SOL    HW2 8709   2.852   1.219   3.134
 2604SOL     OW 8710   4.661   1.920   2.748
 2604SOL    HW1 8711   4.570   1.887   2.770
 2604SOL    HW2 8712   4.667   2.018   2.771
 2605SOL     OW 8713   1.583   3.371   2.620
 2605SOL    HW1 8714   1.569   3.337   2.527
 2605SOL    HW2 8715   1.508   3.432   2.645
 2606SOL     OW 8716   6.153   5.052   1.817
 2606SOL    HW1 8717   6.075   5.028   1.758
 2606SOL    HW2 8718   6.133   5.139   1.863
 2607SOL     OW 8719   0.882   1.018   1.042
 2607SOL    HW1 8720   0.886   1.116   1.060
 2607SOL    HW2 8721   0.863   0.970   1.128
 2608SOL     OW 8722   4.007   5.512   0.691
 2608SOL    HW1 8723   3.970   5.602   0.668
 2608SOL    HW2 8724   3.932   5.451   0.718
 2609SOL     OW 8725   6.196   1.577   2.326
 2609SOL    HW1 8726   6.207   1.655   2.386
 2609SOL    HW2 8727   6.185   1.494   2.381
 2610SOL     OW 8728   0.780   4.516   4.289
 2610SOL    HW1 8729   0.873   4.486   4.310
 2610SOL    HW2 8730   0.771   4.614   4.309
 2611SOL     OW 8731   4.591   6.051   0.543
 2611SOL    HW1 8732   4.587   6.031   0.641
 2611SOL    HW2 8733   4.512   6.107   0.517
 2612SOL     OW 8734   6.025   6.460   4.866
 2612SOL    HW1 8735   5.988   6.486   4.777
 2612SOL    HW2 8736   6.056   6.365   4.863
 2613SOL     OW 8737   2.652   5.316   6.219
 2613SOL    HW1 8738   2.559   5.351   6.230
 2613SOL    HW2 8739   2.717   5.389   6.239
 2614SOL     OW 8740   6.631   1.975   0.328
 2614SOL    HW1 8741   6.571   2.006   0.254
 2614SOL    HW2 8742   6.623   2.038   0.405
 2615SOL     OW 8743   0.931   3.526   1.934
 2615SOL    HW1 8744   0.986   3.448   1.965
 2615SOL    HW2 8745   0.840   3.521   1.975
 2616SOL     OW 8746   1.838   2.074   5.973
 2616SOL    HW1 8747   1.934   2.067   5.949
 2616SOL    HW2 8748   1.829   2.091   6.071
 2617SOL     OW 8749   4.450   1.448   0.624
 2617SOL    HW1 8750   4.464   1.361   0.577
 2617SOL    HW2 8751   4.401   1.433   0.709
 2618SOL     OW 8752   6.867   6.967   4.123
 2618SOL    HW1 8753   6.784   7.018   4.102
 2618SOL    HW2 8754   6.910   6.937   4.038
 2619SOL     OW 8755   4.535   1.836   1.718
 2619SOL    HW1 8756   4.587   1.845   1.633
 2619SOL    HW2 8757   4.454   1.894   1.714
 2620SOL     OW 8758   6.614   0.311   2.965
 2620SOL    HW1 8759   6.706   0.284   2.937
 2620SOL    HW2 8760   6.561   0.230   2.987
 2621SOL     OW 8761   1.289   5.397   2.609
 2621SOL    HW1 8762   1.240   5.469   2.658
 2621SOL    HW2 8763   1.228   5.319   2.593
 2622SOL     OW 8764   2.464   3.667   6.018
 2622SOL    HW1 8765   2.527   3.593   5.996
 2622SOL    HW2 8766   2.388   3.667   5.953
 2623SOL     OW 8767   0.701   0.721   4.965
 2623SOL    HW1 8768   0.792   0.760   4.983
 2623SOL    HW2 8769   0.650   0.781   4.904
 2624SOL     OW 8770   0.286   2.117   5.125
 2624SOL    HW1 8771   0.293   2.030   5.174
 2624SOL    HW2 8772   0.244   2.185   5.184
 2625SOL     OW 8773   2.478   3.810   5.727
 2625SOL    HW1 8774   2.553   3.744   5.727
 2625SOL    HW2 8775   2.515   3.902   5.713
 2626SOL     OW 8776   6.721   0.299   6.281
 2626SOL    HW1 8777   6.622   0.296   6.272
 2626SOL    HW2 8778   6.762   0.317   6.191
 2627SOL     OW 8779   1.656   0.826   5.591
 2627SOL    HW1 8780   1.700   0.859   5.674
 2627SOL    HW2 8781   1.643   0.902   5.527
 2628SOL     OW 8782   1.732   4.011   5.311
 2628SOL    HW1 8783   1.679   3.994   5.227
 2628SOL    HW2 8784   1.728   4.108   5.334
 2629SOL     OW 8785   3.890   3.582   2.949
 2629SOL    HW1 8786   3.911   3.669   2.904
 2629SOL    HW2 8787   3.972   3.546   2.993
 2630SOL     OW 8788   3.510   1.683   3.148
 2630SOL    HW1 8789   3.539   1.589   3.133
 2630SOL    HW2 8790   3.581   1.745   3.116
 2631SOL     OW 8791   5.080   0.837   6.425
 2631SOL    HW1 8792   5.110   0.901   6.496
 2631SOL    HW2 8793   5.000   0.874   6.378
 2632SOL     OW 8794   5.698   3.646   0.324
 2632SOL    HW1 8795   5.718   3.744   0.331
 2632SOL    HW2 8796   5.783   3.594   0.324
 2633SOL     OW 8797   6.564   2.049   4.843
 2633SOL    HW1 8798   6.471   2.053   4.808
 2633SOL    HW2 8799   6.569   1.984   4.918
 2634SOL     OW 8800   0.417   5.499   3.540
 2634SOL    HW1 8801   0.345   5.514   3.473
 2634SOL    HW2 8802   0.417   5.574   3.607
 2635SOL     OW 8803   6.770   5.373   4.175
 2635SOL    HW1 8804   6.685   5.404   4.132
 2635SOL    HW2 8805   6.821   5.452   4.209
 2636SOL     OW 8806   4.058   1.045   6.780
 2636SOL    HW1 8807   4.107   1.050   6.693
 2636SOL    HW2 8808   4.105   0.982   6.841
 2637SOL     OW 8809   6.385   1.723   4.072
 2637SOL    HW1 8810   6.370   1.815   4.107
 2637SOL    HW2 8811   6.481   1.697   4.086
 2638SOL     OW 8812   0.219   0.153   4.558
 2638SOL    HW1 8813   0.295   0.088   4.569
 2638SOL    HW2 8814   0.186   0.180   4.648
 2639SOL     OW 8815   6.635   5.658   6.329
 2639SOL    HW1 8816   6.657   5.560   6.327
 2639SOL    HW2 8817   6.536   5.669   6.342
 2640SOL     OW 8818   6.629   0.097   5.083
 2640SOL    HW1 8819   6.714   0.101   5.137
 2640SOL    HW2 8820   6.581   0.184   5.090
 2641SOL     OW 8821   4.743   1.815   1.187
 2641SOL    HW1 8822   4.726   1.882   1.115
 2641SOL    HW2 8823   4.834   1.776   1.176
 2642SOL     OW 8824   6.314   0.047   4.265
 2642SOL    HW1 8825   6.307   7.000   4.334
 2642SOL    HW2 8826   6.227   0.096   4.258
 2643SOL     OW 8827   1.464   3.211   3.587
 2643SOL    HW1 8828   1.419   3.300   3.579
 2643SOL    HW2 8829   1.395   3.140   3.598
 2644SOL     OW 8830   4.253   5.334   5.245
 2644SOL    HW1 8831   4.175   5.298   5.296
 2644SOL    HW2 8832   4.301   5.402   5.301
 2645SOL     OW 8833   5.224   5.168   3.675
 2645SOL    HW1 8834   5.170   5.091   3.642
 2645SOL    HW2 8835   5.226   5.167   3.775
 2646SOL     OW 8836   0.069   3.058   0.291
 2646SOL    HW1 8837   7.008   3.085   0.334
 2646SOL    HW2 8838   0.105   2.977   0.336
 2647SOL     OW 8839   5.897   0.100   1.725
 2647SOL    HW1 8840   5.834   0.178   1.727
 2647SOL    HW2 8841   5.862   0.027   1.784
 2648SOL     OW 8842   6.952   6.646   4.571
 2648SOL    HW1 8843   6.967   6.704   4.491
 2648SOL    HW2 8844   6.993   6.689   4.651
 2649SOL     OW 8845   6.356   3.127   1.897
 2649SOL    HW1 8846   6.337   3.066   1.820
 2649SOL    HW2 8847   6.296   3.207   1.891
 2650SOL     OW 8848   2.546   5.831   4.652
 2650SOL    HW1 8849   2.594   5.792   4.573
 2650SOL    HW2 8850   2.551   5.931   4.646
 2651SOL     OW 8851   3.185   0.860   0.523
 2651SOL    HW1 8852   3.245   0.781   0.532
 2651SOL    HW2 8853   3.098   0.842   0.569
 2652SOL     OW 8854   4.985   3.219   5.720
 2652SOL    HW1 8855   4.899   3.238   5.768
 2652SOL    HW2 8856   5.005   3.293   5.657
 2653SOL     OW 8857   4.691   6.057   6.018
 2653SOL    HW1 8858   4.773   6.068   5.963
 2653SOL    HW2 8859   4.612   6.043   5.958
 2654SOL     OW 8860   5.187   6.042   1.275
 2654SOL    HW1 8861   5.090   6.069   1.281
 2654SOL    HW2 8862   5.243   6.124   1.265
 2655SOL     OW 8863   4.957   5.007   3.888
 2655SOL    HW1 8864   4.950   4.922   3.940
 2655SOL    HW2 8865   4.899   5.001   3.807
 2656SOL     OW 8866   3.528   4.928   3.476
 2656SOL    HW1 8867   3.621   4.914   3.510
 2656SOL    HW2 8868   3.465   4.938   3.553
 2657SOL     OW 8869   2.079   3.481   0.808
 2657SOL    HW1 8870   2.029   3.492   0.723
 2657SOL    HW2 8871   2.015   3.470   0.884
 2658SOL     OW 8872   4.821   4.816   0.082
 2658SOL    HW1 8873   4.743   4.859   0.036
 2658SOL    HW2 8874   4.790   4.736   0.133
 2659SOL     OW 8875   4.722   3.093   5.277
 2659SOL    HW1 8876   4.729   3.037   5.359
 2659SOL    HW2 8877   4.721   3.190   5.303
 2660SOL     OW 8878   0.927   0.512   1.259
 2660SOL    HW1 8879   0.966   0.594   1.217
 2660SOL    HW2 8880   0.839   0.536   1.301
 2661SOL     OW 8881   1.968   6.870   1.462
 2661SOL    HW1 8882   1.912   6.840   1.384
 2661SOL    HW2 8883   1.954   6.968   1.477
 2662SOL     OW 8884   2.504   0.272   3.797
 2662SOL    HW1 8885   2.429   0.225   3.750
 2662SOL    HW2 8886   2.495   0.371   3.783
 2663SOL     OW 8887   4.727   5.419   6.201
 2663SOL    HW1 8888   4.732   5.484   6.277
 2663SOL    HW2 8889   4.632   5.392   6.186
 2664SOL     OW 8890   4.028   3.029   5.454
 2664SOL    HW1 8891   4.023   3.084   5.371
 2664SOL    HW2 8892   4.094   2.955   5.440
 2665SOL     OW 8893   2.215   3.339   5.431
 2665SOL    HW1 8894   2.199   3.437   5.447
 2665SOL    HW2 8895   2.296   3.311   5.482
 2666SOL     OW 8896   1.553   4.259   1.512
 2666SOL    HW1 8897   1.516   4.214   1.431
 2666SOL    HW2 8898   1.483   4.320   1.551
 2667SOL     OW 8899   0.892   5.350   4.083
 2667SOL    HW1 8900   0.969   5.410   4.061
 2667SOL    HW2 8901   0.808   5.387   4.045
 2668SOL     OW 8902   5.916   3.264   4.335
 2668SOL    HW1 8903   5.851   3.190   4.319
 2668SOL    HW2 8904   5.951   3.298   4.248
 2669SOL     OW 8905   3.328   5.737   6.800
 2669SOL    HW1 8906   3.316   5.656   6.858
 2669SOL    HW2 8907   3.425   5.758   6.790
 2670SOL     OW 8908   6.634   2.883   4.909
 2670SOL    HW1 8909   6.702   2.845   4.972
 2670SOL    HW2 8910   6.650   2.845   4.817
 2671SOL     OW 8911   5.022   5.450   5.957
 2671SOL    HW1 8912   5.070   5.448   5.869
 2671SOL    HW2 8913   5.074   5.398   6.025
 2672SOL     OW 8914   3.181   7.000   1.675
 2672SOL    HW1 8915   3.260   0.027   1.643
 2672SOL    HW2 8916   3.098   0.011   1.634
 2673SOL     OW 8917   5.724   1.832   2.225
 2673SOL    HW1 8918   5.819   1.844   2.253
 2673SOL    HW2 8919   5.719   1.768   2.148
 2674SOL     OW 8920   1.495   5.009   4.068
 2674SOL    HW1 8921   1.547   4.959   3.999
 2674SOL    HW2 8922   1.400   5.015   4.041
 2675SOL     OW 8923   0.236   6.506   4.174
 2675SOL    HW1 8924   0.245   6.462   4.085
 2675SOL    HW2 8925   0.160   6.464   4.225
 2676SOL     OW 8926   3.835   3.718   2.629
 2676SOL    HW1 8927   3.775   3.759   2.561
 2676SOL    HW2 8928   3.795   3.633   2.662
 2677SOL     OW 8929   2.875   5.024   1.467
 2677SOL    HW1 8930   2.834   4.939   1.501
 2677SOL    HW2 8931   2.803   5.086   1.436
 2678SOL     OW 8932   0.185   2.509   2.149
 2678SOL    HW1 8933   0.193   2.539   2.054
 2678SOL    HW2 8934   0.240   2.569   2.207
 2679SOL     OW 8935   1.990   4.962   2.727
 2679SOL    HW1 8936   1.988   4.919   2.637
 2679SOL    HW2 8937   1.947   4.901   2.794
 2680SOL     OW 8938   1.261   2.272   0.173
 2680SOL    HW1 8939   1.191   2.338   0.201
 2680SOL    HW2 8940   1.348   2.319   0.161
 2681SOL     OW 8941   1.368   2.673   5.014
 2681SOL    HW1 8942   1.363   2.707   4.920
 2681SOL    HW2 8943   1.310   2.729   5.074
 2682SOL     OW 8944   5.345   3.780   3.307
 2682SOL    HW1 8945   5.315   3.692   3.270
 2682SOL    HW2 8946   5.442   3.792   3.289
 2683SOL     OW 8947   2.233   4.652   2.342
 2683SOL    HW1 8948   2.151   4.629   2.290
 2683SOL    HW2 8949   2.297   4.576   2.339
 2684SOL     OW 8950   5.143   0.042   1.406
 2684SOL    HW1 8951   5.169   0.116   1.467
 2684SOL    HW2 8952   5.216   0.026   1.339
 2685SOL     OW 8953   6.487   4.883   5.103
 2685SOL    HW1 8954   6.423   4.819   5.146
 2685SOL    HW2 8955   6.580   4.860   5.130
 2686SOL     OW 8956   0.858   1.198   5.173
 2686SOL    HW1 8957   0.881   1.147   5.256
 2686SOL    HW2 8958   0.900   1.288   5.176
 2687SOL     OW 8959   3.410   6.342   0.743
 2687SOL    HW1 8960   3.341   6.343   0.816
 2687SOL    HW2 8961   3.409   6.429   0.694
 2688SOL     OW 8962   2.999   1.631   0.544
 2688SOL    HW1 8963   2.942   1.600   0.619
 2688SOL    HW2 8964   2.971   1.722   0.514
 2689SOL     OW 8965   0.534   4.121   2.680
 2689SOL    HW1 8966   0.485   4.059   2.741
 2689SOL    HW2 8967   0.537   4.083   2.588
 2690SOL     OW 8968   3.146   3.170   6.689
 2690SOL    HW1 8969   3.142   3.070   6.684
 2690SOL    HW2 8970   3.068   3.209   6.641
 2691SOL     OW 8971   0.172   4.373   3.551
 2691SOL    HW1 8972   0.118   4.298   3.589
 2691SOL    HW2 8973   0.179   4.362   3.452
 2692SOL     OW 8974   2.169   6.469   3.232
 2692SOL    HW1 8975   2.137   6.561   3.257
 2692SOL    HW2 8976   2.196   6.420   3.315
 2693SOL     OW 8977   1.963   4.647   3.913
 2693SOL    HW1 8978   2.032   4.592   3.961
 2693SOL    HW2 8979   1.910   4.588   3.852
 2694SOL     OW 8980   4.115   6.818   3.161
 2694SOL    HW1 8981   4.026   6.834   3.203
 2694SOL    HW2 8982   4.122   6.722   3.134
 2695SOL     OW 8983   5.824   6.798   2.903
 2695SOL    HW1 8984   5.857   6.837   2.989
 2695SOL    HW2 8985   5.867   6.847   2.827
 2696SOL     OW 8986   4.833   3.942   5.889
 2696SOL    HW1 8987   4.745   3.986   5.908
 2696SOL    HW2 8988   4.893   4.007   5.843
 2697SOL     OW 8989   4.547   1.492   2.490
 2697SOL    HW1 8990   4.587   1.493   2.581
 2697SOL    HW2 8991   4.467   1.432   2.490
 2698SOL     OW 8992   1.869   4.962   6.644
 2698SOL    HW1 8993   1.831   4.958   6.736
 2698SOL    HW2 8994   1.969   4.956   6.648
 2699SOL     OW 8995   2.724   6.042   0.921
 2699SOL    HW1 8996   2.732   6.045   1.020
 2699SOL    HW2 8997   2.628   6.057   0.895
 2700SOL     OW 8998   2.889   1.735   0.964
 2700SOL    HW1 8999   2.885   1.650   1.017
 2700SOL    HW2 9000   2.907   1.812   1.026
 2701SOL     OW 9001   5.254   2.480   5.609
 2701SOL    HW1 9002   5.207   2.438   5.532
 2701SOL    HW2 9003   5.190   2.489   5.686
 2702SOL     OW 9004   1.406   2.096   2.989
 2702SOL    HW1 9005   1.388   2.144   2.904
 2702SOL    HW2 9006   1.350   2.136   3.062
 2703SOL     OW 9007   1.602   5.521   1.601
 2703SOL    HW1 9008   1.698   5.516   1.630
 2703SOL    HW2 9009   1.598   5.536   1.502
 2704SOL     OW 9010   0.002   5.507   2.030
 2704SOL    HW1 9011   0.035   5.593   1.992
 2704SOL    HW2 9012   0.078   5.442   2.036
 2705SOL     OW 9013   6.474   1.432   5.280
 2705SOL    HW1 9014   6.571   1.412   5.295
 2705SOL    HW2 9015   6.466   1.522   5.237
 2706SOL     OW 9016   6.262   4.332   4.647
 2706SOL    HW1 9017   6.352   4.303   4.613
 2706SOL    HW2 9018   6.259   4.432   4.653
 2707SOL     OW 9019   4.294   7.020   4.207
 2707SOL    HW1 9020   4.369   0.019   4.146
 2707SOL    HW2 9021   4.310   6.929   4.245
 2708SOL     OW 9022   6.495   2.689   0.709
 2708SOL    HW1 9023   6.535   2.778   0.691
 2708SOL    HW2 9024   6.452   2.655   0.625
 2709SOL     OW 9025   4.684   0.068   6.651
 2709SOL    HW1 9026   4.694   0.167   6.644
 2709SOL    HW2 9027   4.637   0.034   6.570
 2710SOL     OW 9028   1.929   2.646   3.734
 2710SOL    HW1 9029   1.893   2.629   3.826
 2710SOL    HW2 9030   2.025   2.674   3.740
 2711SOL     OW 9031   2.950   1.040   3.434
 2711SOL    HW1 9032   2.891   1.045   3.354
 2711SOL    HW2 9033   3.032   1.095   3.419
 2712SOL     OW 9034   2.968   5.419   1.953
 2712SOL    HW1 9035   2.934   5.343   2.008
 2712SOL    HW2 9036   3.039   5.386   1.891
 2713SOL     OW 9037   3.902   4.156   6.580
 2713SOL    HW1 9038   3.989   4.156   6.531
 2713SOL    HW2 9039   3.864   4.063   6.582
 2714SOL     OW 9040   3.973   4.002   0.302
 2714SOL    HW1 9041   4.040   4.063   0.260
 2714SOL    HW2 9042   4.019   3.941   0.366
 2715SOL     OW 9043   5.467   2.403   0.887
 2715SOL    HW1 9044   5.531   2.480   0.888
 2715SOL    HW2 9045   5.375   2.435   0.865
 2716SOL     OW 9046   4.912   3.035   3.581
 2716SOL    HW1 9047   4.980   3.094   3.537
 2716SOL    HW2 9048   4.915   3.048   3.680
 2717SOL     OW 9049   0.731   6.528   2.021
 2717SOL    HW1 9050   0.660   6.574   1.967
 2717SOL    HW2 9051   0.690   6.491   2.104
 2718SOL     OW 9052   0.254   1.075   4.693
 2718SOL    HW1 9053   0.187   1.137   4.653
 2718SOL    HW2 9054   0.206   1.010   4.753
 2719SOL     OW 9055   1.274   4.357   2.099
 2719SOL    HW1 9056   1.215   4.327   2.024
 2719SOL    HW2 9057   1.356   4.301   2.102
 2720SOL     OW 9058   0.681   0.117   3.989
 2720SOL    HW1 9059   0.701   0.072   4.076
 2720SOL    HW2 9060   0.636   0.051   3.927
 2721SOL     OW 9061   3.296   6.677   3.025
 2721SOL    HW1 9062   3.367   6.648   3.088
 2721SOL    HW2 9063   3.331   6.750   2.966
 2722SOL     OW 9064   4.992   5.423   6.549
 2722SOL    HW1 9065   5.015   5.494   6.482
 2722SOL    HW2 9066   5.062   5.421   6.620
 2723SOL     OW 9067   2.132   6.311   6.553
 2723SOL    HW1 9068   2.103   6.221   6.584
 2723SOL    HW2 9069   2.192   6.352   6.622
 2724SOL     OW 9070   1.562   6.107   6.650
 2724SOL    HW1 9071   1.491   6.043   6.618
 2724SOL    HW2 9072   1.554   6.193   6.599
 2725SOL     OW 9073   5.733   3.881   4.646
 2725SOL    HW1 9074   5.794   3.824   4.701
 2725SOL    HW2 9075   5.734   3.849   4.551
 2726SOL     OW 9076   0.614   2.034   1.964
 2726SOL    HW1 9077   0.683   2.106   1.954
 2726SOL    HW2 9078   0.598   1.991   1.875
 2727SOL     OW 9079   1.539   4.213   4.338
 2727SOL    HW1 9080   1.508   4.118   4.325
 2727SOL    HW2 9081   1.605   4.216   4.414
 2728SOL     OW 9082   5.211   6.106   6.593
 2728SOL    HW1 9083   5.137   6.170   6.572
 2728SOL    HW2 9084   5.242   6.122   6.687
 2729SOL     OW 9085   6.692   6.527   0.003
 2729SOL    HW1 9086   6.732   6.578   6.952
 2729SOL    HW2 9087   6.685   6.431   7.004
 2730SOL     OW 9088   0.711   5.802   1.585
 2730SOL    HW1 9089   0.696   5.743   1.665
 2730SOL    HW2 9090   0.778   5.872   1.608
 2731SOL     OW 9091   3.292   3.742   2.997
 2731SOL    HW1 9092   3.229   3.814   2.966
 2731SOL    HW2 9093   3.312   3.681   2.921
 2732SOL     OW 9094   5.990   2.166   1.711
 2732SOL    HW1 9095   6.071   2.175   1.653
 2732SOL    HW2 9096   5.974   2.251   1.761
 2733SOL     OW 9097   0.316   1.768   4.770
 2733SOL    HW1 9098   0.305   1.854   4.820
 2733SOL    HW2 9099   0.232   1.714   4.777
 2734SOL     OW 9100   3.611   5.711   1.604
 2734SOL    HW1 9101   3.654   5.774   1.539
 2734SOL    HW2 9102   3.679   5.677   1.669
 2735SOL     OW 9103   1.573   2.451   1.224
 2735SOL    HW1 9104   1.522   2.432   1.141
 2735SOL    HW2 9105   1.671   2.457   1.203
 2736SOL     OW 9106   6.154   6.235   4.872
 2736SOL    HW1 9107   6.218   6.227   4.795
 2736SOL    HW2 9108   6.205   6.249   4.956
 2737SOL     OW 9109   2.489   2.984   5.735
 2737SOL    HW1 9110   2.503   2.929   5.653
 2737SOL    HW2 9111   2.572   2.984   5.790
 2738SOL     OW 9112   6.232   6.679   2.434
 2738SOL    HW1 9113   6.234   6.762   2.490
 2738SOL    HW2 9114   6.232   6.598   2.494
 2739SOL     OW 9115   0.802   5.118   1.155
 2739SOL    HW1 9116   0.894   5.128   1.117
 2739SOL    HW2 9117   0.800   5.156   1.247
 2740SOL     OW 9118   6.539   5.109   2.065
 2740SOL    HW1 9119   6.627   5.110   2.112
 2740SOL    HW2 9120   6.536   5.034   1.999
 2741SOL     OW 9121   0.351   2.000   4.898
 2741SOL    HW1 9122   0.445   2.029   4.881
 2741SOL    HW2 9123   0.312   2.054   4.972
 2742SOL     OW 9124   2.239   5.180   1.501
 2742SOL    HW1 9125   2.323   5.196   1.553
 2742SOL    HW2 9126   2.207   5.266   1.462
 2743SOL     OW 9127   6.555   4.503   2.294
 2743SOL    HW1 9128   6.560   4.559   2.377
 2743SOL    HW2 9129   6.462   4.468   2.284
 2744SOL     OW 9130   4.112   3.244   1.914
 2744SOL    HW1 9131   4.034   3.200   1.871
 2744SOL    HW2 9132   4.180   3.267   1.845
 2745SOL     OW 9133   6.756   1.474   5.384
 2745SOL    HW1 9134   6.786   1.539   5.454
 2745SOL    HW2 9135   6.726   1.390   5.428
 2746SOL     OW 9136   0.612   2.612   4.252
 2746SOL    HW1 9137   0.689   2.548   4.259
 2746SOL    HW2 9138   0.527   2.565   4.275
 2747SOL     OW 9139   4.655   5.521   6.587
 2747SOL    HW1 9140   4.684   5.426   6.604
 2747SOL    HW2 9141   4.714   5.561   6.517
 2748SOL     OW 9142   4.453   0.654   1.932
 2748SOL    HW1 9143   4.472   0.566   1.977
 2748SOL    HW2 9144   4.508   0.725   1.976
 2749SOL     OW 9145   0.261   5.079   0.709
 2749SOL    HW1 9146   0.276   5.039   0.799
 2749SOL    HW2 9147   0.262   5.179   0.717
 2750SOL     OW 9148   2.037   4.585   2.115
 2750SOL    HW1 9149   2.095   4.504   2.128
 2750SOL    HW2 9150   2.041   4.613   2.019
 2751SOL     OW 9151   1.580   2.601   1.690
 2751SOL    HW1 9152   1.520   2.538   1.739
 2751SOL    HW2 9153   1.665   2.554   1.664
 2752SOL     OW 9154   3.277   4.300   6.018
 2752SOL    HW1 9155   3.224   4.380   5.990
 2752SOL    HW2 9156   3.223   4.245   6.082
 2753SOL     OW 9157   0.001   6.068   4.905
 2753SOL    HW1 9158   6.952   6.018   4.951
 2753SOL    HW2 9159   0.089   6.031   4.934
 2754SOL     OW 9160   0.350   0.075   0.207
 2754SOL    HW1 9161   0.309   0.164   0.185
 2754SOL    HW2 9162   0.343   0.059   0.305
 2755SOL     OW 9163   3.914   0.172   3.282
 2755SOL    HW1 9164   3.839   0.239   3.287
 2755SOL    HW2 9165   3.968   0.178   3.366
 2756SOL     OW 9166   4.047   6.164   0.441
 2756SOL    HW1 9167   3.985   6.214   0.501
 2756SOL    HW2 9168   4.096   6.095   0.493
 2757SOL     OW 9169   1.666   6.801   0.787
 2757SOL    HW1 9170   1.604   6.776   0.862
 2757SOL    HW2 9171   1.752   6.834   0.825
 2758SOL     OW 9172   4.872   7.012   4.700
 2758SOL    HW1 9173   4.810   0.034   4.763
 2758SOL    HW2 9174   4.836   7.018   4.607
 2759SOL     OW 9175   5.521   6.623   5.701
 2759SOL    HW1 9176   5.546   6.638   5.606
 2759SOL    HW2 9177   5.455   6.693   5.730
 2760SOL     OW 9178   1.277   5.722   1.540
 2760SOL    HW1 9179   1.365   5.751   1.578
 2760SOL    HW2 9180   1.203   5.761   1.594
 2761SOL     OW 9181   2.610   4.663   4.404
 2761SOL    HW1 9182   2.574   4.587   4.351
 2761SOL    HW2 9183   2.606   4.641   4.502
 2762SOL     OW 9184   1.014   1.069   4.854
 2762SOL    HW1 9185   0.990   1.162   4.879
 2762SOL    HW2 9186   0.972   1.005   4.920
 2763SOL     OW 9187   5.694   1.579   3.860
 2763SOL    HW1 9188   5.698   1.647   3.933
 2763SOL    HW2 9189   5.772   1.593   3.798
 2764SOL     OW 9190   6.254   0.314   1.135
 2764SOL    HW1 9191   6.241   0.295   1.038
 2764SOL    HW2 9192   6.251   0.228   1.186
 2765SOL     OW 9193   5.584   0.239   0.760
 2765SOL    HW1 9194   5.570   0.337   0.776
 2765SOL    HW2 9195   5.621   0.196   0.842
 2766SOL     OW 9196   4.900   2.773   0.407
 2766SOL    HW1 9197   4.805   2.757   0.435
 2766SOL    HW2 9198   4.937   2.852   0.457
 2767SOL     OW 9199   0.032   4.841   6.514
 2767SOL    HW1 9200   7.012   4.929   6.528
 2767SOL    HW2 9201   6.990   4.772   6.488
 2768SOL     OW 9202   4.850   0.659   0.481
 2768SOL    HW1 9203   4.890   0.569   0.460
 2768SOL    HW2 9204   4.902   0.730   0.433
 2769SOL     OW 9205   0.386   3.937   4.060
 2769SOL    HW1 9206   0.391   3.923   4.159
 2769SOL    HW2 9207   0.299   3.982   4.037
 2770SOL     OW 9208   2.434   5.655   6.278
 2770SOL    HW1 9209   2.449   5.669   6.375
 2770SOL    HW2 9210   2.347   5.697   6.251
 2771SOL     OW 9211   5.764   1.340   2.076
 2771SOL    HW1 9212   5.848   1.386   2.048
 2771SOL    HW2 9213   5.711   1.402   2.135
 2772SOL     OW 9214   4.676   1.793   0.767
 2772SOL    HW1 9215   4.587   1.753   0.747
 2772SOL    HW2 9216   4.697   1.862   0.698
 2773SOL     OW 9217   5.523   3.226   5.685
 2773SOL    HW1 9218   5.504   3.153   5.750
 2773SOL    HW2 9219   5.472   3.211   5.600
 2774SOL     OW 9220   6.612   3.106   2.803
 2774SOL    HW1 9221   6.583   3.099   2.898
 2774SOL    HW2 9222   6.706   3.140   2.799
 2775SOL     OW 9223   0.103   5.133   6.748
 2775SOL    HW1 9224   0.120   5.231   6.754
 2775SOL    HW2 9225   0.139   5.098   6.661
 2776SOL     OW 9226   5.241   5.319   5.384
 2776SOL    HW1 9227   5.213   5.278   5.297
 2776SOL    HW2 9228   5.299   5.399   5.366
 2777SOL     OW 9229   2.770   1.001   1.951
 2777SOL    HW1 9230   2.678   0.996   1.989
 2777SOL    HW2 9231   2.810   1.090   1.975
 2778SOL     OW 9232   1.287   1.013   4.706
 2778SOL    HW1 9233   1.197   1.048   4.729
 2778SOL    HW2 9234   1.308   0.934   4.762
 2779SOL     OW 9235   5.018   6.690   0.774
 2779SOL    HW1 9236   4.964   6.623   0.723
 2779SOL    HW2 9237   5.115   6.676   0.756
 2780SOL     OW 9238   0.129   5.715   6.395
 2780SOL    HW1 9239   0.057   5.722   6.326
 2780SOL    HW2 9240   0.203   5.779   6.374
 2781SOL     OW 9241   6.097   5.539   1.674
 2781SOL    HW1 9242   6.079   5.499   1.764
 2781SOL    HW2 9243   6.095   5.639   1.682
 2782SOL     OW 9244   2.894   2.005   5.675
 2782SOL    HW1 9245   2.991   1.980   5.682
 2782SOL    HW2 9246   2.838   1.929   5.707
 2783SOL     OW 9247   6.279   3.200   4.921
 2783SOL    HW1 9248   6.186   3.215   4.886
 2783SOL    HW2 9249   6.306   3.279   4.976
 2784SOL     OW 9250   3.132   1.732   1.136
 2784SOL    HW1 9251   3.184   1.663   1.186
 2784SOL    HW2 9252   3.081   1.789   1.200
 2785SOL     OW 9253   5.819   1.197   0.591
 2785SOL    HW1 9254   5.906   1.155   0.616
 2785SOL    HW2 9255   5.752   1.179   0.662
 2786SOL     OW 9256   4.056   5.712   1.787
 2786SOL    HW1 9257   4.127   5.753   1.844
 2786SOL    HW2 9258   4.063   5.747   1.694
 2787SOL     OW 9259   2.874   2.658   6.677
 2787SOL    HW1 9260   2.850   2.741   6.626
 2787SOL    HW2 9261   2.837   2.664   6.769
 2788SOL     OW 9262   2.255   4.386   6.798
 2788SOL    HW1 9263   2.310   4.314   6.755
 2788SOL    HW2 9264   2.188   4.420   6.732
 2789SOL     OW 9265   2.143   3.235   3.308
 2789SOL    HW1 9266   2.119   3.312   3.366
 2789SOL    HW2 9267   2.082   3.158   3.328
 2790SOL     OW 9268   2.938   5.482   2.323
 2790SOL    HW1 9269   2.879   5.547   2.370
 2790SOL    HW2 9270   2.882   5.424   2.263
 2791SOL     OW 9271   1.146   4.088   4.507
 2791SOL    HW1 9272   1.176   4.058   4.416
 2791SOL    HW2 9273   1.172   4.019   4.575
 2792SOL     OW 9274   0.618   6.993   4.949
 2792SOL    HW1 9275   0.544   6.939   4.908
 2792SOL    HW2 9276   0.653   6.946   5.030
 2793SOL     OW 9277   4.690   2.796   2.844
 2793SOL    HW1 9278   4.687   2.837   2.935
 2793SOL    HW2 9279   4.758   2.844   2.788
 2794SOL     OW 9280   6.926   2.169   0.872
 2794SOL    HW1 9281   6.882   2.249   0.911
 2794SOL    HW2 9282   6.859   2.115   0.821
 2795SOL     OW 9283   2.392   3.327   0.581
 2795SOL    HW1 9284   2.419   3.400   0.519
 2795SOL    HW2 9285   2.357   3.366   0.666
 2796SOL     OW 9286   6.843   5.138   2.879
 2796SOL    HW1 9287   6.765   5.131   2.817
 2796SOL    HW2 9288   6.850   5.232   2.913
 2797SOL     OW 9289   5.001   5.411   4.285
 2797SOL    HW1 9290   4.993   5.511   4.281
 2797SOL    HW2 9291   4.944   5.370   4.214
 2798SOL     OW 9292   1.313   4.564   1.839
 2798SOL    HW1 9293   1.352   4.647   1.879
 2798SOL    HW2 9294   1.342   4.484   1.891
 2799SOL     OW 9295   0.051   5.834   6.854
 2799SOL    HW1 9296   0.031   5.787   6.767
 2799SOL    HW2 9297   7.001   5.818   6.918
 2800SOL     OW 9298   4.484   5.243   6.701
 2800SOL    HW1 9299   4.469   5.300   6.781
 2800SOL    HW2 9300   4.579   5.250   6.671
 2801SOL     OW 9301   4.690   5.709   4.699
 2801SOL    HW1 9302   4.710   5.721   4.601
 2801SOL    HW2 9303   4.659   5.796   4.737
 2802SOL     OW 9304   4.693   2.833   6.351
 2802SOL    HW1 9305   4.694   2.806   6.255
 2802SOL    HW2 9306   4.613   2.891   6.369
 2803SOL     OW 9307   3.583   6.178   6.363
 2803SOL    HW1 9308   3.617   6.163   6.456
 2803SOL    HW2 9309   3.640   6.129   6.298
 2804SOL     OW 9310   6.879   5.054   4.689
 2804SOL    HW1 9311   6.825   4.973   4.666
 2804SOL    HW2 9312   6.859   5.082   4.782
 2805SOL     OW 9313   5.068   2.514   1.731
 2805SOL    HW1 9314   5.140   2.458   1.773
 2805SOL    HW2 9315   4.991   2.524   1.795
 2806SOL     OW 9316   6.590   4.900   4.342
 2806SOL    HW1 9317   6.686   4.907   4.371
 2806SOL    HW2 9318   6.570   4.970   4.274
 2807SOL     OW 9319   6.114   5.333   4.173
 2807SOL    HW1 9320   6.143   5.387   4.252
 2807SOL    HW2 9321   6.018   5.308   4.184
 2808SOL     OW 9322   5.042   2.689   2.642
 2808SOL    HW1 9323   4.981   2.616   2.609
 2808SOL    HW2 9324   4.987   2.769   2.666
 2809SOL     OW 9325   5.946   2.415   1.836
 2809SOL    HW1 9326   5.966   2.485   1.767
 2809SOL    HW2 9327   5.994   2.437   1.921
 2810SOL     OW 9328   2.878   6.409   4.260
 2810SOL    HW1 9329   2.867   6.356   4.175
 2810SOL    HW2 9330   2.791   6.410   4.309
 2811SOL     OW 9331   0.638   0.899   3.000
 2811SOL    HW1 9332   0.568   0.889   3.071
 2811SOL    HW2 9333   0.629   0.825   2.933
 2812SOL     OW 9334   5.512   3.537   0.126
 2812SOL    HW1 9335   5.575   3.512   0.053
 2812SOL    HW2 9336   5.564   3.573   0.203
 2813SOL     OW 9337   6.255   0.227   5.796
 2813SOL    HW1 9338   6.233   0.276   5.712
 2813SOL    HW2 9339   6.341   0.178   5.784
 2814SOL     OW 9340   4.814   3.246   6.803
 2814SOL    HW1 9341   4.859   3.289   6.881
 2814SOL    HW2 9342   4.872   3.255   6.722
 2815SOL     OW 9343   0.014   1.585   5.669
 2815SOL    HW1 9344   6.959   1.527   5.687
 2815SOL    HW2 9345   7.015   1.654   5.601
 2816SOL     OW 9346   6.714   5.902   3.525
 2816SOL    HW1 9347   6.691   5.923   3.430
 2816SOL    HW2 9348   6.813   5.891   3.533
 2817SOL     OW 9349   2.157   0.171   1.249
 2817SOL    HW1 9350   2.109   0.136   1.330
 2817SOL    HW2 9351   2.256   0.157   1.261
 2818SOL     OW 9352   7.022   6.620   0.010
 2818SOL    HW1 9353   0.054   6.675   6.975
 2818SOL    HW2 9354   6.932   6.608   6.993
 2819SOL     OW 9355   0.327   1.120   1.266
 2819SOL    HW1 9356   0.269   1.180   1.210
 2819SOL    HW2 9357   0.368   1.174   1.340
 2820SOL     OW 9358   1.316   1.830   2.875
 2820SOL    HW1 9359   1.401   1.779   2.886
 2820SOL    HW2 9360   1.330   1.925   2.904
 2821SOL     OW 9361   3.914   3.703   0.008
 2821SOL    HW1 9362   3.935   3.660   0.095
 2821SOL    HW2 9363   3.815   3.711   7.023
 2822SOL     OW 9364   4.183   2.234   6.719
 2822SOL    HW1 9365   4.280   2.252   6.700
 2822SOL    HW2 9366   4.146   2.309   6.774
 2823SOL     OW 9367   3.171   6.793   0.319
 2823SOL    HW1 9368   3.241   6.820   0.383
 2823SOL    HW2 9369   3.098   6.861   0.318
 2824SOL     OW 9370   2.744   1.165   4.417
 2824SOL    HW1 9371   2.647   1.149   4.435
 2824SOL    HW2 9372   2.754   1.213   4.329
 2825SOL     OW 9373   6.858   0.738   6.824
 2825SOL    HW1 9374   6.862   0.727   6.725
 2825SOL    HW2 9375   6.922   0.810   6.852
 2826SOL     OW 9376   5.496   2.235   0.070
 2826SOL    HW1 9377   5.552   2.181   0.132
 2826SOL    HW2 9378   5.551   2.309   0.030
 2827SOL     OW 9379   5.867   0.831   5.257
 2827SOL    HW1 9380   5.906   0.767   5.191
 2827SOL    HW2 9381   5.938   0.894   5.288
 2828SOL     OW 9382   3.129   0.330   0.163
 2828SOL    HW1 9383   3.220   0.311   0.200
 2828SOL    HW2 9384   3.130   0.418   0.116
 2829SOL     OW 9385   3.765   3.926   6.056
 2829SOL    HW1 9386   3.846   3.983   6.039
 2829SOL    HW2 9387   3.683   3.981   6.045
 2830SOL     OW 9388   0.782   3.287   6.964
 2830SOL    HW1 9389   0.833   3.201   6.973
 2830SOL    HW2 9390   0.813   3.351   0.009
 2831SOL     OW 9391   0.602   5.866   3.751
 2831SOL    HW1 9392   0.627   5.769   3.754
 2831SOL    HW2 9393   0.646   5.909   3.672
 2832SOL     OW 9394   0.905   1.063   2.518
 2832SOL    HW1 9395   0.927   0.968   2.496
 2832SOL    HW2 9396   0.890   1.114   2.433
 2833SOL     OW 9397   4.471   2.327   2.363
 2833SOL    HW1 9398   4.372   2.340   2.367
 2833SOL    HW2 9399   4.509   2.382   2.289
 2834SOL     OW 9400   2.733   6.728   5.117
 2834SOL    HW1 9401   2.732   6.788   5.037
 2834SOL    HW2 9402   2.826   6.723   5.154
 2835SOL     OW 9403   6.790   0.545   2.188
 2835SOL    HW1 9404   6.772   0.596   2.272
 2835SOL    HW2 9405   6.738   0.459   2.190
 2836SOL     OW 9406   6.086   6.999   1.539
 2836SOL    HW1 9407   6.133   6.995   1.627
 2836SOL    HW2 9408   6.105   0.062   1.495
 2837SOL     OW 9409   5.849   3.648   3.001
 2837SOL    HW1 9410   5.947   3.650   2.984
 2837SOL    HW2 9411   5.808   3.734   2.971
 2838SOL     OW 9412   1.944   4.326   1.264
 2838SOL    HW1 9413   1.881   4.306   1.339
 2838SOL    HW2 9414   1.937   4.255   1.194
 2839SOL     OW 9415   5.770   1.639   2.002
 2839SOL    HW1 9416   5.830   1.571   1.959
 2839SOL    HW2 9417   5.774   1.724   1.950
 2840SOL     OW 9418   1.029   1.116   3.514
 2840SOL    HW1 9419   1.125   1.122   3.487
 2840SOL    HW2 9420   0.986   1.206   3.506
 2841SOL     OW 9421   0.727   1.175   5.800
 2841SOL    HW1 9422   0.715   1.090   5.749
 2841SOL    HW2 9423   0.739   1.251   5.736
 2842SOL     OW 9424   6.919   3.246   4.289
 2842SOL    HW1 9425   6.917   3.198   4.377
 2842SOL    HW2 9426   6.912   3.344   4.305
 2843SOL     OW 9427   2.897   1.813   2.994
 2843SOL    HW1 9428   2.799   1.810   3.016
 2843SOL    HW2 9429   2.910   1.852   2.903
 2844SOL     OW 9430   1.033   5.381   0.283
 2844SOL    HW1 9431   0.996   5.407   0.194
 2844SOL    HW2 9432   1.012   5.285   0.300
 2845SOL     OW 9433   0.989   2.839   1.007
 2845SOL    HW1 9434   1.073   2.862   1.057
 2845SOL    HW2 9435   0.982   2.740   0.998
 2846SOL     OW 9436   4.138   1.093   6.492
 2846SOL    HW1 9437   4.193   1.175   6.506
 2846SOL    HW2 9438   4.075   1.108   6.415
 2847SOL     OW 9439   5.130   3.148   3.136
 2847SOL    HW1 9440   5.181   3.075   3.090
 2847SOL    HW2 9441   5.052   3.174   3.080
 2848SOL     OW 9442   1.304   3.233   6.313
 2848SOL    HW1 9443   1.376   3.164   6.318
 2848SOL    HW2 9444   1.279   3.262   6.405
 2849SOL     OW 9445   3.465   6.554   0.988
 2849SOL    HW1 9446   3.461   6.640   0.936
 2849SOL    HW2 9447   3.523   6.567   1.068
 2850SOL     OW 9448   3.663   6.933   2.395
 2850SOL    HW1 9449   3.581   6.945   2.339
 2850SOL    HW2 9450   3.639   6.882   2.477
 2851SOL     OW 9451   0.185   2.875   5.801
 2851SOL    HW1 9452   0.134   2.848   5.883
 2851SOL    HW2 9453   0.278   2.900   5.827
 2852SOL     OW 9454   5.569   4.185   0.413
 2852SOL    HW1 9455   5.641   4.219   0.352
 2852SOL    HW2 9456   5.519   4.263   0.450
 2853SOL     OW 9457   2.060   2.679   0.137
 2853SOL    HW1 9458   2.156   2.660   0.159
 2853SOL    HW2 9459   2.008   2.692   0.221
 2854SOL     OW 9460   3.985   1.517   5.148
 2854SOL    HW1 9461   3.891   1.550   5.156
 2854SOL    HW2 9462   3.989   1.446   5.078
 2855SOL     OW 9463   2.668   1.179   6.202
 2855SOL    HW1 9464   2.605   1.104   6.223
 2855SOL    HW2 9465   2.658   1.251   6.271
 2856SOL     OW 9466   1.627   2.864   5.642
 2856SOL    HW1 9467   1.632   2.946   5.700
 2856SOL    HW2 9468   1.546   2.870   5.583
 2857SOL     OW 9469   3.299   1.752   2.096
 2857SOL    HW1 9470   3.251   1.768   2.182
 2857SOL    HW2 9471   3.387   1.799   2.097
 2858SOL     OW 9472   5.757   3.644   1.642
 2858SOL    HW1 9473   5.690   3.704   1.598
 2858SOL    HW2 9474   5.710   3.565   1.682
 2859SOL     OW 9475   5.089   2.246   0.427
 2859SOL    HW1 9476   5.129   2.186   0.497
 2859SOL    HW2 9477   5.004   2.205   0.393
 2860SOL     OW 9478   3.558   1.931   1.294
 2860SOL    HW1 9479   3.624   1.924   1.219
 2860SOL    HW2 9480   3.605   1.919   1.381
 2861SOL     OW 9481   4.616   4.872   5.980
 2861SOL    HW1 9482   4.580   4.927   6.055
 2861SOL    HW2 9483   4.559   4.886   5.899
 2862SOL     OW 9484   5.099   1.964   3.155
 2862SOL    HW1 9485   5.001   1.951   3.146
 2862SOL    HW2 9486   5.137   1.894   3.216
 2863SOL     OW 9487   5.011   1.409   0.036
 2863SOL    HW1 9488   4.985   1.388   6.966
 2863SOL    HW2 9489   5.082   1.479   0.036
 2864SOL     OW 9490   4.135   1.132   1.672
 2864SOL    HW1 9491   4.112   1.228   1.651
 2864SOL    HW2 9492   4.169   1.087   1.589
 2865SOL     OW 9493   5.455   4.537   5.503
 2865SOL    HW1 9494   5.396   4.605   5.461
 2865SOL    HW2 9495   5.401   4.455   5.525
 2866SOL     OW 9496   6.438   5.929   6.822
 2866SOL    HW1 9497   6.369   5.996   6.849
 2866SOL    HW2 9498   6.422   5.901   6.728
 2867SOL     OW 9499   5.540   3.780   1.890
 2867SOL    HW1 9500   5.441   3.777   1.878
 2867SOL    HW2 9501   5.570   3.875   1.897
 2868SOL     OW 9502   0.424   2.876   5.259
 2868SOL    HW1 9503   0.395   2.823   5.180
 2868SOL    HW2 9504   0.381   2.840   5.341
 2869SOL     OW 9505   6.044   0.981   3.946
 2869SOL    HW1 9506   6.008   0.890   3.927
 2869SOL    HW2 9507   6.055   1.031   3.860
 2870SOL     OW 9508   0.608   1.534   4.205
 2870SOL    HW1 9509   0.625   1.633   4.203
 2870SOL    HW2 9510   0.521   1.517   4.252
 2871SOL     OW 9511   1.084   2.044   0.195
 2871SOL    HW1 9512   1.102   1.986   0.115
 2871SOL    HW2 9513   1.155   2.115   0.201
 2872SOL     OW 9514   2.718   1.493   3.377
 2872SOL    HW1 9515   2.743   1.540   3.293
 2872SOL    HW2 9516   2.801   1.463   3.424
 2873SOL     OW 9517   0.348   4.651   2.823
 2873SOL    HW1 9518   0.317   4.740   2.789
 2873SOL    HW2 9519   0.445   4.639   2.803
 2874SOL     OW 9520   4.040   6.411   3.407
 2874SOL    HW1 9521   4.129   6.368   3.425
 2874SOL    HW2 9522   4.019   6.401   3.309
 2875SOL     OW 9523   4.970   6.257   0.604
 2875SOL    HW1 9524   4.926   6.194   0.668
 2875SOL    HW2 9525   4.938   6.350   0.621
 2876SOL     OW 9526   0.805   0.248   2.103
 2876SOL    HW1 9527   0.752   0.305   2.166
 2876SOL    HW2 9528   0.880   0.301   2.064
 2877SOL     OW 9529   3.841   2.871   5.259
 2877SOL    HW1 9530   3.787   2.911   5.333
 2877SOL    HW2 9531   3.935   2.857   5.289
 2878SOL     OW 9532   4.063   5.119   4.509
 2878SOL    HW1 9533   4.052   5.046   4.442
 2878SOL    HW2 9534   4.149   5.105   4.559
 2879SOL     OW 9535   5.309   4.607   1.046
 2879SOL    HW1 9536   5.362   4.522   1.052
 2879SOL    HW2 9537   5.261   4.622   1.133
 2880SOL     OW 9538   6.010   6.814   0.992
 2880SOL    HW1 9539   5.963   6.896   1.023
 2880SOL    HW2 9540   5.945   6.751   0.951
 2881SOL     OW 9541   5.712   6.278   0.746
 2881SOL    HW1 9542   5.736   6.358   0.690
 2881SOL    HW2 9543   5.786   6.258   0.810
 2882SOL     OW 9544   0.605   4.344   2.426
 2882SOL    HW1 9545   0.619   4.433   2.470
 2882SOL    HW2 9546   0.548   4.355   2.345
 2883SOL     OW 9547   5.229   6.345   3.984
 2883SOL    HW1 9548   5.246   6.266   4.043
 2883SOL    HW2 9549   5.302   6.412   3.998
 2884SOL     OW 9550   0.651   5.601   3.034
 2884SOL    HW1 9551   0.608   5.603   2.944
 2884SOL    HW2 9552   0.739   5.555   3.028
 2885SOL     OW 9553   0.777   3.247   2.228
 2885SOL    HW1 9554   0.848   3.301   2.273
 2885SOL    HW2 9555   0.809   3.153   2.217
 2886SOL     OW 9556   2.484   4.213   6.423
 2886SOL    HW1 9557   2.496   4.117   6.397
 2886SOL    HW2 9558   2.540   4.271   6.365
 2887SOL     OW 9559   1.317   0.062   4.659
 2887SOL    HW1 9560   1.329   0.000   4.581
 2887SOL    HW2 9561   1.350   0.017   4.742
 2888SOL     OW 9562   0.988   4.532   6.748
 2888SOL    HW1 9563   1.040   4.549   6.832
 2888SOL    HW2 9564   1.048   4.542   6.669
 2889SOL     OW 9565   1.821   6.930   2.814
 2889SOL    HW1 9566   1.729   6.951   2.848
 2889SOL    HW2 9567   1.852   7.004   2.755
 2890SOL     OW 9568   2.729   0.325   0.991
 2890SOL    HW1 9569   2.778   0.239   0.972
 2890SOL    HW2 9570   2.701   0.327   1.086
 2891SOL     OW 9571   2.097   3.870   3.931
 2891SOL    HW1 9572   1.999   3.862   3.945
 2891SOL    HW2 9573   2.132   3.948   3.983
 2892SOL     OW 9574   5.237   3.678   6.982
 2892SOL    HW1 9575   5.290   3.617   6.922
 2892SOL    HW2 9576   5.207   3.626   0.037
 2893SOL     OW 9577   6.852   6.422   4.711
 2893SOL    HW1 9578   6.945   6.387   4.698
 2893SOL    HW2 9579   6.840   6.505   4.658
 2894SOL     OW 9580   3.049   2.858   0.216
 2894SOL    HW1 9581   3.103   2.811   0.146
 2894SOL    HW2 9582   3.026   2.793   0.289
 2895SOL     OW 9583   3.739   2.713   6.709
 2895SOL    HW1 9584   3.744   2.718   6.610
 2895SOL    HW2 9585   3.767   2.800   6.748
 2896SOL     OW 9586   3.476   5.415   6.639
 2896SOL    HW1 9587   3.498   5.332   6.588
 2896SOL    HW2 9588   3.378   5.418   6.656
 2897SOL     OW 9589   3.027   5.942   3.153
 2897SOL    HW1 9590   3.064   5.858   3.114
 2897SOL    HW2 9591   3.086   6.019   3.126
 2898SOL     OW 9592   4.624   4.931   3.904
 2898SOL    HW1 9593   4.680   4.926   3.987
 2898SOL    HW2 9594   4.541   4.984   3.922
 2899SOL     OW 9595   0.543   1.908   6.885
 2899SOL    HW1 9596   0.609   1.876   6.953
 2899SOL    HW2 9597   0.450   1.890   6.918
 2900SOL     OW 9598   2.186   4.978   5.372
 2900SOL    HW1 9599   2.258   4.910   5.386
 2900SOL    HW2 9600   2.100   4.932   5.353
 2901SOL     OW 9601   2.105   0.497   3.271
 2901SOL    HW1 9602   2.158   0.535   3.195
 2901SOL    HW2 9603   2.081   0.402   3.251
 2902SOL     OW 9604   5.280   6.299   1.811
 2902SOL    HW1 9605   5.218   6.223   1.830
 2902SOL    HW2 9606   5.372   6.263   1.795
 2903SOL     OW 9607   2.942   0.483   0.847
 2903SOL    HW1 9608   3.023   0.452   0.897
 2903SOL    HW2 9609   2.860   0.456   0.897
 2904SOL     OW 9610   1.716   3.376   5.336
 2904SOL    HW1 9611   1.691   3.467   5.371
 2904SOL    HW2 9612   1.655   3.308   5.374
 2905SOL     OW 9613   1.837   2.269   3.551
 2905SOL    HW1 9614   1.903   2.209   3.505
 2905SOL    HW2 9615   1.869   2.364   3.544
 2906SOL     OW 9616   5.155   5.658   2.789
 2906SOL    HW1 9617   5.220   5.585   2.769
 2906SOL    HW2 9618   5.204   5.746   2.792
 2907SOL     OW 9619   0.435   1.161   4.156
 2907SOL    HW1 9620   0.446   1.235   4.090
 2907SOL    HW2 9621   0.525   1.134   4.192
 2908SOL     OW 9622   4.421   6.913   3.946
 2908SOL    HW1 9623   4.396   7.007   3.923
 2908SOL    HW2 9624   4.519   6.908   3.964
 2909SOL     OW 9625   0.581   6.202   3.786
 2909SOL    HW1 9626   0.633   6.148   3.720
 2909SOL    HW2 9627   0.486   6.171   3.788
 2910SOL     OW 9628   4.774   5.800   4.406
 2910SOL    HW1 9629   4.703   5.866   4.387
 2910SOL    HW2 9630   4.809   5.762   4.320
 2911SOL     OW 9631   1.808   5.526   3.832
 2911SOL    HW1 9632   1.738   5.597   3.844
 2911SOL    HW2 9633   1.772   5.438   3.859
 2912SOL     OW 9634   4.033   6.905   6.355
 2912SOL    HW1 9635   3.953   6.879   6.409
 2912SOL    HW2 9636   4.008   6.975   6.289
 2913SOL     OW 9637   2.363   5.113   2.276
 2913SOL    HW1 9638   2.362   5.183   2.204
 2913SOL    HW2 9639   2.304   5.037   2.249
 2914SOL     OW 9640   6.252   6.441   5.870
 2914SOL    HW1 9641   6.163   6.418   5.911
 2914SOL    HW2 9642   6.268   6.383   5.790
 2915SOL     OW 9643   5.383   1.503   5.018
 2915SOL    HW1 9644   5.388   1.603   5.029
 2915SOL    HW2 9645   5.381   1.460   5.109
 2916SOL     OW 9646   6.518   5.652   6.035
 2916SOL    HW1 9647   6.565   5.584   6.091
 2916SOL    HW2 9648   6.419   5.635   6.038
 2917SOL     OW 9649   4.095   6.811   1.858
 2917SOL    HW1 9650   4.118   6.908   1.845
 2917SOL    HW2 9651   4.080   6.794   1.955
 2918SOL     OW 9652   6.954   4.064   3.308
 2918SOL    HW1 9653   7.001   4.089   3.223
 2918SOL    HW2 9654   6.864   4.108   3.311
 2919SOL     OW 9655   6.560   0.936   0.615
 2919SOL    HW1 9656   6.492   0.972   0.551
 2919SOL    HW2 9657   6.549   0.837   0.623
 2920SOL     OW 9658   3.111   1.814   2.290
 2920SOL    HW1 9659   3.036   1.750   2.274
 2920SOL    HW2 9660   3.076   1.894   2.338
 2921SOL     OW 9661   0.757   6.894   2.923
 2921SOL    HW1 9662   0.670   6.844   2.925
 2921SOL    HW2 9663   0.813   6.861   2.847
 2922SOL     OW 9664   5.990   0.040   6.954
 2922SOL    HW1 9665   6.043   6.981   6.971
 2922SOL    HW2 9666   6.014   0.108   7.023
 2923SOL     OW 9667   0.029   4.554   1.782
 2923SOL    HW1 9668   0.003   4.493   1.857
 2923SOL    HW2 9669   0.040   4.502   1.698
 2924SOL     OW 9670   0.378   2.233   6.546
 2924SOL    HW1 9671   0.427   2.146   6.552
 2924SOL    HW2 9672   0.323   2.247   6.628
 2925SOL     OW 9673   5.252   0.787   3.453
 2925SOL    HW1 9674   5.162   0.816   3.421
 2925SOL    HW2 9675   5.299   0.739   3.379
 2926SOL     OW 9676   0.369   1.048   4.454
 2926SOL    HW1 9677   0.322   1.064   4.541
 2926SOL    HW2 9678   0.312   1.081   4.379
 2927SOL     OW 9679   1.613   1.671   2.236
 2927SOL    HW1 9680   1.705   1.656   2.272
 2927SOL    HW2 9681   1.598   1.768   2.221
 2928SOL     OW 9682   6.618   2.486   6.021
 2928SOL    HW1 9683   6.671   2.413   6.064
 2928SOL    HW2 9684   6.618   2.472   5.922
 2929SOL     OW 9685   0.665   0.953   6.522
 2929SOL    HW1 9686   0.681   0.986   6.615
 2929SOL    HW2 9687   0.570   0.924   6.512
 2930SOL     OW 9688   4.768   6.223   5.068
 2930SOL    HW1 9689   4.674   6.242   5.096
 2930SOL    HW2 9690   4.770   6.144   5.007
 2931SOL     OW 9691   5.923   5.687   0.107
 2931SOL    HW1 9692   5.841   5.672   0.052
 2931SOL    HW2 9693   5.989   5.615   0.087
 2932SOL     OW 9694   1.477   5.632   1.983
 2932SOL    HW1 9695   1.573   5.658   1.972
 2932SOL    HW2 9696   1.471   5.533   1.998
 2933SOL     OW 9697   6.071   3.327   3.229
 2933SOL    HW1 9698   6.093   3.279   3.314
 2933SOL    HW2 9699   6.111   3.419   3.231
 2934SOL     OW 9700   4.168   1.502   0.205
 2934SOL    HW1 9701   4.137   1.430   0.268
 2934SOL    HW2 9702   4.090   1.538   0.155
 2935SOL     OW 9703   6.467   3.302   1.634
 2935SOL    HW1 9704   6.425   3.220   1.672
 2935SOL    HW2 9705   6.431   3.383   1.680
 2936SOL     OW 9706   4.732   5.234   2.383
 2936SOL    HW1 9707   4.647   5.221   2.435
 2936SOL    HW2 9708   4.781   5.313   2.419
 2937SOL     OW 9709   4.194   4.916   0.224
 2937SOL    HW1 9710   4.286   4.925   0.262
 2937SOL    HW2 9711   4.131   4.882   0.294
 2938SOL     OW 9712   5.567   4.965   5.817
 2938SOL    HW1 9713   5.485   4.976   5.873
 2938SOL    HW2 9714   5.636   4.913   5.869
 2939SOL     OW 9715   0.553   0.271   4.710
 2939SOL    HW1 9716   0.617   0.313   4.775
 2939SOL    HW2 9717   0.602   0.207   4.652
 2940SOL     OW 9718   5.569   6.918   6.223
 2940SOL    HW1 9719   5.603   7.011   6.208
 2940SOL    HW2 9720   5.613   6.879   6.304
 2941SOL     OW 9721   2.325   2.283   4.836
 2941SOL    HW1 9722   2.364   2.271   4.745
 2941SOL    HW2 9723   2.398   2.276   4.905
 2942SOL     OW 9724   2.653   1.893   1.275
 2942SOL    HW1 9725   2.599   1.976   1.260
 2942SOL    HW2 9726   2.595   1.812   1.264
 2943SOL     OW 9727   5.967   3.827   2.767
 2943SOL    HW1 9728   6.028   3.774   2.826
 2943SOL    HW2 9729   5.892   3.865   2.821
 2944SOL     OW 9730   2.570   6.000   5.231
 2944SOL    HW1 9731   2.655   6.053   5.231
 2944SOL    HW2 9732   2.528   6.004   5.141
 2945SOL     OW 9733   3.698   4.117   4.053
 2945SOL    HW1 9734   3.759   4.045   4.020
 2945SOL    HW2 9735   3.719   4.137   4.148
 2946SOL     OW 9736   0.615   5.652   6.473
 2946SOL    HW1 9737   0.554   5.658   6.551
 2946SOL    HW2 9738   0.646   5.744   6.448
 2947SOL     OW 9739   0.929   4.171   6.909
 2947SOL    HW1 9740   0.971   4.206   6.825
 2947SOL    HW2 9741   0.953   4.074   6.920
 2948SOL     OW 9742   0.256   4.645   5.467
 2948SOL    HW1 9743   0.321   4.720   5.477
 2948SOL    HW2 9744   0.246   4.598   5.555
 2949SOL     OW 9745   1.774   6.247   1.287
 2949SOL    HW1 9746   1.712   6.306   1.234
 2949SOL    HW2 9747   1.817   6.180   1.227
 2950SOL     OW 9748   4.977   3.591   4.468
 2950SOL    HW1 9749   4.963   3.690   4.460
 2950SOL    HW2 9750   4.956   3.562   4.561
 2951SOL     OW 9751   6.823   2.446   1.450
 2951SOL    HW1 9752   6.838   2.488   1.539
 2951SOL    HW2 9753   6.792   2.352   1.462
 2952SOL     OW 9754   1.008   6.279   5.257
 2952SOL    HW1 9755   0.958   6.228   5.327
 2952SOL    HW2 9756   0.985   6.376   5.264
 2953SOL     OW 9757   4.872   3.009   3.025
 2953SOL    HW1 9758   4.924   2.938   2.978
 2953SOL    HW2 9759   4.881   2.997   3.124
 2954SOL     OW 9760   0.911   5.347   1.843
 2954SOL    HW1 9761   0.992   5.325   1.788
 2954SOL    HW2 9762   0.892   5.271   1.905
 2955SOL     OW 9763   1.279   3.534   0.990
 2955SOL    HW1 9764   1.357   3.550   1.050
 2955SOL    HW2 9765   1.202   3.591   1.019
 2956SOL     OW 9766   6.340   6.252   2.908
 2956SOL    HW1 9767   6.354   6.167   2.960
 2956SOL    HW2 9768   6.360   6.330   2.967
 2957SOL     OW 9769   6.917   3.083   1.470
 2957SOL    HW1 9770   6.916   2.985   1.491
 2957SOL    HW2 9771   6.831   3.124   1.501
 2958SOL     OW 9772   2.369   4.512   4.823
 2958SOL    HW1 9773   2.330   4.460   4.899
 2958SOL    HW2 9774   2.468   4.522   4.837
 2959SOL     OW 9775   4.281   4.339   0.850
 2959SOL    HW1 9776   4.238   4.429   0.848
 2959SOL    HW2 9777   4.373   4.347   0.889
 2960SOL     OW 9778   3.469   0.279   6.797
 2960SOL    HW1 9779   3.490   0.316   6.887
 2960SOL    HW2 9780   3.504   0.342   6.727
 2961SOL     OW 9781   5.366   2.769   4.656
 2961SOL    HW1 9782   5.268   2.757   4.672
 2961SOL    HW2 9783   5.413   2.681   4.667
 2962SOL     OW 9784   4.286   1.063   4.083
 2962SOL    HW1 9785   4.370   1.013   4.102
 2962SOL    HW2 9786   4.276   1.137   4.150
 2963SOL     OW 9787   2.193   1.407   5.634
 2963SOL    HW1 9788   2.266   1.476   5.635
 2963SOL    HW2 9789   2.208   1.342   5.709
 2964SOL     OW 9790   0.463   0.191   2.131
 2964SOL    HW1 9791   0.384   0.249   2.108
 2964SOL    HW2 9792   0.525   0.242   2.192
 2965SOL     OW 9793   6.876   1.063   4.422
 2965SOL    HW1 9794   6.833   0.975   4.437
 2965SOL    HW2 9795   6.889   1.109   4.510
 2966SOL     OW 9796   5.479   5.074   4.274
 2966SOL    HW1 9797   5.571   5.041   4.256
 2966SOL    HW2 9798   5.413   5.005   4.244
 2967SOL     OW 9799   6.286   2.231   4.492
 2967SOL    HW1 9800   6.343   2.260   4.414
 2967SOL    HW2 9801   6.192   2.217   4.461
 2968SOL     OW 9802   1.267   3.691   6.434
 2968SOL    HW1 9803   1.320   3.763   6.389
 2968SOL    HW2 9804   1.231   3.628   6.365
 2969SOL     OW 9805   5.752   1.160   4.479
 2969SOL    HW1 9806   5.770   1.063   4.463
 2969SOL    HW2 9807   5.812   1.192   4.552
 2970SOL     OW 9808   1.271   3.834   6.686
 2970SOL    HW1 9809   1.299   3.776   6.762
 2970SOL    HW2 9810   1.264   3.779   6.603
 2971SOL     OW 9811   5.366   3.346   6.151
 2971SOL    HW1 9812   5.394   3.337   6.056
 2971SOL    HW2 9813   5.358   3.443   6.175
 2972SOL     OW 9814   6.728   4.998   6.427
 2972SOL    HW1 9815   6.766   5.083   6.466
 2972SOL    HW2 9816   6.776   4.977   6.342
 2973SOL     OW 9817   5.536   1.249   4.322
 2973SOL    HW1 9818   5.615   1.228   4.380
 2973SOL    HW2 9819   5.565   1.309   4.248
 2974SOL     OW 9820   0.656   3.819   2.836
 2974SOL    HW1 9821   0.608   3.820   2.748
 2974SOL    HW2 9822   0.602   3.869   2.904
 2975SOL     OW 9823   0.747   2.556   4.984
 2975SOL    HW1 9824   0.675   2.491   4.959
 2975SOL    HW2 9825   0.832   2.507   5.001
 2976SOL     OW 9826   4.182   1.435   3.089
 2976SOL    HW1 9827   4.211   1.365   3.024
 2976SOL    HW2 9828   4.144   1.513   3.039
 2977SOL     OW 9829   1.775   6.572   4.316
 2977SOL    HW1 9830   1.793   6.641   4.246
 2977SOL    HW2 9831   1.680   6.540   4.308
 2978SOL     OW 9832   4.312   4.964   6.911
 2978SOL    HW1 9833   4.352   4.980   6.821
 2978SOL    HW2 9834   4.234   4.903   6.902
 2979SOL     OW 9835   4.905   6.603   4.220
 2979SOL    HW1 9836   4.875   6.662   4.295
 2979SOL    HW2 9837   5.004   6.609   4.209
 2980SOL     OW 9838   1.249   5.957   4.007
 2980SOL    HW1 9839   1.184   5.884   4.026
 2980SOL    HW2 9840   1.211   6.044   4.038
 2981SOL     OW 9841   0.850   1.100   5.519
 2981SOL    HW1 9842   0.814   1.187   5.553
 2981SOL    HW2 9843   0.782   1.028   5.535
 2982SOL     OW 9844   4.924   5.971   3.249
 2982SOL    HW1 9845   4.937   6.042   3.179
 2982SOL    HW2 9846   4.855   6.001   3.314
 2983SOL     OW 9847   0.840   1.361   4.167
 2983SOL    HW1 9848   0.916   1.424   4.152
 2983SOL    HW2 9849   0.755   1.413   4.174
 2984SOL     OW 9850   4.770   5.598   1.887
 2984SOL    HW1 9851   4.833   5.634   1.957
 2984SOL    HW2 9852   4.681   5.580   1.929
 2985SOL     OW 9853   0.991   2.895   4.854
 2985SOL    HW1 9854   0.975   2.927   4.760
 2985SOL    HW2 9855   0.954   2.962   4.918
 2986SOL     OW 9856   2.090   3.594   6.249
 2986SOL    HW1 9857   2.101   3.612   6.347
 2986SOL    HW2 9858   2.139   3.510   6.226
 2987SOL     OW 9859   5.259   0.614   3.912
 2987SOL    HW1 9860   5.202   0.538   3.880
 2987SOL    HW2 9861   5.275   0.678   3.836
 2988SOL     OW 9862   0.534   6.746   2.853
 2988SOL    HW1 9863   0.478   6.786   2.780
 2988SOL    HW2 9864   0.572   6.659   2.821
 2989SOL     OW 9865   6.422   6.157   0.466
 2989SOL    HW1 9866   6.498   6.207   0.427
 2989SOL    HW2 9867   6.428   6.158   0.566
 2990SOL     OW 9868   4.413   1.202   3.717
 2990SOL    HW1 9869   4.479   1.226   3.788
 2990SOL    HW2 9870   4.413   1.272   3.646
 2991SOL     OW 9871   6.898   3.960   6.983
 2991SOL    HW1 9872   6.953   3.898   6.926
 2991SOL    HW2 9873   6.825   3.908   0.002
 2992SOL     OW 9874   2.292   4.902   5.768
 2992SOL    HW1 9875   2.316   4.934   5.676
 2992SOL    HW2 9876   2.374   4.874   5.816
 2993SOL     OW 9877   1.220   5.149   1.916
 2993SOL    HW1 9878   1.173   5.198   1.843
 2993SOL    HW2 9879   1.162   5.073   1.947
 2994SOL     OW 9880   3.924   0.248   0.777
 2994SOL    HW1 9881   3.931   0.347   0.765
 2994SOL    HW2 9882   4.010   0.205   0.749
 2995SOL     OW 9883   1.662   3.379   6.773
 2995SOL    HW1 9884   1.659   3.365   6.674
 2995SOL    HW2 9885   1.753   3.357   6.807
 2996SOL     OW 9886   2.321   6.438   3.501
 2996SOL    HW1 9887   2.240   6.431   3.560
 2996SOL    HW2 9888   2.398   6.475   3.554
 2997SOL     OW 9889   4.981   0.211   1.841
 2997SOL    HW1 9890   5.072   0.171   1.826
 2997SOL    HW2 9891   4.927   0.149   1.898
 2998SOL     OW 9892   5.749   6.341   5.185
 2998SOL    HW1 9893   5.785   6.408   5.250
 2998SOL    HW2 9894   5.674   6.291   5.227
 2999SOL     OW 9895   3.337   4.936   3.674
 2999SOL    HW1 9896   3.280   4.902   3.749
 2999SOL    HW2 9897   3.290   5.010   3.626
 3000SOL     OW 9898   1.902   3.614   6.723
 3000SOL    HW1 9899   1.917   3.526   6.770
 3000SOL    HW2 9900   1.845   3.599   6.643
 3001SOL     OW 9901   5.700   6.367   6.844
 3001SOL    HW1 9902   5.608   6.384   6.880
 3001SOL    HW2 9903   5.714   6.423   6.762
 3002SOL     OW 9904   4.460   0.460   6.198
 3002SOL    HW1 9905   4.407   0.537   6.235
 3002SOL    HW2 9906   4.523   0.494   6.128
 3003SOL     OW 9907   2.469   0.097   6.355
 3003SOL    HW1 9908   2.484   0.014   6.300
 3003SOL    HW2 9909   2.386   0.085   6.410
 3004SOL     OW 9910   0.771   5.214   3.622
 3004SOL    HW1 9911   0.761   5.156   3.704
 3004SOL    HW2 9912   0.691   5.273   3.613
 3005SOL     OW 9913   3.219   2.701   0.062
 3005SOL    HW1 9914   3.236   2.764   7.011
 3005SOL    HW2 9915   3.272   2.617   0.048
 3006SOL     OW 9916   6.138   2.209   6.580
 3006SOL    HW1 9917   6.194   2.179   6.658
 3006SOL    HW2 9918   6.145   2.142   6.506
 3007SOL     OW 9919   6.023   4.808   2.125
 3007SOL    HW1 9920   5.968   4.735   2.167
 3007SOL    HW2 9921   6.092   4.767   2.065
 3008SOL     OW 9922   3.227   0.814   6.381
 3008SOL    HW1 9923   3.316   0.805   6.427
 3008SOL    HW2 9924   3.193   0.724   6.357
 3009SOL     OW 9925   0.237   6.638   2.910
 3009SOL    HW1 9926   0.193   6.645   2.999
 3009SOL    HW2 9927   0.275   6.545   2.899
 3010SOL     OW 9928   3.631   6.574   3.542
 3010SOL    HW1 9929   3.682   6.614   3.617
 3010SOL    HW2 9930   3.676   6.596   3.455
 3011SOL     OW 9931   5.723   1.687   6.970
 3011SOL    HW1 9932   5.748   1.617   0.013
 3011SOL    HW2 9933   5.625   1.681   6.951
 3012SOL     OW 9934   1.224   3.423   5.174
 3012SOL    HW1 9935   1.150   3.407   5.108
 3012SOL    HW2 9936   1.184   3.455   5.260
 3013SOL     OW 9937   5.430   5.525   4.901
 3013SOL    HW1 9938   5.445   5.463   4.978
 3013SOL    HW2 9939   5.484   5.495   4.823
 3014SOL     OW 9940   5.114   3.442   3.970
 3014SOL    HW1 9941   5.054   3.473   4.044
 3014SOL    HW2 9942   5.181   3.377   4.007
 3015SOL     OW 9943   3.052   2.606   0.359
 3015SOL    HW1 9944   3.029   2.511   0.378
 3015SOL    HW2 9945   3.149   2.615   0.339
 3016SOL     OW 9946   2.897   5.738   3.917
 3016SOL    HW1 9947   2.849   5.729   4.004
 3016SOL    HW2 9948   2.838   5.708   3.842
 3017SOL     OW 9949   0.864   5.133   2.091
 3017SOL    HW1 9950   0.925   5.054   2.093
 3017SOL    HW2 9951   0.909   5.212   2.132
 3018SOL     OW 9952   2.147   0.163   4.845
 3018SOL    HW1 9953   2.236   0.145   4.886
 3018SOL    HW2 9954   2.100   0.076   4.828
 3019SOL     OW 9955   1.923   6.907   0.860
 3019SOL    HW1 9956   1.890   6.992   0.818
 3019SOL    HW2 9957   1.951   6.926   0.955
 3020SOL     OW 9958   3.726   4.002   1.519
 3020SOL    HW1 9959   3.771   4.090   1.531
 3020SOL    HW2 9960   3.629   4.011   1.543
 3021SOL     OW 9961   3.265   0.782   0.144
 3021SOL    HW1 9962   3.246   0.751   0.238
 3021SOL    HW2 9963   3.363   0.798   0.133
 3022SOL     OW 9964   3.964   5.670   3.858
 3022SOL    HW1 9965   3.877   5.692   3.903
 3022SOL    HW2 9966   4.038   5.715   3.908
 3023SOL     OW 9967   4.620   6.843   2.570
 3023SOL    HW1 9968   4.707   6.794   2.570
 3023SOL    HW2 9969   4.636   6.939   2.546
 3024SOL     OW 9970   4.318   0.091   5.615
 3024SOL    HW1 9971   4.367   0.089   5.702
 3024SOL    HW2 9972   4.225   0.124   5.630
 3025SOL     OW 9973   3.759   1.870   0.283
 3025SOL    HW1 9974   3.745   1.945   0.347
 3025SOL    HW2 9975   3.856   1.849   0.276
 3026SOL     OW 9976   2.133   2.048   0.493
 3026SOL    HW1 9977   2.216   2.011   0.450
 3026SOL    HW2 9978   2.056   2.039   0.430
 3027SOL     OW 9979   4.304   0.419   1.808
 3027SOL    HW1 9980   4.245   0.437   1.886
 3027SOL    HW2 9981   4.298   0.494   1.742
 3028SOL     OW 9982   1.753   3.873   5.770
 3028SOL    HW1 9983   1.750   3.961   5.818
 3028SOL    HW2 9984   1.775   3.800   5.836
 3029SOL     OW 9985   0.336   5.281   5.282
 3029SOL    HW1 9986   0.264   5.253   5.219
 3029SOL    HW2 9987   0.393   5.351   5.239
 3030SOL     OW 9988   1.060   2.511   6.321
 3030SOL    HW1 9989   1.134   2.557   6.369
 3030SOL    HW2 9990   1.091   2.483   6.230
 3031SOL     OW 9991   0.069   3.592   0.966
 3031SOL    HW1 9992   7.013   3.650   0.961
 3031SOL    HW2 9993   0.099   3.570   0.874
 3032SOL     OW 9994   4.403   6.449   1.175
 3032SOL    HW1 9995   4.372   6.540   1.146
 3032SOL    HW2 9996   4.503   6.450   1.183
 3033SOL     OW 9997   0.508   2.879   1.295
 3033SOL    HW1 9998   0.470   2.828   1.372
 3033SOL    HW2 9999   0.434   2.922   1.243
 3034SOL     OW10000   1.813   5.615   3.214
 3034SOL    HW110001   1.898   5.576   3.249
 3034SOL    HW210002   1.796   5.703   3.260
 3035SOL     OW10003   6.891   3.095   0.439
 3035SOL    HW110004   6.901   3.027   0.512
 3035SOL    HW210005   6.836   3.172   0.473
 3036SOL     OW10006   1.515   3.016   6.339
 3036SOL    HW110007   1.439   2.951   6.339
 3036SOL    HW210008   1.597   2.973   6.302
 3037SOL     OW10009   6.847   5.598   4.316
 3037SOL    HW110010   6.914   5.581   4.244
 3037SOL    HW210011   6.810   5.691   4.305
 3038SOL     OW10012   5.990   6.428   6.548
 3038SOL    HW110013   5.893   6.402   6.557
 3038SOL    HW210014   6.036   6.364   6.487
 3039SOL     OW10015   6.577   3.715   1.887
 3039SOL    HW110016   6.561   3.693   1.790
 3039SOL    HW210017   6.515   3.788   1.915
 3040SOL     OW10018   4.912   3.304   6.226
 3040SOL    HW110019   4.826   3.262   6.196
 3040SOL    HW210020   4.921   3.395   6.185
 3041SOL     OW10021   2.252   3.048   5.318
 3041SOL    HW110022   2.277   3.134   5.364
 3041SOL    HW210023   2.334   3.007   5.278
 3042SOL     OW10024   5.542   6.989   1.463
 3042SOL    HW110025   5.506   6.896   1.452
 3042SOL    HW210026   5.641   6.985   1.476
 3043SOL     OW10027   0.802   5.227   1.420
 3043SOL    HW110028   0.849   5.300   1.470
 3043SOL    HW210029   0.853   5.142   1.429
 3044SOL     OW10030   2.850   4.664   6.308
 3044SOL    HW110031   2.755   4.671   6.337
 3044SOL    HW210032   2.881   4.753   6.273
 3045SOL     OW10033   4.674   0.761   2.988
 3045SOL    HW110034   4.639   0.774   3.080
 3045SOL    HW210035   4.695   0.850   2.948
 3046SOL     OW10036   2.496   2.083   6.873
 3046SOL    HW110037   2.427   2.094   6.802
 3046SOL    HW210038   2.562   2.013   6.845
 3047SOL     OW10039   5.680   6.555   2.216
 3047SOL    HW110040   5.672   6.641   2.166
 3047SOL    HW210041   5.769   6.550   2.261
 3048SOL     OW10042   3.775   2.823   1.761
 3048SOL    HW110043   3.736   2.733   1.781
 3048SOL    HW210044   3.726   2.893   1.812
 3049SOL     OW10045   1.603   6.462   1.770
 3049SOL    HW110046   1.633   6.532   1.704
 3049SOL    HW210047   1.550   6.392   1.722
 3050SOL     OW10048   3.367   1.251   2.981
 3050SOL    HW110049   3.433   1.315   2.943
 3050SOL    HW210050   3.300   1.225   2.910
 3051SOL     OW10051   2.400   3.919   6.987
 3051SOL    HW110052   2.382   3.943   0.058
 3051SOL    HW210053   2.344   3.978   6.928
 3052SOL     OW10054   4.163   0.629   2.303
 3052SOL    HW110055   4.130   0.700   2.240
 3052SOL    HW210056   4.099   0.619   2.379
 3053SOL     OW10057   6.846   1.179   6.774
 3053SOL    HW110058   6.868   1.266   6.818
 3053SOL    HW210059   6.903   1.169   6.692
 3054SOL     OW10060   0.095   2.564   1.363
 3054SOL    HW110061   0.115   2.469   1.337
 3054SOL    HW210062   7.021   2.573   1.378
 3055SOL     OW10063   4.944   6.926   4.094
 3055SOL    HW110064   4.995   6.848   4.058
 3055SOL    HW210065   5.006   6.984   4.148
 3056SOL     OW10066   6.855   1.419   5.722
 3056SOL    HW110067   6.873   1.400   5.818
 3056SOL    HW210068   6.802   1.344   5.682
 3057SOL     OW10069   4.095   5.998   3.442
 3057SOL    HW110070   4.090   5.917   3.501
 3057SOL    HW210071   4.010   6.006   3.390
 3058SOL     OW10072   0.030   5.668   1.199
 3058SOL    HW110073   0.114   5.617   1.181
 3058SOL    HW210074   0.029   5.752   1.144
 3059SOL     OW10075   2.528   2.279   4.605
 3059SOL    HW110076   2.517   2.322   4.515
 3059SOL    HW210077   2.586   2.198   4.596
 3060SOL     OW10078   0.864   6.161   0.646
 3060SOL    HW110079   0.802   6.090   0.613
 3060SOL    HW210080   0.818   6.249   0.645
 3061SOL     OW10081   6.095   0.948   5.361
 3061SOL    HW110082   6.089   1.021   5.428
 3061SOL    HW210083   6.180   0.956   5.309
 3062SOL     OW10084   1.297   6.896   6.897
 3062SOL    HW110085   1.279   6.812   6.846
 3062SOL    HW210086   1.210   6.939   6.923
 3063SOL     OW10087   2.661   5.654   1.236
 3063SOL    HW110088   2.626   5.664   1.330
 3063SOL    HW210089   2.670   5.744   1.194
 3064SOL     OW10090   5.262   3.674   3.964
 3064SOL    HW110091   5.197   3.599   3.951
 3064SOL    HW210092   5.282   3.685   4.061
 3065SOL     OW10093   2.081   1.139   6.706
 3065SOL    HW110094   2.106   1.048   6.740
 3065SOL    HW210095   2.026   1.186   6.774
 3066SOL     OW10096   4.764   4.895   0.908
 3066SOL    HW110097   4.703   4.883   0.830
 3066SOL    HW210098   4.854   4.923   0.875
 3067SOL     OW10099   4.145   2.129   4.704
 3067SOL    HW110100   4.091   2.170   4.778
 3067SOL    HW210101   4.198   2.201   4.658
 3068SOL     OW10102   5.441   5.706   1.015
 3068SOL    HW110103   5.370   5.763   1.057
 3068SOL    HW210104   5.487   5.652   1.085
 3069SOL     OW10105   6.691   6.311   1.912
 3069SOL    HW110106   6.775   6.285   1.958
 3069SOL    HW210107   6.692   6.410   1.893
 3070SOL     OW10108   1.347   1.064   2.184
 3070SOL    HW110109   1.410   1.141   2.170
 3070SOL    HW210110   1.335   1.048   2.282
 3071SOL     OW10111   5.844   6.047   3.529
 3071SOL    HW110112   5.816   6.102   3.450
 3071SOL    HW210113   5.892   6.104   3.595
 3072SOL     OW10114   1.111   6.328   0.604
 3072SOL    HW110115   1.065   6.249   0.644
 3072SOL    HW210116   1.059   6.361   0.526
 3073SOL     OW10117   0.885   3.351   5.274
 3073SOL    HW110118   0.792   3.388   5.279
 3073SOL    HW210119   0.921   3.362   5.182
 3074SOL     OW10120   5.699   2.635   1.230
 3074SOL    HW110121   5.712   2.733   1.241
 3074SOL    HW210122   5.603   2.612   1.244
 3075SOL     OW10123   1.964   6.524   1.281
 3075SOL    HW110124   2.063   6.525   1.296
 3075SOL    HW210125   1.919   6.483   1.361
 3076SOL     OW10126   6.959   1.473   4.654
 3076SOL    HW110127   6.872   1.423   4.651
 3076SOL    HW210128   6.965   1.534   4.575
 3077SOL     OW10129   5.191   5.415   2.615
 3077SOL    HW110130   5.188   5.353   2.537
 3077SOL    HW210131   5.197   5.361   2.699
 3078SOL     OW10132   1.129   3.393   1.293
 3078SOL    HW110133   1.040   3.371   1.332
 3078SOL    HW210134   1.200   3.338   1.338
 3079SOL     OW10135   2.672   2.107   4.228
 3079SOL    HW110136   2.721   2.173   4.284
 3079SOL    HW210137   2.734   2.033   4.201
 3080SOL     OW10138   5.286   4.578   3.223
 3080SOL    HW110139   5.271   4.676   3.217
 3080SOL    HW210140   5.216   4.530   3.171
 3081SOL     OW10141   0.361   2.878   6.218
 3081SOL    HW110142   0.261   2.873   6.218
 3081SOL    HW210143   0.399   2.788   6.197
 3082SOL     OW10144   3.370   6.945   3.781
 3082SOL    HW110145   3.451   6.955   3.838
 3082SOL    HW210146   3.359   6.849   3.755
 3083SOL     OW10147   4.230   6.252   3.550
 3083SOL    HW110148   4.214   6.250   3.649
 3083SOL    HW210149   4.182   6.175   3.507
 3084SOL     OW10150   4.920   3.951   4.879
 3084SOL    HW110151   4.892   3.986   4.790
 3084SOL    HW210152   4.859   3.988   4.950
 3085SOL     OW10153   0.602   4.642   2.052
 3085SOL    HW110154   0.654   4.682   2.127
 3085SOL    HW210155   0.637   4.676   1.965
 3086SOL     OW10156   3.906   1.652   2.387
 3086SOL    HW110157   3.881   1.741   2.426
 3086SOL    HW210158   3.848   1.633   2.308
 3087SOL     OW10159   1.073   5.167   4.151
 3087SOL    HW110160   1.028   5.095   4.203
 3087SOL    HW210161   1.005   5.232   4.118
 3088SOL     OW10162   2.289   5.149   5.878
 3088SOL    HW110163   2.381   5.177   5.908
 3088SOL    HW210164   2.297   5.083   5.803
 3089SOL     OW10165   1.236   3.187   0.656
 3089SOL    HW110166   1.155   3.177   0.599
 3089SOL    HW210167   1.213   3.167   0.751
 3090SOL     OW10168   2.180   2.391   1.850
 3090SOL    HW110169   2.251   2.353   1.908
 3090SOL    HW210170   2.090   2.364   1.884
 3091SOL     OW10171   1.766   6.796   0.377
 3091SOL    HW110172   1.826   6.798   0.457
 3091SOL    HW210173   1.763   6.886   0.335
 3092SOL     OW10174   5.013   6.902   0.435
 3092SOL    HW110175   5.013   6.963   0.355
 3092SOL    HW210176   5.042   6.953   0.515
 3093SOL     OW10177   5.477   5.695   5.659
 3093SOL    HW110178   5.517   5.618   5.611
 3093SOL    HW210179   5.422   5.750   5.595
 3094SOL     OW10180   3.153   6.475   4.226
 3094SOL    HW110181   3.190   6.461   4.135
 3094SOL    HW210182   3.054   6.460   4.225
 3095SOL     OW10183   2.771   5.503   4.570
 3095SOL    HW110184   2.741   5.500   4.665
 3095SOL    HW210185   2.820   5.419   4.548
 3096SOL     OW10186   0.916   0.516   4.791
 3096SOL    HW110187   0.973   0.480   4.717
 3096SOL    HW210188   0.836   0.563   4.753
 3097SOL     OW10189   0.385   2.151   1.148
 3097SOL    HW110190   0.341   2.149   1.238
 3097SOL    HW210191   0.314   2.153   1.077
 3098SOL     OW10192   2.455   3.853   1.211
 3098SOL    HW110193   2.473   3.951   1.204
 3098SOL    HW210194   2.439   3.829   1.307
 3099SOL     OW10195   0.189   5.799   4.742
 3099SOL    HW110196   0.151   5.739   4.812
 3099SOL    HW210197   0.259   5.750   4.690
 3100SOL     OW10198   6.306   0.110   4.810
 3100SOL    HW110199   6.357   0.192   4.784
 3100SOL    HW210200   6.370   0.033   4.816
 3101SOL     OW10201   5.265   6.035   6.092
 3101SOL    HW110202   5.350   5.998   6.128
 3101SOL    HW210203   5.194   5.964   6.095
 3102SOL     OW10204   0.434   5.078   3.008
 3102SOL    HW110205   0.506   5.066   3.076
 3102SOL    HW210206   0.468   5.134   2.932
 3103SOL     OW10207   3.247   1.192   1.777
 3103SOL    HW110208   3.344   1.170   1.764
 3103SOL    HW210209   3.220   1.264   1.713
 3104SOL     OW10210   5.768   6.760   5.206
 3104SOL    HW110211   5.862   6.788   5.223
 3104SOL    HW210212   5.766   6.692   5.133
 3105SOL     OW10213   6.088   4.442   2.110
 3105SOL    HW110214   6.041   4.508   2.169
 3105SOL    HW210215   6.071   4.465   2.014
 3106SOL     OW10216   6.314   0.550   3.090
 3106SOL    HW110217   6.353   0.636   3.055
 3106SOL    HW210218   6.286   0.563   3.186
 3107SOL     OW10219   4.378   0.878   3.877
 3107SOL    HW110220   4.445   0.945   3.907
 3107SOL    HW210221   4.288   0.902   3.913
 3108SOL     OW10222   1.433   0.519   4.383
 3108SOL    HW110223   1.426   0.528   4.482
 3108SOL    HW210224   1.432   0.610   4.341
 3109SOL     OW10225   5.750   5.768   2.611
 3109SOL    HW110226   5.831   5.778   2.669
 3109SOL    HW210227   5.683   5.837   2.635
 3110SOL     OW10228   1.204   1.465   3.475
 3110SOL    HW110229   1.164   1.555   3.457
 3110SOL    HW210230   1.239   1.462   3.568
 3111SOL     OW10231   6.773   5.557   3.804
 3111SOL    HW110232   6.704   5.521   3.867
 3111SOL    HW210233   6.728   5.613   3.734
 3112SOL     OW10234   5.046   2.381   6.250
 3112SOL    HW110235   5.143   2.364   6.232
 3112SOL    HW210236   5.020   2.469   6.211
 3113SOL     OW10237   1.824   6.543   4.580
 3113SOL    HW110238   1.809   6.548   4.481
 3113SOL    HW210239   1.736   6.550   4.628
 3114SOL     OW10240   4.436   2.659   6.834
 3114SOL    HW110241   4.341   2.650   6.863
 3114SOL    HW210242   4.472   2.747   6.865
 3115SOL     OW10243   4.582   3.245   6.695
 3115SOL    HW110244   4.659   3.211   6.750
 3115SOL    HW210245   4.616   3.271   6.605
 3116SOL     OW10246   6.731   3.768   0.059
 3116SOL    HW110247   6.682   3.713   0.127
 3116SOL    HW210248   6.685   3.760   6.996
 3117SOL     OW10249   4.465   3.643   5.317
 3117SOL    HW110250   4.389   3.579   5.303
 3117SOL    HW210251   4.547   3.608   5.271
 3118SOL     OW10252   0.512   4.493   0.101
 3118SOL    HW110253   0.440   4.534   0.157
 3118SOL    HW210254   0.559   4.564   0.049
 3119SOL     OW10255   1.276   3.203   5.598
 3119SOL    HW110256   1.228   3.247   5.522
 3119SOL    HW210257   1.220   3.128   5.633
 3120SOL     OW10258   2.601   6.597   4.177
 3120SOL    HW110259   2.516   6.646   4.196
 3120SOL    HW210260   2.588   6.537   4.098
 3121SOL     OW10261   0.556   1.743   2.537
 3121SOL    HW110262   0.492   1.669   2.555
 3121SOL    HW210263   0.572   1.751   2.439
 3122SOL     OW10264   2.788   6.208   5.863
 3122SOL    HW110265   2.876   6.221   5.910
 3122SOL    HW210266   2.715   6.249   5.918
 3123SOL     OW10267   3.286   0.462   4.076
 3123SOL    HW110268   3.375   0.438   4.115
 3123SOL    HW210269   3.242   0.531   4.132
 3124SOL     OW10270   4.524   6.886   4.662
 3124SOL    HW110271   4.477   6.832   4.592
 3124SOL    HW210272   4.557   6.972   4.622
 3125SOL     OW10273   6.247   1.866   5.599
 3125SOL    HW110274   6.281   1.809   5.524
 3125SOL    HW210275   6.175   1.817   5.648
 3126SOL     OW10276   5.142   4.859   6.203
 3126SOL    HW110277   5.078   4.842   6.277
 3126SOL    HW210278   5.101   4.921   6.137
 3127SOL     OW10279   1.277   2.321   3.118
 3127SOL    HW110280   1.183   2.310   3.149
 3127SOL    HW210281   1.328   2.375   3.184
 3128SOL     OW10282   2.121   0.286   6.413
 3128SOL    HW110283   2.161   0.370   6.448
 3128SOL    HW210284   2.138   0.278   6.315
 3129SOL     OW10285   1.319   4.063   6.370
 3129SOL    HW110286   1.377   3.988   6.337
 3129SOL    HW210287   1.332   4.073   6.469
 3130SOL     OW10288   1.774   4.542   1.844
 3130SOL    HW110289   1.681   4.573   1.827
 3130SOL    HW210290   1.777   4.442   1.843
 3131SOL     OW10291   0.771   2.442   1.705
 3131SOL    HW110292   0.678   2.469   1.681
 3131SOL    HW210293   0.808   2.383   1.633
 3132SOL     OW10294   5.403   5.309   5.730
 3132SOL    HW110295   5.474   5.319   5.800
 3132SOL    HW210296   5.430   5.358   5.647
 3133SOL     OW10297   3.163   1.982   3.448
 3133SOL    HW110298   3.262   1.997   3.447
 3133SOL    HW210299   3.135   1.941   3.362
 3134SOL     OW10300   4.694   4.952   1.489
 3134SOL    HW110301   4.743   5.025   1.537
 3134SOL    HW210302   4.758   4.901   1.432
 3135SOL     OW10303   4.823   1.203   5.101
 3135SOL    HW110304   4.916   1.172   5.082
 3135SOL    HW210305   4.763   1.175   5.026
 3136SOL     OW10306   5.374   0.710   6.614
 3136SOL    HW110307   5.469   0.737   6.632
 3136SOL    HW210308   5.355   0.720   6.516
 3137SOL     OW10309   6.016   0.117   3.582
 3137SOL    HW110310   5.920   0.142   3.565
 3137SOL    HW210311   6.075   0.158   3.513
 3138SOL     OW10312   6.648   2.280   3.949
 3138SOL    HW110313   6.557   2.306   3.916
 3138SOL    HW210314   6.682   2.351   4.011
 3139SOL     OW10315   4.392   6.891   0.214
 3139SOL    HW110316   4.397   6.863   0.118
 3139SOL    HW210317   4.296   6.895   0.243
 3140SOL     OW10318   5.999   6.953   6.443
 3140SOL    HW110319   6.052   6.905   6.512
 3140SOL    HW210320   6.030   0.023   6.436
 3141SOL     OW10321   0.907   6.574   6.110
 3141SOL    HW110322   0.850   6.507   6.157
 3141SOL    HW210323   0.942   6.641   6.176
 3142SOL     OW10324   4.697   6.137   1.660
 3142SOL    HW110325   4.702   6.174   1.753
 3142SOL    HW210326   4.722   6.208   1.594
 3143SOL     OW10327   0.381   2.586   6.757
 3143SOL    HW110328   0.446   2.644   6.806
 3143SOL    HW210329   0.430   2.510   6.714
 3144SOL     OW10330   2.702   3.978   1.595
 3144SOL    HW110331   2.656   4.066   1.585
 3144SOL    HW210332   2.707   3.934   1.505
 3145SOL     OW10333   1.651   4.936   2.605
 3145SOL    HW110334   1.611   4.853   2.643
 3145SOL    HW210335   1.639   5.012   2.669
 3146SOL     OW10336   1.154   6.832   3.356
 3146SOL    HW110337   1.089   6.881   3.298
 3146SOL    HW210338   1.191   6.895   3.425
 3147SOL     OW10339   4.500   5.353   0.006
 3147SOL    HW110340   4.540   5.263   0.022
 3147SOL    HW210341   4.415   5.361   0.058
 3148SOL     OW10342   5.175   5.563   4.497
 3148SOL    HW110343   5.103   5.593   4.560
 3148SOL    HW210344   5.234   5.497   4.544
 3149SOL     OW10345   3.697   0.322   5.145
 3149SOL    HW110346   3.683   0.421   5.133
 3149SOL    HW210347   3.684   0.276   5.057
 3150SOL     OW10348   6.577   5.495   3.979
 3150SOL    HW110349   6.531   5.568   4.031
 3150SOL    HW210350   6.535   5.487   3.889
 3151SOL     OW10351   3.810   0.891   6.794
 3151SOL    HW110352   3.720   0.903   6.835
 3151SOL    HW210353   3.879   0.935   6.850
 3152SOL     OW10354   1.438   5.007   2.025
 3152SOL    HW110355   1.347   5.045   2.010
 3152SOL    HW210356   1.437   4.945   2.104
 3153SOL     OW10357   6.968   3.979   1.469
 3153SOL    HW110358   6.901   3.986   1.543
 3153SOL    HW210359   6.922   3.949   1.385
 3154SOL     OW10360   6.015   1.672   0.221
 3154SOL    HW110361   5.933   1.643   0.172
 3154SOL    HW210362   6.020   1.772   0.222
 3155SOL     OW10363   6.941   5.291   1.558
 3155SOL    HW110364   6.842   5.297   1.563
 3155SOL    HW210365   6.977   5.257   1.645
 3156SOL     OW10366   4.022   3.335   3.502
 3156SOL    HW110367   3.923   3.346   3.505
 3156SOL    HW210368   4.049   3.260   3.564
 3157SOL     OW10369   1.852   3.226   5.008
 3157SOL    HW110370   1.905   3.261   5.086
 3157SOL    HW210371   1.776   3.169   5.042
 3158SOL     OW10372   4.672   0.138   1.531
 3158SOL    HW110373   4.766   0.170   1.541
 3158SOL    HW210374   4.639   0.104   1.619
 3159SOL     OW10375   5.678   0.536   0.280
 3159SOL    HW110376   5.768   0.571   0.307
 3159SOL    HW210377   5.688   0.473   0.204
 3160SOL     OW10378   6.452   5.504   5.626
 3160SOL    HW110379   6.466   5.408   5.601
 3160SOL    HW210380   6.360   5.515   5.663
 3161SOL     OW10381   0.950   1.338   2.707
 3161SOL    HW110382   0.923   1.310   2.799
 3161SOL    HW210383   1.035   1.391   2.712
 3162SOL     OW10384   0.625   5.414   0.332
 3162SOL    HW110385   0.673   5.382   0.250
 3162SOL    HW210386   0.641   5.512   0.343
 3163SOL     OW10387   3.391   2.380   6.780
 3163SOL    HW110388   3.437   2.468   6.768
 3163SOL    HW210389   3.315   2.374   6.715
 3164SOL     OW10390   4.736   4.152   1.495
 3164SOL    HW110391   4.725   4.210   1.577
 3164SOL    HW210392   4.740   4.210   1.414
 3165SOL     OW10393   1.031   6.644   1.593
 3165SOL    HW110394   0.956   6.622   1.655
 3165SOL    HW210395   1.114   6.662   1.647
 3166SOL     OW10396   5.072   2.323   6.554
 3166SOL    HW110397   5.060   2.342   6.456
 3166SOL    HW210398   5.107   2.230   6.566
 3167SOL     OW10399   0.249   4.701   1.688
 3167SOL    HW110400   0.302   4.700   1.772
 3167SOL    HW210401   0.161   4.654   1.703
 3168SOL     OW10402   5.109   2.957   0.480
 3168SOL    HW110403   5.139   2.950   0.575
 3168SOL    HW210404   5.169   2.901   0.422
 3169SOL     OW10405   0.785   2.593   5.974
 3169SOL    HW110406   0.865   2.537   5.953
 3169SOL    HW210407   0.787   2.620   6.070
 3170SOL     OW10408   3.978   0.452   0.209
 3170SOL    HW110409   3.926   0.471   0.293
 3170SOL    HW210410   4.015   0.537   0.172
 3171SOL     OW10411   6.911   6.814   1.102
 3171SOL    HW110412   6.915   6.750   1.025
 3171SOL    HW210413   7.001   6.819   1.146
 3172SOL     OW10414   0.689   5.846   5.522
 3172SOL    HW110415   0.674   5.932   5.473
 3172SOL    HW210416   0.608   5.826   5.577
 3173SOL     OW10417   3.011   1.761   1.487
 3173SOL    HW110418   2.998   1.662   1.486
 3173SOL    HW210419   2.924   1.805   1.511
 3174SOL     OW10420   2.287   2.800   6.637
 3174SOL    HW110421   2.251   2.769   6.725
 3174SOL    HW210422   2.334   2.887   6.649
 3175SOL     OW10423   6.958   6.180   0.075
 3175SOL    HW110424   6.880   6.172   0.137
 3175SOL    HW210425   6.925   6.175   7.006
 3176SOL     OW10426   2.166   5.232   4.949
 3176SOL    HW110427   2.215   5.186   5.023
 3176SOL    HW210428   2.191   5.192   4.861
 3177SOL     OW10429   5.243   5.763   5.489
 3177SOL    HW110430   5.161   5.807   5.524
 3177SOL    HW210431   5.218   5.704   5.412
 3178SOL     OW10432   6.777   3.098   1.207
 3178SOL    HW110433   6.712   3.169   1.179
 3178SOL    HW210434   6.870   3.134   1.199
 3179SOL     OW10435   2.014   2.637   1.592
 3179SOL    HW110436   1.952   2.680   1.525
 3179SOL    HW210437   2.104   2.624   1.550
 3180SOL     OW10438   4.082   0.669   6.508
 3180SOL    HW110439   4.082   0.669   6.608
 3180SOL    HW210440   4.025   0.594   6.474
 3181SOL     OW10441   0.435   0.158   2.840
 3181SOL    HW110442   0.360   0.101   2.873
 3181SOL    HW210443   0.399   0.247   2.811
 3182SOL     OW10444   1.089   1.058   5.715
 3182SOL    HW110445   0.997   1.083   5.683
 3182SOL    HW210446   1.121   0.979   5.664
 3183SOL     OW10447   4.715   3.873   1.749
 3183SOL    HW110448   4.738   3.789   1.700
 3183SOL    HW210449   4.646   3.924   1.697
 3184SOL     OW10450   2.654   2.026   2.363
 3184SOL    HW110451   2.646   2.025   2.263
 3184SOL    HW210452   2.629   2.116   2.397
 3185SOL     OW10453   6.184   0.528   6.382
 3185SOL    HW110454   6.104   0.524   6.441
 3185SOL    HW210455   6.264   0.492   6.432
 3186SOL     OW10456   3.078   1.179   2.924
 3186SOL    HW110457   3.108   1.084   2.937
 3186SOL    HW210458   3.050   1.217   3.012
 3187SOL     OW10459   4.175   4.386   6.950
 3187SOL    HW110460   4.143   4.293   6.966
 3187SOL    HW210461   4.160   4.409   6.854
 3188SOL     OW10462   3.496   5.777   3.201
 3188SOL    HW110463   3.524   5.871   3.223
 3188SOL    HW210464   3.573   5.727   3.162
 3189SOL     OW10465   2.370   1.600   3.077
 3189SOL    HW110466   2.293   1.543   3.048
 3189SOL    HW210467   2.341   1.661   3.150
 3190SOL     OW10468   0.907   6.468   1.414
 3190SOL    HW110469   0.966   6.453   1.336
 3190SOL    HW210470   0.961   6.502   1.491
 3191SOL     OW10471   3.225   6.755   0.739
 3191SOL    HW110472   3.195   6.722   0.829
 3191SOL    HW210473   3.148   6.800   0.693
 3192SOL     OW10474   0.598   1.987   1.166
 3192SOL    HW110475   0.612   1.958   1.260
 3192SOL    HW210476   0.526   2.057   1.163
 3193SOL     OW10477   4.334   2.552   6.612
 3193SOL    HW110478   4.389   2.505   6.542
 3193SOL    HW210479   4.395   2.586   6.684
 3194SOL     OW10480   1.549   2.476   6.741
 3194SOL    HW110481   1.554   2.402   6.674
 3194SOL    HW210482   1.595   2.448   6.825
 3195SOL     OW10483   2.005   2.800   2.988
 3195SOL    HW110484   1.995   2.876   3.052
 3195SOL    HW210485   1.915   2.759   2.972
 3196SOL     OW10486   6.365   0.685   5.062
 3196SOL    HW110487   6.316   0.611   5.016
 3196SOL    HW210488   6.457   0.656   5.085
 3197SOL     OW10489   1.564   5.791   3.503
 3197SOL    HW110490   1.543   5.833   3.591
 3197SOL    HW210491   1.505   5.711   3.489
 3198SOL     OW10492   6.464   2.295   6.943
 3198SOL    HW110493   6.442   2.368   7.007
 3198SOL    HW210494   6.401   2.298   6.866
 3199SOL     OW10495   4.627   2.658   1.913
 3199SOL    HW110496   4.702   2.648   1.847
 3199SOL    HW210497   4.658   2.714   1.990
 3200SOL     OW10498   6.987   2.039   1.431
 3200SOL    HW110499   0.042   1.981   1.416
 3200SOL    HW210500   6.935   2.047   1.346
 3201SOL     OW10501   5.165   4.054   3.999
 3201SOL    HW110502   5.112   4.023   4.078
 3201SOL    HW210503   5.144   3.997   3.920
 3202SOL     OW10504   1.650   4.363   2.135
 3202SOL    HW110505   1.616   4.453   2.161
 3202SOL    HW210506   1.712   4.372   2.056
 3203SOL     OW10507   5.635   1.107   0.786
 3203SOL    HW110508   5.544   1.070   0.803
 3203SOL    HW210509   5.702   1.033   0.790
 3204SOL     OW10510   5.692   6.005   1.868
 3204SOL    HW110511   5.641   6.089   1.889
 3204SOL    HW210512   5.777   6.028   1.822
 3205SOL     OW10513   0.362   4.034   6.837
 3205SOL    HW110514   0.270   4.009   6.806
 3205SOL    HW210515   0.356   4.111   6.901
 3206SOL     OW10516   0.104   0.067   6.082
 3206SOL    HW110517   0.152   0.154   6.089
 3206SOL    HW210518   0.092   0.027   6.173
 3207SOL     OW10519   0.303   1.479   6.008
 3207SOL    HW110520   0.314   1.455   5.911
 3207SOL    HW210521   0.264   1.402   6.058
 3208SOL     OW10522   4.510   6.107   5.231
 3208SOL    HW110523   4.487   6.192   5.278
 3208SOL    HW210524   4.431   6.077   5.177
 3209SOL     OW10525   2.829   6.470   3.605
 3209SOL    HW110526   2.909   6.511   3.648
 3209SOL    HW210527   2.842   6.469   3.505
 3210SOL     OW10528   0.502   3.493   2.259
 3210SOL    HW110529   0.564   3.503   2.181
 3210SOL    HW210530   0.533   3.417   2.317
 3211SOL     OW10531   2.132   4.741   6.857
 3211SOL    HW110532   2.101   4.669   6.920
 3211SOL    HW210533   2.177   4.700   6.778
 3212SOL     OW10534   4.500   1.791   6.955
 3212SOL    HW110535   4.474   1.752   0.018
 3212SOL    HW210536   4.478   1.889   6.954
 3213SOL     OW10537   6.129   5.052   2.930
 3213SOL    HW110538   6.217   5.075   2.889
 3213SOL    HW210539   6.115   4.953   2.925
 3214SOL     OW10540   4.467   6.049   0.214
 3214SOL    HW110541   4.408   6.119   0.175
 3214SOL    HW210542   4.417   5.962   0.217
 3215SOL     OW10543   6.147   3.025   0.948
 3215SOL    HW110544   6.225   3.018   1.010
 3215SOL    HW210545   6.082   3.092   0.984
 3216SOL     OW10546   5.750   5.311   2.485
 3216SOL    HW110547   5.666   5.349   2.526
 3216SOL    HW210548   5.815   5.385   2.469
 3217SOL     OW10549   1.331   4.248   3.288
 3217SOL    HW110550   1.310   4.159   3.247
 3217SOL    HW210551   1.265   4.316   3.256
 3218SOL     OW10552   4.476   6.532   3.359
 3218SOL    HW110553   4.515   6.458   3.414
 3218SOL    HW210554   4.404   6.578   3.412
 3219SOL     OW10555   6.935   0.415   3.503
 3219SOL    HW110556   7.014   0.371   3.546
 3219SOL    HW210557   6.950   0.421   3.404
 3220SOL     OW10558   6.641   4.674   5.728
 3220SOL    HW110559   6.598   4.757   5.762
 3220SOL    HW210560   6.640   4.604   5.800
 3221SOL     OW10561   2.637   6.246   2.436
 3221SOL    HW110562   2.672   6.154   2.454
 3221SOL    HW210563   2.599   6.249   2.343
 3222SOL     OW10564   4.992   2.163   3.389
 3222SOL    HW110565   4.947   2.212   3.315
 3222SOL    HW210566   5.073   2.116   3.354
 3223SOL     OW10567   2.774   5.413   6.988
 3223SOL    HW110568   2.724   5.340   6.941
 3223SOL    HW210569   2.723   5.441   0.044
 3224SOL     OW10570   4.779   5.151   5.920
 3224SOL    HW110571   4.853   5.159   5.854
 3224SOL    HW210572   4.755   5.055   5.933
 3225SOL     OW10573   4.391   2.336   6.128
 3225SOL    HW110574   4.450   2.417   6.125
 3225SOL    HW210575   4.306   2.359   6.174
 3226SOL     OW10576   2.253   1.451   4.047
 3226SOL    HW110577   2.171   1.459   4.104
 3226SOL    HW210578   2.234   1.487   3.956
 3227SOL     OW10579   3.020   2.183   6.442
 3227SOL    HW110580   2.970   2.097   6.448
 3227SOL    HW210581   2.973   2.253   6.495
 3228SOL     OW10582   5.476   3.010   4.268
 3228SOL    HW110583   5.511   3.067   4.343
 3228SOL    HW210584   5.524   3.033   4.184
 3229SOL     OW10585   3.083   1.667   5.475
 3229SOL    HW110586   3.001   1.630   5.431
 3229SOL    HW210587   3.153   1.687   5.407
 3230SOL     OW10588   0.389   1.886   3.136
 3230SOL    HW110589   0.467   1.828   3.158
 3230SOL    HW210590   0.317   1.832   3.094
 3231SOL     OW10591   4.509   5.762   1.751
 3231SOL    HW110592   4.539   5.833   1.688
 3231SOL    HW210593   4.589   5.715   1.789
 3232SOL     OW10594   4.387   4.951   4.861
 3232SOL    HW110595   4.481   4.983   4.849
 3232SOL    HW210596   4.378   4.907   4.950
 3233SOL     OW10597   0.995   4.194   0.786
 3233SOL    HW110598   0.958   4.155   0.870
 3233SOL    HW210599   0.980   4.293   0.786
 3234SOL     OW10600   0.060   2.534   0.482
 3234SOL    HW110601   0.114   2.586   0.549
 3234SOL    HW210602   7.012   2.486   0.529
 3235SOL     OW10603   6.035   5.725   2.330
 3235SOL    HW110604   6.113   5.735   2.269
 3235SOL    HW210605   6.016   5.812   2.376
 3236SOL     OW10606   1.653   3.679   1.643
 3236SOL    HW110607   1.571   3.682   1.585
 3236SOL    HW210608   1.627   3.646   1.734
 3237SOL     OW10609   5.069   0.175   3.908
 3237SOL    HW110610   5.046   0.088   3.863
 3237SOL    HW210611   4.989   0.210   3.958
 3238SOL     OW10612   0.459   6.006   6.779
 3238SOL    HW110613   0.528   5.938   6.805
 3238SOL    HW210614   0.384   6.004   6.845
 3239SOL     OW10615   5.742   1.581   0.194
 3239SOL    HW110616   5.671   1.649   0.209
 3239SOL    HW210617   5.742   1.515   0.269
 3240SOL     OW10618   0.233   6.929   4.785
 3240SOL    HW110619   0.310   6.939   4.721
 3240SOL    HW210620   0.197   7.020   4.805
 3241SOL     OW10621   4.914   1.260   4.349
 3241SOL    HW110622   4.937   1.334   4.411
 3241SOL    HW210623   4.987   1.250   4.281
 3242SOL     OW10624   3.547   5.184   0.933
 3242SOL    HW110625   3.639   5.212   0.959
 3242SOL    HW210626   3.546   5.156   0.837
 3243SOL     OW10627   5.469   5.280   0.331
 3243SOL    HW110628   5.448   5.285   0.428
 3243SOL    HW210629   5.563   5.247   0.319
 3244SOL     OW10630   5.454   5.680   6.090
 3244SOL    HW110631   5.455   5.748   6.164
 3244SOL    HW210632   5.417   5.722   6.007
 3245SOL     OW10633   3.976   2.759   6.468
 3245SOL    HW110634   4.073   2.738   6.458
 3245SOL    HW210635   3.923   2.708   6.400
 3246SOL     OW10636   5.402   0.512   2.992
 3246SOL    HW110637   5.439   0.419   3.002
 3246SOL    HW210638   5.434   0.568   3.068
 3247SOL     OW10639   0.262   4.379   2.677
 3247SOL    HW110640   0.325   4.395   2.753
 3247SOL    HW210641   0.302   4.313   2.614
 3248SOL     OW10642   5.825   3.684   2.020
 3248SOL    HW110643   5.744   3.713   1.970
 3248SOL    HW210644   5.903   3.679   1.957
 3249SOL     OW10645   3.900   4.746   5.293
 3249SOL    HW110646   3.862   4.661   5.329
 3249SOL    HW210647   3.926   4.806   5.368
 3250SOL     OW10648   5.564   6.798   2.862
 3250SOL    HW110649   5.507   6.774   2.784
 3250SOL    HW210650   5.654   6.755   2.852
 3251SOL     OW10651   3.546   1.467   2.932
 3251SOL    HW110652   3.504   1.473   2.842
 3251SOL    HW210653   3.617   1.537   2.941
 3252SOL     OW10654   3.497   0.765   2.842
 3252SOL    HW110655   3.413   0.793   2.797
 3252SOL    HW210656   3.515   0.824   2.921
 3253SOL     OW10657   4.884   2.360   1.881
 3253SOL    HW110658   4.928   2.410   1.957
 3253SOL    HW210659   4.816   2.298   1.918
 3254SOL     OW10660   3.790   4.896   4.028
 3254SOL    HW110661   3.831   4.825   4.085
 3254SOL    HW210662   3.851   4.975   4.025
 3255SOL     OW10663   4.647   5.192   0.841
 3255SOL    HW110664   4.637   5.143   0.928
 3255SOL    HW210665   4.561   5.238   0.819
 3256SOL     OW10666   5.632   6.941   6.591
 3256SOL    HW110667   5.682   6.882   6.528
 3256SOL    HW210668   5.642   6.907   6.685
 3257SOL     OW10669   1.387   2.451   0.927
 3257SOL    HW110670   1.479   2.478   0.902
 3257SOL    HW210671   1.321   2.494   0.866
 3258SOL     OW10672   4.810   6.723   1.556
 3258SOL    HW110673   4.791   6.784   1.632
 3258SOL    HW210674   4.861   6.773   1.485
 3259SOL     OW10675   4.433   5.745   4.287
 3259SOL    HW110676   4.462   5.675   4.353
 3259SOL    HW210677   4.334   5.742   4.277
 3260SOL     OW10678   2.045   1.795   0.409
 3260SOL    HW110679   1.994   1.709   0.415
 3260SOL    HW210680   2.082   1.818   0.498
 3261SOL     OW10681   3.866   6.250   0.637
 3261SOL    HW110682   3.892   6.197   0.718
 3261SOL    HW210683   3.766   6.260   0.635
 3262SOL     OW10684   4.017   1.449   3.300
 3262SOL    HW110685   3.979   1.357   3.305
 3262SOL    HW210686   4.083   1.454   3.225
 3263SOL     OW10687   4.816   6.905   3.069
 3263SOL    HW110688   4.735   6.868   3.025
 3263SOL    HW210689   4.847   6.986   3.020
 3264SOL     OW10690   0.271   5.166   7.006
 3264SOL    HW110691   0.228   5.166   6.916
 3264SOL    HW210692   0.370   5.159   6.995
 3265SOL     OW10693   3.915   2.196   6.597
 3265SOL    HW110694   3.881   2.285   6.628
 3265SOL    HW210695   4.015   2.194   6.603
 3266SOL     OW10696   0.279   2.245   0.200
 3266SOL    HW110697   0.244   2.293   0.280
 3266SOL    HW210698   0.282   2.308   0.122
 3267SOL     OW10699   3.164   2.517   1.378
 3267SOL    HW110700   3.249   2.465   1.390
 3267SOL    HW210701   3.170   2.602   1.431
 3268SOL     OW10702   0.989   3.956   0.145
 3268SOL    HW110703   0.977   3.862   0.178
 3268SOL    HW210704   1.025   3.954   0.052
 3269SOL     OW10705   4.843   4.824   1.758
 3269SOL    HW110706   4.868   4.879   1.677
 3269SOL    HW210707   4.768   4.869   1.806
 3270SOL     OW10708   0.527   5.331   3.719
 3270SOL    HW110709   0.469   5.260   3.758
 3270SOL    HW210710   0.479   5.374   3.642
 3271SOL     OW10711   5.646   1.975   2.762
 3271SOL    HW110712   5.589   2.000   2.684
 3271SOL    HW210713   5.742   1.985   2.737
 3272SOL     OW10714   3.512   6.608   0.099
 3272SOL    HW110715   3.600   6.591   0.055
 3272SOL    HW210716   3.450   6.531   0.081
 3273SOL     OW10717   0.873   6.471   1.762
 3273SOL    HW110718   0.923   6.396   1.805
 3273SOL    HW210719   0.859   6.544   1.830
 3274SOL     OW10720   3.415   2.021   7.010
 3274SOL    HW110721   3.362   2.071   0.054
 3274SOL    HW210722   3.513   2.034   0.002
 3275SOL     OW10723   1.782   0.267   7.013
 3275SOL    HW110724   1.849   0.338   6.991
 3275SOL    HW210725   1.802   0.185   6.958
 3276SOL     OW10726   3.533   5.230   6.917
 3276SOL    HW110727   3.632   5.241   6.903
 3276SOL    HW210728   3.502   5.147   6.871
 3277SOL     OW10729   6.028   7.009   6.113
 3277SOL    HW110730   6.048   6.966   6.201
 3277SOL    HW210731   6.034   0.083   6.122
 3278SOL     OW10732   0.100   1.475   5.092
 3278SOL    HW110733   0.147   1.394   5.058
 3278SOL    HW210734   0.168   1.539   5.130
 3279SOL     OW10735   7.014   0.077   0.761
 3279SOL    HW110736   6.931   0.025   0.739
 3279SOL    HW210737   7.015   0.097   0.859
 3280SOL     OW10738   2.596   5.181   6.510
 3280SOL    HW110739   2.608   5.085   6.485
 3280SOL    HW210740   2.538   5.226   6.443
 3281SOL     OW10741   1.600   5.862   1.100
 3281SOL    HW110742   1.610   5.941   1.040
 3281SOL    HW210743   1.681   5.804   1.093
 3282SOL     OW10744   3.318   6.292   4.351
 3282SOL    HW110745   3.277   6.203   4.330
 3282SOL    HW210746   3.265   6.364   4.307
 3283SOL     OW10747   2.901   1.559   3.105
 3283SOL    HW110748   2.939   1.593   3.190
 3283SOL    HW210749   2.909   1.628   3.034
 3284SOL     OW10750   6.859   6.779   0.143
 3284SOL    HW110751   6.938   6.719   0.139
 3284SOL    HW210752   6.801   6.763   0.063
 3285SOL     OW10753   0.266   2.778   3.328
 3285SOL    HW110754   0.264   2.683   3.297
 3285SOL    HW210755   0.249   2.781   3.427
 3286SOL     OW10756   4.010   3.830   3.738
 3286SOL    HW110757   4.082   3.779   3.689
 3286SOL    HW210758   3.981   3.908   3.683
 3287SOL     OW10759   1.074   5.730   0.079
 3287SOL    HW110760   1.164   5.690   0.061
 3287SOL    HW210761   1.064   5.748   0.176
 3288SOL     OW10762   0.341   6.433   6.998
 3288SOL    HW110763   0.253   6.430   0.021
 3288SOL    HW210764   0.407   6.375   0.021
 3289SOL     OW10765   1.457   6.555   5.394
 3289SOL    HW110766   1.385   6.490   5.373
 3289SOL    HW210767   1.523   6.559   5.319
 3290SOL     OW10768   0.861   5.875   2.040
 3290SOL    HW110769   0.793   5.896   2.111
 3290SOL    HW210770   0.816   5.828   1.964
 3291SOL     OW10771   1.741   6.338   6.472
 3291SOL    HW110772   1.770   6.328   6.376
 3291SOL    HW210773   1.644   6.361   6.475
 3292SOL     OW10774   0.316   1.139   6.775
 3292SOL    HW110775   0.319   1.071   6.849
 3292SOL    HW210776   0.337   1.230   6.812
 3293SOL     OW10777   6.960   1.625   3.367
 3293SOL    HW110778   7.023   1.640   3.443
 3293SOL    HW210779   6.953   1.709   3.313
 3294SOL     OW10780   6.660   0.373   6.528
 3294SOL    HW110781   6.735   0.415   6.580
 3294SOL    HW210782   6.695   0.338   6.441
 3295SOL     OW10783   2.699   1.880   0.828
 3295SOL    HW110784   2.673   1.830   0.746
 3295SOL    HW210785   2.785   1.843   0.864
 3296SOL     OW10786   2.267   6.885   1.908
 3296SOL    HW110787   2.337   6.848   1.848
 3296SOL    HW210788   2.308   6.907   1.997
 3297SOL     OW10789   3.101   2.049   5.207
 3297SOL    HW110790   3.105   2.135   5.157
 3297SOL    HW210791   3.029   2.055   5.276
 3298SOL     OW10792   6.199   3.124   2.815
 3298SOL    HW110793   6.132   3.142   2.886
 3298SOL    HW210794   6.229   3.211   2.775
 3299SOL     OW10795   1.661   0.162   3.935
 3299SOL    HW110796   1.669   0.121   3.844
 3299SOL    HW210797   1.596   0.238   3.932
 3300SOL     OW10798   6.595   0.626   5.999
 3300SOL    HW110799   6.525   0.637   6.069
 3300SOL    HW210800   6.561   0.563   5.928
 3301SOL     OW10801   1.482   3.978   3.874
 3301SOL    HW110802   1.427   4.013   3.949
 3301SOL    HW210803   1.579   3.980   3.900
 3302SOL     OW10804   1.393   4.795   4.397
 3302SOL    HW110805   1.422   4.735   4.322
 3302SOL    HW210806   1.473   4.840   4.437
 3303SOL     OW10807   3.516   2.943   2.710
 3303SOL    HW110808   3.423   2.979   2.711
 3303SOL    HW210809   3.553   2.946   2.803
 3304SOL     OW10810   0.850   4.877   3.579
 3304SOL    HW110811   0.801   4.930   3.648
 3304SOL    HW210812   0.904   4.939   3.522
 3305SOL     OW10813   1.880   1.386   2.052
 3305SOL    HW110814   1.875   1.287   2.066
 3305SOL    HW210815   1.863   1.433   2.138
 3306SOL     OW10816   2.185   3.890   3.070
 3306SOL    HW110817   2.234   3.952   3.131
 3306SOL    HW210818   2.118   3.942   3.017
 3307SOL     OW10819   0.191   5.798   0.206
 3307SOL    HW110820   0.184   5.887   0.161
 3307SOL    HW210821   0.260   5.804   0.279
 3308SOL     OW10822   4.567   5.803   0.435
 3308SOL    HW110823   4.587   5.894   0.472
 3308SOL    HW210824   4.567   5.807   0.335
 3309SOL     OW10825   0.769   5.042   2.535
 3309SOL    HW110826   0.794   5.139   2.538
 3309SOL    HW210827   0.687   5.027   2.591
 3310SOL     OW10828   0.394   3.631   3.042
 3310SOL    HW110829   0.490   3.607   3.056
 3310SOL    HW210830   0.350   3.563   2.984
 3311SOL     OW10831   2.727   5.585   0.651
 3311SOL    HW110832   2.749   5.547   0.741
 3311SOL    HW210833   2.715   5.684   0.658
 3312SOL     OW10834   3.035   4.504   6.452
 3312SOL    HW110835   2.986   4.559   6.383
 3312SOL    HW210836   3.078   4.425   6.407
 3313SOL     OW10837   1.317   5.331   3.859
 3313SOL    HW110838   1.241   5.382   3.899
 3313SOL    HW210839   1.283   5.274   3.784
 3314SOL     OW10840   1.708   2.878   4.840
 3314SOL    HW110841   1.787   2.937   4.827
 3314SOL    HW210842   1.636   2.902   4.775
 3315SOL     OW10843   6.534   2.981   4.000
 3315SOL    HW110844   6.510   3.005   4.095
 3315SOL    HW210845   6.633   2.989   3.988
 3316SOL     OW10846   4.149   2.118   6.196
 3316SOL    HW110847   4.173   2.023   6.214
 3316SOL    HW210848   4.187   2.176   6.269
 3317SOL     OW10849   4.468   2.559   1.723
 3317SOL    HW110850   4.505   2.621   1.794
 3317SOL    HW210851   4.544   2.519   1.672
 3318SOL     OW10852   2.592   6.325   5.993
 3318SOL    HW110853   2.580   6.297   6.089
 3318SOL    HW210854   2.630   6.417   5.990
 3319SOL     OW10855   7.004   6.263   4.218
 3319SOL    HW110856   0.070   6.239   4.184
 3319SOL    HW210857   7.011   6.342   4.279
 3320SOL     OW10858   5.839   1.641   5.324
 3320SOL    HW110859   5.814   1.692   5.407
 3320SOL    HW210860   5.858   1.546   5.348
 3321SOL     OW10861   3.915   3.083   2.582
 3321SOL    HW110862   3.992   3.022   2.598
 3321SOL    HW210863   3.913   3.154   2.653
 3322SOL     OW10864   4.748   1.978   0.934
 3322SOL    HW110865   4.681   2.053   0.942
 3322SOL    HW210866   4.717   1.914   0.864
 3323SOL     OW10867   2.034   4.385   6.543
 3323SOL    HW110868   1.990   4.308   6.588
 3323SOL    HW210869   1.992   4.402   6.455
 3324SOL     OW10870   1.456   3.820   0.356
 3324SOL    HW110871   1.467   3.835   0.455
 3324SOL    HW210872   1.373   3.866   0.325
 3325SOL     OW10873   2.501   3.565   0.083
 3325SOL    HW110874   2.447   3.585   0.001
 3325SOL    HW210875   2.467   3.483   0.127
 3326SOL     OW10876   5.745   2.130   2.085
 3326SOL    HW110877   5.740   2.032   2.069
 3326SOL    HW210878   5.695   2.178   2.012
 3327SOL     OW10879   2.425   6.673   1.806
 3327SOL    HW110880   2.413   6.580   1.770
 3327SOL    HW210881   2.483   6.669   1.888
 3328SOL     OW10882   4.469   1.100   1.794
 3328SOL    HW110883   4.417   1.023   1.832
 3328SOL    HW210884   4.465   1.097   1.694
 3329SOL     OW10885   4.119   0.662   5.107
 3329SOL    HW110886   4.111   0.623   5.015
 3329SOL    HW210887   4.194   0.727   5.109
 3330SOL     OW10888   5.960   6.845   2.050
 3330SOL    HW110889   5.915   6.854   2.139
 3330SOL    HW210890   5.981   6.749   2.033
 3331SOL     OW10891   1.450   3.596   3.044
 3331SOL    HW110892   1.463   3.695   3.047
 3331SOL    HW210893   1.391   3.568   3.120
 3332SOL     OW10894   5.334   4.832   0.504
 3332SOL    HW110895   5.406   4.875   0.558
 3332SOL    HW210896   5.369   4.749   0.460
 3333SOL     OW10897   3.162   3.880   1.106
 3333SOL    HW110898   3.110   3.825   1.041
 3333SOL    HW210899   3.145   3.848   1.199
 3334SOL     OW10900   1.441   2.742   2.209
 3334SOL    HW110901   1.433   2.781   2.118
 3334SOL    HW210902   1.500   2.661   2.206
 3335SOL     OW10903   3.621   4.553   5.943
 3335SOL    HW110904   3.594   4.633   5.888
 3335SOL    HW210905   3.594   4.567   6.038
 3336SOL     OW10906   2.551   0.066   4.006
 3336SOL    HW110907   2.583   0.130   3.936
 3336SOL    HW210908   2.611   7.011   4.008
 3337SOL     OW10909   3.696   3.622   2.347
 3337SOL    HW110910   3.605   3.637   2.384
 3337SOL    HW210911   3.720   3.525   2.356
 3338SOL     OW10912   1.045   1.947   1.718
 3338SOL    HW110913   0.956   1.985   1.696
 3338SOL    HW210914   1.101   1.942   1.636
 3339SOL     OW10915   1.894   0.076   5.611
 3339SOL    HW110916   1.801   0.114   5.612
 3339SOL    HW210917   1.938   0.095   5.699
 3340SOL     OW10918   4.709   0.699   4.402
 3340SOL    HW110919   4.702   0.798   4.407
 3340SOL    HW210920   4.757   0.673   4.319
 3341SOL     OW10921   2.329   4.725   2.589
 3341SOL    HW110922   2.299   4.742   2.495
 3341SOL    HW210923   2.313   4.806   2.644
 3342SOL     OW10924   6.271   0.213   3.361
 3342SOL    HW110925   6.368   0.237   3.367
 3342SOL    HW210926   6.215   0.294   3.378
 3343SOL     OW10927   5.183   5.371   6.728
 3343SOL    HW110928   5.274   5.398   6.698
 3343SOL    HW210929   5.172   5.395   6.825
 3344SOL     OW10930   6.325   2.633   2.231
 3344SOL    HW110931   6.373   2.613   2.317
 3344SOL    HW210932   6.385   2.687   2.172
 3345SOL     OW10933   0.886   3.731   0.480
 3345SOL    HW110934   0.985   3.747   0.478
 3345SOL    HW210935   0.868   3.633   0.471
 3346SOL     OW10936   2.470   1.126   0.584
 3346SOL    HW110937   2.442   1.030   0.585
 3346SOL    HW210938   2.472   1.160   0.491
 3347SOL     OW10939   1.009   2.878   6.304
 3347SOL    HW110940   0.976   2.971   6.287
 3347SOL    HW210941   1.106   2.881   6.326
 3348SOL     OW10942   3.747   4.450   6.474
 3348SOL    HW110943   3.740   4.549   6.486
 3348SOL    HW210944   3.745   4.405   6.564
 3349SOL     OW10945   2.118   4.128   4.059
 3349SOL    HW110946   2.021   4.153   4.063
 3349SOL    HW210947   2.163   4.181   3.986
 3350SOL     OW10948   0.837   4.256   5.600
 3350SOL    HW110949   0.861   4.318   5.674
 3350SOL    HW210950   0.770   4.299   5.540
 3351SOL     OW10951   5.264   0.705   1.534
 3351SOL    HW110952   5.244   0.794   1.494
 3351SOL    HW210953   5.179   0.664   1.568
 3352SOL     OW10954   5.592   2.867   0.807
 3352SOL    HW110955   5.511   2.925   0.815
 3352SOL    HW210956   5.674   2.921   0.829
 3353SOL     OW10957   1.887   0.111   1.433
 3353SOL    HW110958   1.901   0.201   1.473
 3353SOL    HW210959   1.828   0.118   1.353
 3354SOL     OW10960   4.158   3.386   5.749
 3354SOL    HW110961   4.221   3.460   5.725
 3354SOL    HW210962   4.093   3.419   5.818
 3355SOL     OW10963   1.943   1.520   5.133
 3355SOL    HW110964   1.950   1.480   5.042
 3355SOL    HW210965   1.852   1.501   5.171
 3356SOL     OW10966   1.108   0.046   6.147
 3356SOL    HW110967   1.128   0.128   6.201
 3356SOL    HW210968   1.109   0.070   6.049
 3357SOL     OW10969   3.195   3.447   1.882
 3357SOL    HW110970   3.105   3.410   1.861
 3357SOL    HW210971   3.259   3.372   1.902
 3358SOL     OW10972   5.491   1.317   3.455
 3358SOL    HW110973   5.422   1.296   3.386
 3358SOL    HW210974   5.500   1.240   3.518
 3359SOL     OW10975   0.527   5.466   4.224
 3359SOL    HW110976   0.517   5.369   4.243
 3359SOL    HW210977   0.562   5.513   4.305
 3360SOL     OW10978   0.516   2.383   6.341
 3360SOL    HW110979   0.552   2.461   6.392
 3360SOL    HW210980   0.477   2.316   6.405
 3361SOL     OW10981   0.907   0.066   4.364
 3361SOL    HW110982   0.868   0.153   4.333
 3361SOL    HW210983   0.999   0.056   4.328
 3362SOL     OW10984   3.996   1.914   4.174
 3362SOL    HW110985   3.943   1.853   4.115
 3362SOL    HW210986   4.079   1.942   4.127
 3363SOL     OW10987   6.942   2.814   1.539
 3363SOL    HW110988   6.944   2.770   1.629
 3363SOL    HW210989   0.008   2.812   1.499
 3364SOL     OW10990   1.071   4.052   2.773
 3364SOL    HW110991   1.092   3.992   2.850
 3364SOL    HW210992   1.018   4.002   2.705
 3365SOL     OW10993   2.179   3.163   4.481
 3365SOL    HW110994   2.269   3.202   4.458
 3365SOL    HW210995   2.154   3.188   4.574
 3366SOL     OW10996   0.083   3.626   4.430
 3366SOL    HW110997   0.040   3.593   4.346
 3366SOL    HW210998   0.124   3.716   4.414
 3367SOL     OW10999   3.646   3.678   4.339
 3367SOL    HW111000   3.610   3.755   4.393
 3367SOL    HW211001   3.673   3.711   4.249
 3368SOL     OW11002   1.492   6.405   6.567
 3368SOL    HW111003   1.421   6.465   6.532
 3368SOL    HW211004   1.499   6.415   6.666
 3369SOL     OW11005   4.174   1.759   1.439
 3369SOL    HW111006   4.246   1.829   1.443
 3369SOL    HW211007   4.152   1.729   1.532
 3370SOL     OW11008   6.302   6.014   1.517
 3370SOL    HW111009   6.215   6.022   1.470
 3370SOL    HW211010   6.352   5.934   1.484
 3371SOL     OW11011   2.114   3.694   2.235
 3371SOL    HW111012   2.133   3.790   2.215
 3371SOL    HW211013   2.196   3.639   2.220
 3372SOL     OW11014   6.677   2.835   1.581
 3372SOL    HW111015   6.770   2.848   1.546
 3372SOL    HW211016   6.678   2.845   1.680
 3373SOL     OW11017   0.574   1.250   1.761
 3373SOL    HW111018   0.510   1.174   1.768
 3373SOL    HW211019   0.527   1.335   1.786
 3374SOL     OW11020   0.282   6.784   4.212
 3374SOL    HW111021   0.273   6.685   4.212
 3374SOL    HW211022   0.334   6.813   4.131
 3375SOL     OW11023   6.973   4.668   6.966
 3375SOL    HW111024   6.988   4.579   6.924
 3375SOL    HW211025   0.015   4.733   6.930
 3376SOL     OW11026   2.287   3.437   5.736
 3376SOL    HW111027   2.293   3.507   5.808
 3376SOL    HW211028   2.307   3.479   5.648
 3377SOL     OW11029   6.584   5.160   4.594
 3377SOL    HW111030   6.561   5.064   4.609
 3377SOL    HW211031   6.655   5.167   4.524
 3378SOL     OW11032   0.790   6.631   0.009
 3378SOL    HW111033   0.698   6.632   6.996
 3378SOL    HW211034   0.848   6.692   6.982
 3379SOL     OW11035   1.229   3.130   4.703
 3379SOL    HW111036   1.207   3.228   4.702
 3379SOL    HW211037   1.304   3.114   4.767
 3380SOL     OW11038   3.829   4.676   5.654
 3380SOL    HW111039   3.806   4.629   5.569
 3380SOL    HW211040   3.744   4.703   5.701
 3381SOL     OW11041   0.583   2.624   1.981
 3381SOL    HW111042   0.526   2.706   1.988
 3381SOL    HW211043   0.659   2.641   1.919
 3382SOL     OW11044   6.828   2.393   0.963
 3382SOL    HW111045   6.775   2.455   0.905
 3382SOL    HW211046   6.789   2.391   1.055
 3383SOL     OW11047   3.481   5.120   0.682
 3383SOL    HW111048   3.445   5.069   0.604
 3383SOL    HW211049   3.454   5.216   0.675
 3384SOL     OW11050   2.521   4.904   0.601
 3384SOL    HW111051   2.598   4.868   0.549
 3384SOL    HW211052   2.539   4.894   0.699
 3385SOL     OW11053   0.239   2.480   3.570
 3385SOL    HW111054   0.223   2.575   3.596
 3385SOL    HW211055   0.191   2.420   3.634
 3386SOL     OW11056   6.545   4.476   0.049
 3386SOL    HW111057   6.625   4.532   0.027
 3386SOL    HW211058   6.515   4.496   0.142
 3387SOL     OW11059   5.538   0.961   3.423
 3387SOL    HW111060   5.550   1.013   3.507
 3387SOL    HW211061   5.443   0.929   3.417
 3388SOL     OW11062   4.920   3.932   1.489
 3388SOL    HW111063   5.002   3.971   1.447
 3388SOL    HW211064   4.849   4.003   1.496
 3389SOL     OW11065   6.142   6.093   0.157
 3389SOL    HW111066   6.177   6.066   0.067
 3389SOL    HW211067   6.210   6.150   0.203
 3390SOL     OW11068   3.960   6.403   5.915
 3390SOL    HW111069   4.056   6.430   5.910
 3390SOL    HW211070   3.912   6.434   5.833
 3391SOL     OW11071   5.414   2.620   3.856
 3391SOL    HW111072   5.321   2.624   3.819
 3391SOL    HW211073   5.448   2.713   3.870
 3392SOL     OW11074   4.267   6.941   4.832
 3392SOL    HW111075   4.269   0.014   4.849
 3392SOL    HW211076   4.348   6.914   4.780
 3393SOL     OW11077   5.360   0.071   0.767
 3393SOL    HW111078   5.268   0.085   0.730
 3393SOL    HW211079   5.417   0.150   0.746
 3394SOL     OW11080   3.426   5.069   1.393
 3394SOL    HW111081   3.508   5.116   1.358
 3394SOL    HW211082   3.350   5.134   1.399
 3395SOL     OW11083   4.198   0.912   3.033
 3395SOL    HW111084   4.264   0.980   3.000
 3395SOL    HW211085   4.112   0.958   3.054
 3396SOL     OW11086   5.561   0.871   3.746
 3396SOL    HW111087   5.549   0.772   3.739
 3396SOL    HW211088   5.545   0.900   3.840
 3397SOL     OW11089   2.627   5.821   6.093
 3397SOL    HW111090   2.555   5.753   6.106
 3397SOL    HW211091   2.702   5.802   6.157
 3398SOL     OW11092   0.871   1.560   5.419
 3398SOL    HW111093   0.852   1.555   5.321
 3398SOL    HW211094   0.839   1.647   5.455
 3399SOL     OW11095   0.115   4.853   3.355
 3399SOL    HW111096   0.058   4.841   3.273
 3399SOL    HW211097   0.056   4.856   3.436
 3400SOL     OW11098   5.791   3.256   5.939
 3400SOL    HW111099   5.836   3.193   5.875
 3400SOL    HW211100   5.745   3.202   6.010
 3401SOL     OW11101   6.804   3.786   6.067
 3401SOL    HW111102   6.899   3.779   6.036
 3401SOL    HW211103   6.770   3.878   6.050
 3402SOL     OW11104   6.820   5.094   1.119
 3402SOL    HW111105   6.863   5.087   1.028
 3402SOL    HW211106   6.885   5.134   1.183
 3403SOL     OW11107   4.571   6.482   6.358
 3403SOL    HW111108   4.472   6.491   6.350
 3403SOL    HW211109   4.604   6.413   6.294
 3404SOL     OW11110   5.135   3.170   6.197
 3404SOL    HW111111   5.199   3.237   6.158
 3404SOL    HW211112   5.046   3.214   6.212
 3405SOL     OW11113   5.693   6.180   6.117
 3405SOL    HW111114   5.779   6.159   6.164
 3405SOL    HW211115   5.635   6.237   6.176
 3406SOL     OW11116   1.838   3.375   2.398
 3406SOL    HW111117   1.934   3.385   2.371
 3406SOL    HW211118   1.792   3.463   2.390
 3407SOL     OW11119   2.408   4.354   0.770
 3407SOL    HW111120   2.480   4.292   0.801
 3407SOL    HW211121   2.416   4.441   0.819
 3408SOL     OW11122   4.410   2.460   4.089
 3408SOL    HW111123   4.318   2.422   4.078
 3408SOL    HW211124   4.464   2.440   4.008
 3409SOL     OW11125   3.977   6.446   0.344
 3409SOL    HW111126   3.936   6.533   0.318
 3409SOL    HW211127   3.923   6.371   0.308
 3410SOL     OW11128   5.809   6.552   2.750
 3410SOL    HW111129   5.822   6.624   2.819
 3410SOL    HW211130   5.781   6.467   2.795
 3411SOL     OW11131   6.944   1.822   0.864
 3411SOL    HW111132   6.873   1.874   0.817
 3411SOL    HW211133   7.004   1.779   0.797
 3412SOL     OW11134   4.953   3.077   1.576
 3412SOL    HW111135   5.009   3.017   1.520
 3412SOL    HW211136   4.894   3.133   1.517
 3413SOL     OW11137   6.325   1.658   6.703
 3413SOL    HW111138   6.397   1.672   6.635
 3413SOL    HW211139   6.245   1.713   6.679
 3414SOL     OW11140   3.904   3.024   0.091
 3414SOL    HW111141   4.000   3.008   0.113
 3414SOL    HW211142   3.882   2.983   0.003
 3415SOL     OW11143   2.233   2.129   4.073
 3415SOL    HW111144   2.148   2.173   4.102
 3415SOL    HW211145   2.288   2.194   4.020
 3416SOL     OW11146   6.182   6.886   0.281
 3416SOL    HW111147   6.258   6.951   0.279
 3416SOL    HW211148   6.200   6.815   0.349
 3417SOL     OW11149   0.389   0.128   3.431
 3417SOL    HW111150   0.355   0.222   3.435
 3417SOL    HW211151   0.474   0.125   3.378
 3418SOL     OW11152   4.011   5.379   3.135
 3418SOL    HW111153   4.064   5.305   3.178
 3418SOL    HW211154   3.918   5.378   3.172
 3419SOL     OW11155   3.987   5.552   5.702
 3419SOL    HW111156   3.953   5.589   5.615
 3419SOL    HW211157   3.912   5.507   5.751
 3420SOL     OW11158   4.757   2.900   3.980
 3420SOL    HW111159   4.707   2.816   4.002
 3420SOL    HW211160   4.824   2.919   4.052
 3421SOL     OW11161   5.354   1.545   3.544
 3421SOL    HW111162   5.393   1.461   3.506
 3421SOL    HW211163   5.407   1.624   3.513
 3422SOL     OW11164   2.307   0.094   6.793
 3422SOL    HW111165   2.373   0.166   6.767
 3422SOL    HW211166   2.356   0.008   6.806
 3423SOL     OW11167   0.750   4.526   6.197
 3423SOL    HW111168   0.789   4.617   6.183
 3423SOL    HW211169   0.811   4.457   6.159
 3424SOL     OW11170   4.227   6.527   1.460
 3424SOL    HW111171   4.255   6.620   1.484
 3424SOL    HW211172   4.238   6.513   1.362
 3425SOL     OW11173   4.999   4.475   1.947
 3425SOL    HW111174   5.041   4.465   2.037
 3425SOL    HW211175   5.004   4.388   1.898
 3426SOL     OW11176   4.965   3.551   0.692
 3426SOL    HW111177   5.062   3.530   0.692
 3426SOL    HW211178   4.920   3.503   0.767
 3427SOL     OW11179   1.489   2.678   1.379
 3427SOL    HW111180   1.515   2.670   1.475
 3427SOL    HW211181   1.534   2.605   1.327
 3428SOL     OW11182   4.976   5.103   5.446
 3428SOL    HW111183   4.986   5.177   5.380
 3428SOL    HW211184   5.001   5.136   5.537
 3429SOL     OW11185   0.519   0.624   1.134
 3429SOL    HW111186   0.515   0.712   1.182
 3429SOL    HW211187   0.572   0.634   1.050
 3430SOL     OW11188   2.134   4.696   5.682
 3430SOL    HW111189   2.162   4.782   5.724
 3430SOL    HW211190   2.194   4.623   5.714
 3431SOL     OW11191   2.089   6.574   2.403
 3431SOL    HW111192   2.075   6.522   2.488
 3431SOL    HW211193   2.137   6.517   2.337
 3432SOL     OW11194   2.154   4.964   6.586
 3432SOL    HW111195   2.227   4.969   6.654
 3432SOL    HW211196   2.157   5.046   6.528
 3433SOL     OW11197   2.540   0.776   6.817
 3433SOL    HW111198   2.598   0.838   6.764
 3433SOL    HW211199   2.583   0.757   6.905
 3434SOL     OW11200   2.722   2.259   1.844
 3434SOL    HW111201   2.783   2.286   1.918
 3434SOL    HW211202   2.713   2.335   1.779
 3435SOL     OW11203   2.320   0.912   0.433
 3435SOL    HW111204   2.257   0.882   0.506
 3435SOL    HW211205   2.268   0.935   0.351
 3436SOL     OW11206   4.214   5.418   0.093
 3436SOL    HW111207   4.218   5.319   0.103
 3436SOL    HW211208   4.147   5.442   0.023
 3437SOL     OW11209   1.537   6.711   6.135
 3437SOL    HW111210   1.523   6.617   6.166
 3437SOL    HW211211   1.536   6.714   6.035
 3438SOL     OW11212   0.498   3.456   1.487
 3438SOL    HW111213   0.535   3.394   1.555
 3438SOL    HW211214   0.407   3.487   1.515
 3439SOL     OW11215   2.239   5.865   2.930
 3439SOL    HW111216   2.303   5.889   3.003
 3439SOL    HW211217   2.251   5.769   2.905
 3440SOL     OW11218   3.851   2.942   5.012
 3440SOL    HW111219   3.844   2.927   5.111
 3440SOL    HW211220   3.942   2.915   4.981
 3441SOL     OW11221   6.572   5.973   6.163
 3441SOL    HW111222   6.559   5.876   6.144
 3441SOL    HW211223   6.666   5.999   6.143
 3442SOL     OW11224   3.275   4.192   1.460
 3442SOL    HW111225   3.272   4.200   1.560
 3442SOL    HW211226   3.185   4.212   1.423
 3443SOL     OW11227   3.013   6.069   2.724
 3443SOL    HW111228   2.990   5.987   2.672
 3443SOL    HW211229   2.930   6.117   2.752
 3444SOL     OW11230   5.186   4.586   1.562
 3444SOL    HW111231   5.257   4.515   1.560
 3444SOL    HW211232   5.096   4.542   1.558
 3445SOL     OW11233   6.692   4.774   4.117
 3445SOL    HW111234   6.628   4.742   4.047
 3445SOL    HW211235   6.643   4.786   4.203
 3446SOL     OW11236   5.506   0.225   2.008
 3446SOL    HW111237   5.510   0.160   1.932
 3446SOL    HW211238   5.448   0.189   2.081
 3447SOL     OW11239   5.278   0.402   0.183
 3447SOL    HW111240   5.329   0.427   0.265
 3447SOL    HW211241   5.342   0.380   0.109
 3448SOL     OW11242   1.907   6.624   5.467
 3448SOL    HW111243   1.953   6.540   5.497
 3448SOL    HW211244   1.879   6.613   5.372
 3449SOL     OW11245   5.903   5.431   4.980
 3449SOL    HW111246   5.925   5.526   4.959
 3449SOL    HW211247   5.987   5.378   4.989
 3450SOL     OW11248   1.343   0.081   6.576
 3450SOL    HW111249   1.381   7.017   6.601
 3450SOL    HW211250   1.379   0.108   6.486
 3451SOL     OW11251   1.709   5.809   0.477
 3451SOL    HW111252   1.781   5.836   0.412
 3451SOL    HW211253   1.678   5.717   0.456
 3452SOL     OW11254   5.521   0.835   5.425
 3452SOL    HW111255   5.564   0.924   5.408
 3452SOL    HW211256   5.499   0.792   5.337
 3453SOL     OW11257   5.372   6.542   6.093
 3453SOL    HW111258   5.466   6.564   6.070
 3453SOL    HW211259   5.348   6.452   6.057
 3454SOL     OW11260   1.538   3.115   2.732
 3454SOL    HW111261   1.466   3.070   2.784
 3454SOL    HW211262   1.505   3.202   2.697
 3455SOL     OW11263   1.656   2.622   4.705
 3455SOL    HW111264   1.723   2.695   4.721
 3455SOL    HW211265   1.680   2.543   4.762
 3456SOL     OW11266   4.504   4.547   1.924
 3456SOL    HW111267   4.586   4.595   1.891
 3456SOL    HW211268   4.529   4.457   1.958
 3457SOL     OW11269   3.915   5.233   4.697
 3457SOL    HW111270   3.879   5.295   4.628
 3457SOL    HW211271   3.941   5.146   4.654
 3458SOL     OW11272   4.371   1.678   2.405
 3458SOL    HW111273   4.459   1.633   2.393
 3458SOL    HW211274   4.330   1.648   2.492
 3459SOL     OW11275   4.334   1.273   2.876
 3459SOL    HW111276   4.361   1.179   2.851
 3459SOL    HW211277   4.261   1.304   2.816
 3460SOL     OW11278   3.519   1.643   5.611
 3460SOL    HW111279   3.434   1.592   5.605
 3460SOL    HW211280   3.502   1.739   5.586
 3461SOL     OW11281   5.550   5.090   6.538
 3461SOL    HW111282   5.497   5.147   6.474
 3461SOL    HW211283   5.492   5.063   6.615
 3462SOL     OW11284   2.138   3.638   6.529
 3462SOL    HW111285   2.094   3.684   6.607
 3462SOL    HW211286   2.236   3.632   6.546
 3463SOL     OW11287   0.005   3.983   0.666
 3463SOL    HW111288   0.023   4.080   0.678
 3463SOL    HW211289   0.049   3.931   0.739
 3464SOL     OW11290   0.279   4.488   6.697
 3464SOL    HW111291   0.275   4.496   6.597
 3464SOL    HW211292   0.357   4.431   6.722
 3465SOL     OW11293   2.193   1.431   1.370
 3465SOL    HW111294   2.142   1.516   1.361
 3465SOL    HW211295   2.171   1.370   1.293
 3466SOL     OW11296   0.154   4.962   5.867
 3466SOL    HW111297   0.217   4.992   5.938
 3466SOL    HW211298   0.116   4.873   5.891
 3467SOL     OW11299   1.982   2.156   6.676
 3467SOL    HW111300   2.018   2.118   6.761
 3467SOL    HW211301   1.913   2.095   6.638
 3468SOL     OW11302   2.641   5.706   3.753
 3468SOL    HW111303   2.594   5.794   3.751
 3468SOL    HW211304   2.574   5.633   3.766
 3469SOL     OW11305   6.948   2.319   4.042
 3469SOL    HW111306   6.851   2.294   4.040
 3469SOL    HW211307   6.967   2.372   4.124
 3470SOL     OW11308   0.514   4.971   1.589
 3470SOL    HW111309   0.492   4.982   1.686
 3470SOL    HW211310   0.506   5.060   1.544
 3471SOL     OW11311   4.567   5.747   5.338
 3471SOL    HW111312   4.504   5.814   5.377
 3471SOL    HW211313   4.567   5.755   5.238
 3472SOL     OW11314   2.475   1.177   4.443
 3472SOL    HW111315   2.438   1.123   4.519
 3472SOL    HW211316   2.408   1.180   4.369
 3473SOL     OW11317   5.476   1.814   5.684
 3473SOL    HW111318   5.420   1.791   5.605
 3473SOL    HW211319   5.524   1.733   5.717
 3474SOL     OW11320   3.378   4.857   2.131
 3474SOL    HW111321   3.422   4.865   2.041
 3474SOL    HW211322   3.368   4.760   2.154
 3475SOL     OW11323   0.878   6.539   4.077
 3475SOL    HW111324   0.960   6.591   4.103
 3475SOL    HW211325   0.797   6.596   4.091
 3476SOL     OW11326   4.437   0.900   4.742
 3476SOL    HW111327   4.449   0.858   4.832
 3476SOL    HW211328   4.403   0.994   4.754
 3477SOL     OW11329   3.800   6.022   0.795
 3477SOL    HW111330   3.823   5.960   0.871
 3477SOL    HW211331   3.711   5.998   0.758
 3478SOL     OW11332   3.166   6.044   6.000
 3478SOL    HW111333   3.194   6.114   5.936
 3478SOL    HW211334   3.087   6.076   6.053
 3479SOL     OW11335   0.455   0.601   2.471
 3479SOL    HW111336   0.541   0.624   2.425
 3479SOL    HW211337   0.412   0.685   2.504
 3480SOL     OW11338   6.658   1.734   3.908
 3480SOL    HW111339   6.631   1.673   3.833
 3480SOL    HW211340   6.754   1.716   3.933
 3481SOL     OW11341   3.226   6.765   6.614
 3481SOL    HW111342   3.240   6.672   6.648
 3481SOL    HW211343   3.308   6.796   6.566
 3482SOL     OW11344   6.079   1.783   1.529
 3482SOL    HW111345   6.133   1.851   1.579
 3482SOL    HW211346   6.116   1.692   1.546
 3483SOL     OW11347   2.319   0.674   1.598
 3483SOL    HW111348   2.264   0.592   1.612
 3483SOL    HW211349   2.262   0.746   1.559
 3484SOL     OW11350   3.246   3.013   3.277
 3484SOL    HW111351   3.211   2.923   3.252
 3484SOL    HW211352   3.264   3.015   3.376
 3485SOL     OW11353   2.155   1.622   4.875
 3485SOL    HW111354   2.127   1.678   4.797
 3485SOL    HW211355   2.166   1.527   4.846
 3486SOL     OW11356   4.087   1.427   1.555
 3486SOL    HW111357   4.091   1.510   1.611
 3486SOL    HW211358   4.166   1.425   1.493
 3487SOL     OW11359   5.705   1.329   6.668
 3487SOL    HW111360   5.613   1.368   6.666
 3487SOL    HW211361   5.770   1.395   6.630
 3488SOL     OW11362   6.216   3.428   4.521
 3488SOL    HW111363   6.260   3.404   4.434
 3488SOL    HW211364   6.166   3.349   4.555
 3489SOL     OW11365   2.993   6.839   0.618
 3489SOL    HW111366   3.000   6.938   0.631
 3489SOL    HW211367   2.902   6.808   0.648
 3490SOL     OW11368   5.300   4.137   0.201
 3490SOL    HW111369   5.282   4.083   0.119
 3490SOL    HW211370   5.390   4.181   0.193
 3491SOL     OW11371   0.197   2.817   5.482
 3491SOL    HW111372   0.104   2.848   5.460
 3491SOL    HW211373   0.213   2.826   5.580
 3492SOL     OW11374   0.657   5.745   6.768
 3492SOL    HW111375   0.732   5.799   6.730
 3492SOL    HW211376   0.693   5.659   6.804
 3493SOL     OW11377   6.065   4.710   1.174
 3493SOL    HW111378   6.114   4.787   1.133
 3493SOL    HW211379   6.090   4.703   1.271
 3494SOL     OW11380   3.799   0.142   1.158
 3494SOL    HW111381   3.854   0.221   1.187
 3494SOL    HW211382   3.845   0.058   1.187
 3495SOL     OW11383   4.316   5.470   2.190
 3495SOL    HW111384   4.236   5.472   2.130
 3495SOL    HW211385   4.294   5.418   2.273
 3496SOL     OW11386   1.697   3.137   1.183
 3496SOL    HW111387   1.754   3.069   1.137
 3496SOL    HW211388   1.740   3.163   1.270
 3497SOL     OW11389   4.345   0.809   3.248
 3497SOL    HW111390   4.315   0.850   3.334
 3497SOL    HW211391   4.292   0.848   3.172
 3498SOL     OW11392   3.081   1.397   1.189
 3498SOL    HW111393   3.103   1.400   1.091
 3498SOL    HW211394   2.986   1.426   1.203
 3499SOL     OW11395   0.280   3.374   3.672
 3499SOL    HW111396   0.188   3.405   3.697
 3499SOL    HW211397   0.289   3.375   3.572
 3500SOL     OW11398   6.633   3.792   6.308
 3500SOL    HW111399   6.548   3.798   6.257
 3500SOL    HW211400   6.694   3.726   6.264
 3501SOL     OW11401   0.918   4.898   5.163
 3501SOL    HW111402   0.977   4.971   5.200
 3501SOL    HW211403   0.958   4.809   5.185
 3502SOL     OW11404   0.691   1.650   1.648
 3502SOL    HW111405   0.768   1.657   1.585
 3502SOL    HW211406   0.714   1.585   1.720
 3503SOL     OW11407   4.714   5.634   5.784
 3503SOL    HW111408   4.809   5.659   5.802
 3503SOL    HW211409   4.690   5.553   5.838
 3504SOL     OW11410   2.937   3.519   1.253
 3504SOL    HW111411   2.944   3.568   1.340
 3504SOL    HW211412   2.853   3.546   1.206
 3505SOL     OW11413   5.520   6.205   5.259
 3505SOL    HW111414   5.492   6.117   5.298
 3505SOL    HW211415   5.439   6.258   5.236
 3506SOL     OW11416   4.255   5.385   4.515
 3506SOL    HW111417   4.267   5.361   4.611
 3506SOL    HW211418   4.175   5.444   4.505
 3507SOL     OW11419   1.187   0.297   6.240
 3507SOL    HW111420   1.192   0.397   6.242
 3507SOL    HW211421   1.278   0.260   6.221
 3508SOL     OW11422   5.317   2.728   0.507
 3508SOL    HW111423   5.257   2.664   0.460
 3508SOL    HW211424   5.369   2.680   0.578
 3509SOL     OW11425   6.003   6.008   6.778
 3509SOL    HW111426   5.984   6.058   6.693
 3509SOL    HW211427   5.961   6.056   6.855
 3510SOL     OW11428   2.149   2.166   1.597
 3510SOL    HW111429   2.182   2.260   1.609
 3510SOL    HW211430   2.061   2.156   1.644
 3511SOL     OW11431   1.034   3.216   6.810
 3511SOL    HW111432   0.951   3.222   6.755
 3511SOL    HW211433   1.021   3.150   6.884
 3512SOL     OW11434   1.654   3.405   0.449
 3512SOL    HW111435   1.669   3.353   0.365
 3512SOL    HW211436   1.649   3.503   0.427
 3513SOL     OW11437   6.355   4.291   0.540
 3513SOL    HW111438   6.294   4.348   0.485
 3513SOL    HW211439   6.340   4.311   0.637
 3514SOL     OW11440   0.433   6.549   1.322
 3514SOL    HW111441   0.446   6.584   1.415
 3514SOL    HW211442   0.362   6.478   1.322
 3515SOL     OW11443   2.754   6.197   2.760
 3515SOL    HW111444   2.731   6.228   2.852
 3515SOL    HW211445   2.686   6.232   2.695
 3516SOL     OW11446   3.509   0.915   0.695
 3516SOL    HW111447   3.425   0.967   0.703
 3516SOL    HW211448   3.490   0.818   0.712
 3517SOL     OW11449   1.115   1.648   0.332
 3517SOL    HW111450   1.032   1.600   0.359
 3517SOL    HW211451   1.195   1.592   0.354
 3518SOL     OW11452   4.697   3.770   6.522
 3518SOL    HW111453   4.639   3.783   6.602
 3518SOL    HW211454   4.772   3.707   6.544
 3519SOL     OW11455   0.961   6.810   6.932
 3519SOL    HW111456   0.981   6.854   6.844
 3519SOL    HW211457   0.942   6.881   7.000
 3520SOL     OW11458   3.935   4.635   1.075
 3520SOL    HW111459   3.893   4.563   1.019
 3520SOL    HW211460   3.924   4.613   1.172
 3521SOL     OW11461   5.650   2.810   1.972
 3521SOL    HW111462   5.581   2.737   1.975
 3521SOL    HW211463   5.718   2.788   1.902
 3522SOL     OW11464   2.517   5.163   1.593
 3522SOL    HW111465   2.540   5.069   1.616
 3522SOL    HW211466   2.535   5.222   1.671
 3523SOL     OW11467   3.016   4.873   5.001
 3523SOL    HW111468   3.016   4.906   4.906
 3523SOL    HW211469   2.954   4.796   5.010
 3524SOL     OW11470   2.340   0.527   1.273
 3524SOL    HW111471   2.280   0.593   1.318
 3524SOL    HW211472   2.429   0.570   1.253
 3525SOL     OW11473   0.439   2.834   1.954
 3525SOL    HW111474   0.401   2.892   2.026
 3525SOL    HW211475   0.370   2.820   1.882
 3526SOL     OW11476   0.610   0.668   2.855
 3526SOL    HW111477   0.515   0.638   2.861
 3526SOL    HW211478   0.657   0.615   2.785
 3527SOL     OW11479   5.423   2.860   6.554
 3527SOL    HW111480   5.415   2.911   6.468
 3527SOL    HW211481   5.388   2.915   6.629
 3528SOL     OW11482   0.675   5.625   3.769
 3528SOL    HW111483   0.633   5.584   3.850
 3528SOL    HW211484   0.648   5.573   3.688
 3529SOL     OW11485   4.738   0.112   5.703
 3529SOL    HW111486   4.753   0.158   5.791
 3529SOL    HW211487   4.664   0.046   5.712
 3530SOL     OW11488   2.719   5.569   2.479
 3530SOL    HW111489   2.660   5.493   2.503
 3530SOL    HW211490   2.726   5.633   2.556
 3531SOL     OW11491   5.468   4.589   0.418
 3531SOL    HW111492   5.436   4.579   0.324
 3531SOL    HW211493   5.441   4.509   0.471
 3532SOL     OW11494   2.730   0.796   6.996
 3532SOL    HW111495   2.782   0.879   6.977
 3532SOL    HW211496   2.788   0.730   0.017
 3533SOL     OW11497   1.127   1.742   3.435
 3533SOL    HW111498   1.075   1.826   3.419
 3533SOL    HW211499   1.210   1.743   3.378
 3534SOL     OW11500   5.580   1.694   5.247
 3534SOL    HW111501   5.541   1.723   5.159
 3534SOL    HW211502   5.674   1.663   5.233
 3535SOL     OW11503   6.416   5.064   6.274
 3535SOL    HW111504   6.511   5.056   6.302
 3535SOL    HW211505   6.357   5.063   6.355
 3536SOL     OW11506   2.197   3.150   3.023
 3536SOL    HW111507   2.218   3.190   3.112
 3536SOL    HW211508   2.184   3.223   2.955
 3537SOL     OW11509   2.468   5.850   0.612
 3537SOL    HW111510   2.495   5.946   0.602
 3537SOL    HW211511   2.430   5.817   0.525
 3538SOL     OW11512   3.053   6.655   2.654
 3538SOL    HW111513   3.105   6.737   2.680
 3538SOL    HW211514   3.115   6.576   2.650
 3539SOL     OW11515   5.857   4.742   5.804
 3539SOL    HW111516   5.870   4.791   5.890
 3539SOL    HW211517   5.876   4.644   5.818
 3540SOL     OW11518   2.075   2.995   6.772
 3540SOL    HW111519   2.158   3.050   6.773
 3540SOL    HW211520   2.010   3.030   6.839
 3541SOL     OW11521   2.749   3.358   0.866
 3541SOL    HW111522   2.659   3.317   0.883
 3541SOL    HW211523   2.783   3.327   0.778
 3542SOL     OW11524   5.473   2.824   0.167
 3542SOL    HW111525   5.542   2.849   0.100
 3542SOL    HW211526   5.383   2.822   0.124
 3543SOL     OW11527   1.768   3.145   2.885
 3543SOL    HW111528   1.766   3.245   2.887
 3543SOL    HW211529   1.686   3.111   2.840
 3544SOL     OW11530   2.858   4.116   6.585
 3544SOL    HW111531   2.883   4.034   6.533
 3544SOL    HW211532   2.932   4.139   6.648
 3545SOL     OW11533   3.511   5.935   0.741
 3545SOL    HW111534   3.436   5.927   0.676
 3545SOL    HW211535   3.489   5.882   0.823
 3546SOL     OW11536   6.355   3.660   3.068
 3546SOL    HW111537   6.433   3.598   3.070
 3546SOL    HW211538   6.379   3.742   3.015
 3547SOL     OW11539   0.120   3.133   5.468
 3547SOL    HW111540   0.060   3.053   5.472
 3547SOL    HW211541   0.164   3.138   5.378
 3548SOL     OW11542   4.846   1.615   6.377
 3548SOL    HW111543   4.872   1.705   6.342
 3548SOL    HW211544   4.843   1.550   6.301
 3549SOL     OW11545   2.132   5.992   6.594
 3549SOL    HW111546   2.172   6.053   6.663
 3549SOL    HW211547   2.042   5.961   6.625
 3550SOL     OW11548   5.131   2.076   5.035
 3550SOL    HW111549   5.086   2.151   4.989
 3550SOL    HW211550   5.192   2.028   4.971
 3551SOL     OW11551   3.886   2.406   5.740
 3551SOL    HW111552   3.866   2.441   5.649
 3551SOL    HW211553   3.800   2.389   5.789
 3552SOL     OW11554   7.017   5.919   1.667
 3552SOL    HW111555   6.926   5.908   1.628
 3552SOL    HW211556   0.017   5.836   1.717
 3553SOL     OW11557   4.015   5.983   5.888
 3553SOL    HW111558   4.020   6.044   5.967
 3553SOL    HW211559   4.007   6.037   5.804
 3554SOL     OW11560   4.087   3.889   1.091
 3554SOL    HW111561   4.144   3.960   1.132
 3554SOL    HW211562   4.141   3.836   1.026
 3555SOL     OW11563   1.830   2.209   3.882
 3555SOL    HW111564   1.743   2.235   3.841
 3555SOL    HW211565   1.813   2.147   3.959
 3556SOL     OW11566   3.675   1.030   5.170
 3556SOL    HW111567   3.643   1.058   5.260
 3556SOL    HW211568   3.683   1.110   5.111
 3557SOL     OW11569   0.194   0.496   2.422
 3557SOL    HW111570   0.195   0.409   2.471
 3557SOL    HW211571   0.284   0.539   2.428
 3558SOL     OW11572   2.995   6.375   0.255
 3558SOL    HW111573   3.005   6.375   0.355
 3558SOL    HW211574   2.962   6.464   0.225
 3559SOL     OW11575   3.964   6.547   4.662
 3559SOL    HW111576   3.978   6.538   4.761
 3559SOL    HW211577   3.867   6.568   4.645
 3560SOL     OW11578   2.147   5.431   5.140
 3560SOL    HW111579   2.074   5.390   5.194
 3560SOL    HW211580   2.163   5.377   5.058
 3561SOL     OW11581   4.790   4.626   5.138
 3561SOL    HW111582   4.693   4.631   5.164
 3561SOL    HW211583   4.812   4.533   5.110
 3562SOL     OW11584   2.538   1.565   4.707
 3562SOL    HW111585   2.563   1.469   4.699
 3562SOL    HW211586   2.619   1.619   4.731
 3563SOL     OW11587   6.026   2.170   5.943
 3563SOL    HW111588   5.985   2.261   5.936
 3563SOL    HW211589   5.963   2.102   5.906
 3564SOL     OW11590   0.002   4.152   2.606
 3564SOL    HW111591   6.939   4.141   2.562
 3564SOL    HW211592   7.017   4.207   2.689
 3565SOL     OW11593   3.419   5.408   3.206
 3565SOL    HW111594   3.469   5.326   3.231
 3565SOL    HW211595   3.473   5.462   3.141
 3566SOL     OW11596   6.911   1.346   5.202
 3566SOL    HW111597   6.861   1.406   5.264
 3566SOL    HW211598   6.981   1.399   5.154
 3567SOL     OW11599   0.752   3.729   6.962
 3567SOL    HW111600   0.699   3.722   0.022
 3567SOL    HW211601   0.713   3.801   6.905
 3568SOL     OW11602   6.865   3.787   5.690
 3568SOL    HW111603   6.890   3.868   5.638
 3568SOL    HW211604   6.924   3.711   5.664
 3569SOL     OW11605   2.665   1.692   5.772
 3569SOL    HW111606   2.629   1.785   5.781
 3569SOL    HW211607   2.602   1.627   5.814
 3570SOL     OW11608   5.546   0.835   4.111
 3570SOL    HW111609   5.545   0.926   4.069
 3570SOL    HW211610   5.507   0.840   4.202
 3571SOL     OW11611   6.740   5.805   6.528
 3571SOL    HW111612   6.690   5.782   6.445
 3571SOL    HW211613   6.710   5.894   6.561
 3572SOL     OW11614   5.462   3.861   3.913
 3572SOL    HW111615   5.496   3.837   3.822
 3572SOL    HW211616   5.401   3.789   3.946
 3573SOL     OW11617   0.588   4.174   4.156
 3573SOL    HW111618   0.637   4.247   4.107
 3573SOL    HW211619   0.621   4.085   4.124
 3574SOL     OW11620   0.537   5.165   0.424
 3574SOL    HW111621   0.566   5.256   0.393
 3574SOL    HW211622   0.444   5.148   0.392
 3575SOL     OW11623   5.854   5.459   3.209
 3575SOL    HW111624   5.875   5.384   3.147
 3575SOL    HW211625   5.872   5.430   3.303
 3576SOL     OW11626   1.375   1.323   6.076
 3576SOL    HW111627   1.292   1.306   6.022
 3576SOL    HW211628   1.430   1.240   6.080
 3577SOL     OW11629   0.811   2.591   6.674
 3577SOL    HW111630   0.874   2.530   6.624
 3577SOL    HW211631   0.726   2.542   6.692
 3578SOL     OW11632   3.560   3.984   6.660
 3578SOL    HW111633   3.575   4.081   6.682
 3578SOL    HW211634   3.640   3.948   6.612
 3579SOL     OW11635   6.616   3.834   5.155
 3579SOL    HW111636   6.660   3.917   5.121
 3579SOL    HW211637   6.670   3.795   5.229
 3580SOL     OW11638   5.674   2.166   1.604
 3580SOL    HW111639   5.752   2.108   1.628
 3580SOL    HW211640   5.702   2.232   1.534
 3581SOL     OW11641   6.756   0.078   3.249
 3581SOL    HW111642   6.825   0.007   3.261
 3581SOL    HW211643   6.704   0.061   3.166
 3582SOL     OW11644   1.283   1.777   5.719
 3582SOL    HW111645   1.260   1.701   5.780
 3582SOL    HW211646   1.324   1.851   5.773
 3583SOL     OW11647   0.889   4.438   0.043
 3583SOL    HW111648   0.845   4.438   0.133
 3583SOL    HW211649   0.921   4.346   0.021
 3584SOL     OW11650   6.070   6.260   6.346
 3584SOL    HW111651   6.045   6.325   6.275
 3584SOL    HW211652   6.162   6.281   6.379
 3585SOL     OW11653   3.870   5.065   4.960
 3585SOL    HW111654   3.805   5.015   4.903
 3585SOL    HW211655   3.913   5.137   4.906
 3586SOL     OW11656   6.006   2.848   5.593
 3586SOL    HW111657   5.966   2.927   5.640
 3586SOL    HW211658   5.989   2.765   5.647
 3587SOL     OW11659   2.881   6.705   1.272
 3587SOL    HW111660   2.793   6.693   1.228
 3587SOL    HW211661   2.899   6.628   1.333
 3588SOL     OW11662   1.442   2.088   5.405
 3588SOL    HW111663   1.435   2.014   5.472
 3588SOL    HW211664   1.440   2.176   5.452
 3589SOL     OW11665   3.611   0.869   4.313
 3589SOL    HW111666   3.646   0.920   4.391
 3589SOL    HW211667   3.584   0.932   4.241
 3590SOL     OW11668   0.957   4.701   6.443
 3590SOL    HW111669   0.878   4.700   6.504
 3590SOL    HW211670   0.927   4.723   6.350
 3591SOL     OW11671   5.748   3.088   6.223
 3591SOL    HW111672   5.681   3.156   6.253
 3591SOL    HW211673   5.769   3.026   6.299
 3592SOL     OW11674   5.204   2.897   3.040
 3592SOL    HW111675   5.130   2.830   3.050
 3592SOL    HW211676   5.258   2.876   2.958
 3593SOL     OW11677   2.738   6.408   4.576
 3593SOL    HW111678   2.825   6.379   4.536
 3593SOL    HW211679   2.747   6.502   4.610
 3594SOL     OW11680   3.326   0.902   3.232
 3594SOL    HW111681   3.315   0.976   3.297
 3594SOL    HW211682   3.364   0.822   3.278
 3595SOL     OW11683   2.796   6.479   5.231
 3595SOL    HW111684   2.895   6.494   5.228
 3595SOL    HW211685   2.751   6.548   5.174
 3596SOL     OW11686   6.316   0.910   2.848
 3596SOL    HW111687   6.233   0.863   2.818
 3596SOL    HW211688   6.354   0.962   2.772
 3597SOL     OW11689   3.583   6.215   4.354
 3597SOL    HW111690   3.487   6.241   4.362
 3597SOL    HW211691   3.592   6.144   4.284
 3598SOL     OW11692   0.790   0.738   5.432
 3598SOL    HW111693   0.793   0.787   5.520
 3598SOL    HW211694   0.738   0.654   5.443
 3599SOL     OW11695   0.816   1.743   6.004
 3599SOL    HW111696   0.800   1.817   5.939
 3599SOL    HW211697   0.900   1.695   5.981
 3600SOL     OW11698   6.785   3.003   0.744
 3600SOL    HW111699   6.766   3.058   0.825
 3600SOL    HW211700   6.881   3.014   0.718
 3601SOL     OW11701   6.858   4.356   0.610
 3601SOL    HW111702   6.926   4.317   0.672
 3601SOL    HW211703   6.787   4.288   0.592
 3602SOL     OW11704   2.192   0.833   0.675
 3602SOL    HW111705   2.106   0.818   0.724
 3602SOL    HW211706   2.234   0.744   0.655
 3603SOL     OW11707   4.170   5.789   4.001
 3603SOL    HW111708   4.264   5.824   3.996
 3603SOL    HW211709   4.132   5.809   4.091
 3604SOL     OW11710   6.858   3.168   2.721
 3604SOL    HW111711   6.848   3.266   2.702
 3604SOL    HW211712   6.892   3.122   2.639
 3605SOL     OW11713   6.676   4.518   5.943
 3605SOL    HW111714   6.710   4.424   5.950
 3605SOL    HW211715   6.701   4.569   6.025
 3606SOL     OW11716   0.295   5.200   5.981
 3606SOL    HW111717   0.296   5.264   6.057
 3606SOL    HW211718   0.287   5.250   5.895
 3607SOL     OW11719   5.224   0.309   0.564
 3607SOL    HW111720   5.230   0.356   0.652
 3607SOL    HW211721   5.285   0.353   0.498
 3608SOL     OW11722   6.819   1.615   1.919
 3608SOL    HW111723   6.847   1.558   1.996
 3608SOL    HW211724   6.719   1.615   1.913
 3609SOL     OW11725   6.390   0.874   4.283
 3609SOL    HW111726   6.385   0.951   4.347
 3609SOL    HW211727   6.369   0.905   4.191
 3610SOL     OW11728   0.349   0.388   4.915
 3610SOL    HW111729   0.429   0.428   4.958
 3610SOL    HW211730   0.330   0.434   4.829
 3611SOL     OW11731   3.730   4.954   5.191
 3611SOL    HW111732   3.723   4.992   5.099
 3611SOL    HW211733   3.781   4.868   5.188
 3612SOL     OW11734   0.695   6.441   6.203
 3612SOL    HW111735   0.605   6.486   6.192
 3612SOL    HW211736   0.683   6.342   6.202
 3613SOL     OW11737   5.226   4.884   1.023
 3613SOL    HW111738   5.212   4.910   1.118
 3613SOL    HW211739   5.265   4.792   1.019
 3614SOL     OW11740   3.530   3.465   3.597
 3614SOL    HW111741   3.456   3.406   3.632
 3614SOL    HW211742   3.505   3.561   3.612
 3615SOL     OW11743   5.928   6.091   5.929
 3615SOL    HW111744   5.995   6.042   5.873
 3615SOL    HW211745   5.836   6.065   5.900
 3616SOL     OW11746   6.515   2.408   6.633
 3616SOL    HW111747   6.610   2.439   6.644
 3616SOL    HW211748   6.513   2.326   6.577
 3617SOL     OW11749   5.357   1.636   6.092
 3617SOL    HW111750   5.448   1.630   6.134
 3617SOL    HW211751   5.288   1.629   6.164
 3618SOL     OW11752   1.688   2.013   5.271
 3618SOL    HW111753   1.620   2.048   5.336
 3618SOL    HW211754   1.751   1.952   5.319
 3619SOL     OW11755   6.262   2.074   3.791
 3619SOL    HW111756   6.355   2.072   3.827
 3619SOL    HW211757   6.219   2.161   3.815
 3620SOL     OW11758   5.921   6.064   6.222
 3620SOL    HW111759   5.976   6.135   6.267
 3620SOL    HW211760   5.975   6.022   6.149
 3621SOL     OW11761   2.541   2.334   6.239
 3621SOL    HW111762   2.602   2.391   6.183
 3621SOL    HW211763   2.587   2.311   6.325
 3622SOL     OW11764   1.566   1.561   3.163
 3622SOL    HW111765   1.649   1.582   3.214
 3622SOL    HW211766   1.569   1.609   3.075
 3623SOL     OW11767   6.227   5.082   4.029
 3623SOL    HW111768   6.322   5.084   3.998
 3623SOL    HW211769   6.209   5.163   4.086
 3624SOL     OW11770   2.081   5.782   2.542
 3624SOL    HW111771   1.994   5.779   2.492
 3624SOL    HW211772   2.083   5.863   2.600
 3625SOL     OW11773   6.238   3.259   6.410
 3625SOL    HW111774   6.272   3.252   6.504
 3625SOL    HW211775   6.140   3.279   6.411
 3626SOL     OW11776   2.275   3.683   5.838
 3626SOL    HW111777   2.185   3.701   5.798
 3626SOL    HW211778   2.347   3.720   5.779
 3627SOL     OW11779   4.136   3.571   3.571
 3627SOL    HW111780   4.058   3.513   3.548
 3627SOL    HW211781   4.221   3.519   3.560
 3628SOL     OW11782   1.709   6.808   2.135
 3628SOL    HW111783   1.684   6.716   2.105
 3628SOL    HW211784   1.775   6.802   2.210
 3629SOL     OW11785   6.664   2.292   4.938
 3629SOL    HW111786   6.591   2.360   4.931
 3629SOL    HW211787   6.632   2.205   4.902
 3630SOL     OW11788   5.669   3.059   4.049
 3630SOL    HW111789   5.733   2.984   4.066
 3630SOL    HW211790   5.691   3.103   3.962
 3631SOL     OW11791   1.888   0.402   4.120
 3631SOL    HW111792   1.931   0.420   4.208
 3631SOL    HW211793   1.837   0.316   4.125
 3632SOL     OW11794   5.203   0.779   1.089
 3632SOL    HW111795   5.209   0.863   1.035
 3632SOL    HW211796   5.110   0.769   1.125
 3633SOL     OW11797   3.163   2.229   6.009
 3633SOL    HW111798   3.130   2.276   6.091
 3633SOL    HW211799   3.089   2.220   5.943
 3634SOL     OW11800   0.774   5.580   5.109
 3634SOL    HW111801   0.810   5.620   5.193
 3634SOL    HW211802   0.841   5.593   5.036
 3635SOL     OW11803   3.891   0.174   5.264
 3635SOL    HW111804   3.813   0.225   5.228
 3635SOL    HW211805   3.976   0.219   5.239
 3636SOL     OW11806   0.791   6.409   5.616
 3636SOL    HW111807   0.802   6.470   5.695
 3636SOL    HW211808   0.832   6.320   5.636
 3637SOL     OW11809   6.425   1.896   1.173
 3637SOL    HW111810   6.345   1.914   1.231
 3637SOL    HW211811   6.425   1.958   1.095
 3638SOL     OW11812   6.498   4.595   4.398
 3638SOL    HW111813   6.455   4.657   4.463
 3638SOL    HW211814   6.595   4.619   4.387
 3639SOL     OW11815   4.491   3.987   1.007
 3639SOL    HW111816   4.430   4.005   0.930
 3639SOL    HW211817   4.539   3.900   0.993
 3640SOL     OW11818   3.571   6.584   6.539
 3640SOL    HW111819   3.520   6.668   6.518
 3640SOL    HW211820   3.586   6.531   6.455
 3641SOL     OW11821   4.302   2.146   5.048
 3641SOL    HW111822   4.400   2.149   5.069
 3641SOL    HW211823   4.269   2.239   5.032
 3642SOL     OW11824   4.964   1.740   5.936
 3642SOL    HW111825   5.025   1.726   6.014
 3642SOL    HW211826   5.017   1.774   5.859
 3643SOL     OW11827   2.827   6.029   4.842
 3643SOL    HW111828   2.732   6.041   4.815
 3643SOL    HW211829   2.843   5.933   4.869
 3644SOL     OW11830   0.252   1.184   1.658
 3644SOL    HW111831   0.214   1.093   1.671
 3644SOL    HW211832   0.237   1.238   1.741
 3645SOL     OW11833   5.209   0.991   3.969
 3645SOL    HW111834   5.278   1.011   4.038
 3645SOL    HW211835   5.186   1.076   3.920
 3646SOL     OW11836   0.425   4.952   6.213
 3646SOL    HW111837   0.521   4.982   6.217
 3646SOL    HW211838   0.370   5.011   6.272
 3647SOL     OW11839   1.773   4.185   0.687
 3647SOL    HW111840   1.717   4.203   0.607
 3647SOL    HW211841   1.805   4.090   0.685
 3648SOL     OW11842   3.281   6.069   2.676
 3648SOL    HW111843   3.322   5.979   2.671
 3648SOL    HW211844   3.181   6.060   2.677
 3649SOL     OW11845   4.232   3.096   1.453
 3649SOL    HW111846   4.192   3.005   1.447
 3649SOL    HW211847   4.254   3.116   1.549
 3650SOL     OW11848   6.764   5.569   1.052
 3650SOL    HW111849   6.724   5.551   0.962
 3650SOL    HW211850   6.799   5.663   1.054
 3651SOL     OW11851   0.486   5.913   2.970
 3651SOL    HW111852   0.511   5.834   2.914
 3651SOL    HW211853   0.389   5.907   2.995
 3652SOL     OW11854   5.206   5.928   3.297
 3652SOL    HW111855   5.236   5.921   3.392
 3652SOL    HW211856   5.106   5.928   3.295
 3653SOL     OW11857   6.640   0.672   3.509
 3653SOL    HW111858   6.713   0.657   3.576
 3653SOL    HW211859   6.584   0.749   3.537
 3654SOL     OW11860   1.847   7.017   6.979
 3654SOL    HW111861   1.905   0.041   6.913
 3654SOL    HW211862   1.874   6.921   6.983
 3655SOL     OW11863   1.107   6.920   3.933
 3655SOL    HW111864   1.045   6.860   3.882
 3655SOL    HW211865   1.066   7.011   3.941
 3656SOL     OW11866   1.823   3.136   1.475
 3656SOL    HW111867   1.800   3.233   1.487
 3656SOL    HW211868   1.909   3.117   1.523
 3657SOL     OW11869   4.997   5.744   5.828
 3657SOL    HW111870   4.966   5.760   5.921
 3657SOL    HW211871   5.067   5.672   5.828
 3658SOL     OW11872   1.446   5.533   4.085
 3658SOL    HW111873   1.499   5.503   4.006
 3658SOL    HW211874   1.387   5.458   4.116
 3659SOL     OW11875   3.118   3.533   5.652
 3659SOL    HW111876   3.166   3.485   5.578
 3659SOL    HW211877   3.179   3.542   5.731
 3660SOL     OW11878   4.949   6.190   2.075
 3660SOL    HW111879   4.967   6.201   2.172
 3660SOL    HW211880   5.020   6.132   2.035
 3661SOL     OW11881   4.648   2.272   6.377
 3661SOL    HW111882   4.706   2.258   6.457
 3661SOL    HW211883   4.705   2.289   6.297
 3662SOL     OW11884   3.334   0.777   3.855
 3662SOL    HW111885   3.255   0.719   3.871
 3662SOL    HW211886   3.304   0.864   3.816
 3663SOL     OW11887   1.656   1.388   0.306
 3663SOL    HW111888   1.629   1.463   0.366
 3663SOL    HW211889   1.626   1.301   0.345
 3664SOL     OW11890   4.824   2.135   1.465
 3664SOL    HW111891   4.860   2.100   1.551
 3664SOL    HW211892   4.897   2.184   1.416
 3665SOL     OW11893   0.672   6.240   5.408
 3665SOL    HW111894   0.728   6.259   5.488
 3665SOL    HW211895   0.672   6.320   5.347
 3666SOL     OW11896   2.196   4.071   3.338
 3666SOL    HW111897   2.184   4.041   3.432
 3666SOL    HW211898   2.116   4.124   3.310
 3667SOL     OW11899   6.478   0.267   0.340
 3667SOL    HW111900   6.500   0.322   0.420
 3667SOL    HW211901   6.546   0.284   0.268
 3668SOL     OW11902   1.472   0.291   1.611
 3668SOL    HW111903   1.464   0.214   1.674
 3668SOL    HW211904   1.485   0.256   1.518
 3669SOL     OW11905   5.971   1.199   4.749
 3669SOL    HW111906   5.979   1.274   4.815
 3669SOL    HW211907   5.983   1.111   4.795
 3670SOL     OW11908   2.053   4.927   0.531
 3670SOL    HW111909   2.043   5.020   0.494
 3670SOL    HW211910   1.980   4.909   0.597
 3671SOL     OW11911   5.990   0.411   3.611
 3671SOL    HW111912   5.991   0.314   3.633
 3671SOL    HW211913   5.903   0.435   3.568
 3672SOL     OW11914   5.606   1.462   0.999
 3672SOL    HW111915   5.626   1.366   1.018
 3672SOL    HW211916   5.649   1.519   1.069
 3673SOL     OW11917   3.195   0.532   5.987
 3673SOL    HW111918   3.100   0.557   5.968
 3673SOL    HW211919   3.252   0.555   5.909
 3674SOL     OW11920   0.348   0.482   5.773
 3674SOL    HW111921   0.385   0.507   5.862
 3674SOL    HW211922   0.248   0.494   5.774
 3675SOL     OW11923   1.985   2.860   5.075
 3675SOL    HW111924   2.040   2.833   5.154
 3675SOL    HW211925   1.906   2.913   5.105
 3676SOL     OW11926   4.511   4.622   4.287
 3676SOL    HW111927   4.435   4.683   4.263
 3676SOL    HW211928   4.518   4.616   4.387
 3677SOL     OW11929   1.105   6.299   3.050
 3677SOL    HW111930   1.020   6.253   3.076
 3677SOL    HW211931   1.161   6.237   2.996
 3678SOL     OW11932   1.068   3.153   4.068
 3678SOL    HW111933   1.016   3.234   4.039
 3678SOL    HW211934   1.005   3.084   4.102
 3679SOL     OW11935   1.163   0.839   2.842
 3679SOL    HW111936   1.225   0.888   2.904
 3679SOL    HW211937   1.075   0.886   2.839
 3680SOL     OW11938   5.834   2.683   3.359
 3680SOL    HW111939   5.735   2.684   3.342
 3680SOL    HW211940   5.860   2.768   3.405
 3681SOL     OW11941   0.179   0.582   5.263
 3681SOL    HW111942   0.268   0.624   5.243
 3681SOL    HW211943   0.194   0.494   5.308
 3682SOL     OW11944   6.544   2.732   6.146
 3682SOL    HW111945   6.458   2.761   6.102
 3682SOL    HW211946   6.580   2.652   6.098
 3683SOL     OW11947   0.226   0.451   4.536
 3683SOL    HW111948   0.126   0.455   4.544
 3683SOL    HW211949   0.259   0.365   4.574
 3684SOL     OW11950   1.774   3.708   0.509
 3684SOL    HW111951   1.713   3.711   0.588
 3684SOL    HW211952   1.766   3.792   0.456
 3685SOL     OW11953   6.415   6.478   6.101
 3685SOL    HW111954   6.329   6.478   6.050
 3685SOL    HW211955   6.491   6.455   6.039
 3686SOL     OW11956   6.315   5.186   3.712
 3686SOL    HW111957   6.285   5.094   3.737
 3686SOL    HW211958   6.316   5.195   3.612
 3687SOL     OW11959   3.193   5.905   5.442
 3687SOL    HW111960   3.208   5.814   5.479
 3687SOL    HW211961   3.159   5.966   5.514
 3688SOL     OW11962   1.475   3.601   6.757
 3688SOL    HW111963   1.387   3.589   6.802
 3688SOL    HW211964   1.533   3.521   6.775
 3689SOL     OW11965   1.271   0.655   5.866
 3689SOL    HW111966   1.281   0.673   5.769
 3689SOL    HW211967   1.361   0.640   5.907
 3690SOL     OW11968   3.703   0.135   6.247
 3690SOL    HW111969   3.699   0.209   6.180
 3690SOL    HW211970   3.785   0.079   6.230
 3691SOL     OW11971   2.092   2.916   0.556
 3691SOL    HW111972   2.041   2.857   0.494
 3691SOL    HW211973   2.045   3.004   0.565
 3692SOL     OW11974   1.165   6.089   5.108
 3692SOL    HW111975   1.106   6.008   5.104
 3692SOL    HW211976   1.126   6.157   5.170
 3693SOL     OW11977   2.112   3.196   2.335
 3693SOL    HW111978   2.118   3.131   2.411
 3693SOL    HW211979   2.200   3.241   2.323
 3694SOL     OW11980   1.168   5.798   2.288
 3694SOL    HW111981   1.255   5.796   2.336
 3694SOL    HW211982   1.184   5.801   2.190
 3695SOL     OW11983   0.156   2.754   2.718
 3695SOL    HW111984   0.147   2.711   2.628
 3695SOL    HW211985   0.252   2.752   2.747
 3696SOL     OW11986   4.102   5.385   5.019
 3696SOL    HW111987   4.026   5.321   5.023
 3696SOL    HW211988   4.153   5.381   5.105
 3697SOL     OW11989   0.024   5.334   3.655
 3697SOL    HW111990   0.040   5.269   3.729
 3697SOL    HW211991   0.040   5.290   3.567
 3698SOL     OW11992   3.595   6.346   4.718
 3698SOL    HW111993   3.629   6.427   4.671
 3698SOL    HW211994   3.622   6.264   4.666
 3699SOL     OW11995   6.420   3.947   2.648
 3699SOL    HW111996   6.331   3.991   2.633
 3699SOL    HW211997   6.447   3.898   2.566
 3700SOL     OW11998   6.584   0.725   4.179
 3700SOL    HW111999   6.512   0.780   4.222
 3700SOL    HW212000   6.588   0.747   4.081
 3701SOL     OW12001   0.598   0.955   3.401
 3701SOL    HW112002   0.518   0.943   3.343
 3701SOL    HW212003   0.676   0.984   3.345
 3702SOL     OW12004   3.943   0.299   2.487
 3702SOL    HW112005   4.038   0.326   2.495
 3702SOL    HW212006   3.898   0.307   2.576
 3703SOL     OW12007   4.493   3.066   6.357
 3703SOL    HW112008   4.527   3.150   6.315
 3703SOL    HW212009   4.479   3.081   6.455
 3704SOL     OW12010   3.104   0.358   1.327
 3704SOL    HW112011   3.153   0.279   1.290
 3704SOL    HW212012   3.086   0.344   1.424
 3705SOL     OW12013   4.793   6.354   4.294
 3705SOL    HW112014   4.756   6.311   4.211
 3705SOL    HW212015   4.846   6.435   4.268
 3706SOL     OW12016   0.918   3.273   4.451
 3706SOL    HW112017   0.982   3.196   4.447
 3706SOL    HW212018   0.824   3.238   4.451
 3707SOL     OW12019   5.703   4.011   5.460
 3707SOL    HW112020   5.662   4.008   5.369
 3707SOL    HW212021   5.794   3.971   5.457
 3708SOL     OW12022   6.002   0.985   6.622
 3708SOL    HW112023   5.920   1.024   6.665
 3708SOL    HW212024   6.022   1.037   6.538
 3709SOL     OW12025   3.707   0.748   0.235
 3709SOL    HW112026   3.626   0.768   0.289
 3709SOL    HW212027   3.789   0.761   0.291
 3710SOL     OW12028   6.529   5.745   0.239
 3710SOL    HW112029   6.622   5.766   0.271
 3710SOL    HW212030   6.535   5.696   0.151
 3711SOL     OW12031   6.944   6.216   2.021
 3711SOL    HW112032   7.001   6.161   1.960
 3711SOL    HW212033   6.967   6.195   2.116
 3712SOL     OW12034   6.761   6.039   6.911
 3712SOL    HW112035   6.693   6.024   6.839
 3712SOL    HW212036   6.807   5.952   6.931
 3713SOL     OW12037   1.546   6.167   4.752
 3713SOL    HW112038   1.486   6.247   4.752
 3713SOL    HW212039   1.548   6.128   4.660
 3714SOL     OW12040   4.639   5.959   4.779
 3714SOL    HW112041   4.637   5.962   4.679
 3714SOL    HW212042   4.547   5.973   4.815
 3715SOL     OW12043   6.176   4.093   4.479
 3715SOL    HW112044   6.093   4.123   4.528
 3715SOL    HW212045   6.157   4.091   4.381
 3716SOL     OW12046   6.274   0.042   5.167
 3716SOL    HW112047   6.230   0.102   5.099
 3716SOL    HW212048   6.355   0.001   5.127
 3717SOL     OW12049   6.234   4.998   6.454
 3717SOL    HW112050   6.204   4.967   6.544
 3717SOL    HW212051   6.160   5.049   6.410
 3718SOL     OW12052   2.443   6.727   5.371
 3718SOL    HW112053   2.381   6.704   5.295
 3718SOL    HW212054   2.538   6.721   5.340
 3719SOL     OW12055   5.065   4.428   0.743
 3719SOL    HW112056   5.125   4.348   0.740
 3719SOL    HW212057   5.105   4.501   0.687
 3720SOL     OW12058   5.330   2.087   5.879
 3720SOL    HW112059   5.283   2.022   5.938
 3720SOL    HW212060   5.424   2.057   5.864
 3721SOL     OW12061   5.145   4.641   0.589
 3721SOL    HW112062   5.214   4.705   0.556
 3721SOL    HW212063   5.074   4.692   0.638
 3722SOL     OW12064   6.951   0.207   2.325
 3722SOL    HW112065   6.982   0.113   2.317
 3722SOL    HW212066   6.878   0.224   2.259
 3723SOL     OW12067   6.699   6.201   1.626
 3723SOL    HW112068   6.729   6.245   1.711
 3723SOL    HW212069   6.662   6.271   1.565
 3724SOL     OW12070   2.577   5.292   6.757
 3724SOL    HW112071   2.531   5.381   6.745
 3724SOL    HW212072   2.592   5.251   6.667
 3725SOL     OW12073   5.163   6.288   0.242
 3725SOL    HW112074   5.159   6.388   0.244
 3725SOL    HW212075   5.174   6.254   0.336
 3726SOL     OW12076   6.468   4.847   1.321
 3726SOL    HW112077   6.378   4.856   1.363
 3726SOL    HW212078   6.459   4.848   1.221
 3727SOL     OW12079   6.942   3.000   5.717
 3727SOL    HW112080   6.930   3.042   5.807
 3727SOL    HW212081   0.004   2.950   5.715
 3728SOL     OW12082   1.842   3.824   7.015
 3728SOL    HW112083   1.909   3.762   0.030
 3728SOL    HW212084   1.812   3.788   6.927
 3729SOL     OW12085   1.340   2.499   3.554
 3729SOL    HW112086   1.437   2.473   3.557
 3729SOL    HW212087   1.332   2.593   3.523
 3730SOL     OW12088   2.951   5.977   6.611
 3730SOL    HW112089   2.971   5.932   6.698
 3730SOL    HW212090   3.008   5.937   6.539
 3731SOL     OW12091   4.396   0.005   0.459
 3731SOL    HW112092   4.400   6.971   0.378
 3731SOL    HW212093   4.476   7.012   0.517
 3732SOL     OW12094   1.555   3.111   7.013
 3732SOL    HW112095   1.480   3.172   6.989
 3732SOL    HW212096   1.546   3.025   6.962
 3733SOL     OW12097   1.413   3.818   0.963
 3733SOL    HW112098   1.319   3.795   0.938
 3733SOL    HW212099   1.424   3.918   0.966
 3734SOL     OW12100   4.275   1.519   1.910
 3734SOL    HW112101   4.208   1.589   1.935
 3734SOL    HW212102   4.231   1.429   1.912
 3735SOL     OW12103   1.694   1.848   3.505
 3735SOL    HW112104   1.770   1.885   3.558
 3735SOL    HW212105   1.684   1.900   3.420
 3736SOL     OW12106   0.075   3.274   0.679
 3736SOL    HW112107   7.019   3.305   0.630
 3736SOL    HW212108   0.055   3.188   0.726
 3737SOL     OW12109   5.523   0.266   2.967
 3737SOL    HW112110   5.546   0.305   3.057
 3737SOL    HW212111   5.515   0.167   2.974
 3738SOL     OW12112   6.736   6.224   3.387
 3738SOL    HW112113   6.666   6.233   3.458
 3738SOL    HW212114   6.793   6.306   3.385
 3739SOL     OW12115   1.769   4.789   2.072
 3739SOL    HW112116   1.680   4.749   2.051
 3739SOL    HW212117   1.841   4.731   2.034
 3740SOL     OW12118   4.645   0.121   0.251
 3740SOL    HW112119   4.617   0.026   0.235
 3740SOL    HW212120   4.590   0.182   0.194
 3741SOL     OW12121   4.626   3.238   1.618
 3741SOL    HW112122   4.621   3.333   1.648
 3741SOL    HW212123   4.650   3.179   1.695
 3742SOL     OW12124   2.712   1.963   5.173
 3742SOL    HW112125   2.619   1.949   5.207
 3742SOL    HW212126   2.771   1.990   5.248
 3743SOL     OW12127   5.460   4.377   1.068
 3743SOL    HW112128   5.503   4.315   1.002
 3743SOL    HW212129   5.531   4.416   1.127
 3744SOL     OW12130   0.878   5.764   3.062
 3744SOL    HW112131   0.789   5.734   3.097
 3744SOL    HW212132   0.931   5.805   3.137
 3745SOL     OW12133   3.474   5.427   2.220
 3745SOL    HW112134   3.376   5.417   2.235
 3745SOL    HW212135   3.494   5.421   2.122
 3746SOL     OW12136   4.303   1.318   2.191
 3746SOL    HW112137   4.367   1.346   2.119
 3746SOL    HW212138   4.218   1.369   2.182
 3747SOL     OW12139   3.517   0.157   5.937
 3747SOL    HW112140   3.441   0.103   5.900
 3747SOL    HW212141   3.561   0.208   5.863
 3748SOL     OW12142   5.073   0.676   1.908
 3748SOL    HW112143   5.166   0.640   1.904
 3748SOL    HW212144   5.010   0.612   1.866
 3749SOL     OW12145   1.397   6.412   3.847
 3749SOL    HW112146   1.430   6.427   3.940
 3749SOL    HW212147   1.347   6.493   3.816
 3750SOL     OW12148   2.151   4.110   0.188
 3750SOL    HW112149   2.169   4.206   0.167
 3750SOL    HW212150   2.215   4.079   0.259
 3751SOL     OW12151   6.489   3.720   2.395
 3751SOL    HW112152   6.491   3.634   2.345
 3751SOL    HW212153   6.425   3.783   2.351
 3752SOL     OW12154   4.916   1.052   5.304
 3752SOL    HW112155   4.837   1.087   5.253
 3752SOL    HW212156   4.887   0.975   5.360
 3753SOL     OW12157   6.004   0.312   5.001
 3753SOL    HW112158   5.949   0.242   5.047
 3753SOL    HW212159   5.981   0.312   4.903
 3754SOL     OW12160   2.088   1.069   2.057
 3754SOL    HW112161   2.178   1.102   2.028
 3754SOL    HW212162   2.036   1.039   1.977
 3755SOL     OW12163   3.420   5.847   4.680
 3755SOL    HW112164   3.437   5.932   4.629
 3755SOL    HW212165   3.345   5.862   4.745
 3756SOL     OW12166   3.200   5.427   6.671
 3756SOL    HW112167   3.133   5.354   6.683
 3756SOL    HW212168   3.155   5.509   6.636
 3757SOL     OW12169   6.407   5.176   1.761
 3757SOL    HW112170   6.450   5.177   1.852
 3757SOL    HW212171   6.331   5.111   1.760
 3758SOL     OW12172   2.252   1.384   4.717
 3758SOL    HW112173   2.264   1.292   4.680
 3758SOL    HW212174   2.319   1.400   4.790
 3759SOL     OW12175   4.062   1.059   5.290
 3759SOL    HW112176   4.153   1.026   5.267
 3759SOL    HW212177   4.004   0.982   5.317
 3760SOL     OW12178   6.956   6.934   3.374
 3760SOL    HW112179   0.022   6.975   3.386
 3760SOL    HW212180   6.916   6.915   3.463
 3761SOL     OW12181   6.389   1.100   4.475
 3761SOL    HW112182   6.329   1.172   4.511
 3761SOL    HW212183   6.476   1.140   4.447
 3762SOL     OW12184   1.351   4.026   2.674
 3762SOL    HW112185   1.359   4.070   2.585
 3762SOL    HW212186   1.286   4.077   2.731
 3763SOL     OW12187   6.168   3.835   0.484
 3763SOL    HW112188   6.142   3.812   0.578
 3763SOL    HW212189   6.086   3.839   0.427
 3764SOL     OW12190   1.687   0.661   3.077
 3764SOL    HW112191   1.631   0.606   3.015
 3764SOL    HW212192   1.766   0.607   3.108
 3765SOL     OW12193   5.981   1.706   1.255
 3765SOL    HW112194   6.038   1.629   1.226
 3765SOL    HW212195   5.996   1.723   1.353
 3766SOL     OW12196   1.965   1.867   4.221
 3766SOL    HW112197   2.056   1.826   4.233
 3766SOL    HW212198   1.944   1.925   4.300
 3767SOL     OW12199   3.562   4.491   6.254
 3767SOL    HW112200   3.613   4.465   6.336
 3767SOL    HW212201   3.495   4.561   6.278
 3768SOL     OW12202   1.081   0.646   4.409
 3768SOL    HW112203   1.029   0.672   4.328
 3768SOL    HW212204   1.126   0.726   4.447
 3769SOL     OW12205   5.733   5.584   5.340
 3769SOL    HW112206   5.757   5.628   5.253
 3769SOL    HW212207   5.634   5.588   5.352
 3770SOL     OW12208   1.363   1.102   6.945
 3770SOL    HW112209   1.397   1.196   6.957
 3770SOL    HW212210   1.274   1.105   6.899
 3771SOL     OW12211   5.856   4.610   0.055
 3771SOL    HW112212   5.843   4.688   0.116
 3771SOL    HW212213   5.873   4.643   6.987
 3772SOL     OW12214   1.288   6.977   0.296
 3772SOL    HW112215   1.381   6.982   0.261
 3772SOL    HW212216   1.224   6.963   0.220
 3773SOL     OW12217   5.417   3.792   5.755
 3773SOL    HW112218   5.478   3.866   5.725
 3773SOL    HW212219   5.322   3.819   5.738
 3774SOL     OW12220   5.845   4.777   1.669
 3774SOL    HW112221   5.765   4.817   1.625
 3774SOL    HW212222   5.816   4.723   1.748
 3775SOL     OW12223   3.929   4.867   3.421
 3775SOL    HW112224   3.846   4.887   3.369
 3775SOL    HW212225   3.974   4.952   3.447
 3776SOL     OW12226   3.455   3.020   6.322
 3776SOL    HW112227   3.431   2.976   6.408
 3776SOL    HW212228   3.525   3.090   6.339
 3777SOL     OW12229   2.692   6.202   3.543
 3777SOL    HW112230   2.701   6.276   3.475
 3777SOL    HW212231   2.615   6.143   3.517
 3778SOL     OW12232   1.813   6.326   4.132
 3778SOL    HW112233   1.827   6.275   4.048
 3778SOL    HW212234   1.800   6.423   4.110
 3779SOL     OW12235   0.131   4.960   0.511
 3779SOL    HW112236   0.182   5.004   0.584
 3779SOL    HW212237   0.066   5.025   0.471
 3780SOL     OW12238   0.515   2.873   3.198
 3780SOL    HW112239   0.438   2.847   3.257
 3780SOL    HW212240   0.596   2.888   3.255
 3781SOL     OW12241   0.649   6.594   4.639
 3781SOL    HW112242   0.564   6.633   4.672
 3781SOL    HW212243   0.708   6.666   4.603
 3782SOL     OW12244   3.572   6.399   2.480
 3782SOL    HW112245   3.505   6.458   2.434
 3782SOL    HW212246   3.537   6.305   2.482
 3783SOL     OW12247   5.442   4.929   5.276
 3783SOL    HW112248   5.515   4.901   5.214
 3783SOL    HW212249   5.380   4.992   5.229
 3784SOL     OW12250   5.416   2.600   2.142
 3784SOL    HW112251   5.467   2.605   2.228
 3784SOL    HW212252   5.428   2.509   2.103
 3785SOL     OW12253   0.885   3.086   5.319
 3785SOL    HW112254   0.909   3.047   5.408
 3785SOL    HW212255   0.905   3.184   5.319
 3786SOL     OW12256   1.918   3.056   3.074
 3786SOL    HW112257   1.863   3.069   2.992
 3786SOL    HW212258   1.978   3.135   3.087
 3787SOL     OW12259   4.952   0.164   2.975
 3787SOL    HW112260   4.969   0.244   3.032
 3787SOL    HW212261   4.864   0.174   2.928
 3788SOL     OW12262   6.289   4.759   5.275
 3788SOL    HW112263   6.219   4.724   5.337
 3788SOL    HW212264   6.356   4.688   5.256
 3789SOL     OW12265   6.724   3.750   2.804
 3789SOL    HW112266   6.661   3.675   2.826
 3789SOL    HW212267   6.724   3.765   2.705
 3790SOL     OW12268   1.063   5.734   6.569
 3790SOL    HW112269   1.004   5.801   6.614
 3790SOL    HW212270   1.135   5.706   6.632
 3791SOL     OW12271   5.272   1.999   6.950
 3791SOL    HW112272   5.174   1.985   6.944
 3791SOL    HW212273   5.291   2.093   6.978
 3792SOL     OW12274   1.124   1.425   4.331
 3792SOL    HW112275   1.145   1.475   4.415
 3792SOL    HW212276   1.115   1.328   4.351
 3793SOL     OW12277   5.636   6.247   1.228
 3793SOL    HW112278   5.597   6.265   1.138
 3793SOL    HW212279   5.639   6.332   1.281
 3794SOL     OW12280   2.238   2.900   1.487
 3794SOL    HW112281   2.317   2.906   1.548
 3794SOL    HW212282   2.215   2.804   1.471
 3795SOL     OW12283   3.102   5.401   1.084
 3795SOL    HW112284   3.047   5.484   1.092
 3795SOL    HW212285   3.188   5.422   1.038
 3796SOL     OW12286   4.396   2.016   1.311
 3796SOL    HW112287   4.472   2.029   1.376
 3796SOL    HW212288   4.427   1.960   1.234
 3797SOL     OW12289   1.123   3.931   3.482
 3797SOL    HW112290   1.191   3.942   3.553
 3797SOL    HW212291   1.034   3.963   3.515
 3798SOL     OW12292   2.858   6.448   2.475
 3798SOL    HW112293   2.784   6.384   2.454
 3798SOL    HW212294   2.823   6.523   2.530
 3799SOL     OW12295   0.031   2.467   3.811
 3799SOL    HW112296   6.999   2.408   3.868
 3799SOL    HW212297   0.038   2.557   3.854
 3800SOL     OW12298   5.211   1.849   3.708
 3800SOL    HW112299   5.294   1.842   3.652
 3800SOL    HW212300   5.164   1.760   3.709
 3801SOL     OW12301   5.196   0.072   1.741
 3801SOL    HW112302   5.155   7.007   1.722
 3801SOL    HW212303   5.293   0.061   1.760
 3802SOL     OW12304   0.094   1.737   2.532
 3802SOL    HW112305   0.009   1.703   2.572
 3802SOL    HW212306   0.133   1.807   2.592
 3803SOL     OW12307   3.965   3.562   3.977
 3803SOL    HW112308   3.985   3.612   3.893
 3803SOL    HW212309   3.969   3.464   3.959
 3804SOL     OW12310   3.199   1.827   3.971
 3804SOL    HW112311   3.203   1.741   3.920
 3804SOL    HW212312   3.232   1.811   4.064
 3805SOL     OW12313   1.850   2.451   1.723
 3805SOL    HW112314   1.908   2.518   1.679
 3805SOL    HW212315   1.881   2.436   1.817
 3806SOL     OW12316   3.976   3.526   6.480
 3806SOL    HW112317   3.981   3.613   6.528
 3806SOL    HW212318   3.947   3.454   6.544
 3807SOL     OW12319   1.790   4.517   4.774
 3807SOL    HW112320   1.873   4.465   4.750
 3807SOL    HW212321   1.759   4.570   4.695
 3808SOL     OW12322   4.778   0.608   6.181
 3808SOL    HW112323   4.826   0.521   6.192
 3808SOL    HW212324   4.705   0.615   6.249
 3809SOL     OW12325   5.983   1.780   2.299
 3809SOL    HW112326   6.005   1.706   2.363
 3809SOL    HW212327   6.063   1.840   2.288
 3810SOL     OW12328   0.104   2.504   3.345
 3810SOL    HW112329   0.104   2.417   3.296
 3810SOL    HW212330   0.148   2.493   3.433
 3811SOL     OW12331   0.196   5.972   4.152
 3811SOL    HW112332   0.230   5.878   4.160
 3811SOL    HW212333   0.273   6.033   4.131
 3812SOL     OW12334   3.267   4.959   6.117
 3812SOL    HW112335   3.187   4.943   6.059
 3812SOL    HW212336   3.319   4.874   6.126
 3813SOL     OW12337   5.565   4.050   0.695
 3813SOL    HW112338   5.548   4.001   0.609
 3813SOL    HW212339   5.628   4.126   0.678
 3814SOL     OW12340   6.996   0.088   3.870
 3814SOL    HW112341   0.016   0.017   3.923
 3814SOL    HW212342   0.036   0.130   3.807
 3815SOL     OW12343   4.143   2.371   0.954
 3815SOL    HW112344   4.203   2.369   1.035
 3815SOL    HW212345   4.121   2.466   0.932
 3816SOL     OW12346   1.053   5.401   4.891
 3816SOL    HW112347   1.071   5.384   4.988
 3816SOL    HW212348   0.969   5.354   4.864
 3817SOL     OW12349   4.858   3.185   1.800
 3817SOL    HW112350   4.879   3.134   1.716
 3817SOL    HW212351   4.802   3.128   1.860
 3818SOL     OW12352   0.232   0.648   1.060
 3818SOL    HW112353   0.187   0.627   1.147
 3818SOL    HW212354   0.330   0.630   1.069
 3819SOL     OW12355   6.281   4.195   2.373
 3819SOL    HW112356   6.234   4.277   2.405
 3819SOL    HW212357   6.213   4.124   2.352
 3820SOL     OW12358   5.865   6.549   3.701
 3820SOL    HW112359   5.873   6.616   3.627
 3820SOL    HW212360   5.939   6.563   3.767
 3821SOL     OW12361   1.192   0.765   0.970
 3821SOL    HW112362   1.156   0.852   0.936
 3821SOL    HW212363   1.244   0.721   0.897
 3822SOL     OW12364   2.571   0.360   6.328
 3822SOL    HW112365   2.509   0.291   6.366
 3822SOL    HW212366   2.665   0.338   6.354
 3823SOL     OW12367   4.354   4.233   6.242
 3823SOL    HW112368   4.427   4.301   6.248
 3823SOL    HW212369   4.265   4.279   6.243
 3824SOL     OW12370   0.562   2.444   1.266
 3824SOL    HW112371   0.646   2.435   1.212
 3824SOL    HW212372   0.508   2.360   1.258
 3825SOL     OW12373   0.754   4.092   0.953
 3825SOL    HW112374   0.789   4.068   1.043
 3825SOL    HW212375   0.689   4.022   0.922
 3826SOL     OW12376   6.789   3.469   1.554
 3826SOL    HW112377   6.873   3.436   1.511
 3826SOL    HW212378   6.723   3.395   1.559
 3827SOL     OW12379   0.395   0.393   1.209
 3827SOL    HW112380   0.466   0.340   1.256
 3827SOL    HW212381   0.430   0.485   1.191
 3828SOL     OW12382   3.826   3.702   4.674
 3828SOL    HW112383   3.925   3.706   4.666
 3828SOL    HW212384   3.793   3.780   4.727
 3829SOL     OW12385   0.603   5.235   1.992
 3829SOL    HW112386   0.685   5.236   2.050
 3829SOL    HW212387   0.524   5.265   2.045
 3830SOL     OW12388   0.487   1.424   5.575
 3830SOL    HW112389   0.447   1.406   5.485
 3830SOL    HW212390   0.424   1.393   5.646
 3831SOL     OW12391   4.377   2.146   2.643
 3831SOL    HW112392   4.376   2.055   2.601
 3831SOL    HW212393   4.341   2.213   2.578
 3832SOL     OW12394   6.950   0.621   2.728
 3832SOL    HW112395   6.929   0.534   2.683
 3832SOL    HW212396   6.867   0.656   2.771
 3833SOL     OW12397   1.241   6.588   6.227
 3833SOL    HW112398   1.188   6.622   6.304
 3833SOL    HW212399   1.215   6.638   6.144
 3834SOL     OW12400   4.019   4.272   1.115
 3834SOL    HW112401   3.976   4.310   1.033
 3834SOL    HW212402   3.987   4.179   1.130
 3835SOL     OW12403   3.921   5.665   5.217
 3835SOL    HW112404   3.912   5.574   5.177
 3835SOL    HW212405   3.857   5.728   5.172
 3836SOL     OW12406   0.208   5.366   5.732
 3836SOL    HW112407   0.178   5.283   5.684
 3836SOL    HW212408   0.138   5.394   5.797
 3837SOL     OW12409   4.711   5.228   5.464
 3837SOL    HW112410   4.788   5.193   5.517
 3837SOL    HW212411   4.699   5.172   5.382
 3838SOL     OW12412   1.431   2.437   3.277
 3838SOL    HW112413   1.475   2.393   3.355
 3838SOL    HW212414   1.484   2.518   3.251
 3839SOL     OW12415   4.599   1.211   2.765
 3839SOL    HW112416   4.502   1.233   2.754
 3839SOL    HW212417   4.641   1.201   2.675
 3840SOL     OW12418   3.309   2.080   6.554
 3840SOL    HW112419   3.262   2.111   6.471
 3840SOL    HW212420   3.401   2.050   6.530
 3841SOL     OW12421   0.715   3.972   4.622
 3841SOL    HW112422   0.618   3.954   4.603
 3841SOL    HW212423   0.767   3.968   4.537
 3842SOL     OW12424   2.470   2.528   3.941
 3842SOL    HW112425   2.381   2.485   3.922
 3842SOL    HW212426   2.457   2.606   4.002
 3843SOL     OW12427   5.162   3.128   1.760
 3843SOL    HW112428   5.125   3.120   1.668
 3843SOL    HW212429   5.091   3.107   1.827
 3844SOL     OW12430   1.468   3.535   6.493
 3844SOL    HW112431   1.395   3.585   6.446
 3844SOL    HW212432   1.456   3.546   6.592
 3845SOL     OW12433   3.020   5.408   6.056
 3845SOL    HW112434   3.089   5.468   6.015
 3845SOL    HW212435   2.985   5.451   6.139
 3846SOL     OW12436   0.934   3.852   4.025
 3846SOL    HW112437   0.861   3.906   3.986
 3846SOL    HW212438   1.023   3.891   3.999
 3847SOL     OW12439   5.128   2.822   4.202
 3847SOL    HW112440   5.126   2.767   4.118
 3847SOL    HW212441   5.079   2.907   4.187
 3848SOL     OW12442   4.835   3.933   2.450
 3848SOL    HW112443   4.928   3.960   2.477
 3848SOL    HW212444   4.807   3.854   2.503
 3849SOL     OW12445   1.071   0.987   5.977
 3849SOL    HW112446   0.983   1.027   6.003
 3849SOL    HW212447   1.099   1.023   5.888
 3850SOL     OW12448   2.935   3.319   1.889
 3850SOL    HW112449   2.876   3.286   1.815
 3850SOL    HW212450   2.975   3.241   1.937
 3851SOL     OW12451   6.958   4.806   3.159
 3851SOL    HW112452   6.978   4.807   3.060
 3851SOL    HW212453   6.951   4.711   3.190
 3852SOL     OW12454   3.239   5.834   3.605
 3852SOL    HW112455   3.324   5.839   3.657
 3852SOL    HW212456   3.171   5.895   3.647
 3853SOL     OW12457   1.144   3.283   3.333
 3853SOL    HW112458   1.063   3.250   3.382
 3853SOL    HW212459   1.183   3.207   3.280
 3854SOL     OW12460   1.440   2.456   2.571
 3854SOL    HW112461   1.372   2.494   2.507
 3854SOL    HW212462   1.474   2.529   2.630
 3855SOL     OW12463   4.540   6.135   6.700
 3855SOL    HW112464   4.555   6.141   6.601
 3855SOL    HW212465   4.463   6.194   6.726
 3856SOL     OW12466   0.643   1.084   6.268
 3856SOL    HW112467   0.674   1.016   6.334
 3856SOL    HW212468   0.621   1.169   6.316
 3857SOL     OW12469   0.860   6.416   0.172
 3857SOL    HW112470   0.821   6.481   0.107
 3857SOL    HW212471   0.798   6.338   0.181
 3858SOL     OW12472   3.525   1.428   5.884
 3858SOL    HW112473   3.602   1.428   5.948
 3858SOL    HW212474   3.555   1.397   5.794
 3859SOL     OW12475   6.239   0.909   1.692
 3859SOL    HW112476   6.322   0.962   1.673
 3859SOL    HW212477   6.172   0.925   1.620
 3860SOL     OW12478   1.754   1.247   4.448
 3860SOL    HW112479   1.658   1.269   4.468
 3860SOL    HW212480   1.771   1.151   4.466
 3861SOL     OW12481   4.428   5.122   4.000
 3861SOL    HW112482   4.482   5.169   4.070
 3861SOL    HW212483   4.354   5.071   4.044
 3862SOL     OW12484   0.464   0.810   4.619
 3862SOL    HW112485   0.419   0.839   4.534
 3862SOL    HW212486   0.495   0.890   4.669
 3863SOL     OW12487   6.235   2.108   6.808
 3863SOL    HW112488   6.205   2.161   6.887
 3863SOL    HW212489   6.212   2.012   6.822
 3864SOL     OW12490   2.228   0.605   5.146
 3864SOL    HW112491   2.150   0.593   5.207
 3864SOL    HW212492   2.297   0.536   5.165
 3865SOL     OW12493   4.217   1.186   1.263
 3865SOL    HW112494   4.219   1.151   1.169
 3865SOL    HW212495   4.176   1.117   1.323
 3866SOL     OW12496   3.886   0.548   0.457
 3866SOL    HW112497   3.975   0.549   0.503
 3866SOL    HW212498   3.860   0.642   0.433
 3867SOL     OW12499   0.767   4.621   3.577
 3867SOL    HW112500   0.692   4.593   3.638
 3867SOL    HW212501   0.789   4.717   3.594
 3868SOL     OW12502   3.370   0.348   0.408
 3868SOL    HW112503   3.458   0.352   0.454
 3868SOL    HW212504   3.385   0.331   0.310
 3869SOL     OW12505   6.548   3.052   4.457
 3869SOL    HW112506   6.531   3.112   4.536
 3869SOL    HW212507   6.607   2.976   4.485
 3870SOL     OW12508   6.994   6.553   0.947
 3870SOL    HW112509   6.984   6.501   1.031
 3870SOL    HW212510   0.065   6.579   0.934
 3871SOL     OW12511   3.523   0.788   3.441
 3871SOL    HW112512   3.581   0.869   3.453
 3871SOL    HW212513   3.556   0.734   3.364
 3872SOL     OW12514   3.240   3.245   4.709
 3872SOL    HW112515   3.339   3.235   4.713
 3872SOL    HW212516   3.199   3.157   4.682
 3873SOL     OW12517   5.608   3.547   1.185
 3873SOL    HW112518   5.666   3.476   1.143
 3873SOL    HW212519   5.513   3.515   1.185
 3874SOL     OW12520   4.383   6.280   0.485
 3874SOL    HW112521   4.378   6.278   0.385
 3874SOL    HW212522   4.333   6.359   0.519
 3875SOL     OW12523   2.107   3.414   2.899
 3875SOL    HW112524   2.059   3.399   2.813
 3875SOL    HW212525   2.138   3.509   2.904
 3876SOL     OW12526   3.944   4.992   0.958
 3876SOL    HW112527   3.923   5.089   0.947
 3876SOL    HW212528   3.943   4.968   1.055
 3877SOL     OW12529   6.090   2.220   1.445
 3877SOL    HW112530   6.186   2.204   1.420
 3877SOL    HW212531   6.031   2.188   1.370
 3878SOL     OW12532   4.294   6.340   4.910
 3878SOL    HW112533   4.357   6.381   4.843
 3878SOL    HW212534   4.303   6.387   4.997
 3879SOL     OW12535   6.079   5.459   1.122
 3879SOL    HW112536   6.140   5.380   1.107
 3879SOL    HW212537   6.118   5.540   1.078
 3880SOL     OW12538   5.152   4.055   4.490
 3880SOL    HW112539   5.225   3.992   4.516
 3880SOL    HW212540   5.189   4.146   4.475
 3881SOL     OW12541   0.938   3.558   1.649
 3881SOL    HW112542   0.879   3.602   1.582
 3881SOL    HW212543   0.883   3.517   1.721
 3882SOL     OW12544   0.959   1.549   5.758
 3882SOL    HW112545   0.999   1.555   5.850
 3882SOL    HW212546   0.993   1.467   5.713
 3883SOL     OW12547   4.031   1.091   2.133
 3883SOL    HW112548   4.058   1.103   2.228
 3883SOL    HW212549   3.933   1.112   2.124
 3884SOL     OW12550   1.042   6.088   2.057
 3884SOL    HW112551   0.980   6.011   2.073
 3884SOL    HW212552   1.018   6.133   1.971
 3885SOL     OW12553   5.978   5.827   2.709
 3885SOL    HW112554   6.041   5.868   2.776
 3885SOL    HW212555   6.030   5.800   2.628
 3886SOL     OW12556   5.089   5.595   4.970
 3886SOL    HW112557   4.994   5.608   4.941
 3886SOL    HW212558   5.119   5.503   4.942
 3887SOL     OW12559   1.300   0.380   6.668
 3887SOL    HW112560   1.288   0.478   6.684
 3887SOL    HW212561   1.231   0.347   6.604
 3888SOL     OW12562   6.626   0.618   5.126
 3888SOL    HW112563   6.694   0.682   5.090
 3888SOL    HW212564   6.609   0.639   5.223
 3889SOL     OW12565   0.177   4.019   0.084
 3889SOL    HW112566   0.129   4.107   0.086
 3889SOL    HW212567   0.269   4.032   0.047
 3890SOL     OW12568   6.455   4.756   3.086
 3890SOL    HW112569   6.466   4.660   3.112
 3890SOL    HW212570   6.365   4.788   3.116
 3891SOL     OW12571   5.295   3.840   4.220
 3891SOL    HW112572   5.343   3.842   4.307
 3891SOL    HW212573   5.323   3.919   4.165
 3892SOL     OW12574   0.080   1.471   1.524
 3892SOL    HW112575   0.106   1.504   1.433
 3892SOL    HW212576   0.154   1.415   1.562
 3893SOL     OW12577   4.180   4.134   0.210
 3893SOL    HW112578   4.234   4.089   0.282
 3893SOL    HW212579   4.241   4.165   0.138
 3894SOL     OW12580   4.098   1.166   0.609
 3894SOL    HW112581   4.103   1.126   0.517
 3894SOL    HW212582   4.185   1.154   0.655
 3895SOL     OW12583   1.574   0.602   5.455
 3895SOL    HW112584   1.612   0.689   5.489
 3895SOL    HW212585   1.496   0.621   5.395
 3896SOL     OW12586   0.241   1.250   4.994
 3896SOL    HW112587   0.245   1.224   4.897
 3896SOL    HW212588   0.192   1.179   5.045
 3897SOL     OW12589   3.554   5.730   2.502
 3897SOL    HW112590   3.598   5.813   2.469
 3897SOL    HW212591   3.526   5.742   2.598
 3898SOL     OW12592   2.015   3.309   5.986
 3898SOL    HW112593   2.002   3.210   5.984
 3898SOL    HW212594   2.091   3.332   6.046
 3899SOL     OW12595   4.511   6.510   5.487
 3899SOL    HW112596   4.552   6.598   5.510
 3899SOL    HW212597   4.582   6.447   5.458
 3900SOL     OW12598   4.921   2.761   3.705
 3900SOL    HW112599   4.874   2.715   3.631
 3900SOL    HW212600   4.887   2.855   3.714
 3901SOL     OW12601   2.443   0.419   5.222
 3901SOL    HW112602   2.394   0.419   5.309
 3901SOL    HW212603   2.496   0.334   5.214
 3902SOL     OW12604   5.647   3.244   1.416
 3902SOL    HW112605   5.693   3.332   1.403
 3902SOL    HW212606   5.653   3.218   1.513
 3903SOL     OW12607   4.126   6.206   6.053
 3903SOL    HW112608   4.092   6.164   6.137
 3903SOL    HW212609   4.052   6.255   6.008
 3904SOL     OW12610   2.858   1.619   5.359
 3904SOL    HW112611   2.786   1.687   5.372
 3904SOL    HW212612   2.819   1.527   5.365
 3905SOL     OW12613   0.465   0.239   6.840
 3905SOL    HW112614   0.501   0.154   6.877
 3905SOL    HW212615   0.523   0.270   6.765
 3906SOL     OW12616   5.637   6.023   5.885
 3906SOL    HW112617   5.618   6.077   5.967
 3906SOL    HW212618   5.617   6.078   5.804
 3907SOL     OW12619   5.818   0.896   3.657
 3907SOL    HW112620   5.862   0.820   3.704
 3907SOL    HW212621   5.722   0.900   3.684
 3908SOL     OW12622   1.320   2.558   0.549
 3908SOL    HW112623   1.361   2.468   0.534
 3908SOL    HW212624   1.312   2.605   0.461
 3909SOL     OW12625   6.800   5.885   5.419
 3909SOL    HW112626   6.718   5.881   5.476
 3909SOL    HW212627   6.876   5.840   5.467
 3910SOL     OW12628   3.564   3.211   2.518
 3910SOL    HW112629   3.587   3.114   2.512
 3910SOL    HW212630   3.605   3.260   2.441
 3911SOL     OW12631   4.750   1.768   6.609
 3911SOL    HW112632   4.749   1.704   6.532
 3911SOL    HW212633   4.789   1.723   6.689
 3912SOL     OW12634   4.174   0.620   5.473
 3912SOL    HW112635   4.143   0.705   5.516
 3912SOL    HW212636   4.263   0.635   5.430
 3913SOL     OW12637   1.871   0.211   6.244
 3913SOL    HW112638   1.922   0.184   6.326
 3913SOL    HW212639   1.833   0.129   6.200
 3914SOL     OW12640   3.323   0.782   0.999
 3914SOL    HW112641   3.387   0.706   0.999
 3914SOL    HW212642   3.233   0.751   1.030
 3915SOL     OW12643   3.868   5.138   2.304
 3915SOL    HW112644   3.793   5.072   2.295
 3915SOL    HW212645   3.849   5.217   2.244
 3916SOL     OW12646   1.482   6.447   4.112
 3916SOL    HW112647   1.568   6.481   4.072
 3916SOL    HW212648   1.474   6.479   4.206
 3917SOL     OW12649   6.345   5.543   0.243
 3917SOL    HW112650   6.280   5.526   0.317
 3917SOL    HW212651   6.400   5.624   0.265
 3918SOL     OW12652   4.728   6.469   1.758
 3918SOL    HW112653   4.699   6.446   1.665
 3918SOL    HW212654   4.676   6.549   1.790
 3919SOL     OW12655   2.305   6.685   6.372
 3919SOL    HW112656   2.330   6.715   6.464
 3919SOL    HW212657   2.216   6.639   6.375
 3920SOL     OW12658   3.339   2.816   0.728
 3920SOL    HW112659   3.243   2.804   0.752
 3920SOL    HW212660   3.396   2.770   0.796
 3921SOL     OW12661   0.304   3.175   1.477
 3921SOL    HW112662   0.324   3.179   1.575
 3921SOL    HW212663   0.389   3.185   1.425
 3922SOL     OW12664   5.978   3.736   1.791
 3922SOL    HW112665   5.903   3.686   1.748
 3922SOL    HW212666   5.959   3.834   1.788
 3923SOL     OW12667   6.551   1.706   6.557
 3923SOL    HW112668   6.644   1.703   6.594
 3923SOL    HW212669   6.555   1.699   6.457
 3924SOL     OW12670   0.295   4.729   3.698
 3924SOL    HW112671   0.361   4.676   3.645
 3924SOL    HW212672   0.203   4.715   3.660
 3925SOL     OW12673   3.020   5.168   0.965
 3925SOL    HW112674   3.033   5.256   1.012
 3925SOL    HW212675   3.008   5.096   1.033
 3926SOL     OW12676   6.680   5.729   3.170
 3926SOL    HW112677   6.764   5.701   3.215
 3926SOL    HW212678   6.694   5.816   3.123
 3927SOL     OW12679   6.434   2.840   3.780
 3927SOL    HW112680   6.436   2.900   3.700
 3927SOL    HW212681   6.478   2.887   3.857
 3928SOL     OW12682   3.644   6.229   5.777
 3928SOL    HW112683   3.603   6.243   5.867
 3928SOL    HW212684   3.582   6.175   5.721
 3929SOL     OW12685   0.140   1.137   5.587
 3929SOL    HW112686   0.161   1.040   5.597
 3929SOL    HW212687   0.084   1.151   5.505
 3930SOL     OW12688   2.449   1.722   3.588
 3930SOL    HW112689   2.424   1.650   3.652
 3930SOL    HW212690   2.546   1.713   3.564
 3931SOL     OW12691   1.665   1.427   1.861
 3931SOL    HW112692   1.588   1.449   1.921
 3931SOL    HW212693   1.750   1.431   1.913
 3932SOL     OW12694   1.624   4.114   3.015
 3932SOL    HW112695   1.632   4.088   2.919
 3932SOL    HW212696   1.692   4.064   3.069
 3933SOL     OW12697   1.875   6.364   0.271
 3933SOL    HW112698   1.797   6.364   0.208
 3933SOL    HW212699   1.894   6.270   0.301
 3934SOL     OW12700   6.936   1.118   0.593
 3934SOL    HW112701   6.923   1.094   0.496
 3934SOL    HW212702   7.024   1.164   0.603
 3935SOL     OW12703   2.840   6.858   6.546
 3935SOL    HW112704   2.905   6.820   6.479
 3935SOL    HW212705   2.823   6.791   6.618
 3936SOL     OW12706   0.181   5.114   5.625
 3936SOL    HW112707   0.265   5.069   5.596
 3936SOL    HW212708   0.142   5.065   5.704
 3937SOL     OW12709   6.943   0.902   2.883
 3937SOL    HW112710   7.006   0.935   2.813
 3937SOL    HW212711   6.867   0.853   2.840
 3938SOL     OW12712   0.107   1.469   4.244
 3938SOL    HW112713   0.205   1.483   4.229
 3938SOL    HW212714   0.087   1.371   4.246
 3939SOL     OW12715   2.300   1.773   2.296
 3939SOL    HW112716   2.310   1.750   2.199
 3939SOL    HW212717   2.264   1.866   2.305
 3940SOL     OW12718   4.480   5.120   1.926
 3940SOL    HW112719   4.565   5.119   1.978
 3940SOL    HW212720   4.459   5.214   1.897
 3941SOL     OW12721   4.568   2.745   6.575
 3941SOL    HW112722   4.643   2.747   6.508
 3941SOL    HW212723   4.575   2.663   6.631
 3942SOL     OW12724   0.370   0.449   6.983
 3942SOL    HW112725   0.416   0.378   6.931
 3942SOL    HW212726   0.326   0.513   6.920
 3943SOL     OW12727   6.694   3.887   3.087
 3943SOL    HW112728   6.686   3.985   3.069
 3943SOL    HW212729   6.768   3.849   3.032
 3944SOL     OW12730   5.164   2.950   4.905
 3944SOL    HW112731   5.093   3.012   4.939
 3944SOL    HW212732   5.251   2.969   4.950
 3945SOL     OW12733   0.627   1.877   1.415
 3945SOL    HW112734   0.545   1.819   1.419
 3945SOL    HW212735   0.708   1.820   1.401
 3946SOL     OW12736   5.848   5.809   6.329
 3946SOL    HW112737   5.761   5.788   6.372
 3946SOL    HW212738   5.842   5.898   6.283
 3947SOL     OW12739   5.770   5.492   0.822
 3947SOL    HW112740   5.784   5.405   0.868
 3947SOL    HW212741   5.750   5.563   0.891
 3948SOL     OW12742   1.376   6.013   1.661
 3948SOL    HW112743   1.462   5.969   1.686
 3948SOL    HW212744   1.300   5.964   1.704
 3949SOL     OW12745   5.128   0.456   2.935
 3949SOL    HW112746   5.224   0.480   2.921
 3949SOL    HW212747   5.119   0.407   3.022
 3950SOL     OW12748   2.036   4.113   1.584
 3950SOL    HW112749   1.973   4.040   1.559
 3950SOL    HW212750   2.127   4.092   1.547
 3951SOL     OW12751   6.220   6.606   0.416
 3951SOL    HW112752   6.214   6.679   0.484
 3951SOL    HW212753   6.131   6.595   0.372
 3952SOL     OW12754   6.107   3.344   2.545
 3952SOL    HW112755   6.088   3.437   2.515
 3952SOL    HW212756   6.193   3.313   2.504
 3953SOL     OW12757   4.075   4.668   1.773
 3953SOL    HW112758   4.146   4.599   1.786
 3953SOL    HW212759   4.114   4.749   1.730
 3954SOL     OW12760   4.669   5.098   5.198
 3954SOL    HW112761   4.570   5.110   5.200
 3954SOL    HW212762   4.692   5.015   5.147
 3955SOL     OW12763   3.362   5.218   6.289
 3955SOL    HW112764   3.352   5.182   6.196
 3955SOL    HW212765   3.278   5.201   6.341
 3956SOL     OW12766   6.796   0.981   3.578
 3956SOL    HW112767   6.709   0.940   3.606
 3956SOL    HW212768   6.871   0.936   3.627
 3957SOL     OW12769   4.523   6.234   3.813
 3957SOL    HW112770   4.435   6.185   3.809
 3957SOL    HW212771   4.512   6.318   3.866
 3958SOL     OW12772   5.829   0.338   5.249
 3958SOL    HW112773   5.772   0.272   5.200
 3958SOL    HW212774   5.772   0.412   5.284
 3959SOL     OW12775   4.276   5.917   0.785
 3959SOL    HW112776   4.193   5.879   0.826
 3959SOL    HW212777   4.257   5.942   0.690
 3960SOL     OW12778   4.606   1.374   6.751
 3960SOL    HW112779   4.564   1.465   6.752
 3960SOL    HW212780   4.535   1.305   6.760
 3961SOL     OW12781   5.020   2.169   2.752
 3961SOL    HW112782   5.044   2.261   2.783
 3961SOL    HW212783   4.992   2.114   2.830
 3962SOL     OW12784   2.250   4.375   0.088
 3962SOL    HW112785   2.239   4.327   0.001
 3962SOL    HW212786   2.289   4.466   0.071
 3963SOL     OW12787   4.728   4.869   4.152
 3963SOL    HW112788   4.823   4.837   4.149
 3963SOL    HW212789   4.683   4.835   4.234
 3964SOL     OW12790   4.300   5.510   3.637
 3964SOL    HW112791   4.226   5.454   3.673
 3964SOL    HW212792   4.388   5.471   3.666
 3965SOL     OW12793   5.001   2.913   6.070
 3965SOL    HW112794   4.910   2.954   6.066
 3965SOL    HW212795   5.065   2.979   6.111
 3966SOL     OW12796   5.276   5.653   0.205
 3966SOL    HW112797   5.375   5.651   0.213
 3966SOL    HW212798   5.238   5.717   0.271
 3967SOL     OW12799   1.492   3.877   1.907
 3967SOL    HW112800   1.408   3.856   1.958
 3967SOL    HW212801   1.468   3.904   1.814
 3968SOL     OW12802   4.982   0.664   1.227
 3968SOL    HW112803   5.010   0.571   1.203
 3968SOL    HW212804   5.021   0.690   1.315
 3969SOL     OW12805   1.412   3.880   2.259
 3969SOL    HW112806   1.349   3.866   2.182
 3969SOL    HW212807   1.475   3.803   2.264
 3970SOL     OW12808   6.354   6.083   3.502
 3970SOL    HW112809   6.337   6.053   3.408
 3970SOL    HW212810   6.408   6.014   3.550
 3971SOL     OW12811   2.608   4.868   2.248
 3971SOL    HW112812   2.692   4.816   2.234
 3971SOL    HW212813   2.600   4.939   2.178
 3972SOL     OW12814   1.232   4.647   0.653
 3972SOL    HW112815   1.260   4.582   0.724
 3972SOL    HW212816   1.156   4.609   0.600
 3973SOL     OW12817   1.869   5.125   6.424
 3973SOL    HW112818   1.849   5.064   6.501
 3973SOL    HW212819   1.965   5.153   6.427
 3974SOL     OW12820   2.284   1.185   4.259
 3974SOL    HW112821   2.248   1.123   4.190
 3974SOL    HW212822   2.280   1.279   4.224
 3975SOL     OW12823   5.600   0.855   5.133
 3975SOL    HW112824   5.585   0.766   5.089
 3975SOL    HW212825   5.687   0.854   5.182
 3976SOL     OW12826   1.822   6.834   1.886
 3976SOL    HW112827   1.754   6.783   1.833
 3976SOL    HW212828   1.788   6.848   1.979
 3977SOL     OW12829   2.621   3.984   5.542
 3977SOL    HW112830   2.534   3.998   5.494
 3977SOL    HW212831   2.684   4.058   5.521
 3978SOL     OW12832   5.559   5.092   5.009
 3978SOL    HW112833   5.543   5.099   4.910
 3978SOL    HW212834   5.651   5.058   5.026
 3979SOL     OW12835   3.172   6.117   0.949
 3979SOL    HW112836   3.204   6.211   0.959
 3979SOL    HW212837   3.215   6.060   1.018
 3980SOL     OW12838   6.806   5.508   0.313
 3980SOL    HW112839   6.843   5.437   0.253
 3980SOL    HW212840   6.746   5.466   0.381
 3981SOL     OW12841   2.259   0.498   0.179
 3981SOL    HW112842   2.266   0.532   0.085
 3981SOL    HW212843   2.164   0.477   0.200
 3982SOL     OW12844   2.355   0.288   4.026
 3982SOL    HW112845   2.433   0.252   4.077
 3982SOL    HW212846   2.377   0.288   3.928
 3983SOL     OW12847   5.422   4.644   4.069
 3983SOL    HW112848   5.363   4.594   4.132
 3983SOL    HW212849   5.392   4.739   4.063
 3984SOL     OW12850   6.630   1.470   3.017
 3984SOL    HW112851   6.669   1.380   3.002
 3984SOL    HW212852   6.569   1.493   2.941
 3985SOL     OW12853   3.083   4.393   6.735
 3985SOL    HW112854   3.061   4.402   6.638
 3985SOL    HW212855   3.047   4.306   6.769
 3986SOL     OW12856   6.367   2.605   3.134
 3986SOL    HW112857   6.351   2.626   3.038
 3986SOL    HW212858   6.303   2.534   3.164
 3987SOL     OW12859   3.363   5.171   3.876
 3987SOL    HW112860   3.354   5.156   3.778
 3987SOL    HW212861   3.428   5.104   3.914
 3988SOL     OW12862   3.813   4.024   0.049
 3988SOL    HW112863   3.722   3.982   0.058
 3988SOL    HW212864   3.863   4.014   0.134
 3989SOL     OW12865   6.622   2.910   6.980
 3989SOL    HW112866   6.604   2.824   6.934
 3989SOL    HW212867   6.631   2.895   0.054
 3990SOL     OW12868   4.889   2.152   2.526
 3990SOL    HW112869   4.916   2.213   2.451
 3990SOL    HW212870   4.947   2.171   2.606
 3991SOL     OW12871   5.670   0.835   2.675
 3991SOL    HW112872   5.671   0.904   2.603
 3991SOL    HW212873   5.602   0.766   2.654
 3992SOL     OW12874   3.877   2.670   0.493
 3992SOL    HW112875   3.913   2.758   0.463
 3992SOL    HW212876   3.887   2.604   0.419
 3993SOL     OW12877   1.361   1.834   2.573
 3993SOL    HW112878   1.342   1.809   2.668
 3993SOL    HW212879   1.392   1.753   2.523
 3994SOL     OW12880   1.073   0.814   5.537
 3994SOL    HW112881   1.159   0.792   5.584
 3994SOL    HW212882   0.996   0.788   5.595
 3995SOL     OW12883   2.032   3.661   5.710
 3995SOL    HW112884   1.963   3.696   5.647
 3995SOL    HW212885   2.005   3.569   5.740
 3996SOL     OW12886   1.203   0.427   4.253
 3996SOL    HW112887   1.226   0.335   4.222
 3996SOL    HW212888   1.276   0.462   4.312
 3997SOL     OW12889   5.406   1.454   4.531
 3997SOL    HW112890   5.425   1.407   4.617
 3997SOL    HW212891   5.402   1.388   4.457
 3998SOL     OW12892   4.299   1.189   4.324
 3998SOL    HW112893   4.358   1.110   4.340
 3998SOL    HW212894   4.322   1.261   4.390
 3999SOL     OW12895   5.996   3.357   4.098
 3999SOL    HW112896   5.964   3.434   4.043
 3999SOL    HW212897   6.042   3.291   4.039
 4000SOL     OW12898   3.038   5.901   3.434
 4000SOL    HW112899   3.117   5.873   3.490
 4000SOL    HW212900   3.057   5.883   3.338
 4001SOL     OW12901   2.637   2.193   3.667
 4001SOL    HW112902   2.539   2.190   3.685
 4001SOL    HW212903   2.677   2.103   3.686
 4002SOL     OW12904   2.970   3.546   0.641
 4002SOL    HW112905   3.061   3.505   0.632
 4002SOL    HW212906   2.951   3.566   0.737
 4003SOL     OW12907   3.060   6.620   3.699
 4003SOL    HW112908   3.096   6.621   3.792
 4003SOL    HW212909   3.101   6.694   3.646
 4004SOL     OW12910   4.932   1.477   4.500
 4004SOL    HW112911   4.859   1.513   4.558
 4004SOL    HW212912   4.985   1.553   4.463
 4005SOL     OW12913   5.038   5.070   0.609
 4005SOL    HW112914   4.944   5.103   0.596
 4005SOL    HW212915   5.040   5.004   0.684
 4006SOL     OW12916   4.097   4.967   2.744
 4006SOL    HW112917   4.044   5.030   2.801
 4006SOL    HW212918   4.184   5.010   2.720
 4007SOL     OW12919   0.468   1.813   0.792
 4007SOL    HW112920   0.535   1.882   0.819
 4007SOL    HW212921   0.457   1.746   0.865
 4008SOL     OW12922   3.365   2.014   3.863
 4008SOL    HW112923   3.299   1.952   3.905
 4008SOL    HW212924   3.317   2.074   3.799
 4009SOL     OW12925   4.862   3.603   1.069
 4009SOL    HW112926   4.904   3.538   1.006
 4009SOL    HW212927   4.844   3.558   1.156
 4010SOL     OW12928   2.777   3.262   1.385
 4010SOL    HW112929   2.717   3.211   1.324
 4010SOL    HW212930   2.868   3.267   1.344
 4011SOL     OW12931   0.618   1.009   2.182
 4011SOL    HW112932   0.687   0.943   2.211
 4011SOL    HW212933   0.657   1.101   2.182
 4012SOL     OW12934   5.184   5.225   1.731
 4012SOL    HW112935   5.194   5.322   1.710
 4012SOL    HW212936   5.219   5.206   1.822
 4013SOL     OW12937   2.422   0.874   5.212
 4013SOL    HW112938   2.345   0.874   5.275
 4013SOL    HW212939   2.390   0.902   5.121
 4014SOL     OW12940   4.771   6.434   2.170
 4014SOL    HW112941   4.682   6.395   2.146
 4014SOL    HW212942   4.828   6.363   2.212
 4015SOL     OW12943   5.314   4.910   5.961
 4015SOL    HW112944   5.224   4.947   5.982
 4015SOL    HW212945   5.350   4.862   6.041
 4016SOL     OW12946   2.300   6.052   6.340
 4016SOL    HW112947   2.205   6.074   6.365
 4016SOL    HW212948   2.355   6.043   6.423
 4017SOL     OW12949   0.391   5.820   0.380
 4017SOL    HW112950   0.383   5.904   0.433
 4017SOL    HW212951   0.454   5.835   0.303
 4018SOL     OW12952   4.343   6.314   2.954
 4018SOL    HW112953   4.396   6.371   3.016
 4018SOL    HW212954   4.358   6.343   2.860
 4019SOL     OW12955   5.412   3.378   2.697
 4019SOL    HW112956   5.508   3.363   2.722
 4019SOL    HW212957   5.359   3.395   2.780
 4020SOL     OW12958   4.732   1.967   5.517
 4020SOL    HW112959   4.831   1.955   5.527
 4020SOL    HW212960   4.706   1.949   5.422
 4021SOL     OW12961   3.921   4.781   6.250
 4021SOL    HW112962   3.839   4.737   6.215
 4021SOL    HW212963   3.911   4.881   6.244
 4022SOL     OW12964   4.551   0.697   6.735
 4022SOL    HW112965   4.521   0.678   6.829
 4022SOL    HW212966   4.488   0.761   6.692
 4023SOL     OW12967   5.756   1.991   4.449
 4023SOL    HW112968   5.711   2.020   4.364
 4023SOL    HW212969   5.687   1.955   4.512
 4024SOL     OW12970   3.563   6.313   3.562
 4024SOL    HW112971   3.561   6.412   3.562
 4024SOL    HW212972   3.470   6.277   3.553
 4025SOL     OW12973   0.736   5.989   4.175
 4025SOL    HW112974   0.761   5.893   4.191
 4025SOL    HW212975   0.731   6.038   4.262
 4026SOL     OW12976   5.814   5.350   4.469
 4026SOL    HW112977   5.745   5.392   4.528
 4026SOL    HW212978   5.881   5.419   4.443
 4027SOL     OW12979   3.625   4.389   1.569
 4027SOL    HW112980   3.540   4.391   1.517
 4027SOL    HW212981   3.663   4.481   1.575
 4028SOL     OW12982   1.426   2.494   4.039
 4028SOL    HW112983   1.463   2.443   4.117
 4028SOL    HW212984   1.468   2.585   4.036
 4029SOL     OW12985   2.333   4.252   6.156
 4029SOL    HW112986   2.338   4.156   6.185
 4029SOL    HW212987   2.420   4.297   6.174
 4030SOL     OW12988   1.053   2.193   5.598
 4030SOL    HW112989   1.096   2.283   5.590
 4030SOL    HW212990   0.954   2.203   5.600
 4031SOL     OW12991   4.854   5.513   3.777
 4031SOL    HW112992   4.883   5.438   3.718
 4031SOL    HW212993   4.933   5.554   3.822
 4032SOL     OW12994   6.395   6.741   3.551
 4032SOL    HW112995   6.370   6.830   3.514
 4032SOL    HW212996   6.456   6.754   3.629
 4033SOL     OW12997   3.349   3.292   3.753
 4033SOL    HW112998   3.349   3.340   3.841
 4033SOL    HW212999   3.305   3.203   3.763
 4034SOL     OW13000   5.694   1.297   5.194
 4034SOL    HW113001   5.732   1.365   5.132
 4034SOL    HW213002   5.595   1.312   5.204
 4035SOL     OW13003   0.185   3.525   0.694
 4035SOL    HW113004   0.181   3.558   0.600
 4035SOL    HW213005   0.162   3.428   0.696
 4036SOL     OW13006   5.945   6.450   2.291
 4036SOL    HW113007   5.885   6.466   2.370
 4036SOL    HW213008   5.953   6.352   2.275
 4037SOL     OW13009   1.850   2.866   6.887
 4037SOL    HW113010   1.869   2.824   6.798
 4037SOL    HW213011   1.781   2.812   6.935
 4038SOL     OW13012   4.815   4.846   2.093
 4038SOL    HW113013   4.736   4.889   2.137
 4038SOL    HW213014   4.867   4.915   2.043
 4039SOL     OW13015   5.211   5.590   0.697
 4039SOL    HW113016   5.192   5.492   0.704
 4039SOL    HW213017   5.308   5.607   0.714
 4040SOL     OW13018   2.882   6.641   0.300
 4040SOL    HW113019   2.795   6.638   0.251
 4040SOL    HW213020   2.937   6.716   0.264
 4041SOL     OW13021   1.560   5.996   2.565
 4041SOL    HW113022   1.487   5.929   2.551
 4041SOL    HW213023   1.584   6.037   2.477
 4042SOL     OW13024   6.344   5.278   2.322
 4042SOL    HW113025   6.406   5.298   2.246
 4042SOL    HW213026   6.318   5.364   2.368
 4043SOL     OW13027   5.441   1.815   3.537
 4043SOL    HW113028   5.464   1.872   3.458
 4043SOL    HW213029   5.509   1.828   3.609
 4044SOL     OW13030   6.146   0.312   4.228
 4044SOL    HW113031   6.100   0.339   4.143
 4044SOL    HW213032   6.245   0.305   4.211
 4045SOL     OW13033   2.874   4.284   6.147
 4045SOL    HW113034   2.883   4.247   6.054
 4045SOL    HW213035   2.952   4.253   6.202
 4046SOL     OW13036   0.986   1.792   2.398
 4046SOL    HW113037   1.010   1.806   2.494
 4046SOL    HW213038   0.960   1.879   2.357
 4047SOL     OW13039   3.090   4.062   0.820
 4047SOL    HW113040   3.067   3.969   0.847
 4047SOL    HW213041   3.073   4.074   0.722
 4048SOL     OW13042   5.465   0.598   1.699
 4048SOL    HW113043   5.547   0.655   1.695
 4048SOL    HW213044   5.398   0.631   1.632
 4049SOL     OW13045   6.476   6.542   6.412
 4049SOL    HW113046   6.481   6.533   6.312
 4049SOL    HW213047   6.551   6.490   6.453
 4050SOL     OW13048   1.487   6.505   6.849
 4050SOL    HW113049   1.564   6.568   6.852
 4050SOL    HW213050   1.403   6.556   6.830
 4051SOL     OW13051   2.852   4.252   0.495
 4051SOL    HW113052   2.912   4.188   0.542
 4051SOL    HW213053   2.758   4.216   0.495
 4052SOL     OW13054   1.118   0.364   1.110
 4052SOL    HW113055   1.051   0.412   1.166
 4052SOL    HW213056   1.076   0.341   1.022
 4053SOL     OW13057   2.755   4.686   3.736
 4053SOL    HW113058   2.831   4.751   3.736
 4053SOL    HW213059   2.729   4.667   3.831
 4054SOL     OW13060   2.488   2.873   0.641
 4054SOL    HW113061   2.423   2.931   0.593
 4054SOL    HW213062   2.545   2.929   0.702
 4055SOL     OW13063   2.451   2.839   5.992
 4055SOL    HW113064   2.433   2.903   5.917
 4055SOL    HW213065   2.374   2.776   6.001
 4056SOL     OW13066   3.905   3.429   6.901
 4056SOL    HW113067   3.814   3.416   6.940
 4056SOL    HW213068   3.935   3.523   6.917
 4057SOL     OW13069   5.419   3.343   0.577
 4057SOL    HW113070   5.486   3.269   0.571
 4057SOL    HW213071   5.465   3.431   0.572
 4058SOL     OW13072   2.630   1.520   4.333
 4058SOL    HW113073   2.602   1.427   4.311
 4058SOL    HW213074   2.560   1.563   4.391
 4059SOL     OW13075   2.027   2.106   3.450
 4059SOL    HW113076   1.991   2.031   3.505
 4059SOL    HW213077   2.127   2.099   3.443
 4060SOL     OW13078   3.902   5.253   4.304
 4060SOL    HW113079   3.963   5.232   4.381
 4060SOL    HW213080   3.812   5.278   4.338
 4061SOL     OW13081   3.338   4.588   1.692
 4061SOL    HW113082   3.367   4.547   1.606
 4061SOL    HW213083   3.414   4.585   1.757
 4062SOL     OW13084   3.909   1.370   2.754
 4062SOL    HW113085   3.894   1.390   2.851
 4062SOL    HW213086   4.006   1.379   2.733
 4063SOL     OW13087   4.025   6.758   5.830
 4063SOL    HW113088   3.956   6.807   5.883
 4063SOL    HW213089   4.098   6.728   5.890
 4064SOL     OW13090   1.592   0.679   2.712
 4064SOL    HW113091   1.685   0.681   2.750
 4064SOL    HW213092   1.597   0.669   2.613
 4065SOL     OW13093   0.209   7.015   1.297
 4065SOL    HW113094   0.249   6.998   1.387
 4065SOL    HW213095   0.114   0.020   1.307
 4066SOL     OW13096   5.373   4.383   1.441
 4066SOL    HW113097   5.327   4.366   1.354
 4066SOL    HW213098   5.352   4.309   1.505
 4067SOL     OW13099   5.249   1.779   3.290
 4067SOL    HW113100   5.312   1.704   3.268
 4067SOL    HW213101   5.302   1.861   3.310
 4068SOL     OW13102   4.943   0.375   4.956
 4068SOL    HW113103   4.857   0.329   4.975
 4068SOL    HW213104   5.017   0.308   4.950
 4069SOL     OW13105   4.990   4.454   1.012
 4069SOL    HW113106   4.956   4.543   1.041
 4069SOL    HW213107   4.990   4.448   0.912
 4070SOL     OW13108   1.923   3.760   2.528
 4070SOL    HW113109   2.018   3.776   2.553
 4070SOL    HW213110   1.870   3.844   2.542
 4071SOL     OW13111   1.222   0.809   4.968
 4071SOL    HW113112   1.237   0.729   5.025
 4071SOL    HW213113   1.199   0.781   4.875
 4072SOL     OW13114   2.062   6.284   4.330
 4072SOL    HW113115   2.009   6.312   4.250
 4072SOL    HW213116   2.137   6.348   4.345
 4073SOL     OW13117   2.072   5.907   6.172
 4073SOL    HW113118   2.065   6.007   6.177
 4073SOL    HW213119   2.101   5.871   6.261
 4074SOL     OW13120   0.596   1.897   1.704
 4074SOL    HW113121   0.605   1.808   1.661
 4074SOL    HW213122   0.500   1.924   1.705
 4075SOL     OW13123   4.258   1.873   2.224
 4075SOL    HW113124   4.287   1.803   2.290
 4075SOL    HW213125   4.306   1.859   2.137
 4076SOL     OW13126   2.286   3.869   5.359
 4076SOL    HW113127   2.200   3.902   5.319
 4076SOL    HW213128   2.361   3.888   5.297
 4077SOL     OW13129   2.740   6.796   0.666
 4077SOL    HW113130   2.699   6.708   0.689
 4077SOL    HW213131   2.669   6.860   0.637
 4078SOL     OW13132   6.353   4.478   1.813
 4078SOL    HW113133   6.451   4.485   1.833
 4078SOL    HW213134   6.322   4.385   1.835
 4079SOL     OW13135   0.892   1.359   3.532
 4079SOL    HW113136   0.886   1.369   3.433
 4079SOL    HW213137   0.947   1.434   3.570
 4080SOL     OW13138   3.063   4.060   0.549
 4080SOL    HW113139   3.127   4.077   0.474
 4080SOL    HW213140   3.026   3.967   0.540
 4081SOL     OW13141   2.415   1.413   4.958
 4081SOL    HW113142   2.438   1.359   5.038
 4081SOL    HW213143   2.427   1.510   4.979
 4082SOL     OW13144   0.943   2.077   5.932
 4082SOL    HW113145   1.038   2.084   5.963
 4082SOL    HW213146   0.940   2.034   5.842
 4083SOL     OW13147   5.991   4.479   3.238
 4083SOL    HW113148   6.066   4.422   3.206
 4083SOL    HW213149   5.938   4.511   3.159
 4084SOL     OW13150   4.579   2.561   2.817
 4084SOL    HW113151   4.622   2.651   2.817
 4084SOL    HW213152   4.535   2.546   2.906
 4085SOL     OW13153   2.652   5.482   1.531
 4085SOL    HW113154   2.695   5.392   1.521
 4085SOL    HW213155   2.615   5.490   1.624
 4086SOL     OW13156   6.705   5.563   6.635
 4086SOL    HW113157   6.730   5.648   6.590
 4086SOL    HW213158   6.684   5.493   6.567
 4087SOL     OW13159   2.734   0.320   2.793
 4087SOL    HW113160   2.799   0.378   2.743
 4087SOL    HW213161   2.642   0.335   2.757
 4088SOL     OW13162   6.643   0.956   5.393
 4088SOL    HW113163   6.632   0.857   5.403
 4088SOL    HW213164   6.567   1.003   5.438
 4089SOL     OW13165   0.053   5.949   4.381
 4089SOL    HW113166   0.059   5.969   4.284
 4089SOL    HW213167   0.145   5.940   4.419
 4090SOL     OW13168   2.268   6.561   4.558
 4090SOL    HW113169   2.347   6.585   4.614
 4090SOL    HW213170   2.188   6.614   4.589
 4091SOL     OW13171   1.219   5.002   1.084
 4091SOL    HW113172   1.310   4.985   1.122
 4091SOL    HW213173   1.203   4.941   1.006
 4092SOL     OW13174   4.767   2.950   4.769
 4092SOL    HW113175   4.776   3.032   4.713
 4092SOL    HW213176   4.754   2.870   4.711
 4093SOL     OW13177   6.073   5.421   2.239
 4093SOL    HW113178   6.041   5.332   2.272
 4093SOL    HW213179   6.114   5.472   2.315
 4094SOL     OW13180   0.269   4.824   7.022
 4094SOL    HW113181   0.355   4.873   0.003
 4094SOL    HW213182   0.241   4.818   6.926
 4095SOL     OW13183   0.567   3.662   0.128
 4095SOL    HW113184   0.473   3.694   0.112
 4095SOL    HW213185   0.567   3.562   0.137
 4096SOL     OW13186   2.121   1.528   6.471
 4096SOL    HW113187   2.099   1.439   6.431
 4096SOL    HW213188   2.124   1.597   6.398
 4097SOL     OW13189   7.024   4.291   5.114
 4097SOL    HW113190   0.007   4.207   5.060
 4097SOL    HW213191   6.931   4.326   5.108
 4098SOL     OW13192   2.061   3.989   1.947
 4098SOL    HW113193   2.123   3.940   1.886
 4098SOL    HW213194   2.067   4.087   1.930
 4099SOL     OW13195   4.531   4.810   6.540
 4099SOL    HW113196   4.474   4.879   6.585
 4099SOL    HW213197   4.610   4.791   6.597
 4100SOL     OW13198   1.319   1.561   3.716
 4100SOL    HW113199   1.379   1.640   3.708
 4100SOL    HW213200   1.375   1.477   3.717
 4101SOL     OW13201   6.577   0.681   6.637
 4101SOL    HW113202   6.524   0.616   6.582
 4101SOL    HW213203   6.675   0.664   6.622
 4102SOL     OW13204   2.027   0.662   0.186
 4102SOL    HW113205   2.066   0.754   0.184
 4102SOL    HW213206   1.997   0.637   0.094
 4103SOL     OW13207   0.314   6.570   2.207
 4103SOL    HW113208   0.341   6.625   2.128
 4103SOL    HW213209   0.312   6.473   2.181
 4104SOL     OW13210   0.244   5.796   3.027
 4104SOL    HW113211   0.253   5.702   2.994
 4104SOL    HW213212   0.148   5.822   3.029
 4105SOL     OW13213   4.572   1.320   1.526
 4105SOL    HW113214   4.580   1.366   1.614
 4105SOL    HW213215   4.638   1.359   1.461
 4106SOL     OW13216   0.272   2.115   3.762
 4106SOL    HW113217   0.327   2.051   3.815
 4106SOL    HW213218   0.183   2.127   3.806
 4107SOL     OW13219   0.654   6.154   6.218
 4107SOL    HW113220   0.717   6.170   6.142
 4107SOL    HW213221   0.561   6.147   6.183
 4108SOL     OW13222   0.552   4.744   4.313
 4108SOL    HW113223   0.506   4.815   4.258
 4108SOL    HW213224   0.536   4.763   4.410
 4109SOL     OW13225   6.120   5.830   3.140
 4109SOL    HW113226   6.132   5.735   3.112
 4109SOL    HW213227   6.097   5.886   3.061
 4110SOL     OW13228   4.525   3.109   0.153
 4110SOL    HW113229   4.575   3.138   0.071
 4110SOL    HW213230   4.562   3.021   0.185
 4111SOL     OW13231   6.794   5.153   6.040
 4111SOL    HW113232   6.702   5.126   6.010
 4111SOL    HW213233   6.858   5.143   5.964
 4112SOL     OW13234   4.757   6.380   4.821
 4112SOL    HW113235   4.710   6.312   4.763
 4112SOL    HW213236   4.777   6.339   4.910
 4113SOL     OW13237   4.389   4.666   4.745
 4113SOL    HW113238   4.375   4.624   4.834
 4113SOL    HW213239   4.339   4.752   4.740
 4114SOL     OW13240   6.107   1.530   3.346
 4114SOL    HW113241   6.049   1.560   3.271
 4114SOL    HW213242   6.192   1.581   3.346
 4115SOL     OW13243   2.799   5.063   3.028
 4115SOL    HW113244   2.871   5.081   2.961
 4115SOL    HW213245   2.828   5.096   3.118
 4116SOL     OW13246   5.608   2.613   3.121
 4116SOL    HW113247   5.589   2.707   3.150
 4116SOL    HW213248   5.630   2.611   3.024
 4117SOL     OW13249   1.404   2.063   2.406
 4117SOL    HW113250   1.369   1.976   2.369
 4117SOL    HW213251   1.376   2.072   2.501
 4118SOL     OW13252   6.488   6.332   6.708
 4118SOL    HW113253   6.409   6.366   6.760
 4118SOL    HW213254   6.560   6.304   6.771
 4119SOL     OW13255   2.613   0.877   3.206
 4119SOL    HW113256   2.571   0.791   3.176
 4119SOL    HW213257   2.571   0.906   3.292
 4120SOL     OW13258   3.234   1.526   6.496
 4120SOL    HW113259   3.308   1.482   6.445
 4120SOL    HW213260   3.160   1.551   6.434
 4121SOL     OW13261   6.933   0.047   2.624
 4121SOL    HW113262   6.988   0.053   2.707
 4121SOL    HW213263   6.981   7.018   2.556
 4122SOL     OW13264   0.365   5.570   4.499
 4122SOL    HW113265   0.456   5.531   4.485
 4122SOL    HW213266   0.355   5.653   4.444
 4123SOL     OW13267   4.023   4.916   3.817
 4123SOL    HW113268   4.122   4.912   3.825
 4123SOL    HW213269   3.985   4.978   3.886
 4124SOL     OW13270   6.843   6.312   0.918
 4124SOL    HW113271   6.773   6.337   0.851
 4124SOL    HW213272   6.915   6.381   0.919
 4125SOL     OW13273   4.945   2.453   2.538
 4125SOL    HW113274   4.963   2.433   2.442
 4125SOL    HW213275   4.847   2.450   2.555
 4126SOL     OW13276   1.182   2.844   2.036
 4126SOL    HW113277   1.277   2.836   2.007
 4126SOL    HW213278   1.168   2.931   2.083
 4127SOL     OW13279   3.907   2.151   3.901
 4127SOL    HW113280   3.913   2.139   4.000
 4127SOL    HW213281   3.844   2.226   3.880
 4128SOL     OW13282   0.631   2.950   1.770
 4128SOL    HW113283   0.713   2.990   1.810
 4128SOL    HW213284   0.604   2.869   1.822
 4129SOL     OW13285   3.588   2.587   0.525
 4129SOL    HW113286   3.500   2.633   0.521
 4129SOL    HW213287   3.651   2.640   0.582
 4130SOL     OW13288   6.454   2.516   1.252
 4130SOL    HW113289   6.361   2.526   1.289
 4130SOL    HW213290   6.499   2.605   1.251
 4131SOL     OW13291   5.833   0.641   2.536
 4131SOL    HW113292   5.751   0.597   2.500
 4131SOL    HW213293   5.808   0.702   2.612
 4132SOL     OW13294   6.646   4.162   4.626
 4132SOL    HW113295   6.608   4.087   4.681
 4132SOL    HW213296   6.729   4.196   4.670
 4133SOL     OW13297   5.258   6.464   1.504
 4133SOL    HW113298   5.182   6.472   1.569
 4133SOL    HW213299   5.231   6.406   1.427
 4134SOL     OW13300   2.711   3.791   1.383
 4134SOL    HW113301   2.754   3.712   1.427
 4134SOL    HW213302   2.683   3.766   1.291
 4135SOL     OW13303   0.607   2.175   2.260
 4135SOL    HW113304   0.553   2.259   2.270
 4135SOL    HW213305   0.596   2.140   2.167
 4136SOL     OW13306   0.402   3.968   1.081
 4136SOL    HW113307   0.377   4.052   1.032
 4136SOL    HW213308   0.472   3.919   1.029
 4137SOL     OW13309   1.919   2.779   0.378
 4137SOL    HW113310   1.868   2.864   0.379
 4137SOL    HW213311   1.862   2.705   0.414
 4138SOL     OW13312   4.263   5.599   0.691
 4138SOL    HW113313   4.317   5.537   0.634
 4138SOL    HW213314   4.166   5.582   0.675
 4139SOL     OW13315   1.661   2.134   2.911
 4139SOL    HW113316   1.690   2.225   2.939
 4139SOL    HW213317   1.583   2.105   2.967
 4140SOL     OW13318   2.683   2.349   4.014
 4140SOL    HW113319   2.645   2.258   4.028
 4140SOL    HW213320   2.611   2.411   3.982
 4141SOL     OW13321   4.240   0.038   6.583
 4141SOL    HW113322   4.188   7.013   6.514
 4141SOL    HW213323   4.242   0.135   6.558
 4142SOL     OW13324   6.405   3.927   1.938
 4142SOL    HW113325   6.426   3.989   1.862
 4142SOL    HW213326   6.328   3.963   1.991
 4143SOL     OW13327   6.146   3.317   0.858
 4143SOL    HW113328   6.127   3.383   0.930
 4143SOL    HW213329   6.061   3.280   0.822
 4144SOL     OW13330   5.345   1.594   0.979
 4144SOL    HW113331   5.431   1.549   1.003
 4144SOL    HW213332   5.291   1.534   0.920
 4145SOL     OW13333   1.148   6.412   0.908
 4145SOL    HW113334   1.114   6.324   0.942
 4145SOL    HW213335   1.192   6.399   0.819
 4146SOL     OW13336   5.778   6.737   3.968
 4146SOL    HW113337   5.829   6.798   3.908
 4146SOL    HW213338   5.739   6.662   3.915
 4147SOL     OW13339   5.542   4.514   5.823
 4147SOL    HW113340   5.542   4.578   5.900
 4147SOL    HW213341   5.552   4.565   5.737
 4148SOL     OW13342   3.385   0.025   5.612
 4148SOL    HW113343   3.367   7.002   5.697
 4148SOL    HW213344   3.404   6.984   5.539
 4149SOL     OW13345   1.759   2.838   1.101
 4149SOL    HW113346   1.802   2.868   1.016
 4149SOL    HW213347   1.661   2.824   1.086
 4150SOL     OW13348   6.217   3.128   5.856
 4150SOL    HW113349   6.210   3.054   5.924
 4150SOL    HW213350   6.305   3.174   5.868
 4151SOL     OW13351   2.393   0.003   4.677
 4151SOL    HW113352   2.333   7.022   4.597
 4151SOL    HW213353   2.444   0.089   4.673
 4152SOL     OW13354   3.508   5.470   1.965
 4152SOL    HW113355   3.518   5.432   1.873
 4152SOL    HW213356   3.429   5.532   1.967
 4153SOL     OW13357   6.646   4.652   1.352
 4153SOL    HW113358   6.583   4.729   1.347
 4153SOL    HW213359   6.724   4.675   1.411
 4154SOL     OW13360   6.976   5.575   3.539
 4154SOL    HW113361   6.881   5.598   3.560
 4154SOL    HW213362   7.001   5.491   3.587
 4155SOL     OW13363   6.948   2.038   1.682
 4155SOL    HW113364   6.993   1.964   1.732
 4155SOL    HW213365   6.968   2.030   1.585
 4156SOL     OW13366   6.941   5.024   5.000
 4156SOL    HW113367   6.970   5.119   5.011
 4156SOL    HW213368   6.873   5.002   5.070
 4157SOL     OW13369   6.696   6.614   2.335
 4157SOL    HW113370   6.668   6.671   2.412
 4157SOL    HW213371   6.616   6.566   2.298
 4158SOL     OW13372   2.342   1.967   1.637
 4158SOL    HW113373   2.419   2.029   1.654
 4158SOL    HW213374   2.257   2.020   1.632
 4159SOL     OW13375   2.620   2.051   2.706
 4159SOL    HW113376   2.656   1.984   2.641
 4159SOL    HW213377   2.669   2.137   2.695
 4160SOL     OW13378   6.659   0.218   6.790
 4160SOL    HW113379   6.569   0.206   6.748
 4160SOL    HW213380   6.655   0.292   6.857
 4161SOL     OW13381   1.948   2.095   0.693
 4161SOL    HW113382   1.994   2.090   0.781
 4161SOL    HW213383   2.012   2.069   0.620
 4162SOL     OW13384   6.572   5.914   0.753
 4162SOL    HW113385   6.615   5.866   0.830
 4162SOL    HW213386   6.643   5.957   0.697
 4163SOL     OW13387   5.084   0.904   2.348
 4163SOL    HW113388   5.077   0.829   2.282
 4163SOL    HW213389   4.995   0.916   2.393
 4164SOL     OW13390   6.972   6.912   5.467
 4164SOL    HW113391   0.040   6.887   5.493
 4164SOL    HW213392   6.927   6.957   5.544
 4165SOL     OW13393   4.425   0.207   5.862
 4165SOL    HW113394   4.508   0.208   5.918
 4165SOL    HW213395   4.410   0.298   5.825
 4166SOL     OW13396   6.028   1.014   1.976
 4166SOL    HW113397   5.930   1.035   1.983
 4166SOL    HW213398   6.074   1.086   1.924
 4167SOL     OW13399   2.320   4.514   5.750
 4167SOL    HW113400   2.322   4.505   5.850
 4167SOL    HW213401   2.290   4.427   5.710
 4168SOL     OW13402   6.950   4.539   0.392
 4168SOL    HW113403   0.014   4.517   0.352
 4168SOL    HW213404   6.923   4.466   0.456
 4169SOL     OW13405   6.101   4.220   5.268
 4169SOL    HW113406   6.129   4.213   5.364
 4169SOL    HW213407   6.102   4.316   5.240
 4170SOL     OW13408   4.852   3.094   4.565
 4170SOL    HW113409   4.837   3.143   4.480
 4170SOL    HW213410   4.950   3.093   4.586
 4171SOL     OW13411   1.173   4.643   1.294
 4171SOL    HW113412   1.145   4.738   1.312
 4171SOL    HW213413   1.271   4.634   1.307
 4172SOL     OW13414   2.983   3.295   0.443
 4172SOL    HW113415   2.898   3.343   0.423
 4172SOL    HW213416   3.039   3.291   0.361
 4173SOL     OW13417   4.426   2.948   5.659
 4173SOL    HW113418   4.486   2.927   5.736
 4173SOL    HW213419   4.368   3.026   5.682
 4174SOL     OW13420   4.452   0.554   3.321
 4174SOL    HW113421   4.376   0.495   3.349
 4174SOL    HW213422   4.419   0.648   3.309
 4175SOL     OW13423   1.710   4.650   5.797
 4175SOL    HW113424   1.730   4.735   5.748
 4175SOL    HW213425   1.787   4.627   5.856
 4176SOL     OW13426   4.735   6.220   1.011
 4176SOL    HW113427   4.747   6.319   1.021
 4176SOL    HW213428   4.720   6.198   0.915
 4177SOL     OW13429   5.128   4.816   4.664
 4177SOL    HW113430   5.078   4.853   4.742
 4177SOL    HW213431   5.223   4.849   4.668
 4178SOL     OW13432   4.360   6.418   2.688
 4178SOL    HW113433   4.416   6.494   2.720
 4178SOL    HW213434   4.411   6.364   2.622
 4179SOL     OW13435   5.234   4.040   3.609
 4179SOL    HW113436   5.261   4.132   3.637
 4179SOL    HW213437   5.164   4.046   3.538
 4180SOL     OW13438   5.224   3.508   0.931
 4180SOL    HW113439   5.177   3.595   0.943
 4180SOL    HW213440   5.190   3.463   0.848
 4181SOL     OW13441   5.440   0.472   6.254
 4181SOL    HW113442   5.426   0.375   6.275
 4181SOL    HW213443   5.386   0.527   6.318
 4182SOL     OW13444   0.303   5.150   3.780
 4182SOL    HW113445   0.282   5.109   3.692
 4182SOL    HW213446   0.221   5.150   3.838
 4183SOL     OW13447   2.458   0.712   0.900
 4183SOL    HW113448   2.543   0.677   0.860
 4183SOL    HW213449   2.479   0.795   0.953
 4184SOL     OW13450   3.697   7.012   1.992
 4184SOL    HW113451   3.765   0.032   1.934
 4184SOL    HW213452   3.636   0.055   2.032
 4185SOL     OW13453   0.442   4.052   3.248
 4185SOL    HW113454   0.449   4.135   3.192
 4185SOL    HW213455   0.467   4.073   3.342
 4186SOL     OW13456   2.518   5.973   6.493
 4186SOL    HW113457   2.612   6.003   6.475
 4186SOL    HW213458   2.515   5.873   6.495
 4187SOL     OW13459   2.783   3.500   0.193
 4187SOL    HW113460   2.696   3.541   0.166
 4187SOL    HW213461   2.780   3.477   0.290
 4188SOL     OW13462   5.329   0.432   5.248
 4188SOL    HW113463   5.246   0.411   5.299
 4188SOL    HW213464   5.306   0.482   5.165
 4189SOL     OW13465   3.590   5.145   3.680
 4189SOL    HW113466   3.628   5.223   3.729
 4189SOL    HW213467   3.639   5.062   3.708
 4190SOL     OW13468   0.303   6.412   1.035
 4190SOL    HW113469   0.282   6.412   0.937
 4190SOL    HW213470   0.221   6.385   1.086
 4191SOL     OW13471   5.391   4.170   6.041
 4191SOL    HW113472   5.329   4.099   6.008
 4191SOL    HW213473   5.486   4.143   6.024
 4192SOL     OW13474   1.305   1.292   1.770
 4192SOL    HW113475   1.252   1.318   1.851
 4192SOL    HW213476   1.375   1.226   1.796
 4193SOL     OW13477   5.401   0.479   0.407
 4193SOL    HW113478   5.369   0.569   0.438
 4193SOL    HW213479   5.500   0.482   0.394
 4194SOL     OW13480   4.668   6.845   4.368
 4194SOL    HW113481   4.676   6.944   4.354
 4194SOL    HW213482   4.577   6.814   4.343
 4195SOL     OW13483   4.387   6.044   1.449
 4195SOL    HW113484   4.339   5.969   1.404
 4195SOL    HW213485   4.360   6.131   1.407
 4196SOL     OW13486   0.434   2.486   3.326
 4196SOL    HW113487   0.400   2.404   3.373
 4196SOL    HW213488   0.515   2.520   3.373
 4197SOL     OW13489   4.174   5.784   5.433
 4197SOL    HW113490   4.078   5.767   5.455
 4197SOL    HW213491   4.181   5.867   5.377
 4198SOL     OW13492   6.983   1.329   2.591
 4198SOL    HW113493   6.883   1.323   2.600
 4198SOL    HW213494   7.008   1.323   2.495
 4199SOL     OW13495   1.197   2.439   5.657
 4199SOL    HW113496   1.227   2.499   5.730
 4199SOL    HW213497   1.135   2.488   5.596
 4200SOL     OW13498   3.413   0.390   5.619
 4200SOL    HW113499   3.400   0.322   5.547
 4200SOL    HW213500   3.494   0.367   5.672
 4201SOL     OW13501   6.148   6.745   2.822
 4201SOL    HW113502   6.118   6.827   2.871
 4201SOL    HW213503   6.143   6.667   2.884
 4202SOL     OW13504   3.106   5.936   6.378
 4202SOL    HW113505   3.133   5.968   6.287
 4202SOL    HW213506   3.178   5.957   6.443
 4203SOL     OW13507   5.065   4.550   0.321
 4203SOL    HW113508   5.088   4.605   0.401
 4203SOL    HW213509   4.965   4.550   0.308
 4204SOL     OW13510   3.836   3.366   5.457
 4204SOL    HW113511   3.847   3.456   5.499
 4204SOL    HW213512   3.771   3.312   5.510
 4205SOL     OW13513   3.800   5.467   4.556
 4205SOL    HW113514   3.798   5.562   4.586
 4205SOL    HW213515   3.731   5.453   4.484
 4206SOL     OW13516   6.690   1.633   4.841
 4206SOL    HW113517   6.777   1.677   4.821
 4206SOL    HW213518   6.685   1.545   4.794
 4207SOL     OW13519   2.255   2.629   1.457
 4207SOL    HW113520   2.300   2.559   1.511
 4207SOL    HW213521   2.209   2.587   1.378
 4208SOL     OW13522   0.719   3.836   6.121
 4208SOL    HW113523   0.655   3.773   6.078
 4208SOL    HW213524   0.736   3.913   6.060
 4209SOL     OW13525   6.774   6.354   2.768
 4209SOL    HW113526   6.712   6.288   2.727
 4209SOL    HW213527   6.786   6.432   2.707
 4210SOL     OW13528   4.127   3.376   3.018
 4210SOL    HW113529   4.158   3.312   3.088
 4210SOL    HW213530   4.144   3.469   3.049
 4211SOL     OW13531   3.451   1.605   5.260
 4211SOL    HW113532   3.428   1.511   5.286
 4211SOL    HW213533   3.375   1.665   5.283
 4212SOL     OW13534   6.520   1.988   3.819
 4212SOL    HW113535   6.584   2.057   3.786
 4212SOL    HW213536   6.568   1.921   3.876
 4213SOL     OW13537   2.484   0.042   3.149
 4213SOL    HW113538   2.477   6.992   3.215
 4213SOL    HW213539   2.452   0.010   3.060
 4214SOL     OW13540   0.426   5.944   4.847
 4214SOL    HW113541   0.339   5.900   4.824
 4214SOL    HW213542   0.483   5.881   4.900
 4215SOL     OW13543   5.269   6.816   5.278
 4215SOL    HW113544   5.245   6.745   5.212
 4215SOL    HW213545   5.366   6.807   5.302
 4216SOL     OW13546   1.540   0.845   2.148
 4216SOL    HW113547   1.490   0.931   2.148
 4216SOL    HW213548   1.617   0.850   2.085
 4217SOL     OW13549   1.176   0.960   1.997
 4217SOL    HW113550   1.184   0.922   1.905
 4217SOL    HW213551   1.265   0.994   2.028
 4218SOL     OW13552   3.523   0.432   1.314
 4218SOL    HW113553   3.536   0.333   1.319
 4218SOL    HW213554   3.488   0.456   1.223
 4219SOL     OW13555   4.494   6.418   4.354
 4219SOL    HW113556   4.588   6.389   4.334
 4219SOL    HW213557   4.496   6.487   4.426
 4220SOL     OW13558   5.824   3.286   2.332
 4220SOL    HW113559   5.865   3.221   2.396
 4220SOL    HW213560   5.877   3.371   2.333
 4221SOL     OW13561   6.156   4.495   6.064
 4221SOL    HW113562   6.181   4.497   5.968
 4221SOL    HW213563   6.121   4.405   6.088
 4222SOL     OW13564   6.663   0.990   3.203
 4222SOL    HW113565   6.576   0.991   3.253
 4222SOL    HW213566   6.712   0.906   3.224
 4223SOL     OW13567   4.235   3.757   0.908
 4223SOL    HW113568   4.303   3.708   0.962
 4223SOL    HW213569   4.282   3.814   0.840
 4224SOL     OW13570   4.968   4.928   4.892
 4224SOL    HW113571   4.903   5.003   4.880
 4224SOL    HW213572   4.988   4.916   4.989
 4225SOL     OW13573   1.931   2.193   5.265
 4225SOL    HW113574   1.918   2.290   5.244
 4225SOL    HW213575   1.842   2.149   5.277
 4226SOL     OW13576   1.203   5.494   3.529
 4226SOL    HW113577   1.211   5.396   3.547
 4226SOL    HW213578   1.149   5.509   3.447
 4227SOL     OW13579   4.739   6.253   1.910
 4227SOL    HW113580   4.728   6.335   1.854
 4227SOL    HW213581   4.830   6.253   1.952
 4228SOL     OW13582   0.068   6.585   5.535
 4228SOL    HW113583   0.000   6.613   5.603
 4228SOL    HW213584   0.075   6.486   5.533
 4229SOL     OW13585   4.419   5.472   5.410
 4229SOL    HW113586   4.469   5.416   5.476
 4229SOL    HW213587   4.456   5.565   5.411
 4230SOL     OW13588   1.263   6.613   3.737
 4230SOL    HW113589   1.286   6.622   3.640
 4230SOL    HW213590   1.176   6.660   3.755
 4231SOL     OW13591   4.980   0.154   5.982
 4231SOL    HW113592   5.048   0.161   5.909
 4231SOL    HW213593   5.018   0.101   6.058
 4232SOL     OW13594   1.570   4.875   3.839
 4232SOL    HW113595   1.666   4.852   3.851
 4232SOL    HW213596   1.558   4.927   3.755
 4233SOL     OW13597   6.863   0.898   4.701
 4233SOL    HW113598   6.959   0.898   4.730
 4233SOL    HW213599   6.826   0.806   4.708
 4234SOL     OW13600   2.380   5.485   5.344
 4234SOL    HW113601   2.417   5.576   5.325
 4234SOL    HW213602   2.391   5.427   5.263
 4235SOL     OW13603   0.054   4.607   6.174
 4235SOL    HW113604   0.039   4.537   6.244
 4235SOL    HW213605   0.130   4.666   6.202
 4236SOL     OW13606   6.536   4.271   1.976
 4236SOL    HW113607   6.611   4.213   2.010
 4236SOL    HW213608   6.487   4.311   2.054
 4237SOL     OW13609   6.812   3.963   3.987
 4237SOL    HW113610   6.741   4.032   3.975
 4237SOL    HW213611   6.852   3.973   4.078
 4238SOL     OW13612   1.168   0.052   3.038
 4238SOL    HW113613   1.244   0.067   3.101
 4238SOL    HW213614   1.201   0.002   2.958
 4239SOL     OW13615   4.182   1.383   2.667
 4239SOL    HW113616   4.210   1.478   2.680
 4239SOL    HW213617   4.233   1.343   2.591
 4240SOL     OW13618   2.104   5.596   0.339
 4240SOL    HW113619   2.186   5.538   0.338
 4240SOL    HW213620   2.126   5.683   0.384
 4241SOL     OW13621   5.560   0.777   0.633
 4241SOL    HW113622   5.585   0.863   0.589
 4241SOL    HW213623   5.482   0.737   0.584
 4242SOL     OW13624   3.357   2.151   4.131
 4242SOL    HW113625   3.261   2.157   4.160
 4242SOL    HW213626   3.363   2.101   4.045
 4243SOL     OW13627   5.531   1.785   2.964
 4243SOL    HW113628   5.454   1.723   2.952
 4243SOL    HW213629   5.593   1.778   2.885
 4244SOL     OW13630   4.046   4.312   1.385
 4244SOL    HW113631   4.114   4.278   1.450
 4244SOL    HW213632   4.071   4.283   1.293
 4245SOL     OW13633   6.368   2.464   6.233
 4245SOL    HW113634   6.286   2.428   6.277
 4245SOL    HW213635   6.446   2.405   6.253
 4246SOL     OW13636   6.242   4.029   3.499
 4246SOL    HW113637   6.183   4.042   3.579
 4246SOL    HW213638   6.295   4.113   3.483
 4247SOL     OW13639   1.696   6.763   3.704
 4247SOL    HW113640   1.737   6.706   3.632
 4247SOL    HW213641   1.624   6.820   3.664
 4248SOL     OW13642   2.715   1.873   4.414
 4248SOL    HW113643   2.617   1.857   4.428
 4248SOL    HW213644   2.739   1.850   4.319
 4249SOL     OW13645   6.398   2.777   5.302
 4249SOL    HW113646   6.393   2.821   5.213
 4249SOL    HW213647   6.386   2.678   5.292
 4250SOL     OW13648   6.945   4.563   3.252
 4250SOL    HW113649   7.017   4.493   3.253
 4250SOL    HW213650   6.869   4.532   3.309
 4251SOL     OW13651   5.439   4.607   0.787
 4251SOL    HW113652   5.377   4.605   0.865
 4251SOL    HW213653   5.482   4.698   0.781
 4252SOL     OW13654   6.225   6.566   5.560
 4252SOL    HW113655   6.138   6.614   5.553
 4252SOL    HW213656   6.266   6.583   5.649
 4253SOL     OW13657   2.638   0.128   1.482
 4253SOL    HW113658   2.662   0.037   1.448
 4253SOL    HW213659   2.560   0.121   1.544
 4254SOL     OW13660   1.025   2.398   2.490
 4254SOL    HW113661   1.034   2.304   2.459
 4254SOL    HW213662   1.111   2.447   2.473
 4255SOL     OW13663   5.608   3.074   3.529
 4255SOL    HW113664   5.552   3.155   3.549
 4255SOL    HW213665   5.664   3.092   3.449
 4256SOL     OW13666   1.433   6.742   0.974
 4256SOL    HW113667   1.467   6.649   0.989
 4256SOL    HW213668   1.359   6.740   0.907
 4257SOL     OW13669   3.656   0.476   4.916
 4257SOL    HW113670   3.680   0.555   4.974
 4257SOL    HW213671   3.558   0.457   4.925
 4258SOL     OW13672   5.905   6.231   1.523
 4258SOL    HW113673   5.855   6.317   1.516
 4258SOL    HW213674   5.973   6.226   1.450
 4259SOL     OW13675   2.915   0.270   6.566
 4259SOL    HW113676   2.864   0.312   6.642
 4259SOL    HW213677   2.886   0.175   6.556
 4260SOL     OW13678   5.142   6.726   5.517
 4260SOL    HW113679   5.055   6.769   5.494
 4260SOL    HW213680   5.208   6.743   5.443
 4261SOL     OW13681   1.785   0.714   1.545
 4261SOL    HW113682   1.729   0.638   1.578
 4261SOL    HW213683   1.875   0.710   1.588
 4262SOL     OW13684   0.955   4.714   6.114
 4262SOL    HW113685   0.903   4.748   6.035
 4262SOL    HW213686   1.048   4.690   6.085
 4263SOL     OW13687   2.712   6.436   3.364
 4263SOL    HW113688   2.652   6.514   3.347
 4263SOL    HW213689   2.741   6.398   3.276
 4264SOL     OW13690   6.815   2.103   2.872
 4264SOL    HW113691   6.886   2.148   2.927
 4264SOL    HW213692   6.857   2.061   2.791
 4265SOL     OW13693   5.722   1.409   0.411
 4265SOL    HW113694   5.756   1.347   0.481
 4265SOL    HW213695   5.682   1.490   0.455
 4266SOL     OW13696   1.959   5.585   0.755
 4266SOL    HW113697   2.029   5.536   0.808
 4266SOL    HW213698   1.937   5.531   0.673
 4267SOL     OW13699   1.609   3.622   5.450
 4267SOL    HW113700   1.682   3.690   5.456
 4267SOL    HW213701   1.542   3.651   5.381
 4268SOL     OW13702   1.423   6.396   6.195
 4268SOL    HW113703   1.399   6.353   6.108
 4268SOL    HW213704   1.356   6.467   6.217
 4269SOL     OW13705   2.350   1.292   0.771
 4269SOL    HW113706   2.382   1.222   0.707
 4269SOL    HW213707   2.409   1.294   0.852
 4270SOL     OW13708   3.360   2.970   4.214
 4270SOL    HW113709   3.298   2.938   4.285
 4270SOL    HW213710   3.455   2.955   4.243
 4271SOL     OW13711   0.576   1.278   6.498
 4271SOL    HW113712   0.573   1.368   6.455
 4271SOL    HW213713   0.607   1.288   6.593
 4272SOL     OW13714   0.832   4.469   4.945
 4272SOL    HW113715   0.805   4.520   4.863
 4272SOL    HW213716   0.918   4.505   4.980
 4273SOL     OW13717   4.885   6.022   4.892
 4273SOL    HW113718   4.958   5.958   4.870
 4273SOL    HW213719   4.815   6.018   4.820
 4274SOL     OW13720   1.327   6.941   2.856
 4274SOL    HW113721   1.377   0.001   2.838
 4274SOL    HW213722   1.390   6.864   2.857
 4275SOL     OW13723   6.941   1.816   5.062
 4275SOL    HW113724   6.957   1.813   4.963
 4275SOL    HW213725   6.844   1.832   5.079
 4276SOL     OW13726   1.025   4.420   3.961
 4276SOL    HW113727   1.074   4.506   3.955
 4276SOL    HW213728   0.957   4.415   3.888
 4277SOL     OW13729   6.173   4.576   4.293
 4277SOL    HW113730   6.256   4.520   4.288
 4277SOL    HW213731   6.096   4.518   4.321
 4278SOL     OW13732   6.823   0.723   4.345
 4278SOL    HW113733   6.733   0.709   4.302
 4278SOL    HW213734   6.829   0.668   4.428
 4279SOL     OW13735   3.690   6.728   5.619
 4279SOL    HW113736   3.612   6.722   5.558
 4279SOL    HW213737   3.744   6.809   5.597
 4280SOL     OW13738   5.185   1.242   5.331
 4280SOL    HW113739   5.223   1.238   5.423
 4280SOL    HW213740   5.189   1.151   5.289
 4281SOL     OW13741   2.208   4.694   4.626
 4281SOL    HW113742   2.259   4.624   4.675
 4281SOL    HW213743   2.271   4.757   4.581
 4282SOL     OW13744   3.133   2.179   0.577
 4282SOL    HW113745   3.106   2.237   0.500
 4282SOL    HW213746   3.069   2.191   0.652
 4283SOL     OW13747   1.953   1.187   3.508
 4283SOL    HW113748   1.873   1.244   3.491
 4283SOL    HW213749   1.949   1.150   3.600
 4284SOL     OW13750   4.975   5.819   1.852
 4284SOL    HW113751   5.001   5.734   1.897
 4284SOL    HW213752   4.973   5.805   1.753
 4285SOL     OW13753   0.755   0.745   5.950
 4285SOL    HW113754   0.784   0.841   5.953
 4285SOL    HW213755   0.789   0.698   6.031
 4286SOL     OW13756   5.117   5.727   6.823
 4286SOL    HW113757   5.128   5.651   6.887
 4286SOL    HW213758   5.036   5.780   6.848
 4287SOL     OW13759   5.793   1.150   6.300
 4287SOL    HW113760   5.785   1.111   6.209
 4287SOL    HW213761   5.889   1.159   6.325
 4288SOL     OW13762   1.102   5.564   3.265
 4288SOL    HW113763   1.091   5.660   3.239
 4288SOL    HW213764   1.191   5.531   3.235
 4289SOL     OW13765   5.961   3.177   1.096
 4289SOL    HW113766   5.884   3.152   1.036
 4289SOL    HW213767   5.943   3.266   1.138
 4290SOL     OW13768   2.789   6.543   2.217
 4290SOL    HW113769   2.874   6.518   2.172
 4290SOL    HW213770   2.799   6.531   2.316
 4291SOL     OW13771   4.448   3.705   1.674
 4291SOL    HW113772   4.441   3.803   1.655
 4291SOL    HW213773   4.356   3.666   1.677
 4292SOL     OW13774   6.690   4.687   6.153
 4292SOL    HW113775   6.625   4.658   6.223
 4292SOL    HW213776   6.744   4.764   6.188
 4293SOL     OW13777   0.227   2.917   0.479
 4293SOL    HW113778   0.254   2.821   0.484
 4293SOL    HW213779   0.308   2.975   0.487
 4294SOL     OW13780   3.677   2.963   0.267
 4294SOL    HW113781   3.647   3.045   0.315
 4294SOL    HW213782   3.742   2.989   0.195
 4295SOL     OW13783   3.783   5.886   4.758
 4295SOL    HW113784   3.883   5.890   4.756
 4295SOL    HW213785   3.754   5.845   4.845
 4296SOL     OW13786   3.565   1.213   7.018
 4296SOL    HW113787   3.473   1.252   7.022
 4296SOL    HW213788   3.633   1.286   7.023
 4297SOL     OW13789   5.406   0.738   5.943
 4297SOL    HW113790   5.380   0.813   6.004
 4297SOL    HW213791   5.360   0.654   5.972
 4298SOL     OW13792   2.852   5.270   6.524
 4298SOL    HW113793   2.922   5.230   6.466
 4298SOL    HW213794   2.762   5.241   6.492
 4299SOL     OW13795   0.482   3.093   0.442
 4299SOL    HW113796   0.450   3.186   0.459
 4299SOL    HW213797   0.550   3.094   0.368
 4300SOL     OW13798   3.980   1.330   6.877
 4300SOL    HW113799   3.992   1.236   6.846
 4300SOL    HW213800   3.905   1.372   6.826
 4301SOL     OW13801   3.108   1.272   0.662
 4301SOL    HW113802   3.176   1.334   0.624
 4301SOL    HW213803   3.084   1.202   0.594
 4302SOL     OW13804   0.764   6.800   5.376
 4302SOL    HW113805   0.769   6.850   5.463
 4302SOL    HW213806   0.696   6.727   5.384
 4303SOL     OW13807   5.949   4.986   3.933
 4303SOL    HW113808   5.917   4.903   3.979
 4303SOL    HW213809   6.016   5.032   3.991
 4304SOL     OW13810   2.914   3.571   4.192
 4304SOL    HW113811   2.858   3.652   4.174
 4304SOL    HW213812   2.923   3.558   4.291
 4305SOL     OW13813   5.973   1.023   4.227
 4305SOL    HW113814   6.022   0.989   4.147
 4305SOL    HW213815   5.976   1.123   4.227
 4306SOL     OW13816   6.722   3.692   6.581
 4306SOL    HW113817   6.699   3.726   6.489
 4306SOL    HW213818   6.801   3.631   6.575
 4307SOL     OW13819   5.122   4.047   6.754
 4307SOL    HW113820   5.150   3.952   6.744
 4307SOL    HW213821   5.066   4.057   6.837
 4308SOL     OW13822   5.499   5.107   6.181
 4308SOL    HW113823   5.461   5.170   6.249
 4308SOL    HW213824   5.494   5.013   6.215
 4309SOL     OW13825   1.453   0.923   0.454
 4309SOL    HW113826   1.484   1.018   0.465
 4309SOL    HW213827   1.355   0.922   0.434
 4310SOL     OW13828   2.111   2.419   3.224
 4310SOL    HW113829   2.107   2.325   3.189
 4310SOL    HW213830   2.093   2.483   3.149
 4311SOL     OW13831   1.544   5.802   3.166
 4311SOL    HW113832   1.541   5.705   3.141
 4311SOL    HW213833   1.587   5.854   3.092
 4312SOL     OW13834   1.774   5.445   1.200
 4312SOL    HW113835   1.754   5.467   1.105
 4312SOL    HW213836   1.690   5.446   1.253
 4313SOL     OW13837   5.021   1.441   1.636
 4313SOL    HW113838   5.104   1.486   1.605
 4313SOL    HW213839   5.030   1.342   1.627
 4314SOL     OW13840   5.958   1.976   4.071
 4314SOL    HW113841   5.980   1.882   4.044
 4314SOL    HW213842   5.868   1.978   4.114
 4315SOL     OW13843   2.338   0.680   2.158
 4315SOL    HW113844   2.347   0.597   2.104
 4315SOL    HW213845   2.256   0.675   2.214
 4316SOL     OW13846   5.329   6.949   0.986
 4316SOL    HW113847   5.353   7.019   0.918
 4316SOL    HW213848   5.318   6.993   1.075
 4317SOL     OW13849   4.027   1.131   4.541
 4317SOL    HW113850   3.949   1.187   4.570
 4317SOL    HW213851   4.112   1.176   4.568
 4318SOL     OW13852   1.603   3.185   3.288
 4318SOL    HW113853   1.537   3.220   3.354
 4318SOL    HW213854   1.601   3.241   3.205
 4319SOL     OW13855   2.276   2.699   0.607
 4319SOL    HW113856   2.372   2.724   0.624
 4319SOL    HW213857   2.230   2.773   0.558
 4320SOL     OW13858   0.547   6.000   1.902
 4320SOL    HW113859   0.466   5.997   1.961
 4320SOL    HW213860   0.588   6.091   1.907
 4321SOL     OW13861   6.809   0.094   4.355
 4321SOL    HW113862   6.827   0.035   4.277
 4321SOL    HW213863   6.714   0.083   4.384
 4322SOL     OW13864   6.020   1.844   6.416
 4322SOL    HW113865   6.071   1.928   6.396
 4322SOL    HW213866   6.049   1.808   6.504
 4323SOL     OW13867   5.162   4.079   1.353
 4323SOL    HW113868   5.196   4.148   1.290
 4323SOL    HW213869   5.223   4.000   1.354
 4324SOL     OW13870   5.973   4.513   6.660
 4324SOL    HW113871   5.884   4.557   6.674
 4324SOL    HW213872   5.998   4.464   6.744
 4325SOL     OW13873   1.906   0.524   0.399
 4325SOL    HW113874   1.816   0.566   0.401
 4325SOL    HW213875   1.959   0.561   0.322
 4326SOL     OW13876   5.958   2.793   4.787
 4326SOL    HW113877   5.895   2.837   4.851
 4326SOL    HW213878   5.905   2.743   4.718
 4327SOL     OW13879   5.994   5.180   2.340
 4327SOL    HW113880   6.032   5.126   2.415
 4327SOL    HW213881   5.921   5.239   2.374
 4328SOL     OW13882   4.398   4.074   5.702
 4328SOL    HW113883   4.424   4.163   5.664
 4328SOL    HW213884   4.463   4.004   5.672
 4329SOL     OW13885   3.564   1.743   6.196
 4329SOL    HW113886   3.501   1.820   6.206
 4329SOL    HW213887   3.626   1.742   6.274
 4330SOL     OW13888   2.786   0.387   4.917
 4330SOL    HW113889   2.690   0.401   4.892
 4330SOL    HW213890   2.808   0.439   4.999
 4331SOL     OW13891   4.553   2.946   1.021
 4331SOL    HW113892   4.606   2.884   0.963
 4331SOL    HW213893   4.602   2.962   1.106
 4332SOL     OW13894   5.489   4.654   2.387
 4332SOL    HW113895   5.513   4.563   2.351
 4332SOL    HW213896   5.389   4.663   2.389
 4333SOL     OW13897   4.529   0.813   5.570
 4333SOL    HW113898   4.543   0.808   5.669
 4333SOL    HW213899   4.518   0.909   5.543
 4334SOL     OW13900   1.887   2.321   2.288
 4334SOL    HW113901   1.861   2.260   2.363
 4334SOL    HW213902   1.856   2.414   2.309
 4335SOL     OW13903   3.353   4.182   3.250
 4335SOL    HW113904   3.278   4.129   3.213
 4335SOL    HW213905   3.320   4.238   3.326
 4336SOL     OW13906   1.188   6.643   5.502
 4336SOL    HW113907   1.109   6.597   5.460
 4336SOL    HW213908   1.268   6.584   5.496
 4337SOL     OW13909   1.212   4.498   0.340
 4337SOL    HW113910   1.255   4.432   0.402
 4337SOL    HW213911   1.280   4.538   0.279
 4338SOL     OW13912   4.855   5.752   4.155
 4338SOL    HW113913   4.948   5.715   4.162
 4338SOL    HW213914   4.858   5.851   4.149
 4339SOL     OW13915   6.049   3.948   5.222
 4339SOL    HW113916   6.085   4.041   5.233
 4339SOL    HW213917   6.124   3.883   5.219
 4340SOL     OW13918   5.958   4.352   2.437
 4340SOL    HW113919   5.903   4.338   2.519
 4340SOL    HW213920   6.044   4.397   2.462
 4341SOL     OW13921   1.156   5.762   1.999
 4341SOL    HW113922   1.056   5.757   2.005
 4341SOL    HW213923   1.195   5.671   2.013
 4342SOL     OW13924   6.720   3.491   3.859
 4342SOL    HW113925   6.670   3.482   3.773
 4342SOL    HW213926   6.778   3.410   3.871
 4343SOL     OW13927   2.383   6.680   6.100
 4343SOL    HW113928   2.346   6.700   6.191
 4343SOL    HW213929   2.316   6.627   6.048
 4344SOL     OW13930   1.769   5.174   3.062
 4344SOL    HW113931   1.769   5.220   3.151
 4344SOL    HW213932   1.863   5.170   3.027
 4345SOL     OW13933   1.845   2.731   5.525
 4345SOL    HW113934   1.772   2.776   5.576
 4345SOL    HW213935   1.902   2.799   5.480
 4346SOL     OW13936   2.050   3.112   1.584
 4346SOL    HW113937   2.095   3.185   1.634
 4346SOL    HW213938   2.114   3.037   1.568
 4347SOL     OW13939   5.869   6.927   2.659
 4347SOL    HW113940   5.944   6.917   2.594
 4347SOL    HW213941   5.784   6.897   2.616
 4348SOL     OW13942   0.526   3.295   2.452
 4348SOL    HW113943   0.525   3.197   2.472
 4348SOL    HW213944   0.432   3.328   2.445
 4349SOL     OW13945   6.619   1.760   3.071
 4349SOL    HW113946   6.524   1.789   3.061
 4349SOL    HW213947   6.626   1.661   3.053
 4350SOL     OW13948   4.981   2.379   4.228
 4350SOL    HW113949   5.013   2.427   4.310
 4350SOL    HW213950   4.928   2.442   4.171
 4351SOL     OW13951   1.951   6.380   1.033
 4351SOL    HW113952   1.938   6.436   0.950
 4351SOL    HW213953   1.956   6.440   1.113
 4352SOL     OW13954   1.060   2.182   2.126
 4352SOL    HW113955   1.079   2.087   2.102
 4352SOL    HW213956   1.032   2.187   2.222
 4353SOL     OW13957   3.436   4.499   0.370
 4353SOL    HW113958   3.458   4.509   0.467
 4353SOL    HW213959   3.519   4.477   0.319
 4354SOL     OW13960   2.294   6.641   5.139
 4354SOL    HW113961   2.249   6.625   5.051
 4354SOL    HW213962   2.351   6.563   5.162
 4355SOL     OW13963   3.297   0.440   2.273
 4355SOL    HW113964   3.380   0.462   2.324
 4355SOL    HW213965   3.273   0.517   2.213
 4356SOL     OW13966   4.639   4.315   1.703
 4356SOL    HW113967   4.559   4.276   1.749
 4356SOL    HW213968   4.664   4.401   1.747
 4357SOL     OW13969   6.103   0.249   6.752
 4357SOL    HW113970   6.166   0.204   6.815
 4357SOL    HW213971   6.119   0.216   6.659
 4358SOL     OW13972   6.950   5.712   0.238
 4358SOL    HW113973   0.024   5.702   0.246
 4358SOL    HW213974   6.906   5.626   0.262
 4359SOL     OW13975   1.694   1.950   5.668
 4359SOL    HW113976   1.637   1.895   5.608
 4359SOL    HW213977   1.786   1.911   5.673
 4360SOL     OW13978   1.273   3.076   2.833
 4360SOL    HW113979   1.217   3.100   2.754
 4360SOL    HW213980   1.285   3.157   2.892
 4361SOL     OW13981   2.915   2.891   1.716
 4361SOL    HW113982   2.910   2.948   1.798
 4361SOL    HW213983   2.990   2.826   1.725
 4362SOL     OW13984   6.171   4.072   3.768
 4362SOL    HW113985   6.088   4.048   3.819
 4362SOL    HW213986   6.192   4.169   3.783
 4363SOL     OW13987   5.531   2.685   6.841
 4363SOL    HW113988   5.571   2.755   6.900
 4363SOL    HW213989   5.564   2.698   6.747
 4364SOL     OW13990   3.263   3.765   5.385
 4364SOL    HW113991   3.204   3.833   5.429
 4364SOL    HW213992   3.280   3.792   5.291
 4365SOL     OW13993   2.181   2.666   1.845
 4365SOL    HW113994   2.155   2.588   1.901
 4365SOL    HW213995   2.129   2.664   1.760
 4366SOL     OW13996   5.643   6.512   0.261
 4366SOL    HW113997   5.676   6.559   0.179
 4366SOL    HW213998   5.597   6.428   0.236
 4367SOL     OW13999   2.290   5.103   5.149
 4367SOL    HW114000   2.366   5.165   5.169
 4367SOL    HW214001   2.263   5.054   5.232
 4368SOL     OW14002   3.828   5.327   1.453
 4368SOL    HW114003   3.905   5.288   1.403
 4368SOL    HW214004   3.838   5.309   1.550
 4369SOL     OW14005   4.469   5.831   3.482
 4369SOL    HW114006   4.464   5.913   3.425
 4369SOL    HW214007   4.405   5.840   3.559
 4370SOL     OW14008   4.785   4.671   2.892
 4370SOL    HW114009   4.738   4.591   2.853
 4370SOL    HW214010   4.877   4.644   2.920
 4371SOL     OW14011   6.698   0.723   1.142
 4371SOL    HW114012   6.722   0.744   1.237
 4371SOL    HW214013   6.752   0.645   1.111
 4372SOL     OW14014   4.547   1.109   3.227
 4372SOL    HW114015   4.583   1.016   3.217
 4372SOL    HW214016   4.473   1.108   3.294
 4373SOL     OW14017   0.149   2.405   6.462
 4373SOL    HW114018   0.229   2.348   6.480
 4373SOL    HW214019   0.130   2.462   6.542
 4374SOL     OW14020   0.836   1.875   1.971
 4374SOL    HW114021   0.741   1.907   1.969
 4374SOL    HW214022   0.880   1.899   1.884
 4375SOL     OW14023   3.130   0.290   3.900
 4375SOL    HW114024   3.192   0.343   3.958
 4375SOL    HW214025   3.182   0.244   3.828
 4376SOL     OW14026   6.639   6.813   3.074
 4376SOL    HW114027   6.721   6.786   3.025
 4376SOL    HW214028   6.652   6.802   3.173
 4377SOL     OW14029   6.087   4.057   0.179
 4377SOL    HW114030   6.133   4.114   0.112
 4377SOL    HW214031   6.142   3.975   0.196
 4378SOL     OW14032   1.886   1.530   2.643
 4378SOL    HW114033   1.889   1.497   2.549
 4378SOL    HW214034   1.869   1.629   2.644
 4379SOL     OW14035   2.245   1.299   3.465
 4379SOL    HW114036   2.341   1.317   3.445
 4379SOL    HW214037   2.228   1.316   3.562
 4380SOL     OW14038   1.437   0.222   2.039
 4380SOL    HW114039   1.394   0.307   2.009
 4380SOL    HW214040   1.530   0.218   2.003
 4381SOL     OW14041   0.837   6.163   4.839
 4381SOL    HW114042   0.877   6.125   4.756
 4381SOL    HW214043   0.796   6.252   4.818
 4382SOL     OW14044   0.232   3.764   5.758
 4382SOL    HW114045   0.311   3.767   5.818
 4382SOL    HW214046   0.249   3.821   5.677
 4383SOL     OW14047   0.316   3.973   6.100
 4383SOL    HW114048   0.223   3.953   6.070
 4383SOL    HW214049   0.319   3.977   6.200
 4384SOL     OW14050   6.096   0.524   4.055
 4384SOL    HW114051   6.080   0.596   4.122
 4384SOL    HW214052   6.096   0.562   3.963
 4385SOL     OW14053   4.660   2.416   5.176
 4385SOL    HW114054   4.758   2.416   5.159
 4385SOL    HW214055   4.627   2.322   5.182
 4386SOL     OW14056   1.580   4.056   5.067
 4386SOL    HW114057   1.522   4.051   5.148
 4386SOL    HW214058   1.548   3.991   4.999
 4387SOL     OW14059   6.813   2.241   1.862
 4387SOL    HW114060   6.749   2.176   1.903
 4387SOL    HW214061   6.881   2.191   1.809
 4388SOL     OW14062   3.765   2.348   6.169
 4388SOL    HW114063   3.706   2.393   6.102
 4388SOL    HW214064   3.802   2.264   6.129
 4389SOL     OW14065   6.780   3.866   0.653
 4389SOL    HW114066   6.863   3.921   0.666
 4389SOL    HW214067   6.751   3.873   0.557
 4390SOL     OW14068   4.365   0.024   1.529
 4390SOL    HW114069   4.326   0.023   1.621
 4390SOL    HW214070   4.445   0.083   1.527
 4391SOL     OW14071   3.169   4.826   6.947
 4391SOL    HW114072   3.116   4.827   6.862
 4391SOL    HW214073   3.225   4.743   6.951
 4392SOL     OW14074   1.284   2.407   4.659
 4392SOL    HW114075   1.235   2.490   4.685
 4392SOL    HW214076   1.334   2.371   4.738
 4393SOL     OW14077   6.331   0.678   1.557
 4393SOL    HW114078   6.244   0.668   1.604
 4393SOL    HW214079   6.392   0.735   1.611
 4394SOL     OW14080   0.289   5.974   2.589
 4394SOL    HW114081   0.302   5.891   2.644
 4394SOL    HW214082   0.248   5.949   2.501
 4395SOL     OW14083   1.725   0.612   1.921
 4395SOL    HW114084   1.662   0.630   1.846
 4395SOL    HW214085   1.678   0.559   1.992
 4396SOL     OW14086   1.636   1.285   3.755
 4396SOL    HW114087   1.657   1.379   3.779
 4396SOL    HW214088   1.641   1.273   3.656
 4397SOL     OW14089   1.947   2.713   4.489
 4397SOL    HW114090   1.966   2.637   4.551
 4397SOL    HW214091   2.032   2.745   4.448
 4398SOL     OW14092   1.662   3.464   6.111
 4398SOL    HW114093   1.571   3.505   6.113
 4398SOL    HW214094   1.656   3.369   6.080
 4399SOL     OW14095   3.073   6.462   2.170
 4399SOL    HW114096   3.098   6.556   2.194
 4399SOL    HW214097   3.043   6.459   2.075
 4400SOL     OW14098   1.973   6.942   3.759
 4400SOL    HW114099   1.904   6.943   3.687
 4400SOL    HW214100   1.930   6.921   3.847
 4401SOL     OW14101   3.787   6.455   5.120
 4401SOL    HW114102   3.762   6.403   5.202
 4401SOL    HW214103   3.710   6.454   5.055
 4402SOL     OW14104   0.924   6.836   2.738
 4402SOL    HW114105   0.920   6.755   2.679
 4402SOL    HW214106   0.974   6.909   2.691
 4403SOL     OW14107   1.372   6.960   0.565
 4403SOL    HW114108   1.471   6.956   0.551
 4403SOL    HW214109   1.325   6.965   0.476
 4404SOL     OW14110   0.694   6.431   5.221
 4404SOL    HW114111   0.725   6.478   5.138
 4404SOL    HW214112   0.654   6.498   5.284
 4405SOL     OW14113   2.023   5.061   2.149
 4405SOL    HW114114   1.942   5.049   2.206
 4405SOL    HW214115   2.090   4.991   2.170
 4406SOL     OW14116   6.753   2.784   0.435
 4406SOL    HW114117   6.674   2.834   0.470
 4406SOL    HW214118   6.821   2.773   0.508
 4407SOL     OW14119   0.079   5.193   1.763
 4407SOL    HW114120   7.011   5.191   1.801
 4407SOL    HW214121   0.106   5.100   1.737
 4408SOL     OW14122   1.901   6.751   0.013
 4408SOL    HW114123   1.964   6.717   0.083
 4408SOL    HW214124   1.917   6.703   6.952
 4409SOL     OW14125   4.331   1.386   1.360
 4409SOL    HW114126   4.288   1.308   1.314
 4409SOL    HW214127   4.400   1.352   1.425
 4410SOL     OW14128   0.005   5.501   6.974
 4410SOL    HW114129   7.020   5.466   0.042
 4410SOL    HW214130   0.051   5.590   6.977
 4411SOL     OW14131   3.342   4.615   5.390
 4411SOL    HW114132   3.312   4.702   5.352
 4411SOL    HW214133   3.298   4.540   5.340
 4412SOL     OW14134   4.499   6.396   4.043
 4412SOL    HW114135   4.449   6.412   4.128
 4412SOL    HW214136   4.581   6.452   4.041
 4413SOL     OW14137   5.446   5.602   3.680
 4413SOL    HW114138   5.415   5.632   3.590
 4413SOL    HW214139   5.381   5.634   3.750
 4414SOL     OW14140   3.969   6.083   1.091
 4414SOL    HW114141   3.929   6.000   1.052
 4414SOL    HW214142   3.963   6.158   1.025
 4415SOL     OW14143   4.288   3.135   0.454
 4415SOL    HW114144   4.259   3.227   0.429
 4415SOL    HW214145   4.265   3.117   0.550
 4416SOL     OW14146   4.308   1.781   3.707
 4416SOL    HW114147   4.275   1.864   3.663
 4416SOL    HW214148   4.253   1.703   3.676
 4417SOL     OW14149   5.470   3.445   3.877
 4417SOL    HW114150   5.424   3.520   3.925
 4417SOL    HW214151   5.448   3.448   3.780
 4418SOL     OW14152   6.534   2.159   2.663
 4418SOL    HW114153   6.567   2.248   2.629
 4418SOL    HW214154   6.593   2.128   2.737
 4419SOL     OW14155   6.565   0.269   5.960
 4419SOL    HW114156   6.646   0.212   5.974
 4419SOL    HW214157   6.494   0.214   5.917
 4420SOL     OW14158   3.801   1.628   1.261
 4420SOL    HW114159   3.901   1.620   1.266
 4420SOL    HW214160   3.760   1.569   1.331
 4421SOL     OW14161   2.451   1.934   5.304
 4421SOL    HW114162   2.424   1.960   5.211
 4421SOL    HW214163   2.396   1.856   5.334
 4422SOL     OW14164   1.251   4.330   6.937
 4422SOL    HW114165   1.246   4.422   6.899
 4422SOL    HW214166   1.194   4.268   6.882
 4423SOL     OW14167   0.481   4.450   6.099
 4423SOL    HW114168   0.521   4.381   6.159
 4423SOL    HW214169   0.552   4.515   6.072
 4424SOL     OW14170   5.517   6.152   4.645
 4424SOL    HW114171   5.576   6.233   4.646
 4424SOL    HW214172   5.463   6.149   4.729
 4425SOL     OW14173   1.695   5.245   0.841
 4425SOL    HW114174   1.730   5.199   0.922
 4425SOL    HW214175   1.701   5.344   0.853
 4426SOL     OW14176   0.480   1.394   3.942
 4426SOL    HW114177   0.545   1.426   3.874
 4426SOL    HW214178   0.486   1.451   4.024
 4427SOL     OW14179   4.640   5.883   2.606
 4427SOL    HW114180   4.545   5.884   2.637
 4427SOL    HW214181   4.658   5.799   2.555
 4428SOL     OW14182   4.187   0.525   4.348
 4428SOL    HW114183   4.284   0.525   4.375
 4428SOL    HW214184   4.164   0.613   4.307
 4429SOL     OW14185   2.536   6.425   2.623
 4429SOL    HW114186   2.625   6.463   2.649
 4429SOL    HW214187   2.547   6.368   2.541
 4430SOL     OW14188   4.716   4.878   5.038
 4430SOL    HW114189   4.748   4.796   5.086
 4430SOL    HW214190   4.688   4.854   4.946
 4431SOL     OW14191   2.819   1.055   2.805
 4431SOL    HW114192   2.753   0.980   2.794
 4431SOL    HW214193   2.817   1.087   2.900
 4432SOL     OW14194   2.408   3.638   6.607
 4432SOL    HW114195   2.392   3.736   6.601
 4432SOL    HW214196   2.502   3.617   6.581
 4433SOL     OW14197   0.001   2.760   4.455
 4433SOL    HW114198   0.075   2.693   4.449
 4433SOL    HW214199   0.031   2.838   4.510
 4434SOL     OW14200   5.408   2.001   3.307
 4434SOL    HW114201   5.484   1.984   3.244
 4434SOL    HW214202   5.370   2.091   3.289
 4435SOL     OW14203   4.081   3.815   1.405
 4435SOL    HW114204   4.056   3.801   1.309
 4435SOL    HW214205   4.000   3.804   1.462
 4436SOL     OW14206   3.846   1.408   1.455
 4436SOL    HW114207   3.941   1.428   1.479
 4436SOL    HW214208   3.842   1.328   1.395
 4437SOL     OW14209   0.764   3.178   2.720
 4437SOL    HW114210   0.762   3.271   2.684
 4437SOL    HW214211   0.672   3.138   2.715
 4438SOL     OW14212   5.059   6.641   6.013
 4438SOL    HW114213   4.970   6.634   5.970
 4438SOL    HW214214   5.063   6.580   6.092
 4439SOL     OW14215   0.534   4.878   2.490
 4439SOL    HW114216   0.587   4.825   2.423
 4439SOL    HW214217   0.556   4.847   2.582
 4440SOL     OW14218   2.281   5.222   0.265
 4440SOL    HW114219   2.281   5.312   0.308
 4440SOL    HW214220   2.318   5.154   0.328
 4441SOL     OW14221   6.919   1.055   0.988
 4441SOL    HW114222   6.990   1.002   1.034
 4441SOL    HW214223   6.868   0.995   0.926
 4442SOL     OW14224   1.715   5.608   5.072
 4442SOL    HW114225   1.774   5.670   5.124
 4442SOL    HW214226   1.762   5.521   5.058
 4443SOL     OW14227   0.784   4.013   5.927
 4443SOL    HW114228   0.784   3.983   5.831
 4443SOL    HW214229   0.811   4.110   5.931
 4444SOL     OW14230   4.240   3.388   0.396
 4444SOL    HW114231   4.323   3.420   0.349
 4444SOL    HW214232   4.160   3.418   0.345
 4445SOL     OW14233   1.382   5.991   0.046
 4445SOL    HW114234   1.287   6.007   0.071
 4445SOL    HW214235   1.429   6.080   0.036
 4446SOL     OW14236   5.503   1.683   0.317
 4446SOL    HW114237   5.458   1.596   0.300
 4446SOL    HW214238   5.476   1.749   0.247
 4447SOL     OW14239   5.972   4.168   4.636
 4447SOL    HW114240   6.016   4.118   4.711
 4447SOL    HW214241   5.892   4.217   4.671
 4448SOL     OW14242   2.874   6.295   0.886
 4448SOL    HW114243   2.961   6.246   0.888
 4448SOL    HW214244   2.799   6.231   0.905
 4449SOL     OW14245   4.833   0.963   5.722
 4449SOL    HW114246   4.913   1.010   5.684
 4449SOL    HW214247   4.835   0.867   5.695
 4450SOL     OW14248   3.092   1.632   0.093
 4450SOL    HW114249   3.091   1.712   0.153
 4450SOL    HW214250   3.134   1.656   0.005
 4451SOL     OW14251   4.668   5.001   4.762
 4451SOL    HW114252   4.676   4.967   4.668
 4451SOL    HW214253   4.753   5.049   4.788
 4452SOL     OW14254   6.339   5.214   4.469
 4452SOL    HW114255   6.359   5.219   4.371
 4452SOL    HW214256   6.425   5.208   4.520
 4453SOL     OW14257   1.078   2.765   1.542
 4453SOL    HW114258   1.160   2.713   1.565
 4453SOL    HW214259   1.038   2.804   1.625
 4454SOL     OW14260   1.409   1.763   0.125
 4454SOL    HW114261   1.446   1.670   0.125
 4454SOL    HW214262   1.338   1.770   0.195
 4455SOL     OW14263   5.347   6.065   5.467
 4455SOL    HW114264   5.292   6.138   5.426
 4455SOL    HW214265   5.287   5.993   5.501
 4456SOL     OW14266   2.147   5.761   3.271
 4456SOL    HW114267   2.220   5.710   3.318
 4456SOL    HW214268   2.131   5.720   3.181
 4457SOL     OW14269   2.788   1.912   4.104
 4457SOL    HW114270   2.818   1.817   4.117
 4457SOL    HW214271   2.726   1.917   4.025
 4458SOL     OW14272   2.852   3.698   1.804
 4458SOL    HW114273   2.754   3.702   1.789
 4458SOL    HW214274   2.872   3.657   1.893
 4459SOL     OW14275   3.620   1.794   4.166
 4459SOL    HW114276   3.667   1.706   4.158
 4459SOL    HW214277   3.660   1.847   4.241
 4460SOL     OW14278   1.261   2.713   6.563
 4460SOL    HW114279   1.343   2.736   6.616
 4460SOL    HW214280   1.180   2.749   6.609
 4461SOL     OW14281   1.927   0.781   0.777
 4461SOL    HW114282   1.830   0.787   0.755
 4461SOL    HW214283   1.958   0.686   0.768
 4462SOL     OW14284   5.982   4.455   1.848
 4462SOL    HW114285   5.884   4.459   1.826
 4462SOL    HW214286   6.035   4.486   1.769
 4463SOL     OW14287   4.909   0.913   1.108
 4463SOL    HW114288   4.874   0.987   1.166
 4463SOL    HW214289   4.915   0.829   1.162
 4464SOL     OW14290   0.269   6.274   0.278
 4464SOL    HW114291   0.201   6.314   0.217
 4464SOL    HW214292   0.352   6.254   0.226
 4465SOL     OW14293   2.510   5.136   6.981
 4465SOL    HW114294   2.531   5.181   6.894
 4465SOL    HW214295   2.500   5.205   0.027
 4466SOL     OW14296   1.176   2.064   2.612
 4466SOL    HW114297   1.212   1.971   2.610
 4466SOL    HW214298   1.243   2.125   2.654
 4467SOL     OW14299   2.744   5.329   3.820
 4467SOL    HW114300   2.703   5.344   3.910
 4467SOL    HW214301   2.712   5.242   3.783
 4468SOL     OW14302   1.149   4.466   1.075
 4468SOL    HW114303   1.125   4.542   1.135
 4468SOL    HW214304   1.125   4.380   1.119
 4469SOL     OW14305   2.918   0.977   1.548
 4469SOL    HW114306   2.845   0.908   1.547
 4469SOL    HW214307   2.925   1.019   1.457
 4470SOL     OW14308   0.774   1.647   2.095
 4470SOL    HW114309   0.699   1.680   2.153
 4470SOL    HW214310   0.805   1.721   2.035
 4471SOL     OW14311   1.473   2.443   0.117
 4471SOL    HW114312   1.508   2.396   0.036
 4471SOL    HW214313   1.550   2.474   0.173
 4472SOL     OW14314   0.878   1.791   0.735
 4472SOL    HW114315   0.809   1.822   0.801
 4472SOL    HW214316   0.841   1.801   0.642
 4473SOL     OW14317   5.133   2.685   3.974
 4473SOL    HW114318   5.189   2.604   3.992
 4473SOL    HW214319   5.127   2.700   3.875
 4474SOL     OW14320   2.923   6.859   2.360
 4474SOL    HW114321   2.841   6.815   2.396
 4474SOL    HW214322   2.974   6.793   2.304
 4475SOL     OW14323   1.152   3.663   1.521
 4475SOL    HW114324   1.085   3.611   1.574
 4475SOL    HW214325   1.154   3.629   1.427
 4476SOL     OW14326   6.227   0.667   4.355
 4476SOL    HW114327   6.155   0.670   4.285
 4476SOL    HW214328   6.300   0.731   4.331
 4477SOL     OW14329   1.613   0.367   5.094
 4477SOL    HW114330   1.674   0.446   5.093
 4477SOL    HW214331   1.639   0.305   5.168
 4478SOL     OW14332   1.606   0.463   2.153
 4478SOL    HW114333   1.597   0.378   2.205
 4478SOL    HW214334   1.515   0.497   2.130
 4479SOL     OW14335   1.403   1.955   1.393
 4479SOL    HW114336   1.495   1.919   1.375
 4479SOL    HW214337   1.339   1.878   1.403
 4480SOL     OW14338   0.642   4.882   5.198
 4480SOL    HW114339   0.740   4.898   5.192
 4480SOL    HW214340   0.593   4.948   5.142
 4481SOL     OW14341   2.488   5.272   5.177
 4481SOL    HW114342   2.510   5.336   5.103
 4481SOL    HW214343   2.569   5.216   5.198
 4482SOL     OW14344   2.108   2.832   5.760
 4482SOL    HW114345   2.179   2.842   5.690
 4482SOL    HW214346   2.031   2.781   5.723
 4483SOL     OW14347   0.370   2.682   2.247
 4483SOL    HW114348   0.350   2.769   2.202
 4483SOL    HW214349   0.469   2.671   2.255
 4484SOL     OW14350   2.512   2.877   0.136
 4484SOL    HW114351   2.489   2.789   0.094
 4484SOL    HW214352   2.607   2.874   0.169
 4485SOL     OW14353   4.940   2.746   5.201
 4485SOL    HW114354   5.006   2.702   5.139
 4485SOL    HW214355   4.851   2.750   5.156
 4486SOL     OW14356   5.816   5.040   5.115
 4486SOL    HW114357   5.754   4.987   5.172
 4486SOL    HW214358   5.818   5.135   5.146
 4487SOL     OW14359   2.508   3.113   0.320
 4487SOL    HW114360   2.492   3.036   0.258
 4487SOL    HW214361   2.447   3.106   0.399
 4488SOL     OW14362   0.717   3.750   4.817
 4488SOL    HW114363   0.744   3.836   4.775
 4488SOL    HW214364   0.686   3.687   4.746
 4489SOL     OW14365   4.502   5.397   5.137
 4489SOL    HW114366   4.413   5.355   5.153
 4489SOL    HW214367   4.546   5.415   5.225
 4490SOL     OW14368   5.168   1.686   1.584
 4490SOL    HW114369   5.235   1.756   1.608
 4490SOL    HW214370   5.134   1.702   1.491
 4491SOL     OW14371   0.628   3.362   3.316
 4491SOL    HW114372   0.707   3.383   3.373
 4491SOL    HW214373   0.639   3.272   3.274
 4492SOL     OW14374   6.009   3.078   1.814
 4492SOL    HW114375   6.011   3.011   1.889
 4492SOL    HW214376   5.967   3.162   1.846
 4493SOL     OW14377   5.297   6.604   5.052
 4493SOL    HW114378   5.229   6.538   5.083
 4493SOL    HW214379   5.368   6.615   5.121
 4494SOL     OW14380   1.069   0.712   6.030
 4494SOL    HW114381   1.150   0.692   5.974
 4494SOL    HW214382   1.061   0.810   6.045
 4495SOL     OW14383   4.409   0.066   3.004
 4495SOL    HW114384   4.358   0.051   3.088
 4495SOL    HW214385   4.346   0.067   2.926
 4496SOL     OW14386   5.390   5.939   0.611
 4496SOL    HW114387   5.402   6.038   0.613
 4496SOL    HW214388   5.400   5.906   0.517
 4497SOL     OW14389   4.072   2.597   6.674
 4497SOL    HW114390   4.020   2.651   6.608
 4497SOL    HW214391   4.164   2.581   6.639
 4498SOL     OW14392   6.859   4.656   6.427
 4498SOL    HW114393   6.768   4.627   6.455
 4498SOL    HW214394   6.914   4.575   6.405
 4499SOL     OW14395   6.360   2.170   3.506
 4499SOL    HW114396   6.296   2.191   3.580
 4499SOL    HW214397   6.428   2.243   3.498
 4500SOL     OW14398   4.054   4.472   6.682
 4500SOL    HW114399   3.987   4.541   6.657
 4500SOL    HW214400   4.008   4.390   6.714
 4501SOL     OW14401   6.388   3.006   3.006
 4501SOL    HW114402   6.428   2.932   2.952
 4501SOL    HW214403   6.320   3.055   2.950
 4502SOL     OW14404   1.297   3.731   0.091
 4502SOL    HW114405   1.285   3.829   0.074
 4502SOL    HW214406   1.394   3.710   0.104
 4503SOL     OW14407   3.028   0.069   2.238
 4503SOL    HW114408   2.965   0.080   2.161
 4503SOL    HW214409   2.997   7.019   2.296
 4504SOL     OW14410   6.018   2.152   4.401
 4504SOL    HW114411   6.007   2.183   4.495
 4504SOL    HW214412   5.928   2.136   4.361
 4505SOL     OW14413   6.439   4.541   1.476
 4505SOL    HW114414   6.429   4.517   1.573
 4505SOL    HW214415   6.522   4.595   1.464
 4506SOL     OW14416   5.153   2.399   3.094
 4506SOL    HW114417   5.199   2.455   3.025
 4506SOL    HW214418   5.222   2.353   3.151
 4507SOL     OW14419   0.238   3.082   3.426
 4507SOL    HW114420   0.327   3.103   3.467
 4507SOL    HW214421   0.225   3.140   3.345
 4508SOL     OW14422   1.319   4.769   0.156
 4508SOL    HW114423   1.414   4.737   0.147
 4508SOL    HW214424   1.293   4.817   0.072
 4509SOL     OW14425   4.568   2.125   3.059
 4509SOL    HW114426   4.495   2.188   3.088
 4509SOL    HW214427   4.589   2.141   2.963
 4510SOL     OW14428   4.464   1.011   4.464
 4510SOL    HW114429   4.469   0.939   4.534
 4510SOL    HW214430   4.536   1.079   4.481
 4511SOL     OW14431   5.866   3.421   0.282
 4511SOL    HW114432   5.919   3.356   0.226
 4511SOL    HW214433   5.844   3.378   0.370
 4512SOL     OW14434   3.421   2.055   5.788
 4512SOL    HW114435   3.334   2.025   5.826
 4512SOL    HW214436   3.450   1.992   5.716
 4513SOL     OW14437   0.916   6.266   6.431
 4513SOL    HW114438   0.929   6.258   6.530
 4513SOL    HW214439   0.818   6.270   6.410
 4514SOL     OW14440   3.648   2.737   6.441
 4514SOL    HW114441   3.558   2.752   6.483
 4514SOL    HW214442   3.655   2.641   6.412
 4515SOL     OW14443   5.541   2.093   5.067
 4515SOL    HW114444   5.481   2.135   5.134
 4515SOL    HW214445   5.623   2.057   5.113
 4516SOL     OW14446   2.330   0.416   5.460
 4516SOL    HW114447   2.240   0.388   5.492
 4516SOL    HW214448   2.351   0.508   5.495
 4517SOL     OW14449   4.436   6.967   6.764
 4517SOL    HW114450   4.470   0.035   6.757
 4517SOL    HW214451   4.360   6.954   6.699
 4518SOL     OW14452   0.689   6.758   1.527
 4518SOL    HW114453   0.618   6.759   1.597
 4518SOL    HW214454   0.722   6.664   1.515
 4519SOL     OW14455   5.081   6.562   0.168
 4519SOL    HW114456   5.148   6.585   0.097
 4519SOL    HW214457   4.989   6.567   0.129
 4520SOL     OW14458   4.467   5.756   5.809
 4520SOL    HW114459   4.417   5.687   5.757
 4520SOL    HW214460   4.564   5.730   5.815
 4521SOL     OW14461   4.762   2.410   4.587
 4521SOL    HW114462   4.750   2.312   4.576
 4521SOL    HW214463   4.675   2.451   4.614
 4522SOL     OW14464   5.785   4.034   2.454
 4522SOL    HW114465   5.710   4.092   2.486
 4522SOL    HW214466   5.769   3.940   2.484
 4523SOL     OW14467   1.629   3.838   6.836
 4523SOL    HW114468   1.588   3.747   6.834
 4523SOL    HW214469   1.640   3.872   6.743
 4524SOL     OW14470   6.290   3.498   2.194
 4524SOL    HW114471   6.364   3.513   2.128
 4524SOL    HW214472   6.231   3.424   2.162
 4525SOL     OW14473   3.157   1.952   5.628
 4525SOL    HW114474   3.139   1.875   5.566
 4525SOL    HW214475   3.218   1.921   5.701
 4526SOL     OW14476   6.825   0.619   6.579
 4526SOL    HW114477   6.893   0.551   6.605
 4526SOL    HW214478   6.849   0.658   6.490
 4527SOL     OW14479   6.552   0.050   3.008
 4527SOL    HW114480   6.464   0.075   3.048
 4527SOL    HW214481   6.556   6.976   2.995
 4528SOL     OW14482   4.421   0.929   6.519
 4528SOL    HW114483   4.346   0.885   6.469
 4528SOL    HW214484   4.396   0.937   6.616
 4529SOL     OW14485   2.865   1.303   5.891
 4529SOL    HW114486   2.913   1.391   5.896
 4529SOL    HW214487   2.927   1.230   5.917
 4530SOL     OW14488   2.276   5.661   3.700
 4530SOL    HW114489   2.349   5.595   3.720
 4530SOL    HW214490   2.189   5.612   3.691
 4531SOL     OW14491   1.428   3.594   6.048
 4531SOL    HW114492   1.372   3.633   5.975
 4531SOL    HW214493   1.370   3.547   6.114
 4532SOL     OW14494   5.591   0.375   3.201
 4532SOL    HW114495   5.657   0.451   3.207
 4532SOL    HW214496   5.552   0.359   3.292
 4533SOL     OW14497   1.630   1.516   2.732
 4533SOL    HW114498   1.726   1.531   2.711
 4533SOL    HW214499   1.597   1.436   2.682
 4534SOL     OW14500   4.411   2.226   5.391
 4534SOL    HW114501   4.496   2.209   5.342
 4534SOL    HW214502   4.423   2.204   5.488
 4535SOL     OW14503   3.261   0.778   1.318
 4535SOL    HW114504   3.234   0.811   1.228
 4535SOL    HW214505   3.316   0.849   1.363
 4536SOL     OW14506   3.273   1.519   4.815
 4536SOL    HW114507   3.183   1.555   4.838
 4536SOL    HW214508   3.336   1.534   4.892
 4537SOL     OW14509   4.129   3.284   2.172
 4537SOL    HW114510   4.118   3.275   2.073
 4537SOL    HW214511   4.179   3.204   2.207
 4538SOL     OW14512   2.308   1.263   1.952
 4538SOL    HW114513   2.321   1.300   2.044
 4538SOL    HW214514   2.382   1.296   1.892
 4539SOL     OW14515   2.259   5.628   4.029
 4539SOL    HW114516   2.211   5.699   4.081
 4539SOL    HW214517   2.277   5.662   3.937
 4540SOL     OW14518   1.928   1.405   0.823
 4540SOL    HW114519   2.002   1.341   0.846
 4540SOL    HW214520   1.895   1.447   0.907
 4541SOL     OW14521   4.822   1.040   0.125
 4541SOL    HW114522   4.912   1.063   0.164
 4541SOL    HW214523   4.808   0.941   0.131
 4542SOL     OW14524   6.860   1.573   1.636
 4542SOL    HW114525   6.937   1.514   1.610
 4542SOL    HW214526   6.860   1.584   1.736
 4543SOL     OW14527   4.743   2.144   0.456
 4543SOL    HW114528   4.771   2.073   0.520
 4543SOL    HW214529   4.774   2.233   0.489
 4544SOL     OW14530   4.252   4.830   0.580
 4544SOL    HW114531   4.171   4.808   0.635
 4544SOL    HW214532   4.334   4.800   0.628
 4545SOL     OW14533   0.414   3.506   5.565
 4545SOL    HW114534   0.353   3.509   5.486
 4545SOL    HW214535   0.492   3.566   5.548
 4546SOL     OW14536   3.089   0.216   5.114
 4546SOL    HW114537   3.030   0.225   5.033
 4546SOL    HW214538   3.079   0.297   5.171
 4547SOL     OW14539   6.169   0.933   0.154
 4547SOL    HW114540   6.098   0.999   0.181
 4547SOL    HW214541   6.201   0.956   0.062
 4548SOL     OW14542   2.777   2.311   3.172
 4548SOL    HW114543   2.837   2.279   3.245
 4548SOL    HW214544   2.723   2.389   3.205
 4549SOL     OW14545   5.146   4.209   2.060
 4549SOL    HW114546   5.073   4.169   2.117
 4549SOL    HW214547   5.106   4.272   1.994
 4550SOL     OW14548   1.245   4.269   3.540
 4550SOL    HW114549   1.257   4.243   3.444
 4550SOL    HW214550   1.148   4.285   3.558
 4551SOL     OW14551   0.679   3.999   5.217
 4551SOL    HW114552   0.686   4.030   5.312
 4551SOL    HW214553   0.697   4.076   5.156
 4552SOL     OW14554   5.907   2.123   1.263
 4552SOL    HW114555   5.890   2.173   1.178
 4552SOL    HW214556   5.860   2.035   1.259
 4553SOL     OW14557   5.410   4.436   6.632
 4553SOL    HW114558   5.416   4.496   6.552
 4553SOL    HW214559   5.498   4.392   6.648
 4554SOL     OW14560   0.330   6.960   1.542
 4554SOL    HW114561   0.283   6.873   1.556
 4554SOL    HW214562   0.265   0.010   1.556
 4555SOL     OW14563   1.594   1.335   6.687
 4555SOL    HW114564   1.658   1.352   6.763
 4555SOL    HW214565   1.636   1.367   6.602
 4556SOL     OW14566   6.002   3.336   5.342
 4556SOL    HW114567   5.977   3.272   5.268
 4556SOL    HW214568   6.014   3.427   5.304
 4557SOL     OW14569   5.955   4.921   4.640
 4557SOL    HW114570   5.934   4.886   4.731
 4557SOL    HW214571   5.887   4.990   4.614
 4558SOL     OW14572   6.962   3.347   5.286
 4558SOL    HW114573   6.952   3.272   5.352
 4558SOL    HW214574   6.923   3.319   5.198
 4559SOL     OW14575   0.497   3.787   2.627
 4559SOL    HW114576   0.472   3.862   2.566
 4559SOL    HW214577   0.414   3.740   2.658
 4560SOL     OW14578   6.215   4.483   2.452
 4560SOL    HW114579   6.255   4.549   2.389
 4560SOL    HW214580   6.175   4.531   2.530
 4561SOL     OW14581   3.688   1.604   3.570
 4561SOL    HW114582   3.604   1.658   3.568
 4561SOL    HW214583   3.748   1.637   3.643
 4562SOL     OW14584   1.546   0.198   0.339
 4562SOL    HW114585   1.616   0.144   0.387
 4562SOL    HW214586   1.588   0.245   0.261
 4563SOL     OW14587   6.316   3.244   1.082
 4563SOL    HW114588   6.281   3.301   1.157
 4563SOL    HW214589   6.263   3.263   0.999
 4564SOL     OW14590   0.248   5.041   2.213
 4564SOL    HW114591   0.256   4.968   2.281
 4564SOL    HW214592   0.237   5.001   2.122
 4565SOL     OW14593   1.598   1.538   4.748
 4565SOL    HW114594   1.682   1.579   4.711
 4565SOL    HW214595   1.583   1.571   4.841
 4566SOL     OW14596   0.585   3.188   0.918
 4566SOL    HW114597   0.513   3.205   0.985
 4566SOL    HW214598   0.636   3.105   0.944
 4567SOL     OW14599   0.239   0.649   6.857
 4567SOL    HW114600   0.218   0.686   6.947
 4567SOL    HW214601   0.158   0.652   6.799
 4568SOL     OW14602   1.087   4.356   5.289
 4568SOL    HW114603   1.177   4.373   5.329
 4568SOL    HW214604   1.097   4.319   5.197
 4569SOL     OW14605   3.010   0.686   2.918
 4569SOL    HW114606   3.025   0.742   2.836
 4569SOL    HW214607   2.917   0.649   2.917
 4570SOL     OW14608   6.295   6.695   2.058
 4570SOL    HW114609   6.205   6.651   2.059
 4570SOL    HW214610   6.339   6.681   2.147
 4571SOL     OW14611   4.204   3.255   6.631
 4571SOL    HW114612   4.170   3.161   6.635
 4571SOL    HW214613   4.302   3.256   6.650
 4572SOL     OW14614   1.661   1.494   6.466
 4572SOL    HW114615   1.742   1.509   6.410
 4572SOL    HW214616   1.579   1.524   6.416
 4573SOL     OW14617   0.728   6.891   0.635
 4573SOL    HW114618   0.631   6.875   0.616
 4573SOL    HW214619   0.740   6.912   0.732
 4574SOL     OW14620   5.928   4.184   6.859
 4574SOL    HW114621   5.878   4.133   6.930
 4574SOL    HW214622   5.957   4.272   6.896
 4575SOL     OW14623   5.830   0.627   4.803
 4575SOL    HW114624   5.766   0.646   4.729
 4575SOL    HW214625   5.874   0.539   4.788
 4576SOL     OW14626   2.497   4.521   5.481
 4576SOL    HW114627   2.519   4.489   5.389
 4576SOL    HW214628   2.490   4.443   5.543
 4577SOL     OW14629   1.730   2.698   3.417
 4577SOL    HW114630   1.769   2.787   3.393
 4577SOL    HW214631   1.802   2.641   3.458
 4578SOL     OW14632   1.124   1.355   4.623
 4578SOL    HW114633   1.045   1.360   4.685
 4578SOL    HW214634   1.206   1.332   4.675
 4579SOL     OW14635   4.485   1.122   2.259
 4579SOL    HW114636   4.437   1.034   2.256
 4579SOL    HW214637   4.437   1.188   2.201
 4580SOL     OW14638   5.530   4.117   0.949
 4580SOL    HW114639   5.522   4.107   0.850
 4580SOL    HW214640   5.443   4.092   0.992
 4581SOL     OW14641   2.379   6.027   2.356
 4581SOL    HW114642   2.297   6.083   2.363
 4581SOL    HW214643   2.432   6.054   2.276
 4582SOL     OW14644   4.631   0.839   3.246
 4582SOL    HW114645   4.671   0.795   3.326
 4582SOL    HW214646   4.531   0.836   3.253
 4583SOL     OW14647   3.035   1.408   6.648
 4583SOL    HW114648   2.972   1.338   6.615
 4583SOL    HW214649   3.088   1.445   6.571
 4584SOL     OW14650   2.033   6.430   5.605
 4584SOL    HW114651   2.054   6.333   5.593
 4584SOL    HW214652   2.118   6.481   5.619
 4585SOL     OW14653   1.565   4.209   3.565
 4585SOL    HW114654   1.470   4.216   3.593
 4585SOL    HW214655   1.577   4.126   3.510
 4586SOL     OW14656   4.958   4.059   0.276
 4586SOL    HW114657   5.020   4.005   0.218
 4586SOL    HW214658   4.986   4.051   0.372
 4587SOL     OW14659   3.857   3.451   4.379
 4587SOL    HW114660   3.769   3.417   4.346
 4587SOL    HW214661   3.923   3.376   4.383
 4588SOL     OW14662   3.587   3.112   6.014
 4588SOL    HW114663   3.601   3.016   6.037
 4588SOL    HW214664   3.499   3.142   6.052
 4589SOL     OW14665   5.438   6.723   1.853
 4589SOL    HW114666   5.349   6.747   1.893
 4589SOL    HW214667   5.508   6.730   1.923
 4590SOL     OW14668   3.808   5.594   1.781
 4590SOL    HW114669   3.900   5.622   1.754
 4590SOL    HW214670   3.782   5.640   1.866
 4591SOL     OW14671   1.455   0.523   4.931
 4591SOL    HW114672   1.497   0.573   4.855
 4591SOL    HW214673   1.518   0.453   4.964
 4592SOL     OW14674   2.966   1.762   3.645
 4592SOL    HW114675   3.041   1.697   3.660
 4592SOL    HW214676   2.995   1.853   3.676
 4593SOL     OW14677   6.285   6.130   2.323
 4593SOL    HW114678   6.344   6.199   2.364
 4593SOL    HW214679   6.240   6.077   2.395
 4594SOL     OW14680   3.504   0.365   3.130
 4594SOL    HW114681   3.456   0.283   3.159
 4594SOL    HW214682   3.448   0.446   3.151
 4595SOL     OW14683   4.664   2.776   5.807
 4595SOL    HW114684   4.590   2.719   5.771
 4595SOL    HW214685   4.750   2.727   5.800
 4596SOL     OW14686   6.644   0.575   2.573
 4596SOL    HW114687   6.575   0.559   2.643
 4596SOL    HW214688   6.691   0.662   2.593
 4597SOL     OW14689   2.772   5.544   6.539
 4597SOL    HW114690   2.817   5.454   6.536
 4597SOL    HW214691   2.768   5.576   6.634
 4598SOL     OW14692   2.018   5.595   1.437
 4598SOL    HW114693   2.006   5.694   1.433
 4598SOL    HW214694   1.932   5.553   1.467
 4599SOL     OW14695   1.448   4.165   2.030
 4599SOL    HW114696   1.472   4.070   2.049
 4599SOL    HW214697   1.518   4.225   2.070
 4600SOL     OW14698   0.317   0.278   5.292
 4600SOL    HW114699   0.373   0.233   5.223
 4600SOL    HW214700   0.365   0.276   5.380
 4601SOL     OW14701   1.012   1.964   5.431
 4601SOL    HW114702   1.028   1.877   5.477
 4601SOL    HW214703   1.055   2.038   5.483
 4602SOL     OW14704   2.896   0.069   6.134
 4602SOL    HW114705   2.810   0.026   6.160
 4602SOL    HW214706   2.924   0.036   6.044
 4603SOL     OW14707   3.126   5.653   0.782
 4603SOL    HW114708   3.112   5.751   0.800
 4603SOL    HW214709   3.053   5.620   0.722
 4604SOL     OW14710   5.277   6.947   6.497
 4604SOL    HW114711   5.305   6.964   6.402
 4604SOL    HW214712   5.184   6.981   6.511
 4605SOL     OW14713   2.358   0.265   1.910
 4605SOL    HW114714   2.273   0.215   1.921
 4605SOL    HW214715   2.340   0.363   1.919
 4606SOL     OW14716   6.306   0.292   2.472
 4606SOL    HW114717   6.247   0.318   2.548
 4606SOL    HW214718   6.323   0.193   2.476
 4607SOL     OW14719   2.074   3.600   3.240
 4607SOL    HW114720   2.115   3.595   3.149
 4607SOL    HW214721   2.010   3.677   3.243
 4608SOL     OW14722   0.336   3.787   3.293
 4608SOL    HW114723   0.351   3.884   3.275
 4608SOL    HW214724   0.375   3.732   3.219
 4609SOL     OW14725   4.945   5.077   6.917
 4609SOL    HW114726   4.981   5.161   6.956
 4609SOL    HW214727   4.985   4.998   6.964
 4610SOL     OW14728   4.790   1.751   6.950
 4610SOL    HW114729   4.697   1.779   6.927
 4610SOL    HW214730   4.855   1.808   6.900
 4611SOL     OW14731   0.800   1.038   6.056
 4611SOL    HW114732   0.736   1.045   6.133
 4611SOL    HW214733   0.768   1.094   5.980
 4612SOL     OW14734   2.528   6.889   2.038
 4612SOL    HW114735   2.572   6.810   1.995
 4612SOL    HW214736   2.598   6.953   2.068
 4613SOL     OW14737   1.374   5.672   2.854
 4613SOL    HW114738   1.464   5.629   2.865
 4613SOL    HW214739   1.383   5.771   2.857
 4614SOL     OW14740   6.324   3.115   3.857
 4614SOL    HW114741   6.354   3.208   3.833
 4614SOL    HW214742   6.386   3.077   3.925
 4615SOL     OW14743   1.157   0.659   1.448
 4615SOL    HW114744   1.174   0.630   1.353
 4615SOL    HW214745   1.237   0.707   1.483
 4616SOL     OW14746   5.908   2.868   3.987
 4616SOL    HW114747   5.849   2.790   3.968
 4616SOL    HW214748   6.002   2.845   3.961
 4617SOL     OW14749   1.886   2.389   2.000
 4617SOL    HW114750   1.792   2.417   1.983
 4617SOL    HW214751   1.898   2.373   2.098
 4618SOL     OW14752   2.339   3.175   5.824
 4618SOL    HW114753   2.400   3.121   5.766
 4618SOL    HW214754   2.326   3.266   5.784
 4619SOL     OW14755   3.431   6.701   4.143
 4619SOL    HW114756   3.487   6.784   4.137
 4619SOL    HW214757   3.346   6.721   4.191
 4620SOL     OW14758   0.594   4.794   1.403
 4620SOL    HW114759   0.571   4.856   1.478
 4620SOL    HW214760   0.511   4.766   1.356
 4621SOL     OW14761   5.213   1.062   2.600
 4621SOL    HW114762   5.263   1.143   2.571
 4621SOL    HW214763   5.166   1.022   2.521
 4622SOL     OW14764   4.000   5.228   1.257
 4622SOL    HW114765   3.929   5.268   1.199
 4622SOL    HW214766   4.030   5.141   1.217
 4623SOL     OW14767   3.284   5.433   0.905
 4623SOL    HW114768   3.366   5.420   0.849
 4623SOL    HW214769   3.219   5.492   0.856
 4624SOL     OW14770   3.254   1.199   3.250
 4624SOL    HW114771   3.302   1.266   3.307
 4624SOL    HW214772   3.260   1.227   3.154
 4625SOL     OW14773   2.256   5.579   1.997
 4625SOL    HW114774   2.285   5.496   2.045
 4625SOL    HW214775   2.296   5.659   2.042
 4626SOL     OW14776   4.427   4.772   1.378
 4626SOL    HW114777   4.490   4.699   1.351
 4626SOL    HW214778   4.475   4.838   1.435
 4627SOL     OW14779   0.758   6.013   5.044
 4627SOL    HW114780   0.787   6.082   4.978
 4627SOL    HW214781   0.838   5.962   5.077
 4628SOL     OW14782   4.991   4.318   4.404
 4628SOL    HW114783   5.017   4.285   4.495
 4628SOL    HW214784   4.931   4.398   4.414
 4629SOL     OW14785   2.304   4.900   6.107
 4629SOL    HW114786   2.233   4.970   6.097
 4629SOL    HW214787   2.264   4.816   6.144
 4630SOL     OW14788   2.562   5.275   2.345
 4630SOL    HW114789   2.526   5.368   2.348
 4630SOL    HW214790   2.488   5.211   2.328
 4631SOL     OW14791   0.614   6.748   3.718
 4631SOL    HW114792   0.553   6.670   3.733
 4631SOL    HW214793   0.659   6.739   3.630
 4632SOL     OW14794   2.373   4.938   3.256
 4632SOL    HW114795   2.388   4.927   3.157
 4632SOL    HW214796   2.342   5.032   3.274
 4633SOL     OW14797   5.088   1.179   4.988
 4633SOL    HW114798   5.123   1.199   4.897
 4633SOL    HW214799   5.128   1.093   5.021
 4634SOL     OW14800   2.939   3.934   4.946
 4634SOL    HW114801   2.843   3.947   4.971
 4634SOL    HW214802   2.945   3.890   4.857
 4635SOL     OW14803   4.489   4.342   1.467
 4635SOL    HW114804   4.400   4.310   1.501
 4635SOL    HW214805   4.560   4.317   1.532
 4636SOL     OW14806   1.874   4.829   0.680
 4636SOL    HW114807   1.872   4.754   0.747
 4636SOL    HW214808   1.780   4.858   0.660
 4637SOL     OW14809   0.942   6.681   0.259
 4637SOL    HW114810   1.022   6.700   0.203
 4637SOL    HW214811   0.905   6.591   0.236
 4638SOL     OW14812   3.818   5.624   6.583
 4638SOL    HW114813   3.774   5.709   6.553
 4638SOL    HW214814   3.769   5.587   6.662
 4639SOL     OW14815   2.636   2.619   6.362
 4639SOL    HW114816   2.542   2.621   6.396
 4639SOL    HW214817   2.635   2.601   6.264
 4640SOL     OW14818   6.337   3.133   4.258
 4640SOL    HW114819   6.397   3.107   4.334
 4640SOL    HW214820   6.277   3.057   4.236
 4641SOL     OW14821   1.934   0.264   3.676
 4641SOL    HW114822   1.865   0.209   3.628
 4641SOL    HW214823   1.906   0.359   3.678
 4642SOL     OW14824   1.368   0.072   3.229
 4642SOL    HW114825   1.463   0.042   3.233
 4642SOL    HW214826   1.340   0.107   3.319
 4643SOL     OW14827   6.727   2.587   0.806
 4643SOL    HW114828   6.729   2.645   0.888
 4643SOL    HW214829   6.659   2.621   0.742
 4644SOL     OW14830   0.171   0.866   5.573
 4644SOL    HW114831   0.137   0.843   5.664
 4644SOL    HW214832   0.107   0.835   5.503
 4645SOL     OW14833   1.395   0.776   4.219
 4645SOL    HW114834   1.360   0.868   4.201
 4645SOL    HW214835   1.356   0.712   4.153
 4646SOL     OW14836   2.424   4.733   4.202
 4646SOL    HW114837   2.488   4.755   4.275
 4646SOL    HW214838   2.453   4.649   4.156
 4647SOL     OW14839   1.247   0.350   3.305
 4647SOL    HW114840   1.326   0.350   3.244
 4647SOL    HW214841   1.196   0.436   3.294
 4648SOL     OW14842   2.692   0.786   4.377
 4648SOL    HW114843   2.602   0.827   4.359
 4648SOL    HW214844   2.681   0.691   4.404
 4649SOL     OW14845   5.828   0.417   1.193
 4649SOL    HW114846   5.829   0.516   1.176
 4649SOL    HW214847   5.734   0.385   1.193
 4650SOL     OW14848   4.290   5.794   1.916
 4650SOL    HW114849   4.382   5.800   1.879
 4650SOL    HW214850   4.295   5.787   2.016
 4651SOL     OW14851   5.913   3.727   6.658
 4651SOL    HW114852   5.814   3.726   6.673
 4651SOL    HW214853   5.959   3.763   6.739
 4652SOL     OW14854   6.154   6.560   5.276
 4652SOL    HW114855   6.236   6.617   5.291
 4652SOL    HW214856   6.078   6.596   5.330
 4653SOL     OW14857   4.932   5.645   0.649
 4653SOL    HW114858   4.924   5.685   0.558
 4653SOL    HW214859   5.028   5.641   0.675
 4654SOL     OW14860   0.342   6.490   5.718
 4654SOL    HW114861   0.267   6.434   5.754
 4654SOL    HW214862   0.385   6.443   5.642
 4655SOL     OW14863   4.900   4.070   2.123
 4655SOL    HW114864   4.861   4.101   2.036
 4655SOL    HW214865   4.920   3.972   2.117
 4656SOL     OW14866   0.865   0.559   1.563
 4656SOL    HW114867   0.771   0.528   1.545
 4656SOL    HW214868   0.927   0.481   1.558
 4657SOL     OW14869   5.234   5.713   2.216
 4657SOL    HW114870   5.290   5.782   2.172
 4657SOL    HW214871   5.157   5.757   2.263
 4658SOL     OW14872   2.667   2.426   5.874
 4658SOL    HW114873   2.608   2.472   5.808
 4658SOL    HW214874   2.727   2.362   5.827
 4659SOL     OW14875   2.968   4.482   0.609
 4659SOL    HW114876   2.921   4.402   0.573
 4659SOL    HW214877   2.937   4.501   0.702
 4660SOL     OW14878   1.220   6.276   4.111
 4660SOL    HW114879   1.247   6.276   4.015
 4660SOL    HW214880   1.121   6.289   4.118
 4661SOL     OW14881   2.215   4.251   5.664
 4661SOL    HW114882   2.178   4.283   5.577
 4661SOL    HW214883   2.221   4.151   5.663
 4662SOL     OW14884   3.328   0.207   5.424
 4662SOL    HW114885   3.381   0.195   5.339
 4662SOL    HW214886   3.359   0.140   5.491
 4663SOL     OW14887   0.313   0.014   0.483
 4663SOL    HW114888   0.329   6.978   0.560
 4663SOL    HW214889   0.327   0.109   0.512
 4664SOL     OW14890   0.126   0.548   0.580
 4664SOL    HW114891   0.128   0.580   0.485
 4664SOL    HW214892   0.099   0.451   0.582
 4665SOL     OW14893   2.517   0.202   5.777
 4665SOL    HW114894   2.567   0.289   5.768
 4665SOL    HW214895   2.480   0.176   5.688
 4666SOL     OW14896   1.989   2.604   6.707
 4666SOL    HW114897   1.936   2.533   6.660
 4666SOL    HW214898   1.969   2.693   6.667
 4667SOL     OW14899   6.773   4.141   2.038
 4667SOL    HW114900   6.786   4.052   2.081
 4667SOL    HW214901   6.796   4.134   1.940
 4668SOL     OW14902   4.516   1.495   5.188
 4668SOL    HW114903   4.512   1.570   5.121
 4668SOL    HW214904   4.528   1.534   5.279
 4669SOL     OW14905   5.634   0.187   6.511
 4669SOL    HW114906   5.632   0.095   6.550
 4669SOL    HW214907   5.547   0.233   6.531
 4670SOL     OW14908   0.896   3.011   6.948
 4670SOL    HW114909   0.984   2.963   6.952
 4670SOL    HW214910   0.823   2.951   6.979
 4671SOL     OW14911   0.991   3.442   0.120
 4671SOL    HW114912   1.072   3.386   0.104
 4671SOL    HW214913   1.018   3.534   0.150
 4672SOL     OW14914   3.888   4.536   6.006
 4672SOL    HW114915   3.804   4.547   5.954
 4672SOL    HW214916   3.897   4.441   6.036
 4673SOL     OW14917   5.234   0.115   0.002
 4673SOL    HW114918   5.223   0.139   6.931
 4673SOL    HW214919   5.281   0.189   0.050
 4674SOL     OW14920   5.581   1.605   0.583
 4674SOL    HW114921   5.676   1.631   0.600
 4674SOL    HW214922   5.548   1.653   0.502
 4675SOL     OW14923   3.523   0.419   7.015
 4675SOL    HW114924   3.505   0.518   7.018
 4675SOL    HW214925   3.617   0.401   0.019
 4676SOL     OW14926   0.060   6.475   4.383
 4676SOL    HW114927   0.031   6.555   4.435
 4676SOL    HW214928   0.141   6.434   4.427
 4677SOL     OW14929   2.893   0.351   6.843
 4677SOL    HW114930   2.988   0.321   6.835
 4677SOL    HW214931   2.848   0.300   6.916
 4678SOL     OW14932   2.352   5.252   2.010
 4678SOL    HW114933   2.274   5.233   1.950
 4678SOL    HW214934   2.436   5.227   1.963
 4679SOL     OW14935   3.936   1.468   6.498
 4679SOL    HW114936   3.970   1.425   6.414
 4679SOL    HW214937   3.852   1.421   6.527
 4680SOL     OW14938   2.502   6.470   1.428
 4680SOL    HW114939   2.476   6.554   1.379
 4680SOL    HW214940   2.483   6.481   1.526
 4681SOL     OW14941   6.302   5.934   4.404
 4681SOL    HW114942   6.252   5.917   4.489
 4681SOL    HW214943   6.383   5.875   4.401
 4682SOL     OW14944   4.773   5.274   6.619
 4682SOL    HW114945   4.858   5.325   6.600
 4682SOL    HW214946   4.796   5.181   6.646
 4683SOL     OW14947   5.123   4.484   2.229
 4683SOL    HW114948   5.144   4.421   2.304
 4683SOL    HW214949   5.127   4.578   2.263
 4684SOL     OW14950   0.210   2.596   4.375
 4684SOL    HW114951   0.283   2.626   4.437
 4684SOL    HW214952   0.236   2.616   4.280
 4685SOL     OW14953   0.036   5.243   4.248
 4685SOL    HW114954   0.009   5.165   4.191
 4685SOL    HW214955   6.984   5.268   4.307
 4686SOL     OW14956   5.158   5.992   0.204
 4686SOL    HW114957   5.246   5.968   0.164
 4686SOL    HW214958   5.167   6.076   0.259
 4687SOL     OW14959   6.666   4.522   5.211
 4687SOL    HW114960   6.678   4.474   5.298
 4687SOL    HW214961   6.722   4.605   5.211
 4688SOL     OW14962   0.157   2.576   6.139
 4688SOL    HW114963   0.093   2.608   6.070
 4688SOL    HW214964   0.151   2.634   6.220
 4689SOL     OW14965   5.637   0.533   6.052
 4689SOL    HW114966   5.703   0.562   6.122
 4689SOL    HW214967   5.548   0.517   6.095
 4690SOL     OW14968   0.958   1.107   0.087
 4690SOL    HW114969   1.040   1.134   0.136
 4690SOL    HW214970   0.977   1.103   7.014
 4691SOL     OW14971   3.188   4.192   1.720
 4691SOL    HW114972   3.186   4.153   1.812
 4691SOL    HW214973   3.095   4.211   1.689
 4692SOL     OW14974   6.645   4.971   2.688
 4692SOL    HW114975   6.712   4.968   2.613
 4692SOL    HW214976   6.677   4.913   2.763
 4693SOL     OW14977   0.913   1.081   4.062
 4693SOL    HW114978   0.854   1.005   4.090
 4693SOL    HW214979   0.871   1.167   4.092
 4694SOL     OW14980   2.879   0.627   0.110
 4694SOL    HW114981   2.850   0.561   0.180
 4694SOL    HW214982   2.978   0.625   0.101
 4695SOL     OW14983   3.238   3.190   1.977
 4695SOL    HW114984   3.320   3.164   2.029
 4695SOL    HW214985   3.238   3.143   1.889
 4696SOL     OW14986   1.236   5.160   6.104
 4696SOL    HW114987   1.300   5.147   6.028
 4696SOL    HW214988   1.282   5.136   6.190
 4697SOL     OW14989   1.718   3.489   0.744
 4697SOL    HW114990   1.708   3.424   0.819
 4697SOL    HW214991   1.685   3.449   0.659
 4698SOL     OW14992   4.454   5.005   2.425
 4698SOL    HW114993   4.368   4.970   2.386
 4698SOL    HW214994   4.485   4.945   2.498
 4699SOL     OW14995   0.889   0.194   2.525
 4699SOL    HW114996   0.801   0.226   2.490
 4699SOL    HW214997   0.918   0.112   2.475
 4700SOL     OW14998   5.388   1.517   1.752
 4700SOL    HW114999   5.412   1.612   1.773
 4700SOL    HW215000   5.470   1.469   1.719
 4701SOL     OW15001   1.385   1.784   0.405
 4701SOL    HW115002   1.384   1.867   0.461
 4701SOL    HW215003   1.354   1.707   0.460
 4702SOL     OW15004   5.039   4.641   6.526
 4702SOL    HW115005   5.025   4.726   6.476
 4702SOL    HW215006   5.035   4.658   6.624
 4703SOL     OW15007   0.579   2.467   2.473
 4703SOL    HW115008   0.667   2.477   2.520
 4703SOL    HW215009   0.577   2.527   2.393
 4704SOL     OW15010   6.845   6.413   1.180
 4704SOL    HW115011   6.824   6.502   1.221
 4704SOL    HW215012   6.778   6.392   1.110
 4705SOL     OW15013   2.968   3.353   2.976
 4705SOL    HW115014   2.944   3.267   2.930
 4705SOL    HW215015   3.067   3.367   2.971
 4706SOL     OW15016   4.041   6.508   6.409
 4706SOL    HW115017   4.079   6.473   6.495
 4706SOL    HW215018   3.971   6.577   6.430
 4707SOL     OW15019   2.057   6.044   0.781
 4707SOL    HW115020   2.079   5.959   0.734
 4707SOL    HW215021   2.142   6.095   0.798
 4708SOL     OW15022   1.845   2.890   0.822
 4708SOL    HW115023   1.810   2.967   0.769
 4708SOL    HW215024   1.940   2.910   0.849
 4709SOL     OW15025   3.853   5.402   5.157
 4709SOL    HW115026   3.754   5.393   5.146
 4709SOL    HW215027   3.881   5.358   5.242
 4710SOL     OW15028   3.977   1.390   6.006
 4710SOL    HW115029   3.881   1.417   5.995
 4710SOL    HW215030   4.006   1.337   5.927
 4711SOL     OW15031   4.483   0.503   2.614
 4711SOL    HW115032   4.485   0.495   2.514
 4711SOL    HW215033   4.557   0.450   2.654
 4712SOL     OW15034   2.363   4.735   0.449
 4712SOL    HW115035   2.401   4.792   0.521
 4712SOL    HW215036   2.271   4.706   0.473
 4713SOL     OW15037   2.668   4.202   0.804
 4713SOL    HW115038   2.722   4.153   0.873
 4713SOL    HW215039   2.690   4.299   0.808
 4714SOL     OW15040   2.460   2.010   0.144
 4714SOL    HW115041   2.412   2.088   0.103
 4714SOL    HW215042   2.435   1.927   0.095
 4715SOL     OW15043   6.490   3.505   2.006
 4715SOL    HW115044   6.540   3.580   1.962
 4715SOL    HW215045   6.483   3.428   1.942
 4716SOL     OW15046   3.738   5.256   6.315
 4716SOL    HW115047   3.782   5.345   6.314
 4716SOL    HW215048   3.673   5.252   6.392
 4717SOL     OW15049   1.315   5.969   3.175
 4717SOL    HW115050   1.370   6.041   3.133
 4717SOL    HW215051   1.374   5.892   3.199
 4718SOL     OW15052   5.463   1.460   6.775
 4718SOL    HW115053   5.453   1.517   6.857
 4718SOL    HW215054   5.401   1.493   6.704
 4719SOL     OW15055   4.902   2.925   2.721
 4719SOL    HW115056   4.975   2.985   2.752
 4719SOL    HW215057   4.864   2.960   2.636
 4720SOL     OW15058   3.156   6.526   5.457
 4720SOL    HW115059   3.122   6.479   5.539
 4720SOL    HW215060   3.187   6.458   5.391
 4721SOL     OW15061   6.755   2.479   1.737
 4721SOL    HW115062   6.796   2.405   1.790
 4721SOL    HW215063   6.661   2.455   1.713
 4722SOL     OW15064   1.264   5.660   6.736
 4722SOL    HW115065   1.274   5.743   6.791
 4722SOL    HW215066   1.348   5.606   6.740
 4723SOL     OW15067   1.893   5.392   5.508
 4723SOL    HW115068   1.975   5.370   5.562
 4723SOL    HW215069   1.858   5.481   5.536
 4724SOL     OW15070   4.582   6.482   2.476
 4724SOL    HW115071   4.596   6.384   2.492
 4724SOL    HW215072   4.488   6.497   2.443
 4725SOL     OW15073   5.340   6.440   2.945
 4725SOL    HW115074   5.395   6.415   3.025
 4725SOL    HW215075   5.396   6.433   2.863
 4726SOL     OW15076   1.403   3.271   6.797
 4726SOL    HW115077   1.496   3.306   6.811
 4726SOL    HW215078   1.409   3.176   6.766
 4727SOL     OW15079   6.946   6.098   6.601
 4727SOL    HW115080   0.010   6.062   6.574
 4727SOL    HW215081   6.901   6.034   6.664
 4728SOL     OW15082   4.849   1.652   0.912
 4728SOL    HW115083   4.762   1.691   0.881
 4728SOL    HW215084   4.902   1.621   0.833
 4729SOL     OW15085   2.365   1.137   2.768
 4729SOL    HW115086   2.429   1.124   2.693
 4729SOL    HW215087   2.305   1.215   2.748
 4730SOL     OW15088   2.355   6.125   5.373
 4730SOL    HW115089   2.424   6.071   5.325
 4730SOL    HW215090   2.397   6.204   5.417
 4731SOL     OW15091   5.151   0.400   6.404
 4731SOL    HW115092   5.090   0.478   6.416
 4731SOL    HW215093   5.097   0.317   6.389
 4732SOL     OW15094   6.771   2.921   6.357
 4732SOL    HW115095   6.691   2.973   6.328
 4732SOL    HW215096   6.741   2.831   6.391
 4733SOL     OW15097   0.918   3.988   3.649
 4733SOL    HW115098   0.892   3.901   3.691
 4733SOL    HW215099   0.945   4.052   3.721
 4734SOL     OW15100   5.198   3.317   6.957
 4734SOL    HW115101   5.111   3.353   6.992
 4734SOL    HW215102   5.247   3.391   6.910
 4735SOL     OW15103   0.472   4.920   3.810
 4735SOL    HW115104   0.419   5.002   3.787
 4735SOL    HW215105   0.423   4.839   3.778
 4736SOL     OW15106   0.405   1.898   6.641
 4736SOL    HW115107   0.456   1.911   6.726
 4736SOL    HW215108   0.307   1.901   6.660
 4737SOL     OW15109   1.796   5.094   2.447
 4737SOL    HW115110   1.753   5.026   2.506
 4737SOL    HW215111   1.772   5.075   2.351
 4738SOL     OW15112   0.439   6.131   2.776
 4738SOL    HW115113   0.393   6.070   2.712
 4738SOL    HW215114   0.443   6.089   2.867
 4739SOL     OW15115   4.011   0.090   2.109
 4739SOL    HW115116   3.988   7.023   2.140
 4739SOL    HW215117   4.110   0.103   2.111
 4740SOL     OW15118   7.006   1.358   2.281
 4740SOL    HW115119   7.025   1.408   2.196
 4740SOL    HW215120   0.030   1.271   2.281
 4741SOL     OW15121   3.383   2.233   1.791
 4741SOL    HW115122   3.476   2.250   1.824
 4741SOL    HW215123   3.387   2.196   1.698
 4742SOL     OW15124   1.891   6.926   6.660
 4742SOL    HW115125   1.842   7.013   6.664
 4742SOL    HW215126   1.878   6.884   6.570
 4743SOL     OW15127   2.167   3.682   2.901
 4743SOL    HW115128   2.203   3.705   2.811
 4743SOL    HW215129   2.182   3.759   2.963
 4744SOL     OW15130   1.995   5.202   0.429
 4744SOL    HW115131   2.027   5.216   0.335
 4744SOL    HW215132   1.925   5.270   0.451
 4745SOL     OW15133   3.057   4.158   0.068
 4745SOL    HW115134   2.959   4.180   0.075
 4745SOL    HW215135   3.100   4.219   0.002
 4746SOL     OW15136   4.110   6.141   4.042
 4746SOL    HW115137   4.019   6.122   4.005
 4746SOL    HW215138   4.107   6.133   4.142
 4747SOL     OW15139   1.313   3.569   0.712
 4747SOL    HW115140   1.330   3.571   0.811
 4747SOL    HW215141   1.327   3.476   0.678
 4748SOL     OW15142   1.538   7.009   1.875
 4748SOL    HW115143   1.454   0.024   1.838
 4748SOL    HW215144   1.605   6.998   1.802
 4749SOL     OW15145   2.041   6.945   6.294
 4749SOL    HW115146   2.067   6.988   6.207
 4749SOL    HW215147   2.011   6.851   6.276
 4750SOL     OW15148   6.572   4.174   5.348
 4750SOL    HW115149   6.633   4.102   5.381
 4750SOL    HW215150   6.616   4.263   5.358
 4751SOL     OW15151   4.622   2.202   2.790
 4751SOL    HW115152   4.529   2.211   2.754
 4751SOL    HW215153   4.687   2.247   2.728
 4752SOL     OW15154   4.279   0.875   0.306
 4752SOL    HW115155   4.297   0.786   0.347
 4752SOL    HW215156   4.325   0.881   0.217
 4753SOL     OW15157   1.204   6.795   4.740
 4753SOL    HW115158   1.175   6.700   4.748
 4753SOL    HW215159   1.304   6.799   4.743
 4754SOL     OW15160   4.608   3.875   5.609
 4754SOL    HW115161   4.570   3.783   5.619
 4754SOL    HW215162   4.707   3.872   5.624
 4755SOL     OW15163   2.139   0.751   1.306
 4755SOL    HW115164   2.197   0.823   1.343
 4755SOL    HW215165   2.171   0.727   1.214
 4756SOL     OW15166   6.991   3.962   6.359
 4756SOL    HW115167   6.968   4.021   6.282
 4756SOL    HW215168   0.064   3.966   6.376
 4757SOL     OW15169   1.608   2.937   1.520
 4757SOL    HW115170   1.675   3.012   1.523
 4757SOL    HW215171   1.566   2.934   1.429
 4758SOL     OW15172   1.225   7.015   3.600
 4758SOL    HW115173   1.148   6.993   3.660
 4758SOL    HW215174   1.232   0.090   3.592
 4759SOL     OW15175   0.447   5.997   0.062
 4759SOL    HW115176   0.348   5.992   0.076
 4759SOL    HW215177   0.472   6.090   0.035
 4760SOL     OW15178   1.058   0.037   0.473
 4760SOL    HW115179   1.114   7.006   0.533
 4760SOL    HW215180   1.117   0.092   0.414
 4761SOL     OW15181   0.892   0.488   0.449
 4761SOL    HW115182   0.969   0.438   0.409
 4761SOL    HW215183   0.869   0.565   0.390
 4762SOL     OW15184   1.748   5.976   1.919
 4762SOL    HW115185   1.829   6.033   1.909
 4762SOL    HW215186   1.667   6.033   1.931
 4763SOL     OW15187   4.643   6.659   2.246
 4763SOL    HW115188   4.685   6.569   2.238
 4763SOL    HW215189   4.559   6.652   2.299
 4764SOL     OW15190   4.709   3.358   5.343
 4764SOL    HW115191   4.714   3.417   5.263
 4764SOL    HW215192   4.613   3.345   5.370
 4765SOL     OW15193   3.635   0.701   6.285
 4765SOL    HW115194   3.626   0.791   6.241
 4765SOL    HW215195   3.561   0.689   6.351
 4766SOL     OW15196   6.345   6.188   4.460
 4766SOL    HW115197   6.321   6.100   4.418
 4766SOL    HW215198   6.294   6.199   4.545
 4767SOL     OW15199   2.449   5.781   5.356
 4767SOL    HW115200   2.511   5.844   5.310
 4767SOL    HW215201   2.396   5.731   5.288
 4768SOL     OW15202   4.610   3.313   6.386
 4768SOL    HW115203   4.639   3.314   6.290
 4768SOL    HW215204   4.561   3.398   6.407
 4769SOL     OW15205   3.048   5.954   0.711
 4769SOL    HW115206   3.081   6.009   0.788
 4769SOL    HW215207   3.028   6.013   0.633
 4770SOL     OW15208   0.037   2.359   5.023
 4770SOL    HW115209   0.055   2.442   4.970
 4770SOL    HW215210   0.020   2.283   4.960
 4771SOL     OW15211   2.565   6.954   4.970
 4771SOL    HW115212   2.619   6.978   5.050
 4771SOL    HW215213   2.622   6.957   4.888
 4772SOL     OW15214   3.115   5.294   0.717
 4772SOL    HW115215   3.173   5.327   0.792
 4772SOL    HW215216   3.050   5.227   0.752
 4773SOL     OW15217   0.993   6.084   4.637
 4773SOL    HW115218   1.024   6.123   4.550
 4773SOL    HW215219   1.069   6.082   4.702
 4774SOL     OW15220   1.636   4.259   0.463
 4774SOL    HW115221   1.676   4.344   0.498
 4774SOL    HW215222   1.659   4.249   0.366
 4775SOL     OW15223   4.894   6.793   4.892
 4775SOL    HW115224   4.896   6.869   4.826
 4775SOL    HW215225   4.928   6.825   4.980
 4776SOL     OW15226   1.446   0.952   5.137
 4776SOL    HW115227   1.390   0.931   5.057
 4776SOL    HW215228   1.447   1.051   5.152
 4777SOL     OW15229   1.542   5.670   0.759
 4777SOL    HW115230   1.565   5.709   0.669
 4777SOL    HW215231   1.464   5.609   0.749
 4778SOL     OW15232   0.735   2.834   4.360
 4778SOL    HW115233   0.691   2.755   4.317
 4778SOL    HW215234   0.821   2.853   4.314
 4779SOL     OW15235   5.959   6.420   4.328
 4779SOL    HW115236   5.882   6.480   4.305
 4779SOL    HW215237   5.980   6.362   4.250
 4780SOL     OW15238   5.663   2.360   5.673
 4780SOL    HW115239   5.584   2.353   5.734
 4780SOL    HW215240   5.671   2.454   5.639
 4781SOL     OW15241   2.700   5.710   2.723
 4781SOL    HW115242   2.730   5.757   2.807
 4781SOL    HW215243   2.613   5.665   2.740
 4782SOL     OW15244   6.198   5.524   5.728
 4782SOL    HW115245   6.176   5.454   5.796
 4782SOL    HW215246   6.163   5.612   5.758
 4783SOL     OW15247   6.029   3.623   0.189
 4783SOL    HW115248   5.980   3.546   0.228
 4783SOL    HW215249   6.109   3.591   0.139
 4784SOL     OW15250   6.360   1.786   5.876
 4784SOL    HW115251   6.390   1.691   5.868
 4784SOL    HW215252   6.374   1.833   5.789
 4785SOL     OW15253   0.133   6.738   2.680
 4785SOL    HW115254   0.127   6.838   2.683
 4785SOL    HW215255   0.195   6.706   2.752
 4786SOL     OW15256   2.679   0.227   0.262
 4786SOL    HW115257   2.583   0.251   0.277
 4786SOL    HW215258   2.691   0.128   0.274
 4787SOL     OW15259   4.197   2.026   4.375
 4787SOL    HW115260   4.144   2.082   4.438
 4787SOL    HW215261   4.137   1.960   4.329
 4788SOL     OW15262   5.893   5.752   0.735
 4788SOL    HW115263   5.869   5.847   0.752
 4788SOL    HW215264   5.819   5.692   0.767
 4789SOL     OW15265   4.911   1.590   1.988
 4789SOL    HW115266   4.887   1.498   2.019
 4789SOL    HW215267   4.838   1.625   1.929
 4790SOL     OW15268   5.402   1.646   5.465
 4790SOL    HW115269   5.463   1.658   5.386
 4790SOL    HW215270   5.422   1.558   5.508
 4791SOL     OW15271   0.730   2.974   1.022
 4791SOL    HW115272   0.672   2.933   1.092
 4791SOL    HW215273   0.818   2.927   1.021
 4792SOL     OW15274   1.834   4.778   4.568
 4792SOL    HW115275   1.897   4.796   4.493
 4792SOL    HW215276   1.845   4.848   4.639
 4793SOL     OW15277   1.143   3.735   5.874
 4793SOL    HW115278   1.124   3.823   5.917
 4793SOL    HW215279   1.193   3.749   5.789
 4794SOL     OW15280   4.743   0.423   3.837
 4794SOL    HW115281   4.813   0.494   3.832
 4794SOL    HW215282   4.652   0.464   3.827
 4795SOL     OW15283   0.017   1.655   4.432
 4795SOL    HW115284   0.110   1.691   4.431
 4795SOL    HW215285   7.025   1.605   4.348
 4796SOL     OW15286   3.893   0.735   5.802
 4796SOL    HW115287   3.945   0.707   5.720
 4796SOL    HW215288   3.922   0.679   5.880
 4797SOL     OW15289   0.215   5.287   4.448
 4797SOL    HW115290   0.150   5.264   4.376
 4797SOL    HW215291   0.173   5.273   4.537
 4798SOL     OW15292   5.979   4.933   6.039
 4798SOL    HW115293   6.011   4.986   5.961
 4798SOL    HW215294   6.056   4.880   6.077
 4799SOL     OW15295   3.677   1.989   0.031
 4799SOL    HW115296   3.699   1.977   0.128
 4799SOL    HW215297   3.754   1.959   7.000
 4800SOL     OW15298   1.729   4.499   6.687
 4800SOL    HW115299   1.657   4.456   6.742
 4800SOL    HW215300   1.782   4.428   6.640
 4801SOL     OW15301   3.739   2.722   0.710
 4801SOL    HW115302   3.773   2.777   0.786
 4801SOL    HW215303   3.796   2.738   0.629
 4802SOL     OW15304   0.071   6.470   1.727
 4802SOL    HW115305   7.018   6.456   1.666
 4802SOL    HW215306   0.039   6.502   1.816
 4803SOL     OW15307   5.533   4.924   0.861
 4803SOL    HW115308   5.459   4.966   0.913
 4803SOL    HW215309   5.536   4.963   0.769
 4804SOL     OW15310   5.495   1.329   0.678
 4804SOL    HW115311   5.539   1.415   0.653
 4804SOL    HW215312   5.561   1.269   0.723
 4805SOL     OW15313   6.349   1.403   2.058
 4805SOL    HW115314   6.372   1.317   2.014
 4805SOL    HW215315   6.270   1.389   2.118
 4806SOL     OW15316   1.429   3.920   3.054
 4806SOL    HW115317   1.361   3.959   3.115
 4806SOL    HW215318   1.501   3.987   3.035
 4807SOL     OW15319   1.737   3.086   6.596
 4807SOL    HW115320   1.771   3.109   6.686
 4807SOL    HW215321   1.701   3.168   6.551
 4808SOL     OW15322   3.697   5.710   0.640
 4808SOL    HW115323   3.651   5.797   0.654
 4808SOL    HW215324   3.755   5.690   0.719
 4809SOL     OW15325   3.710   4.693   1.566
 4809SOL    HW115326   3.798   4.739   1.573
 4809SOL    HW215327   3.673   4.678   1.658
 4810SOL     OW15328   0.896   3.996   4.412
 4810SOL    HW115329   0.969   4.054   4.447
 4810SOL    HW215330   0.895   3.999   4.312
 4811SOL     OW15331   3.893   3.986   4.546
 4811SOL    HW115332   3.972   3.985   4.608
 4811SOL    HW215333   3.922   3.962   4.454
 4812SOL     OW15334   0.771   0.026   1.918
 4812SOL    HW115335   0.847   7.021   1.975
 4812SOL    HW215336   0.751   0.122   1.938
 4813SOL     OW15337   5.692   2.025   6.627
 4813SOL    HW115338   5.599   2.027   6.590
 4813SOL    HW215339   5.708   2.107   6.681
 4814SOL     OW15340   0.195   3.675   2.659
 4814SOL    HW115341   0.116   3.656   2.718
 4814SOL    HW215342   0.170   3.659   2.564
 4815SOL     OW15343   5.312   5.212   2.817
 4815SOL    HW115344   5.359   5.148   2.757
 4815SOL    HW215345   5.380   5.266   2.868
 4816SOL     OW15346   2.196   0.013   1.511
 4816SOL    HW115347   2.154   0.007   1.601
 4816SOL    HW215348   2.188   6.949   1.465
 4817SOL     OW15349   3.818   1.134   1.786
 4817SOL    HW115350   3.912   1.102   1.776
 4817SOL    HW215351   3.755   1.063   1.754
 4818SOL     OW15352   2.176   0.742   3.969
 4818SOL    HW115353   2.192   0.727   3.871
 4818SOL    HW215354   2.147   0.656   4.011
 4819SOL     OW15355   3.098   2.019   1.385
 4819SOL    HW115356   3.168   2.012   1.313
 4819SOL    HW215357   3.068   1.927   1.410
 4820SOL     OW15358   6.331   2.973   1.147
 4820SOL    HW115359   6.331   3.072   1.141
 4820SOL    HW215360   6.422   2.941   1.173
 4821SOL     OW15361   6.629   5.428   1.693
 4821SOL    HW115362   6.551   5.489   1.707
 4821SOL    HW215363   6.600   5.333   1.708
 4822SOL     OW15364   1.774   3.334   3.787
 4822SOL    HW115365   1.729   3.251   3.821
 4822SOL    HW215366   1.706   3.390   3.738
 4823SOL     OW15367   0.144   0.217   3.715
 4823SOL    HW115368   0.127   0.313   3.738
 4823SOL    HW215369   0.239   0.194   3.736
 4824SOL     OW15370   5.553   2.156   3.774
 4824SOL    HW115371   5.563   2.058   3.759
 4824SOL    HW215372   5.560   2.205   3.687
 4825SOL     OW15373   2.121   2.662   4.185
 4825SOL    HW115374   2.047   2.725   4.160
 4825SOL    HW215375   2.158   2.688   4.274
 4826SOL     OW15376   0.166   6.770   1.184
 4826SOL    HW115377   0.187   6.865   1.208
 4826SOL    HW215378   0.190   6.754   1.089
 4827SOL     OW15379   5.601   0.885   1.935
 4827SOL    HW115380   5.508   0.921   1.948
 4827SOL    HW215381   5.605   0.835   1.848
 4828SOL     OW15382   5.688   3.851   1.297
 4828SOL    HW115383   5.644   3.814   1.216
 4828SOL    HW215384   5.621   3.860   1.371
 4829SOL     OW15385   3.591   6.928   6.040
 4829SOL    HW115386   3.610   7.021   6.011
 4829SOL    HW215387   3.503   6.925   6.088
 4830SOL     OW15388   5.102   5.438   3.886
 4830SOL    HW115389   5.150   5.478   3.808
 4830SOL    HW215390   5.165   5.430   3.963
 4831SOL     OW15391   6.926   4.719   5.717
 4831SOL    HW115392   6.971   4.684   5.635
 4831SOL    HW215393   6.829   4.694   5.715
 4832SOL     OW15394   3.063   2.334   6.229
 4832SOL    HW115395   3.039   2.281   6.310
 4832SOL    HW215396   3.007   2.416   6.226
 4833SOL     OW15397   4.819   1.750   2.913
 4833SOL    HW115398   4.729   1.792   2.909
 4833SOL    HW215399   4.856   1.740   2.820
 4834SOL     OW15400   3.727   0.131   0.621
 4834SOL    HW115401   3.812   0.157   0.667
 4834SOL    HW215402   3.674   0.070   0.680
 4835SOL     OW15403   1.691   0.153   6.669
 4835SOL    HW115404   1.662   0.213   6.595
 4835SOL    HW215405   1.612   0.100   6.702
 4836SOL     OW15406   4.395   2.341   3.629
 4836SOL    HW115407   4.420   2.352   3.725
 4836SOL    HW215408   4.319   2.276   3.623
 4837SOL     OW15409   3.458   2.778   1.787
 4837SOL    HW115410   3.507   2.692   1.779
 4837SOL    HW215411   3.471   2.816   1.878
 4838SOL     OW15412   2.750   5.084   2.478
 4838SOL    HW115413   2.679   5.148   2.448
 4838SOL    HW215414   2.752   5.005   2.417
 4839SOL     OW15415   0.808   3.687   5.689
 4839SOL    HW115416   0.830   3.600   5.733
 4839SOL    HW215417   0.880   3.711   5.624
 4840SOL     OW15418   0.003   0.456   6.201
 4840SOL    HW115419   0.085   0.424   6.154
 4840SOL    HW215420   6.950   0.451   6.139
 4841SOL     OW15421   3.221   5.605   2.011
 4841SOL    HW115422   3.185   5.695   2.033
 4841SOL    HW215423   3.215   5.546   2.092
 4842SOL     OW15424   3.427   4.947   1.728
 4842SOL    HW115425   3.351   5.006   1.755
 4842SOL    HW215426   3.392   4.861   1.692
 4843SOL     OW15427   5.859   4.114   0.523
 4843SOL    HW115428   5.808   4.183   0.574
 4843SOL    HW215429   5.926   4.159   0.465
 4844SOL     OW15430   0.085   3.693   6.728
 4844SOL    HW115431   0.013   3.666   6.793
 4844SOL    HW215432   0.123   3.611   6.684
 4845SOL     OW15433   6.578   5.461   4.440
 4845SOL    HW115434   6.645   5.526   4.403
 4845SOL    HW215435   6.564   5.479   4.537
 4846SOL     OW15436   6.777   3.589   1.294
 4846SOL    HW115437   6.757   3.555   1.386
 4846SOL    HW215438   6.863   3.549   1.262
 4847SOL     OW15439   3.297   1.494   5.574
 4847SOL    HW115440   3.258   1.457   5.658
 4847SOL    HW215441   3.227   1.547   5.526
 4848SOL     OW15442   1.778   0.982   4.570
 4848SOL    HW115443   1.812   0.913   4.507
 4848SOL    HW215444   1.802   0.957   4.664
 4849SOL     OW15445   1.617   0.395   0.167
 4849SOL    HW115446   1.609   0.493   0.150
 4849SOL    HW215447   1.670   0.353   0.093
 4850SOL     OW15448   3.898   0.625   1.695
 4850SOL    HW115449   3.966   0.641   1.766
 4850SOL    HW215450   3.817   0.682   1.713
 4851SOL     OW15451   3.736   5.819   5.052
 4851SOL    HW115452   3.662   5.870   5.097
 4851SOL    HW215453   3.698   5.740   5.004
 4852SOL     OW15454   0.907   6.984   6.386
 4852SOL    HW115455   0.857   7.019   6.307
 4852SOL    HW215456   0.976   0.025   6.414
 4853SOL     OW15457   3.425   1.458   2.707
 4853SOL    HW115458   3.471   1.494   2.626
 4853SOL    HW215459   3.338   1.416   2.680
 4854SOL     OW15460   4.841   6.145   2.657
 4854SOL    HW115461   4.830   6.086   2.577
 4854SOL    HW215462   4.936   6.143   2.687
 4855SOL     OW15463   5.833   2.643   2.380
 4855SOL    HW115464   5.881   2.566   2.336
 4855SOL    HW215465   5.793   2.613   2.466
 4856SOL     OW15466   1.612   3.995   2.731
 4856SOL    HW115467   1.654   3.905   2.737
 4856SOL    HW215468   1.513   3.986   2.718
 4857SOL     OW15469   1.770   2.383   5.664
 4857SOL    HW115470   1.772   2.391   5.564
 4857SOL    HW215471   1.863   2.369   5.698
 4858SOL     OW15472   1.893   1.032   4.122
 4858SOL    HW115473   1.878   1.109   4.060
 4858SOL    HW215474   1.807   0.985   4.138
 4859SOL     OW15475   0.459   7.009   4.373
 4859SOL    HW115476   0.513   6.930   4.343
 4859SOL    HW215477   0.412   0.024   4.295
 4860SOL     OW15478   3.409   4.971   2.613
 4860SOL    HW115479   3.385   4.917   2.694
 4860SOL    HW215480   3.509   4.978   2.606
 4861SOL     OW15481   4.895   5.408   0.450
 4861SOL    HW115482   4.810   5.459   0.443
 4861SOL    HW215483   4.921   5.399   0.547
 4862SOL     OW15484   2.195   4.981   3.889
 4862SOL    HW115485   2.193   4.945   3.796
 4862SOL    HW215486   2.117   4.946   3.940
 4863SOL     OW15487   5.547   5.051   0.627
 4863SOL    HW115488   5.526   5.148   0.612
 4863SOL    HW215489   5.608   5.019   0.555
 4864SOL     OW15490   3.115   1.259   4.274
 4864SOL    HW115491   3.163   1.346   4.285
 4864SOL    HW215492   3.157   1.190   4.333
 4865SOL     OW15493   1.501   0.359   5.556
 4865SOL    HW115494   1.534   0.447   5.521
 4865SOL    HW215495   1.425   0.327   5.499
 4866SOL     OW15496   6.155   3.752   1.219
 4866SOL    HW115497   6.093   3.816   1.175
 4866SOL    HW215498   6.158   3.770   1.317
 4867SOL     OW15499   4.352   5.852   2.608
 4867SOL    HW115500   4.344   5.791   2.529
 4867SOL    HW215501   4.298   5.816   2.684
 4868SOL     OW15502   6.515   4.666   2.544
 4868SOL    HW115503   6.490   4.672   2.641
 4868SOL    HW215504   6.493   4.752   2.499
 4869SOL     OW15505   1.911   1.558   0.540
 4869SOL    HW115506   1.845   1.541   0.613
 4869SOL    HW215507   2.002   1.533   0.572
 4870SOL     OW15508   0.559   5.984   1.257
 4870SOL    HW115509   0.567   5.951   1.351
 4870SOL    HW215510   0.544   6.083   1.257
 4871SOL     OW15511   0.957   0.124   3.919
 4871SOL    HW115512   0.875   0.077   3.952
 4871SOL    HW215513   0.938   0.222   3.911
 4872SOL     OW15514   6.300   0.131   3.086
 4872SOL    HW115515   6.257   0.161   3.171
 4872SOL    HW215516   6.289   0.203   3.017
 4873SOL     OW15517   6.606   5.694   4.662
 4873SOL    HW115518   6.579   5.644   4.744
 4873SOL    HW215519   6.678   5.760   4.686
 4874SOL     OW15520   4.870   3.112   2.493
 4874SOL    HW115521   4.873   3.153   2.402
 4874SOL    HW215522   4.930   3.165   2.554
 4875SOL     OW15523   5.905   0.895   0.391
 4875SOL    HW115524   5.942   0.870   0.301
 4875SOL    HW215525   5.980   0.922   0.451
 4876SOL     OW15526   6.811   1.224   3.457
 4876SOL    HW115527   6.826   1.192   3.364
 4876SOL    HW215528   6.803   1.145   3.518
 4877SOL     OW15529   0.492   2.168   5.290
 4877SOL    HW115530   0.434   2.166   5.209
 4877SOL    HW215531   0.510   2.074   5.320
 4878SOL     OW15532   6.489   1.776   1.813
 4878SOL    HW115533   6.490   1.703   1.744
 4878SOL    HW215534   6.576   1.825   1.811
 4879SOL     OW15535   4.441   2.255   1.812
 4879SOL    HW115536   4.416   2.173   1.761
 4879SOL    HW215537   4.462   2.329   1.748
 4880SOL     OW15538   6.293   3.590   0.139
 4880SOL    HW115539   6.325   3.524   0.207
 4880SOL    HW215540   6.353   3.585   0.058
 4881SOL     OW15541   1.854   1.053   0.131
 4881SOL    HW115542   1.764   1.093   0.113
 4881SOL    HW215543   1.910   1.118   0.181
 4882SOL     OW15544   3.944   1.753   5.552
 4882SOL    HW115545   3.967   1.795   5.465
 4882SOL    HW215546   3.991   1.801   5.626
 4883SOL     OW15547   4.584   3.994   0.571
 4883SOL    HW115548   4.621   4.082   0.598
 4883SOL    HW215549   4.655   3.939   0.527
 4884SOL     OW15550   3.261   5.532   1.579
 4884SOL    HW115551   3.176   5.512   1.531
 4884SOL    HW215552   3.333   5.556   1.514
 4885SOL     OW15553   2.025   5.050   1.087
 4885SOL    HW115554   2.082   5.130   1.071
 4885SOL    HW215555   1.976   5.061   1.174
 4886SOL     OW15556   3.036   6.503   1.411
 4886SOL    HW115557   3.044   6.580   1.475
 4886SOL    HW215558   3.118   6.446   1.418
 4887SOL     OW15559   0.253   6.252   1.763
 4887SOL    HW115560   0.333   6.238   1.703
 4887SOL    HW215561   0.206   6.336   1.737
 4888SOL     OW15562   2.948   6.959   2.912
 4888SOL    HW115563   2.861   7.006   2.928
 4888SOL    HW215564   2.975   6.971   2.817
 4889SOL     OW15565   6.714   1.982   5.203
 4889SOL    HW115566   6.643   2.036   5.248
 4889SOL    HW215567   6.792   2.041   5.183
 4890SOL     OW15568   0.175   1.785   5.169
 4890SOL    HW115569   0.237   1.742   5.103
 4890SOL    HW215570   0.082   1.784   5.134
 4891SOL     OW15571   2.726   5.521   0.240
 4891SOL    HW115572   2.809   5.480   0.277
 4891SOL    HW215573   2.653   5.452   0.237
 4892SOL     OW15574   4.988   5.839   2.592
 4892SOL    HW115575   5.070   5.798   2.631
 4892SOL    HW215576   4.907   5.786   2.619
 4893SOL     OW15577   6.615   3.165   1.890
 4893SOL    HW115578   6.637   3.205   1.979
 4893SOL    HW215579   6.520   3.132   1.891
 4894SOL     OW15580   3.519   0.416   2.799
 4894SOL    HW115581   3.476   0.439   2.886
 4894SOL    HW215582   3.481   0.473   2.726
 4895SOL     OW15583   0.575   4.571   3.774
 4895SOL    HW115584   0.589   4.616   3.862
 4895SOL    HW215585   0.508   4.498   3.785
 4896SOL     OW15586   2.574   4.736   2.485
 4896SOL    HW115587   2.486   4.705   2.522
 4896SOL    HW215588   2.559   4.780   2.397
 4897SOL     OW15589   2.253   5.968   5.176
 4897SOL    HW115590   2.170   5.952   5.123
 4897SOL    HW215591   2.229   5.998   5.268
 4898SOL     OW15592   3.704   1.201   4.966
 4898SOL    HW115593   3.661   1.291   4.975
 4898SOL    HW215594   3.639   1.137   4.925
 4899SOL     OW15595   6.196   4.810   3.139
 4899SOL    HW115596   6.151   4.747   3.203
 4899SOL    HW215597   6.143   4.815   3.054
 4900SOL     OW15598   3.707   5.937   5.533
 4900SOL    HW115599   3.619   5.896   5.509
 4900SOL    HW215600   3.715   5.945   5.632
 4901SOL     OW15601   2.205   1.463   5.278
 4901SOL    HW115602   2.197   1.526   5.201
 4901SOL    HW215603   2.146   1.384   5.262
 4902SOL     OW15604   0.965   1.458   5.136
 4902SOL    HW115605   1.055   1.500   5.121
 4902SOL    HW215606   0.894   1.525   5.116
 4903SOL     OW15607   4.688   5.595   0.524
 4903SOL    HW115608   4.641   5.672   0.482
 4903SOL    HW215609   4.725   5.622   0.613
 4904SOL     OW15610   1.915   0.380   5.288
 4904SOL    HW115611   2.010   0.364   5.261
 4904SOL    HW215612   1.859   0.300   5.266
 4905SOL     OW15613   2.526   1.018   3.438
 4905SOL    HW115614   2.531   1.118   3.434
 4905SOL    HW215615   2.598   0.983   3.497
 4906SOL     OW15616   4.602   2.527   6.158
 4906SOL    HW115617   4.596   2.625   6.140
 4906SOL    HW215618   4.671   2.487   6.098
 4907SOL     OW15619   5.018   0.570   1.492
 4907SOL    HW115620   4.954   0.508   1.537
 4907SOL    HW215621   5.083   0.516   1.439
 4908SOL     OW15622   5.223   6.749   0.363
 4908SOL    HW115623   5.155   6.812   0.400
 4908SOL    HW215624   5.180   6.691   0.294
 4909SOL     OW15625   6.816   5.250   3.313
 4909SOL    HW115626   6.823   5.151   3.327
 4909SOL    HW215627   6.816   5.296   3.402
 4910SOL     OW15628   5.704   0.661   4.531
 4910SOL    HW115629   5.729   0.586   4.470
 4910SOL    HW215630   5.721   0.748   4.486
 4911SOL     OW15631   1.830   3.781   3.239
 4911SOL    HW115632   1.755   3.725   3.274
 4911SOL    HW215633   1.852   3.853   3.305
 4912SOL     OW15634   5.247   1.882   6.027
 4912SOL    HW115635   5.287   1.791   6.039
 4912SOL    HW215636   5.230   1.924   6.116
 4913SOL     OW15637   4.513   3.622   5.589
 4913SOL    HW115638   4.424   3.650   5.626
 4913SOL    HW215639   4.512   3.628   5.490
 4914SOL     OW15640   4.559   6.821   5.367
 4914SOL    HW115641   4.475   6.794   5.321
 4914SOL    HW215642   4.540   6.896   5.431
 4915SOL     OW15643   2.871   6.812   4.883
 4915SOL    HW115644   2.963   6.840   4.854
 4915SOL    HW215645   2.804   6.877   4.847
 4916SOL     OW15646   0.702   0.807   3.630
 4916SOL    HW115647   0.663   0.880   3.687
 4916SOL    HW215648   0.704   0.837   3.535
 4917SOL     OW15649   3.758   5.590   0.956
 4917SOL    HW115650   3.670   5.568   0.915
 4917SOL    HW215651   3.776   5.530   1.033
 4918SOL     OW15652   5.878   6.476   1.861
 4918SOL    HW115653   5.849   6.397   1.806
 4918SOL    HW215654   5.823   6.556   1.836
 4919SOL     OW15655   3.708   2.919   2.523
 4919SOL    HW115656   3.785   2.965   2.567
 4919SOL    HW215657   3.631   2.913   2.587
 4920SOL     OW15658   5.323   0.155   4.675
 4920SOL    HW115659   5.258   0.082   4.656
 4920SOL    HW215660   5.371   0.136   4.760
 4921SOL     OW15661   1.622   5.115   0.049
 4921SOL    HW115662   1.597   5.055   0.125
 4921SOL    HW215663   1.539   5.158   0.013
 4922SOL     OW15664   3.345   2.166   4.510
 4922SOL    HW115665   3.407   2.194   4.438
 4922SOL    HW215666   3.392   2.104   4.573
 4923SOL     OW15667   2.549   1.030   2.220
 4923SOL    HW115668   2.544   0.982   2.133
 4923SOL    HW215669   2.464   1.081   2.235
 4924SOL     OW15670   3.004   1.767   4.528
 4924SOL    HW115671   2.999   1.673   4.495
 4924SOL    HW215672   2.925   1.818   4.495
 4925SOL     OW15673   5.058   0.532   2.533
 4925SOL    HW115674   5.135   0.593   2.514
 4925SOL    HW215675   4.973   0.582   2.524
 4926SOL     OW15676   5.550   1.794   1.751
 4926SOL    HW115677   5.644   1.789   1.718
 4926SOL    HW215678   5.547   1.849   1.835
 4927SOL     OW15679   2.656   2.746   5.642
 4927SOL    HW115680   2.680   2.711   5.551
 4927SOL    HW215681   2.733   2.801   5.677
 4928SOL     OW15682   1.084   0.443   6.510
 4928SOL    HW115683   1.044   0.531   6.536
 4928SOL    HW215684   1.094   0.440   6.410
 4929SOL     OW15685   6.755   7.013   3.647
 4929SOL    HW115686   6.737   0.067   3.588
 4929SOL    HW215687   6.815   0.016   3.722
 4930SOL     OW15688   5.737   0.307   2.774
 4930SOL    HW115689   5.664   0.306   2.842
 4930SOL    HW215690   5.698   0.313   2.682
 4931SOL     OW15691   6.547   6.285   1.210
 4931SOL    HW115692   6.626   6.240   1.252
 4931SOL    HW215693   6.479   6.217   1.183
 4932SOL     OW15694   3.768   3.415   3.181
 4932SOL    HW115695   3.698   3.376   3.121
 4932SOL    HW215696   3.791   3.507   3.150
 4933SOL     OW15697   2.306   6.673   2.635
 4933SOL    HW115698   2.249   6.594   2.614
 4933SOL    HW215699   2.255   6.757   2.619
 4934SOL     OW15700   3.454   6.220   2.890
 4934SOL    HW115701   3.415   6.294   2.944
 4934SOL    HW215702   3.382   6.177   2.835
 4935SOL     OW15703   1.573   1.967   6.247
 4935SOL    HW115704   1.649   1.960   6.312
 4935SOL    HW215705   1.526   2.055   6.260
 4936SOL     OW15706   2.594   4.784   1.078
 4936SOL    HW115707   2.544   4.727   1.013
 4936SOL    HW215708   2.692   4.772   1.064
 4937SOL     OW15709   5.347   2.729   5.707
 4937SOL    HW115710   5.254   2.762   5.723
 4937SOL    HW215711   5.343   2.637   5.668
 4938SOL     OW15712   2.955   5.855   5.758
 4938SOL    HW115713   2.865   5.861   5.800
 4938SOL    HW215714   2.948   5.808   5.670
 4939SOL     OW15715   5.624   2.380   4.858
 4939SOL    HW115716   5.706   2.421   4.898
 4939SOL    HW215717   5.621   2.282   4.879
 4940SOL     OW15718   1.567   1.112   4.713
 4940SOL    HW115719   1.469   1.101   4.700
 4940SOL    HW215720   1.616   1.046   4.657
 4941SOL     OW15721   3.924   1.928   6.461
 4941SOL    HW115722   3.914   1.908   6.559
 4941SOL    HW215723   3.912   2.026   6.446
 4942SOL     OW15724   4.919   3.401   5.500
 4942SOL    HW115725   4.886   3.460   5.573
 4942SOL    HW215726   4.842   3.373   5.442
 4943SOL     OW15727   3.637   2.864   1.117
 4943SOL    HW115728   3.609   2.855   1.212
 4943SOL    HW215729   3.579   2.807   1.059
 4944SOL     OW15730   2.012   3.965   2.813
 4944SOL    HW115731   1.972   4.050   2.778
 4944SOL    HW215732   2.077   3.929   2.746
 4945SOL     OW15733   1.126   1.312   3.814
 4945SOL    HW115734   1.095   1.222   3.845
 4945SOL    HW215735   1.190   1.302   3.738
 4946SOL     OW15736   0.751   3.101   1.558
 4946SOL    HW115737   0.698   3.036   1.614
 4946SOL    HW215738   0.845   3.068   1.551
 4947SOL     OW15739   1.560   6.950   1.085
 4947SOL    HW115740   1.501   6.892   1.029
 4947SOL    HW215741   1.539   6.934   1.182
 4948SOL     OW15742   2.536   0.437   2.547
 4948SOL    HW115743   2.457   0.497   2.536
 4948SOL    HW215744   2.609   0.466   2.485
 4949SOL     OW15745   4.675   0.560   5.581
 4949SOL    HW115746   4.687   0.613   5.497
 4949SOL    HW215747   4.683   0.462   5.561
 4950SOL     OW15748   2.997   5.329   3.763
 4950SOL    HW115749   2.897   5.338   3.767
 4950SOL    HW215750   3.026   5.320   3.668
 4951SOL     OW15751   5.422   1.354   4.780
 4951SOL    HW115752   5.501   1.294   4.798
 4951SOL    HW215753   5.399   1.404   4.863
 4952SOL     OW15754   0.301   0.632   4.746
 4952SOL    HW115755   0.286   0.575   4.665
 4952SOL    HW215756   0.349   0.715   4.720
 4953SOL     OW15757   2.498   6.118   1.875
 4953SOL    HW115758   2.564   6.193   1.884
 4953SOL    HW215759   2.489   6.094   1.778
 4954SOL     OW15760   4.300   4.620   6.703
 4954SOL    HW115761   4.241   4.540   6.692
 4954SOL    HW215762   4.360   4.606   6.782
 4955SOL     OW15763   1.330   5.924   6.827
 4955SOL    HW115764   1.345   5.951   6.922
 4955SOL    HW215765   1.412   5.881   6.791
 4956SOL     OW15766   3.666   0.128   4.938
 4956SOL    HW115767   3.595   0.118   4.868
 4956SOL    HW215768   3.694   0.038   4.971
 4957SOL     OW15769   7.002   0.913   3.397
 4957SOL    HW115770   0.068   0.953   3.391
 4957SOL    HW215771   6.953   0.953   3.475
 4958SOL     OW15772   0.445   6.543   6.207
 4958SOL    HW115773   0.473   6.602   6.283
 4958SOL    HW215774   0.346   6.531   6.209
 4959SOL     OW15775   0.142   1.316   7.020
 4959SOL    HW115776   0.158   1.218   7.008
 4959SOL    HW215777   0.214   1.367   6.974
 4960SOL     OW15778   3.138   6.069   3.990
 4960SOL    HW115779   3.190   5.997   4.035
 4960SOL    HW215780   3.089   6.031   3.911
 4961SOL     OW15781   5.427   1.348   5.274
 4961SOL    HW115782   5.455   1.391   5.360
 4961SOL    HW215783   5.339   1.303   5.286
 4962SOL     OW15784   5.611   3.156   1.669
 4962SOL    HW115785   5.636   3.136   1.763
 4962SOL    HW215786   5.548   3.085   1.636
 4963SOL     OW15787   6.085   5.817   1.693
 4963SOL    HW115788   6.054   5.911   1.709
 4963SOL    HW215789   6.185   5.814   1.701
 4964SOL     OW15790   3.545   6.598   3.156
 4964SOL    HW115791   3.506   6.520   3.206
 4964SOL    HW215792   3.597   6.656   3.218
 4965SOL     OW15793   0.450   0.166   5.067
 4965SOL    HW115794   0.486   0.106   4.996
 4965SOL    HW215795   0.400   0.242   5.025
 4966SOL     OW15796   2.303   6.452   4.311
 4966SOL    HW115797   2.399   6.430   4.293
 4966SOL    HW215798   2.296   6.507   4.394
 4967SOL     OW15799   3.945   3.309   6.655
 4967SOL    HW115800   4.038   3.275   6.665
 4967SOL    HW215801   3.916   3.352   6.741
 4968SOL     OW15802   5.308   2.674   3.231
 4968SOL    HW115803   5.297   2.608   3.157
 4968SOL    HW215804   5.362   2.752   3.199
 4969SOL     OW15805   1.630   1.192   2.747
 4969SOL    HW115806   1.572   1.133   2.803
 4969SOL    HW215807   1.604   1.183   2.651
 4970SOL     OW15808   1.514   2.529   4.493
 4970SOL    HW115809   1.574   2.582   4.554
 4970SOL    HW215810   1.446   2.480   4.548
 4971SOL     OW15811   6.469   5.436   3.715
 4971SOL    HW115812   6.420   5.513   3.674
 4971SOL    HW215813   6.414   5.353   3.705
 4972SOL     OW15814   2.235   3.262   0.846
 4972SOL    HW115815   2.172   3.227   0.915
 4972SOL    HW215816   2.197   3.345   0.805
 4973SOL     OW15817   6.992   6.887   2.056
 4973SOL    HW115818   6.898   6.878   2.088
 4973SOL    HW215819   7.002   6.841   1.968
 4974SOL     OW15820   6.549   4.923   0.842
 4974SOL    HW115821   6.533   4.849   0.777
 4974SOL    HW215822   6.619   4.984   0.807
 4975SOL     OW15823   6.174   5.746   1.034
 4975SOL    HW115824   6.158   5.793   0.947
 4975SOL    HW215825   6.194   5.813   1.105
 4976SOL     OW15826   3.147   0.658   4.221
 4976SOL    HW115827   3.172   0.731   4.157
 4976SOL    HW215828   3.048   0.642   4.215
 4977SOL     OW15829   4.875   3.805   0.777
 4977SOL    HW115830   4.896   3.882   0.716
 4977SOL    HW215831   4.913   3.720   0.738
 4978SOL     OW15832   6.979   3.635   5.357
 4978SOL    HW115833   6.974   3.546   5.311
 4978SOL    HW215834   7.023   3.623   5.446
 4979SOL     OW15835   6.843   2.249   5.136
 4979SOL    HW115836   6.934   2.275   5.104
 4979SOL    HW215837   6.774   2.300   5.085
 4980SOL     OW15838   4.510   6.828   3.343
 4980SOL    HW115839   4.431   6.802   3.399
 4980SOL    HW215840   4.553   6.746   3.306
 4981SOL     OW15841   4.892   6.077   5.824
 4981SOL    HW115842   4.963   6.034   5.879
 4981SOL    HW215843   4.905   6.176   5.823
 4982SOL     OW15844   2.629   1.395   6.370
 4982SOL    HW115845   2.671   1.435   6.451
 4982SOL    HW215846   2.534   1.372   6.390
 4983SOL     OW15847   4.985   3.289   4.298
 4983SOL    HW115848   5.080   3.285   4.328
 4983SOL    HW215849   4.969   3.375   4.251
 4984SOL     OW15850   5.683   3.423   4.331
 4984SOL    HW115851   5.723   3.515   4.327
 4984SOL    HW215852   5.656   3.395   4.239
 4985SOL     OW15853   6.445   6.115   3.901
 4985SOL    HW115854   6.488   6.026   3.913
 4985SOL    HW215855   6.373   6.108   3.832
 4986SOL     OW15856   6.125   4.577   2.741
 4986SOL    HW115857   6.055   4.507   2.725
 4986SOL    HW215858   6.188   4.546   2.812
 4987SOL     OW15859   0.756   2.268   1.109
 4987SOL    HW115860   0.793   2.304   1.194
 4987SOL    HW215861   0.738   2.170   1.119
 4988SOL     OW15862   6.940   1.269   3.940
 4988SOL    HW115863   6.963   1.282   3.843
 4988SOL    HW215864   6.933   1.172   3.960
 4989SOL     OW15865   5.750   1.149   1.767
 4989SOL    HW115866   5.839   1.105   1.755
 4989SOL    HW215867   5.720   1.141   1.862
 4990SOL     OW15868   1.307   2.059   6.476
 4990SOL    HW115869   1.364   1.988   6.435
 4990SOL    HW215870   1.363   2.139   6.496
 4991SOL     OW15871   0.483   3.060   4.311
 4991SOL    HW115872   0.424   3.141   4.305
 4991SOL    HW215873   0.426   2.978   4.319
 4992SOL     OW15874   3.958   0.725   4.238
 4992SOL    HW115875   3.965   0.824   4.252
 4992SOL    HW215876   3.879   0.690   4.287
 4993SOL     OW15877   2.447   4.542   3.950
 4993SOL    HW115878   2.526   4.594   3.984
 4993SOL    HW215879   2.432   4.563   3.854
 4994SOL     OW15880   1.329   0.263   2.316
 4994SOL    HW115881   1.300   0.218   2.232
 4994SOL    HW215882   1.428   0.278   2.313
 4995SOL     OW15883   6.735   3.393   5.741
 4995SOL    HW115884   6.774   3.349   5.822
 4995SOL    HW215885   6.781   3.358   5.659
 4996SOL     OW15886   0.889   0.561   2.206
 4996SOL    HW115887   0.937   0.487   2.255
 4996SOL    HW215888   0.954   0.612   2.151
 4997SOL     OW15889   6.879   2.538   3.094
 4997SOL    HW115890   6.913   2.622   3.137
 4997SOL    HW215891   6.932   2.520   3.010
 4998SOL     OW15892   1.940   4.387   5.047
 4998SOL    HW115893   1.893   4.299   5.053
 4998SOL    HW215894   1.899   4.442   4.974
 4999SOL     OW15895   4.964   5.762   1.590
 4999SOL    HW115896   4.871   5.727   1.574
 4999SOL    HW215897   4.973   5.853   1.549
 5000SOL     OW15898   1.058   0.761   3.968
 5000SOL    HW115899   1.067   0.830   3.896
 5000SOL    HW215900   0.976   0.780   4.022
 5001SOL     OW15901   1.719   3.865   6.257
 5001SOL    HW115902   1.783   3.926   6.304
 5001SOL    HW215903   1.769   3.785   6.224
 5002SOL     OW15904   1.249   2.631   2.924
 5002SOL    HW115905   1.218   2.613   3.018
 5002SOL    HW215906   1.186   2.587   2.860
 5003SOL     OW15907   1.017   6.435   3.531
 5003SOL    HW115908   0.954   6.503   3.492
 5003SOL    HW215909   1.018   6.445   3.631
 5004SOL     OW15910   2.706   5.937   5.853
 5004SOL    HW115911   2.713   6.035   5.837
 5004SOL    HW215912   2.712   5.918   5.951
 5005SOL     OW15913   4.059   2.175   0.345
 5005SOL    HW115914   4.132   2.169   0.413
 5005SOL    HW215915   3.970   2.162   0.389
 5006SOL     OW15916   5.634   0.166   6.201
 5006SOL    HW115917   5.649   0.187   6.298
 5006SOL    HW215918   5.701   0.216   6.146
 5007SOL     OW15919   2.626   0.456   5.769
 5007SOL    HW115920   2.711   0.472   5.718
 5007SOL    HW215921   2.597   0.541   5.813
 5008SOL     OW15922   6.144   0.565   3.792
 5008SOL    HW115923   6.104   0.498   3.729
 5008SOL    HW215924   6.234   0.532   3.822
 5009SOL     OW15925   1.822   6.212   1.689
 5009SOL    HW115926   1.871   6.128   1.662
 5009SOL    HW215927   1.855   6.244   1.777
 5010SOL     OW15928   3.292   3.799   3.906
 5010SOL    HW115929   3.251   3.777   3.818
 5010SOL    HW215930   3.256   3.738   3.976
 5011SOL     OW15931   2.241   3.150   1.846
 5011SOL    HW115932   2.174   3.140   1.920
 5011SOL    HW215933   2.265   3.247   1.835
 5012SOL     OW15934   5.972   2.638   6.135
 5012SOL    HW115935   5.943   2.724   6.094
 5012SOL    HW215936   6.065   2.647   6.171
 5013SOL     OW15937   4.708   0.638   6.519
 5013SOL    HW115938   4.672   0.638   6.613
 5013SOL    HW215939   4.632   0.650   6.455
 5014SOL     OW15940   6.354   5.581   0.820
 5014SOL    HW115941   6.344   5.675   0.787
 5014SOL    HW215942   6.265   5.545   0.848
 5015SOL     OW15943   4.263   1.695   4.131
 5015SOL    HW115944   4.274   1.601   4.101
 5015SOL    HW215945   4.298   1.704   4.225
 5016SOL     OW15946   2.098   1.149   2.487
 5016SOL    HW115947   2.147   1.226   2.529
 5016SOL    HW215948   2.000   1.162   2.498
 5017SOL     OW15949   2.128   2.514   0.712
 5017SOL    HW115950   2.106   2.438   0.651
 5017SOL    HW215951   2.183   2.581   0.662
 5018SOL     OW15952   0.464   4.449   2.216
 5018SOL    HW115953   0.383   4.452   2.157
 5018SOL    HW215954   0.542   4.491   2.168
 5019SOL     OW15955   2.230   4.419   0.402
 5019SOL    HW115956   2.168   4.487   0.440
 5019SOL    HW215957   2.257   4.447   0.310
 5020SOL     OW15958   5.967   6.292   5.573
 5020SOL    HW115959   6.052   6.314   5.525
 5020SOL    HW215960   5.920   6.377   5.600
 5021SOL     OW15961   0.919   4.281   6.480
 5021SOL    HW115962   0.952   4.187   6.474
 5021SOL    HW215963   0.853   4.288   6.554
 5022SOL     OW15964   1.831   0.118   0.759
 5022SOL    HW115965   1.873   0.182   0.695
 5022SOL    HW215966   1.755   0.162   0.806
 5023SOL     OW15967   6.088   2.806   0.799
 5023SOL    HW115968   6.126   2.879   0.856
 5023SOL    HW215969   6.159   2.738   0.781
 5024SOL     OW15970   6.690   4.089   2.735
 5024SOL    HW115971   6.703   3.994   2.706
 5024SOL    HW215972   6.625   4.134   2.673
 5025SOL     OW15973   5.020   1.749   2.181
 5025SOL    HW115974   4.966   1.832   2.196
 5025SOL    HW215975   4.973   1.690   2.116
 5026SOL     OW15976   6.097   5.841   6.095
 5026SOL    HW115977   6.074   5.850   5.998
 5026SOL    HW215978   6.107   5.744   6.118
 5027SOL     OW15979   0.977   6.979   3.192
 5027SOL    HW115980   0.893   6.964   3.140
 5027SOL    HW215981   1.049   7.011   3.130
 5028SOL     OW15982   0.311   5.724   2.223
 5028SOL    HW115983   0.397   5.674   2.232
 5028SOL    HW215984   0.317   5.785   2.144
 5029SOL     OW15985   6.936   3.036   2.936
 5029SOL    HW115986   6.911   3.049   2.841
 5029SOL    HW215987   6.956   2.939   2.952
 5030SOL     OW15988   0.282   0.601   0.340
 5030SOL    HW115989   0.332   0.515   0.333
 5030SOL    HW215990   0.345   0.673   0.370
 5031SOL     OW15991   6.228   1.276   4.637
 5031SOL    HW115992   6.240   1.371   4.607
 5031SOL    HW215993   6.131   1.253   4.639
 5032SOL     OW15994   0.988   4.465   0.855
 5032SOL    HW115995   1.051   4.481   0.931
 5032SOL    HW215996   0.946   4.551   0.828
 5033SOL     OW15997   2.917   5.034   5.644
 5033SOL    HW115998   2.893   4.967   5.574
 5033SOL    HW215999   2.835   5.057   5.697
 5034SOL     OW16000   6.927   3.332   1.826
 5034SOL    HW116001   6.979   3.365   1.747
 5034SOL    HW216002   6.848   3.280   1.793
 5035SOL     OW16003   5.753   4.972   1.022
 5035SOL    HW116004   5.673   4.946   0.968
 5035SOL    HW216005   5.746   4.932   1.114
 5036SOL     OW16006   1.016   6.307   6.195
 5036SOL    HW116007   0.997   6.293   6.292
 5036SOL    HW216008   1.041   6.403   6.179
 5037SOL     OW16009   4.538   1.953   3.298
 5037SOL    HW116010   4.555   2.024   3.230
 5037SOL    HW216011   4.617   1.945   3.358
 5038SOL     OW16012   1.953   5.954   5.635
 5038SOL    HW116013   1.998   5.869   5.664
 5038SOL    HW216014   1.864   5.932   5.595
 5039SOL     OW16015   2.188   3.312   5.014
 5039SOL    HW116016   2.109   3.330   5.073
 5039SOL    HW216017   2.196   3.214   4.998
 5040SOL     OW16018   2.666   3.524   6.557
 5040SOL    HW116019   2.691   3.438   6.514
 5040SOL    HW216020   2.695   3.524   6.653
 5041SOL     OW16021   0.800   3.499   1.203
 5041SOL    HW116022   0.866   3.524   1.133
 5041SOL    HW216023   0.709   3.494   1.163
 5042SOL     OW16024   6.506   2.997   6.712
 5042SOL    HW116025   6.443   3.075   6.715
 5042SOL    HW216026   6.542   2.979   6.804
 5043SOL     OW16027   3.396   1.247   5.491
 5043SOL    HW116028   3.333   1.320   5.520
 5043SOL    HW216029   3.355   1.158   5.514
 5044SOL     OW16030   6.584   6.243   3.611
 5044SOL    HW116031   6.493   6.208   3.588
 5044SOL    HW216032   6.581   6.284   3.702
 5045SOL     OW16033   4.837   3.392   0.297
 5045SOL    HW116034   4.797   3.468   0.348
 5045SOL    HW216035   4.766   3.324   0.279
 5046SOL     OW16036   3.498   2.853   5.143
 5046SOL    HW116037   3.530   2.947   5.135
 5046SOL    HW216038   3.567   2.797   5.188
 5047SOL     OW16039   6.135   1.346   2.538
 5047SOL    HW116040   6.040   1.323   2.558
 5047SOL    HW216041   6.181   1.376   2.622
 5048SOL     OW16042   6.825   2.410   2.158
 5048SOL    HW116043   6.873   2.359   2.086
 5048SOL    HW216044   6.797   2.346   2.230
 5049SOL     OW16045   6.542   1.103   2.976
 5049SOL    HW116046   6.523   1.023   2.919
 5049SOL    HW216047   6.582   1.072   3.063
 5050SOL     OW16048   0.410   1.471   1.866
 5050SOL    HW116049   0.408   1.567   1.892
 5050SOL    HW216050   0.319   1.431   1.880
 5051SOL     OW16051   3.283   4.108   1.177
 5051SOL    HW116052   3.267   4.099   1.276
 5051SOL    HW216053   3.230   4.040   1.128
 5052SOL     OW16054   3.197   4.674   0.412
 5052SOL    HW116055   3.141   4.664   0.330
 5052SOL    HW216056   3.290   4.644   0.392
 5053SOL     OW16057   2.228   3.975   2.259
 5053SOL    HW116058   2.200   4.025   2.177
 5053SOL    HW216059   2.181   4.013   2.339
 5054SOL     OW16060   3.852   5.681   5.476
 5054SOL    HW116061   3.793   5.761   5.483
 5054SOL    HW216062   3.884   5.671   5.382
 5055SOL     OW16063   0.570   1.711   4.833
 5055SOL    HW116064   0.481   1.751   4.811
 5055SOL    HW216065   0.592   1.732   4.929
 5056SOL     OW16066   0.268   3.949   6.377
 5056SOL    HW116067   0.281   4.048   6.384
 5056SOL    HW216068   0.306   3.905   6.459
 5057SOL     OW16069   0.502   5.534   3.250
 5057SOL    HW116070   0.559   5.557   3.171
 5057SOL    HW216071   0.487   5.615   3.306
 5058SOL     OW16072   3.773   3.892   6.505
 5058SOL    HW116073   3.822   3.843   6.576
 5058SOL    HW216074   3.772   3.838   6.421
 5059SOL     OW16075   4.541   2.606   5.023
 5059SOL    HW116076   4.484   2.546   4.967
 5059SOL    HW216077   4.595   2.550   5.086
 5060SOL     OW16078   6.647   3.194   5.222
 5060SOL    HW116079   6.655   3.154   5.131
 5060SOL    HW216080   6.724   3.255   5.238
 5061SOL     OW16081   2.950   3.263   4.097
 5061SOL    HW116082   2.921   3.358   4.097
 5061SOL    HW216083   2.869   3.204   4.092
 5062SOL     OW16084   5.131   1.767   2.832
 5062SOL    HW116085   5.113   1.764   2.734
 5062SOL    HW216086   5.153   1.860   2.859
 5063SOL     OW16087   1.248   6.685   1.788
 5063SOL    HW116088   1.275   6.589   1.781
 5063SOL    HW216089   1.297   6.728   1.864
 5064SOL     OW16090   4.576   5.041   1.094
 5064SOL    HW116091   4.646   4.984   1.051
 5064SOL    HW216092   4.601   5.058   1.189
 5065SOL     OW16093   1.501   0.722   3.397
 5065SOL    HW116094   1.537   0.815   3.407
 5065SOL    HW216095   1.430   0.721   3.326
 5066SOL     OW16096   2.382   4.164   1.984
 5066SOL    HW116097   2.304   4.119   1.940
 5066SOL    HW216098   2.441   4.094   2.025
 5067SOL     OW16099   4.083   2.264   1.905
 5067SOL    HW116100   4.144   2.312   1.968
 5067SOL    HW216101   4.084   2.166   1.927
 5068SOL     OW16102   3.318   5.641   0.217
 5068SOL    HW116103   3.394   5.702   0.238
 5068SOL    HW216104   3.253   5.641   0.293
 5069SOL     OW16105   1.979   3.229   5.552
 5069SOL    HW116106   1.950   3.159   5.487
 5069SOL    HW216107   2.056   3.280   5.513
 5070SOL     OW16108   5.929   4.019   3.903
 5070SOL    HW116109   5.853   4.038   3.841
 5070SOL    HW216110   5.895   4.013   3.997
 5071SOL     OW16111   3.859   1.818   3.623
 5071SOL    HW116112   3.929   1.865   3.678
 5071SOL    HW216113   3.819   1.883   3.558
 5072SOL     OW16114   1.734   1.223   1.085
 5072SOL    HW116115   1.694   1.310   1.058
 5072SOL    HW216116   1.773   1.178   1.004
 5073SOL     OW16117   2.512   6.424   1.707
 5073SOL    HW116118   2.435   6.359   1.708
 5073SOL    HW216119   2.580   6.395   1.774
 5074SOL     OW16120   3.850   1.409   1.802
 5074SOL    HW116121   3.836   1.312   1.784
 5074SOL    HW216122   3.909   1.448   1.731
 5075SOL     OW16123   1.340   2.747   0.349
 5075SOL    HW116124   1.318   2.813   0.421
 5075SOL    HW216125   1.428   2.771   0.308
 5076SOL     OW16126   5.491   0.343   6.988
 5076SOL    HW116127   5.491   0.405   6.910
 5076SOL    HW216128   5.581   0.344   0.007
 5077SOL     OW16129   1.555   3.475   5.684
 5077SOL    HW116130   1.584   3.543   5.752
 5077SOL    HW216131   1.572   3.511   5.592
 5078SOL     OW16132   0.762   1.127   4.701
 5078SOL    HW116133   0.722   1.209   4.659
 5078SOL    HW216134   0.835   1.154   4.763
 5079SOL     OW16135   1.978   1.808   5.632
 5079SOL    HW116136   2.000   1.713   5.657
 5079SOL    HW216137   2.056   1.866   5.654
 5080SOL     OW16138   6.170   5.564   5.405
 5080SOL    HW116139   6.145   5.657   5.379
 5080SOL    HW216140   6.163   5.554   5.505
 5081SOL     OW16141   2.693   5.133   5.216
 5081SOL    HW116142   2.669   5.053   5.270
 5081SOL    HW216143   2.790   5.130   5.192
 5082SOL     OW16144   4.820   6.646   0.102
 5082SOL    HW116145   4.819   6.744   0.083
 5082SOL    HW216146   4.729   6.608   0.084
 5083SOL     OW16147   3.051   0.321   1.588
 5083SOL    HW116148   3.079   0.291   1.679
 5083SOL    HW216149   2.952   0.318   1.580
 5084SOL     OW16150   0.880   4.854   4.869
 5084SOL    HW116151   0.973   4.890   4.863
 5084SOL    HW216152   0.850   4.854   4.964
 5085SOL     OW16153   1.179   2.442   6.060
 5085SOL    HW116154   1.089   2.459   6.018
 5085SOL    HW216155   1.217   2.357   6.022
 5086SOL     OW16156   0.972   4.271   2.242
 5086SOL    HW116157   0.930   4.224   2.165
 5086SOL    HW216158   0.959   4.370   2.231
 5087SOL     OW16159   6.750   5.100   2.219
 5087SOL    HW116160   6.835   5.048   2.218
 5087SOL    HW216161   6.716   5.107   2.312
 5088SOL     OW16162   4.077   6.229   2.600
 5088SOL    HW116163   4.081   6.271   2.510
 5088SOL    HW216164   4.141   6.274   2.662
 5089SOL     OW16165   5.976   4.262   4.164
 5089SOL    HW116166   6.019   4.173   4.150
 5089SOL    HW216167   5.994   4.294   4.257
 5090SOL     OW16168   2.258   0.645   3.071
 5090SOL    HW116169   2.272   0.678   2.978
 5090SOL    HW216170   2.226   0.720   3.129
 5091SOL     OW16171   6.806   0.423   0.548
 5091SOL    HW116172   6.890   0.374   0.527
 5091SOL    HW216173   6.827   0.504   0.603
 5092SOL     OW16174   3.981   3.298   3.902
 5092SOL    HW116175   3.906   3.258   3.955
 5092SOL    HW216176   4.025   3.226   3.848
 5093SOL     OW16177   2.605   1.548   1.487
 5093SOL    HW116178   2.583   1.610   1.563
 5093SOL    HW216179   2.675   1.483   1.516
 5094SOL     OW16180   1.995   6.353   6.807
 5094SOL    HW116181   1.942   6.313   6.732
 5094SOL    HW216182   1.979   6.452   6.810
 5095SOL     OW16183   0.170   1.679   3.145
 5095SOL    HW116184   0.074   1.676   3.119
 5095SOL    HW216185   0.185   1.618   3.224
 5096SOL     OW16186   5.868   4.830   6.412
 5096SOL    HW116187   5.818   4.744   6.414
 5096SOL    HW216188   5.949   4.820   6.354
 5097SOL     OW16189   6.619   0.268   0.106
 5097SOL    HW116190   6.553   0.304   0.039
 5097SOL    HW216191   6.712   0.279   0.070
 5098SOL     OW16192   3.673   2.315   1.399
 5098SOL    HW116193   3.773   2.318   1.392
 5098SOL    HW216194   3.646   2.234   1.450
 5099SOL     OW16195   0.432   6.251   1.545
 5099SOL    HW116196   0.451   6.155   1.524
 5099SOL    HW216197   0.515   6.305   1.534
 5100SOL     OW16198   3.779   5.181   3.334
 5100SOL    HW116199   3.701   5.241   3.351
 5100SOL    HW216200   3.746   5.090   3.307
 5101SOL     OW16201   3.781   0.713   4.564
 5101SOL    HW116202   3.867   0.763   4.571
 5101SOL    HW216203   3.712   0.757   4.622
 5102SOL     OW16204   5.116   5.664   4.253
 5102SOL    HW116205   5.194   5.721   4.225
 5102SOL    HW216206   5.136   5.623   4.341
 5103SOL     OW16207   0.810   1.332   4.456
 5103SOL    HW116208   0.803   1.345   4.357
 5103SOL    HW216209   0.896   1.372   4.488
 5104SOL     OW16210   3.571   5.969   1.855
 5104SOL    HW116211   3.542   6.022   1.935
 5104SOL    HW216212   3.623   5.889   1.885
 5105SOL     OW16213   3.410   3.278   6.658
 5105SOL    HW116214   3.327   3.244   6.702
 5105SOL    HW216215   3.385   3.337   6.581
 5106SOL     OW16216   4.087   1.783   1.182
 5106SOL    HW116217   4.155   1.726   1.136
 5106SOL    HW216218   4.107   1.787   1.280
 5107SOL     OW16219   4.843   2.398   1.026
 5107SOL    HW116220   4.939   2.371   1.028
 5107SOL    HW216221   4.798   2.366   1.110
 5108SOL     OW16222   4.030   3.838   5.534
 5108SOL    HW116223   4.064   3.856   5.442
 5108SOL    HW216224   4.062   3.909   5.596
 5109SOL     OW16225   1.205   2.341   1.088
 5109SOL    HW116226   1.260   2.280   1.145
 5109SOL    HW216227   1.262   2.380   1.016
 5110SOL     OW16228   0.284   0.553   6.301
 5110SOL    HW116229   0.192   0.593   6.310
 5110SOL    HW216230   0.327   0.548   6.391
 5111SOL     OW16231   1.263   6.912   4.453
 5111SOL    HW116232   1.351   6.865   4.442
 5111SOL    HW216233   1.206   6.861   4.517
 5112SOL     OW16234   0.361   0.430   2.786
 5112SOL    HW116235   0.265   0.409   2.773
 5112SOL    HW216236   0.373   0.479   2.872
 5113SOL     OW16237   1.302   5.856   1.292
 5113SOL    HW116238   1.305   5.786   1.363
 5113SOL    HW216239   1.385   5.910   1.295
 5114SOL     OW16240   3.697   6.715   0.630
 5114SOL    HW116241   3.641   6.678   0.556
 5114SOL    HW216242   3.778   6.658   0.643
 5115SOL     OW16243   1.841   3.732   1.987
 5115SOL    HW116244   1.843   3.703   1.891
 5115SOL    HW216245   1.926   3.779   2.009
 5116SOL     OW16246   2.034   6.628   0.233
 5116SOL    HW116247   1.974   6.550   0.253
 5116SOL    HW216248   2.129   6.598   0.233
 5117SOL     OW16249   0.977   3.408   3.997
 5117SOL    HW116250   1.041   3.478   4.029
 5117SOL    HW216251   0.894   3.410   4.053
 5118SOL     OW16252   6.222   6.511   0.065
 5118SOL    HW116253   6.247   6.453   0.143
 5118SOL    HW216254   6.198   6.453   7.012
 5119SOL     OW16255   4.531   1.623   1.061
 5119SOL    HW116256   4.601   1.686   1.094
 5119SOL    HW216257   4.448   1.632   1.116
 5120SOL     OW16258   4.979   6.889   5.136
 5120SOL    HW116259   4.959   6.797   5.168
 5120SOL    HW216260   5.044   6.933   5.198
 5121SOL     OW16261   3.370   3.683   0.141
 5121SOL    HW116262   3.363   3.595   0.094
 5121SOL    HW216263   3.346   3.672   0.237
 5122SOL     OW16264   3.695   6.247   3.340
 5122SOL    HW116265   3.617   6.278   3.394
 5122SOL    HW216266   3.775   6.239   3.400
 5123SOL     OW16267   5.553   2.547   3.414
 5123SOL    HW116268   5.531   2.620   3.479
 5123SOL    HW216269   5.530   2.576   3.321
 5124SOL     OW16270   1.931   6.860   3.340
 5124SOL    HW116271   1.966   6.786   3.398
 5124SOL    HW216272   1.873   6.822   3.269
 5125SOL     OW16273   0.365   2.080   2.756
 5125SOL    HW116274   0.383   2.091   2.854
 5125SOL    HW216275   0.370   2.170   2.712
 5126SOL     OW16276   1.125   6.410   0.047
 5126SOL    HW116277   1.037   6.454   0.070
 5126SOL    HW216278   1.200   6.467   0.081
 5127SOL     OW16279   0.915   5.478   0.036
 5127SOL    HW116280   0.975   5.469   6.982
 5127SOL    HW216281   0.924   5.571   0.074
 5128SOL     OW16282   6.784   6.704   0.856
 5128SOL    HW116283   6.837   6.619   0.865
 5128SOL    HW216284   6.688   6.684   0.870
 5129SOL     OW16285   5.223   6.711   2.314
 5129SOL    HW116286   5.150   6.642   2.317
 5129SOL    HW216287   5.210   6.776   2.388
 5130SOL     OW16288   0.033   4.961   2.875
 5130SOL    HW116289   0.099   4.975   2.949
 5130SOL    HW216290   6.985   5.028   2.884
 5131SOL     OW16291   1.741   3.425   4.549
 5131SOL    HW116292   1.760   3.522   4.535
 5131SOL    HW216293   1.652   3.402   4.509
 5132SOL     OW16294   4.262   2.732   6.406
 5132SOL    HW116295   4.246   2.816   6.354
 5132SOL    HW216296   4.356   2.731   6.439
 5133SOL     OW16297   3.176   4.913   0.544
 5133SOL    HW116298   3.175   4.868   0.455
 5133SOL    HW216299   3.224   4.856   0.610
 5134SOL     OW16300   0.199   2.719   1.574
 5134SOL    HW116301   0.193   2.805   1.523
 5134SOL    HW216302   0.193   2.642   1.511
 5135SOL     OW16303   6.375   2.372   5.424
 5135SOL    HW116304   6.409   2.422   5.504
 5135SOL    HW216305   6.292   2.322   5.449
 5136SOL     OW16306   5.106   0.001   6.169
 5136SOL    HW116307   5.186   6.966   6.166
 5136SOL    HW216308   5.024   6.972   6.181
 5137SOL     OW16309   5.977   3.333   6.368
 5137SOL    HW116310   5.921   3.376   6.298
 5137SOL    HW216311   6.015   3.403   6.428
 5138SOL     OW16312   3.464   2.738   5.910
 5138SOL    HW116313   3.393   2.789   5.862
 5138SOL    HW216314   3.490   2.786   5.993
 5139SOL     OW16315   0.912   6.653   3.378
 5139SOL    HW116316   0.990   6.716   3.371
 5139SOL    HW216317   0.829   6.705   3.399
 5140SOL     OW16318   3.095   1.438   0.289
 5140SOL    HW116319   3.159   1.475   0.357
 5140SOL    HW216320   3.106   1.488   0.203
 5141SOL     OW16321   6.215   3.485   0.452
 5141SOL    HW116322   6.288   3.508   0.517
 5141SOL    HW216323   6.176   3.570   0.415
 5142SOL     OW16324   6.233   1.947   4.213
 5142SOL    HW116325   6.309   2.011   4.201
 5142SOL    HW216326   6.147   1.992   4.188
 5143SOL     OW16327   0.472   4.035   3.543
 5143SOL    HW116328   0.426   4.015   3.630
 5143SOL    HW216329   0.507   3.951   3.503
 5144SOL     OW16330   0.951   6.595   6.655
 5144SOL    HW116331   0.869   6.572   6.707
 5144SOL    HW216332   1.009   6.515   6.647
 5145SOL     OW16333   2.529   5.290   5.950
 5145SOL    HW116334   2.463   5.343   5.896
 5145SOL    HW216335   2.529   5.324   6.044
 5146SOL     OW16336   4.599   3.605   6.326
 5146SOL    HW116337   4.507   3.644   6.332
 5146SOL    HW216338   4.659   3.647   6.394
 5147SOL     OW16339   0.357   4.144   2.146
 5147SOL    HW116340   0.362   4.239   2.177
 5147SOL    HW216341   0.447   4.116   2.111
 5148SOL     OW16342   0.554   6.242   1.095
 5148SOL    HW116343   0.471   6.296   1.080
 5148SOL    HW216344   0.628   6.301   1.126
 5149SOL     OW16345   5.931   6.469   4.605
 5149SOL    HW116346   5.951   6.435   4.513
 5149SOL    HW216347   5.842   6.435   4.634
 5150SOL     OW16348   2.244   4.698   3.323
 5150SOL    HW116349   2.319   4.639   3.294
 5150SOL    HW216350   2.256   4.790   3.285
 5151SOL     OW16351   5.319   1.111   0.574
 5151SOL    HW116352   5.378   1.192   0.581
 5151SOL    HW216353   5.361   1.035   0.623
 5152SOL     OW16354   1.992   4.832   6.180
 5152SOL    HW116355   1.905   4.786   6.196
 5152SOL    HW216356   1.992   4.875   6.089
 5153SOL     OW16357   2.508   1.032   6.522
 5153SOL    HW116358   2.458   1.102   6.573
 5153SOL    HW216359   2.597   1.017   6.566
 5154SOL     OW16360   1.790   2.928   6.332
 5154SOL    HW116361   1.868   2.967   6.284
 5154SOL    HW216362   1.749   2.997   6.392
 5155SOL     OW16363   3.866   6.608   2.093
 5155SOL    HW116364   3.892   6.577   2.001
 5155SOL    HW216365   3.947   6.645   2.139
 5156SOL     OW16366   6.791   3.196   5.547
 5156SOL    HW116367   6.712   3.136   5.537
 5156SOL    HW216368   6.861   3.150   5.601
 5157SOL     OW16369   4.712   2.563   3.794
 5157SOL    HW116370   4.662   2.522   3.717
 5157SOL    HW216371   4.810   2.548   3.781
 5158SOL     OW16372   3.503   1.692   1.463
 5158SOL    HW116373   3.420   1.723   1.509
 5158SOL    HW216374   3.515   1.742   1.378
 5159SOL     OW16375   0.573   3.251   4.925
 5159SOL    HW116376   0.511   3.181   4.960
 5159SOL    HW216377   0.636   3.279   4.998
 5160SOL     OW16378   0.722   3.728   4.154
 5160SOL    HW116379   0.810   3.774   4.143
 5160SOL    HW216380   0.659   3.758   4.082
 5161SOL     OW16381   1.150   4.036   4.942
 5161SOL    HW116382   1.213   4.022   4.866
 5161SOL    HW216383   1.066   4.078   4.907
 5162SOL     OW16384   0.736   5.058   4.075
 5162SOL    HW116385   0.756   5.154   4.092
 5162SOL    HW216386   0.639   5.040   4.091
 5163SOL     OW16387   3.783   4.998   1.379
 5163SOL    HW116388   3.774   4.961   1.286
 5163SOL    HW216389   3.783   5.098   1.375
 5164SOL     OW16390   6.255   2.349   5.994
 5164SOL    HW116391   6.306   2.367   6.077
 5164SOL    HW216392   6.209   2.260   6.001
 5165SOL     OW16393   5.642   4.085   5.208
 5165SOL    HW116394   5.631   4.096   5.109
 5165SOL    HW216395   5.713   4.148   5.240
 5166SOL     OW16396   1.434   5.101   1.707
 5166SOL    HW116397   1.388   5.102   1.796
 5166SOL    HW216398   1.454   5.195   1.679
 5167SOL     OW16399   6.163   0.373   5.581
 5167SOL    HW116400   6.082   0.430   5.592
 5167SOL    HW216401   6.163   0.332   5.490
 5168SOL     OW16402   4.894   2.309   3.168
 5168SOL    HW116403   4.832   2.388   3.166
 5168SOL    HW216404   4.985   2.337   3.140
 5169SOL     OW16405   3.304   2.918   5.776
 5169SOL    HW116406   3.302   3.018   5.768
 5169SOL    HW216407   3.306   2.878   5.685
 5170SOL     OW16408   0.171   4.125   5.819
 5170SOL    HW116409   0.189   4.094   5.725
 5170SOL    HW216410   0.251   4.171   5.855
 5171SOL     OW16411   2.432   4.875   4.544
 5171SOL    HW116412   2.488   4.871   4.626
 5171SOL    HW216413   2.459   4.955   4.489
 5172SOL     OW16414   0.846   3.032   1.899
 5172SOL    HW116415   0.853   2.987   1.988
 5172SOL    HW216416   0.887   3.124   1.905
 5173SOL     OW16417   6.051   4.466   6.408
 5173SOL    HW116418   6.002   4.498   6.489
 5173SOL    HW216419   6.106   4.541   6.371
 5174SOL     OW16420   1.976   4.742   4.360
 5174SOL    HW116421   2.048   4.808   4.339
 5174SOL    HW216422   2.018   4.655   4.388
 5175SOL     OW16423   2.194   4.142   6.443
 5175SOL    HW116424   2.129   4.204   6.485
 5175SOL    HW216425   2.280   4.191   6.426
 5176SOL     OW16426   4.069   2.945   1.213
 5176SOL    HW116427   4.124   2.998   1.149
 5176SOL    HW216428   4.127   2.875   1.256
 5177SOL     OW16429   4.819   6.860   6.143
 5177SOL    HW116430   4.786   6.817   6.228
 5177SOL    HW216431   4.743   6.870   6.079
 5178SOL     OW16432   2.673   2.545   0.955
 5178SOL    HW116433   2.751   2.486   0.931
 5178SOL    HW216434   2.668   2.555   1.054
 5179SOL     OW16435   4.898   5.901   5.160
 5179SOL    HW116436   4.877   5.917   5.063
 5179SOL    HW216437   4.817   5.921   5.215
 5180SOL     OW16438   2.951   2.567   6.250
 5180SOL    HW116439   2.888   2.634   6.291
 5180SOL    HW216440   3.038   2.612   6.230
 5181SOL     OW16441   4.710   1.034   2.933
 5181SOL    HW116442   4.677   1.097   2.862
 5181SOL    HW216443   4.788   1.076   2.980
 5182SOL     OW16444   5.273   5.006   1.596
 5182SOL    HW116445   5.191   4.949   1.593
 5182SOL    HW216446   5.249   5.097   1.632
 5183SOL     OW16447   4.658   6.931   2.226
 5183SOL    HW116448   4.695   6.971   2.310
 5183SOL    HW216449   4.642   6.833   2.240
 5184SOL     OW16450   0.670   1.493   3.766
 5184SOL    HW116451   0.710   1.580   3.797
 5184SOL    HW216452   0.732   1.418   3.790
 5185SOL     OW16453   4.558   6.855   2.958
 5185SOL    HW116454   4.492   6.928   2.977
 5185SOL    HW216455   4.527   6.801   2.881
 5186SOL     OW16456   6.080   3.724   0.713
 5186SOL    HW116457   6.157   3.697   0.770
 5186SOL    HW216458   6.038   3.642   0.674
 5187SOL     OW16459   6.376   1.408   3.587
 5187SOL    HW116460   6.435   1.328   3.594
 5187SOL    HW216461   6.281   1.379   3.580
 5188SOL     OW16462   0.694   5.162   0.896
 5188SOL    HW116463   0.722   5.129   0.986
 5188SOL    HW216464   0.762   5.228   0.863
 5189SOL     OW16465   4.749   5.131   0.570
 5189SOL    HW116466   4.704   5.159   0.655
 5189SOL    HW216467   4.682   5.127   0.496
 5190SOL     OW16468   1.107   2.116   4.098
 5190SOL    HW116469   1.104   2.081   4.005
 5190SOL    HW216470   1.038   2.070   4.154
 5191SOL     OW16471   3.633   0.869   1.568
 5191SOL    HW116472   3.683   0.824   1.494
 5191SOL    HW216473   3.619   0.804   1.642
 5192SOL     OW16474   4.681   5.682   2.419
 5192SOL    HW116475   4.752   5.628   2.464
 5192SOL    HW216476   4.595   5.630   2.418
 5193SOL     OW16477   4.814   4.434   4.038
 5193SOL    HW116478   4.870   4.506   3.997
 5193SOL    HW216479   4.825   4.349   3.986
 5194SOL     OW16480   5.016   0.179   6.345
 5194SOL    HW116481   4.979   0.126   6.421
 5194SOL    HW216482   5.042   0.116   6.271
 5195SOL     OW16483   6.402   6.250   4.742
 5195SOL    HW116484   6.442   6.276   4.654
 5195SOL    HW216485   6.453   6.173   4.780
 5196SOL     OW16486   0.884   3.713   0.824
 5196SOL    HW116487   0.904   3.644   0.755
 5196SOL    HW216488   0.835   3.790   0.781
 5197SOL     OW16489   2.094   6.055   4.175
 5197SOL    HW116490   2.057   6.110   4.250
 5197SOL    HW216491   2.091   6.109   4.091
 5198SOL     OW16492   3.089   0.173   4.389
 5198SOL    HW116493   3.076   0.101   4.321
 5198SOL    HW216494   3.070   0.262   4.348
 5199SOL     OW16495   2.424   5.984   0.933
 5199SOL    HW116496   2.358   5.975   1.008
 5199SOL    HW216497   2.452   5.894   0.901
 5200SOL     OW16498   1.157   2.391   4.971
 5200SOL    HW116499   1.095   2.360   5.044
 5200SOL    HW216500   1.111   2.459   4.915
 5201SOL     OW16501   5.504   5.631   4.042
 5201SOL    HW116502   5.478   5.704   4.105
 5201SOL    HW216503   5.583   5.660   3.988
 5202SOL     OW16504   5.365   3.492   6.814
 5202SOL    HW116505   5.317   3.459   6.733
 5202SOL    HW216506   5.444   3.547   6.785
 5203SOL     OW16507   1.636   0.421   6.006
 5203SOL    HW116508   1.701   0.402   6.080
 5203SOL    HW216509   1.614   0.335   5.960
 5204SOL     OW16510   2.836   6.518   6.628
 5204SOL    HW116511   2.749   6.548   6.667
 5204SOL    HW216512   2.893   6.479   6.701
 5205SOL     OW16513   0.184   5.391   6.796
 5205SOL    HW116514   0.251   5.464   6.782
 5205SOL    HW216515   0.133   5.407   6.880
 5206SOL     OW16516   0.491   5.283   5.689
 5206SOL    HW116517   0.416   5.341   5.721
 5206SOL    HW216518   0.500   5.204   5.749
 5207SOL     OW16519   0.332   0.374   3.972
 5207SOL    HW116520   0.338   0.277   3.993
 5207SOL    HW216521   0.405   0.399   3.909
 5208SOL     OW16522   4.590   2.453   6.797
 5208SOL    HW116523   4.680   2.481   6.764
 5208SOL    HW216524   4.531   2.533   6.805
 5209SOL     OW16525   4.976   0.072   2.638
 5209SOL    HW116526   4.973   0.009   2.716
 5209SOL    HW216527   4.997   0.164   2.669
 5210SOL     OW16528   5.205   4.025   0.976
 5210SOL    HW116529   5.130   4.091   0.966
 5210SOL    HW216530   5.224   4.011   1.073
 5211SOL     OW16531   5.096   2.025   4.477
 5211SOL    HW116532   4.998   2.021   4.498
 5211SOL    HW216533   5.110   2.078   4.394
 5212SOL     OW16534   1.173   2.502   0.766
 5212SOL    HW116535   1.108   2.430   0.745
 5212SOL    HW216536   1.219   2.531   0.681
 5213SOL     OW16537   4.104   3.706   1.701
 5213SOL    HW116538   4.133   3.787   1.752
 5213SOL    HW216539   4.019   3.726   1.652
 5214SOL     OW16540   4.907   4.402   6.163
 5214SOL    HW116541   4.899   4.306   6.134
 5214SOL    HW216542   4.956   4.454   6.094
 5215SOL     OW16543   0.060   3.432   3.953
 5215SOL    HW116544   0.152   3.394   3.963
 5215SOL    HW216545   0.013   3.387   3.877
 5216SOL     OW16546   4.877   5.429   1.417
 5216SOL    HW116547   4.856   5.439   1.515
 5216SOL    HW216548   4.924   5.511   1.385
 5217SOL     OW16549   3.761   5.414   4.022
 5217SOL    HW116550   3.860   5.399   4.018
 5217SOL    HW216551   3.718   5.370   3.943
 5218SOL     OW16552   0.552   1.410   0.844
 5218SOL    HW116553   0.456   1.410   0.872
 5218SOL    HW216554   0.559   1.444   0.750
 5219SOL     OW16555   3.369   1.481   4.553
 5219SOL    HW116556   3.327   1.506   4.640
 5219SOL    HW216557   3.462   1.446   4.570
 5220SOL     OW16558   1.406   5.006   2.772
 5220SOL    HW116559   1.497   5.046   2.784
 5220SOL    HW216560   1.337   5.067   2.812
 5221SOL     OW16561   0.153   0.154   1.566
 5221SOL    HW116562   0.154   0.186   1.471
 5221SOL    HW216563   0.154   0.233   1.628
 5222SOL     OW16564   3.942   5.555   2.128
 5222SOL    HW116565   3.884   5.634   2.110
 5222SOL    HW216566   3.899   5.472   2.091
 5223SOL     OW16567   0.054   2.376   1.132
 5223SOL    HW116568   0.062   2.280   1.103
 5223SOL    HW216569   7.017   2.424   1.070
 5224SOL     OW16570   0.834   2.051   4.258
 5224SOL    HW116571   0.893   1.983   4.302
 5224SOL    HW216572   0.744   2.050   4.303
 5225SOL     OW16573   6.826   1.377   4.426
 5225SOL    HW116574   6.870   1.335   4.346
 5225SOL    HW216575   6.741   1.422   4.398
 5226SOL     OW16576   0.194   5.589   3.411
 5226SOL    HW116577   0.195   5.548   3.320
 5226SOL    HW216578   0.108   5.567   3.457
 5227SOL     OW16579   0.455   3.764   5.949
 5227SOL    HW116580   0.460   3.844   6.009
 5227SOL    HW216581   0.456   3.681   6.005
 5228SOL     OW16582   0.704   2.467   0.056
 5228SOL    HW116583   0.796   2.503   0.044
 5228SOL    HW216584   0.698   2.375   0.017
 5229SOL     OW16585   3.360   6.063   6.520
 5229SOL    HW116586   3.416   6.108   6.451
 5229SOL    HW216587   3.417   5.999   6.573
 5230SOL     OW16588   6.876   0.363   2.595
 5230SOL    HW116589   6.897   0.271   2.561
 5230SOL    HW216590   6.793   0.397   2.550
 5231SOL     OW16591   5.016   1.652   3.370
 5231SOL    HW116592   5.094   1.713   3.356
 5231SOL    HW216593   4.942   1.677   3.308
 5232SOL     OW16594   1.575   4.037   6.093
 5232SOL    HW116595   1.604   3.986   6.174
 5232SOL    HW216596   1.653   4.088   6.056
 5233SOL     OW16597   3.205   0.714   2.147
 5233SOL    HW116598   3.159   0.748   2.230
 5233SOL    HW216599   3.294   0.758   2.138
 5234SOL     OW16600   3.042   3.508   6.782
 5234SOL    HW116601   3.066   3.434   6.845
 5234SOL    HW216602   3.026   3.470   6.690
 5235SOL     OW16603   2.150   2.321   0.519
 5235SOL    HW116604   2.120   2.365   0.434
 5235SOL    HW216605   2.115   2.227   0.521
 5236SOL     OW16606   3.036   4.896   1.824
 5236SOL    HW116607   3.061   4.934   1.734
 5236SOL    HW216608   3.042   4.796   1.820
 5237SOL     OW16609   2.282   1.598   4.490
 5237SOL    HW116610   2.286   1.534   4.567
 5237SOL    HW216611   2.330   1.682   4.513
 5238SOL     OW16612   1.022   4.588   1.876
 5238SOL    HW116613   0.973   4.569   1.791
 5238SOL    HW216614   1.121   4.591   1.857
 5239SOL     OW16615   3.422   3.756   1.099
 5239SOL    HW116616   3.492   3.795   1.038
 5239SOL    HW216617   3.349   3.823   1.112
 5240SOL     OW16618   2.778   2.410   5.314
 5240SOL    HW116619   2.781   2.384   5.217
 5240SOL    HW216620   2.860   2.463   5.337
 5241SOL     OW16621   1.284   6.097   2.170
 5241SOL    HW116622   1.283   6.169   2.240
 5241SOL    HW216623   1.199   6.102   2.117
 5242SOL     OW16624   4.906   0.479   1.795
 5242SOL    HW116625   4.814   0.476   1.755
 5242SOL    HW216626   4.946   0.388   1.794
 5243SOL     OW16627   2.309   6.026   1.397
 5243SOL    HW116628   2.328   5.942   1.448
 5243SOL    HW216629   2.242   6.080   1.447
 5244SOL     OW16630   4.725   3.031   6.998
 5244SOL    HW116631   4.771   3.057   0.058
 5244SOL    HW216632   4.760   3.086   6.923
 5245SOL     OW16633   4.123   3.946   0.527
 5245SOL    HW116634   4.113   4.025   0.588
 5245SOL    HW216635   4.057   3.875   0.554
 5246SOL     OW16636   6.273   2.152   2.304
 5246SOL    HW116637   6.355   2.180   2.254
 5246SOL    HW216638   6.192   2.187   2.257
 5247SOL     OW16639   3.591   1.078   5.424
 5247SOL    HW116640   3.536   0.999   5.450
 5247SOL    HW216641   3.541   1.162   5.446
 5248SOL     OW16642   0.147   1.887   2.759
 5248SOL    HW116643   0.234   1.935   2.768
 5248SOL    HW216644   0.100   1.887   2.848
 5249SOL     OW16645   1.898   5.418   6.394
 5249SOL    HW116646   1.902   5.387   6.299
 5249SOL    HW216647   1.841   5.356   6.448
 5250SOL     OW16648   1.469   5.937   0.394
 5250SOL    HW116649   1.537   5.911   0.463
 5250SOL    HW216650   1.495   6.023   0.352
 5251SOL     OW16651   0.862   4.747   1.125
 5251SOL    HW116652   0.795   4.676   1.144
 5251SOL    HW216653   0.849   4.782   1.033
 5252SOL     OW16654   2.657   6.795   2.446
 5252SOL    HW116655   2.608   6.856   2.384
 5252SOL    HW216656   2.669   6.839   2.535
 5253SOL     OW16657   5.937   4.466   4.927
 5253SOL    HW116658   5.998   4.400   4.881
 5253SOL    HW216659   5.986   4.552   4.940
 5254SOL     OW16660   5.730   0.484   3.508
 5254SOL    HW116661   5.632   0.502   3.512
 5254SOL    HW216662   5.772   0.547   3.443
 5255SOL     OW16663   5.636   2.301   4.564
 5255SOL    HW116664   5.640   2.201   4.557
 5255SOL    HW216665   5.617   2.327   4.658
 5256SOL     OW16666   5.090   1.568   3.627
 5256SOL    HW116667   5.073   1.591   3.531
 5256SOL    HW216668   5.182   1.531   3.636
 5257SOL     OW16669   4.620   6.998   0.637
 5257SOL    HW116670   4.713   0.007   0.640
 5257SOL    HW216671   4.598   6.950   0.722
 5258SOL     OW16672   5.254   1.992   2.924
 5258SOL    HW116673   5.197   1.966   3.002
 5258SOL    HW216674   5.344   2.021   2.958
 5259SOL     OW16675   4.856   5.167   2.714
 5259SOL    HW116676   4.885   5.144   2.807
 5259SOL    HW216677   4.922   5.132   2.648
 5260SOL     OW16678   3.688   5.427   0.437
 5260SOL    HW116679   3.729   5.421   0.346
 5260SOL    HW216680   3.592   5.454   0.429
 5261SOL     OW16681   0.313   4.189   0.377
 5261SOL    HW116682   0.248   4.252   0.332
 5261SOL    HW216683   0.397   4.185   0.324
 5262SOL     OW16684   2.916   0.834   3.229
 5262SOL    HW116685   2.821   0.865   3.228
 5262SOL    HW216686   2.967   0.882   3.157
 5263SOL     OW16687   1.924   1.382   2.874
 5263SOL    HW116688   1.904   1.423   2.785
 5263SOL    HW216689   1.858   1.414   2.941
 5264SOL     OW16690   6.822   2.115   2.436
 5264SOL    HW116691   6.826   2.066   2.523
 5264SOL    HW216692   6.846   2.053   2.361
 5265SOL     OW16693   6.085   3.200   4.550
 5265SOL    HW116694   6.036   3.123   4.592
 5265SOL    HW216695   6.029   3.241   4.479
 5266SOL     OW16696   2.614   6.732   1.145
 5266SOL    HW116697   2.621   6.651   1.086
 5266SOL    HW216698   2.519   6.743   1.176
 5267SOL     OW16699   4.522   2.579   4.665
 5267SOL    HW116700   4.500   2.524   4.746
 5267SOL    HW216701   4.483   2.535   4.584
 5268SOL     OW16702   4.914   0.728   6.831
 5268SOL    HW116703   4.854   0.755   6.755
 5268SOL    HW216704   5.009   0.748   6.807
 5269SOL     OW16705   0.825   6.317   2.387
 5269SOL    HW116706   0.787   6.293   2.476
 5269SOL    HW216707   0.911   6.367   2.399
 5270SOL     OW16708   5.609   1.760   1.460
 5270SOL    HW116709   5.651   1.678   1.500
 5270SOL    HW216710   5.533   1.790   1.517
 5271SOL     OW16711   6.423   4.427   5.831
 5271SOL    HW116712   6.518   4.424   5.800
 5271SOL    HW216713   6.372   4.352   5.789
 5272SOL     OW16714   3.334   5.663   1.250
 5272SOL    HW116715   3.245   5.635   1.214
 5272SOL    HW216716   3.321   5.734   1.319
 5273SOL     OW16717   0.970   3.443   2.355
 5273SOL    HW116718   1.038   3.501   2.311
 5273SOL    HW216719   0.905   3.500   2.406
 5274SOL     OW16720   5.189   6.496   2.656
 5274SOL    HW116721   5.154   6.558   2.727
 5274SOL    HW216722   5.267   6.445   2.692
 5275SOL     OW16723   3.558   1.243   0.813
 5275SOL    HW116724   3.476   1.197   0.847
 5275SOL    HW216725   3.621   1.175   0.775
 5276SOL     OW16726   2.319   0.548   1.910
 5276SOL    HW116727   2.267   0.633   1.912
 5276SOL    HW216728   2.416   0.569   1.897
 5277SOL     OW16729   2.878   1.008   2.537
 5277SOL    HW116730   2.876   1.025   2.635
 5277SOL    HW216731   2.841   0.917   2.518
 5278SOL     OW16732   5.069   4.971   3.582
 5278SOL    HW116733   5.098   4.888   3.534
 5278SOL    HW216734   4.970   4.980   3.576
 5279SOL     OW16735   2.261   5.672   1.073
 5279SOL    HW116736   2.246   5.765   1.107
 5279SOL    HW216737   2.351   5.668   1.029
 5280SOL     OW16738   3.014   6.134   4.681
 5280SOL    HW116739   2.935   6.090   4.724
 5280SOL    HW216740   2.985   6.180   4.597
 5281SOL     OW16741   6.237   1.888   2.210
 5281SOL    HW116742   6.328   1.846   2.206
 5281SOL    HW216743   6.247   1.985   2.232
 5282SOL     OW16744   2.523   1.325   3.448
 5282SOL    HW116745   2.552   1.298   3.540
 5282SOL    HW216746   2.579   1.402   3.417
 5283SOL     OW16747   5.021   6.525   1.641
 5283SOL    HW116748   4.926   6.551   1.626
 5283SOL    HW216749   5.029   6.477   1.729
 5284SOL     OW16750   5.308   4.282   2.905
 5284SOL    HW116751   5.358   4.297   2.820
 5284SOL    HW216752   5.253   4.198   2.898
 5285SOL     OW16753   3.180   4.869   3.904
 5285SOL    HW116754   3.204   4.844   3.998
 5285SOL    HW216755   3.167   4.968   3.899
 5286SOL     OW16756   2.348   4.288   1.410
 5286SOL    HW116757   2.264   4.342   1.401
 5286SOL    HW216758   2.423   4.335   1.363
 5287SOL     OW16759   2.731   1.099   0.869
 5287SOL    HW116760   2.716   1.164   0.795
 5287SOL    HW216761   2.757   1.010   0.831
 5288SOL     OW16762   4.163   0.296   1.195
 5288SOL    HW116763   4.240   0.360   1.200
 5288SOL    HW216764   4.078   0.344   1.218
 5289SOL     OW16765   0.731   5.204   0.077
 5289SOL    HW116766   0.763   5.113   0.101
 5289SOL    HW216767   0.807   5.268   0.081
 5290SOL     OW16768   3.042   5.869   6.849
 5290SOL    HW116769   3.029   5.838   6.943
 5290SOL    HW216770   3.124   5.827   6.811
 5291SOL     OW16771   2.923   5.716   5.520
 5291SOL    HW116772   2.995   5.666   5.471
 5291SOL    HW216773   2.834   5.682   5.492
 5292SOL     OW16774   5.857   3.056   7.001
 5292SOL    HW116775   5.915   3.021   0.049
 5292SOL    HW216776   5.778   3.103   0.016
 5293SOL     OW16777   0.690   0.654   4.611
 5293SOL    HW116778   0.755   0.729   4.601
 5293SOL    HW216779   0.599   0.691   4.630
 5294SOL     OW16780   5.880   3.045   6.715
 5294SOL    HW116781   5.845   3.048   6.808
 5294SOL    HW216782   5.950   3.115   6.702
 5295SOL     OW16783   5.249   1.233   3.010
 5295SOL    HW116784   5.308   1.253   2.932
 5295SOL    HW216785   5.163   1.194   2.978
 5296SOL     OW16786   1.687   4.483   0.038
 5296SOL    HW116787   1.643   4.440   6.984
 5296SOL    HW216788   1.671   4.582   0.034
 5297SOL     OW16789   2.497   2.271   0.877
 5297SOL    HW116790   2.426   2.318   0.930
 5297SOL    HW216791   2.538   2.335   0.812
 5298SOL     OW16792   6.527   5.387   2.143
 5298SOL    HW116793   6.530   5.297   2.099
 5298SOL    HW216794   6.614   5.434   2.129
 5299SOL     OW16795   2.790   0.739   1.696
 5299SOL    HW116796   2.863   0.783   1.747
 5299SOL    HW216797   2.777   0.646   1.730
 5300SOL     OW16798   0.234   5.547   2.935
 5300SOL    HW116799   0.325   5.508   2.926
 5300SOL    HW216800   0.167   5.473   2.945
 5301SOL     OW16801   4.110   1.922   0.000
 5301SOL    HW116802   4.168   1.991   0.043
 5301SOL    HW216803   4.111   1.935   6.926
 5302SOL     OW16804   6.730   4.035   2.444
 5302SOL    HW116805   6.753   4.128   2.474
 5302SOL    HW216806   6.649   4.038   2.386
 5303SOL     OW16807   6.547   4.694   3.921
 5303SOL    HW116808   6.552   4.706   3.822
 5303SOL    HW216809   6.524   4.599   3.943
 5304SOL     OW16810   5.226   2.074   6.274
 5304SOL    HW116811   5.224   2.045   6.369
 5304SOL    HW216812   5.319   2.102   6.250
 5305SOL     OW16813   1.909   1.052   3.754
 5305SOL    HW116814   1.821   1.071   3.798
 5305SOL    HW216815   1.963   0.993   3.813
 5306SOL     OW16816   2.467   6.009   5.657
 5306SOL    HW116817   2.404   5.957   5.599
 5306SOL    HW216818   2.561   5.989   5.631
 5307SOL     OW16819   4.312   6.811   6.362
 5307SOL    HW116820   4.214   6.833   6.364
 5307SOL    HW216821   4.350   6.839   6.274
 5308SOL     OW16822   0.284   0.636   3.918
 5308SOL    HW116823   0.307   0.562   3.982
 5308SOL    HW216824   0.367   0.685   3.892
 5309SOL     OW16825   3.747   3.729   3.683
 5309SOL    HW116826   3.721   3.666   3.756
 5309SOL    HW216827   3.846   3.743   3.684
 5310SOL     OW16828   5.050   2.504   1.477
 5310SOL    HW116829   5.058   2.521   1.575
 5310SOL    HW216830   5.000   2.418   1.463
 5311SOL     OW16831   1.955   5.739   6.939
 5311SOL    HW116832   1.875   5.722   6.996
 5311SOL    HW216833   2.006   5.818   6.974
 5312SOL     OW16834   0.954   4.869   2.405
 5312SOL    HW116835   1.033   4.877   2.466
 5312SOL    HW216836   0.874   4.912   2.448
 5313SOL     OW16837   0.971   6.245   6.870
 5313SOL    HW116838   1.026   6.296   6.936
 5313SOL    HW216839   1.029   6.219   6.792
 5314SOL     OW16840   4.709   5.159   0.080
 5314SOL    HW116841   4.776   5.088   0.061
 5314SOL    HW216842   4.723   5.195   0.172
 5315SOL     OW16843   4.993   4.255   1.812
 5315SOL    HW116844   4.908   4.202   1.825
 5315SOL    HW216845   5.063   4.195   1.775
 5316SOL     OW16846   6.864   5.480   4.870
 5316SOL    HW116847   6.868   5.534   4.786
 5316SOL    HW216848   6.792   5.411   4.863
 5317SOL     OW16849   5.701   0.951   3.054
 5317SOL    HW116850   5.711   0.981   2.960
 5317SOL    HW216851   5.636   1.011   3.102
 5318SOL     OW16852   6.720   2.844   4.624
 5318SOL    HW116853   6.808   2.810   4.657
 5318SOL    HW216854   6.704   2.811   4.531
 5319SOL     OW16855   5.762   7.012   0.059
 5319SOL    HW116856   5.846   0.006   0.009
 5319SOL    HW216857   5.684   0.020   0.006
 5320SOL     OW16858   6.149   3.804   6.513
 5320SOL    HW116859   6.055   3.783   6.539
 5320SOL    HW216860   6.150   3.877   6.445
 5321SOL     OW16861   1.965   5.211   5.266
 5321SOL    HW116862   1.989   5.131   5.320
 5321SOL    HW216863   1.945   5.288   5.326
 5322SOL     OW16864   4.206   6.189   6.410
 5322SOL    HW116865   4.302   6.161   6.401
 5322SOL    HW216866   4.179   6.243   6.331
 5323SOL     OW16867   4.235   2.174   0.105
 5323SOL    HW116868   4.178   2.246   0.067
 5323SOL    HW216869   4.186   2.129   0.180
 5324SOL     OW16870   3.726   2.881   1.501
 5324SOL    HW116871   3.635   2.923   1.493
 5324SOL    HW216872   3.739   2.847   1.594
 5325SOL     OW16873   4.941   6.257   2.373
 5325SOL    HW116874   5.024   6.207   2.346
 5325SOL    HW216875   4.871   6.193   2.402
 5326SOL     OW16876   0.096   5.685   1.778
 5326SOL    HW116877   0.023   5.642   1.725
 5326SOL    HW216878   0.183   5.642   1.758
 5327SOL     OW16879   6.793   6.905   4.662
 5327SOL    HW116880   6.822   6.997   4.686
 5327SOL    HW216881   6.726   6.910   4.588
 5328SOL     OW16882   3.912   3.706   6.700
 5328SOL    HW116883   4.003   3.711   6.739
 5328SOL    HW216884   3.844   3.694   6.773
 5329SOL     OW16885   0.567   4.779   0.513
 5329SOL    HW116886   0.607   4.688   0.529
 5329SOL    HW216887   0.591   4.839   0.589
 5330SOL     OW16888   3.533   3.636   0.786
 5330SOL    HW116889   3.568   3.714   0.838
 5330SOL    HW216890   3.443   3.659   0.749
 5331SOL     OW16891   4.538   2.034   0.280
 5331SOL    HW116892   4.481   2.106   0.319
 5331SOL    HW216893   4.630   2.038   0.320
 5332SOL     OW16894   6.282   5.158   0.705
 5332SOL    HW116895   6.235   5.092   0.764
 5332SOL    HW216896   6.374   5.175   0.742
 5333SOL     OW16897   1.911   1.145   3.046
 5333SOL    HW116898   1.909   1.216   2.976
 5333SOL    HW216899   1.976   1.170   3.117
 5334SOL     OW16900   4.510   4.615   3.507
 5334SOL    HW116901   4.590   4.590   3.562
 5334SOL    HW216902   4.536   4.615   3.410
 5335SOL     OW16903   7.003   4.316   1.943
 5335SOL    HW116904   6.946   4.284   2.019
 5335SOL    HW216905   6.968   4.278   1.857
 5336SOL     OW16906   2.088   1.810   3.789
 5336SOL    HW116907   2.016   1.763   3.840
 5336SOL    HW216908   2.161   1.837   3.851
 5337SOL     OW16909   6.334   4.103   1.263
 5337SOL    HW116910   6.385   4.078   1.181
 5337SOL    HW216911   6.337   4.202   1.276
 5338SOL     OW16912   6.098   3.242   7.013
 5338SOL    HW116913   6.197   3.227   7.014
 5338SOL    HW216914   6.056   3.183   6.944
 5339SOL     OW16915   6.250   2.342   2.515
 5339SOL    HW116916   6.262   2.269   2.448
 5339SOL    HW216917   6.239   2.303   2.606
 5340SOL     OW16918   5.805   2.893   2.196
 5340SOL    HW116919   5.754   2.851   2.121
 5340SOL    HW216920   5.843   2.821   2.254
 5341SOL     OW16921   4.712   4.632   3.339
 5341SOL    HW116922   4.650   4.589   3.274
 5341SOL    HW216923   4.712   4.731   3.325
 5342SOL     OW16924   5.895   0.134   5.591
 5342SOL    HW116925   5.964   0.149   5.520
 5342SOL    HW216926   5.916   0.190   5.671
 5343SOL     OW16927   3.838   3.615   5.593
 5343SOL    HW116928   3.791   3.666   5.665
 5343SOL    HW216929   3.902   3.677   5.546
 5344SOL     OW16930   0.551   1.405   6.983
 5344SOL    HW116931   0.581   1.325   0.010
 5344SOL    HW216932   0.554   1.486   0.015
 5345SOL     OW16933   4.901   1.333   6.802
 5345SOL    HW116934   4.942   1.243   6.786
 5345SOL    HW216935   4.804   1.330   6.781
 5346SOL     OW16936   2.969   4.856   3.698
 5346SOL    HW116937   3.052   4.806   3.723
 5346SOL    HW216938   2.957   4.933   3.760
 5347SOL     OW16939   6.657   2.707   4.115
 5347SOL    HW116940   6.703   2.704   4.026
 5347SOL    HW216941   6.558   2.710   4.101
 5348SOL     OW16942   5.421   1.996   4.199
 5348SOL    HW116943   5.396   1.967   4.292
 5348SOL    HW216944   5.383   1.932   4.132
 5349SOL     OW16945   0.825   2.653   1.865
 5349SOL    HW116946   0.900   2.708   1.829
 5349SOL    HW216947   0.803   2.580   1.800
 5350SOL     OW16948   1.800   6.875   5.878
 5350SOL    HW116949   1.869   6.850   5.810
 5350SOL    HW216950   1.710   6.876   5.836
 5351SOL     OW16951   0.693   5.405   1.658
 5351SOL    HW116952   0.697   5.333   1.727
 5351SOL    HW216953   0.763   5.388   1.589
 5352SOL     OW16954   1.801   3.835   3.883
 5352SOL    HW116955   1.808   3.876   3.792
 5352SOL    HW216956   1.735   3.760   3.881
 5353SOL     OW16957   4.646   5.352   3.629
 5353SOL    HW116958   4.664   5.435   3.576
 5353SOL    HW216959   4.692   5.359   3.718
 5354SOL     OW16960   3.504   5.439   0.737
 5354SOL    HW116961   3.601   5.416   0.732
 5354SOL    HW216962   3.477   5.488   0.654
 5355SOL     OW16963   5.396   5.306   5.092
 5355SOL    HW116964   5.302   5.271   5.088
 5355SOL    HW216965   5.458   5.237   5.055
 5356SOL     OW16966   0.181   4.183   1.458
 5356SOL    HW116967   0.268   4.145   1.426
 5356SOL    HW216968   0.117   4.108   1.476
 5357SOL     OW16969   4.150   4.967   1.740
 5357SOL    HW116970   4.088   4.961   1.818
 5357SOL    HW216971   4.135   5.052   1.691
 5358SOL     OW16972   4.361   1.677   0.184
 5358SOL    HW116973   4.333   1.753   0.243
 5358SOL    HW216974   4.291   1.605   0.187
 5359SOL     OW16975   1.815   1.754   0.167
 5359SOL    HW116976   1.750   1.788   0.233
 5359SOL    HW216977   1.894   1.714   0.215
 5360SOL     OW16978   5.763   4.967   4.197
 5360SOL    HW116979   5.861   4.955   4.184
 5360SOL    HW216980   5.713   4.914   4.127
 5361SOL     OW16981   3.250   6.347   2.650
 5361SOL    HW116982   3.300   6.261   2.650
 5361SOL    HW216983   3.197   6.355   2.735
 5362SOL     OW16984   5.032   6.904   2.086
 5362SOL    HW116985   5.115   6.894   2.030
 5362SOL    HW216986   4.980   6.819   2.084
 5363SOL     OW16987   6.006   6.129   4.553
 5363SOL    HW116988   5.935   6.161   4.615
 5363SOL    HW216989   6.035   6.038   4.579
 5364SOL     OW16990   4.688   0.362   2.723
 5364SOL    HW116991   4.649   0.292   2.782
 5364SOL    HW216992   4.738   0.429   2.779
 5365SOL     OW16993   3.121   3.139   3.899
 5365SOL    HW116994   3.066   3.174   3.975
 5365SOL    HW216995   3.068   3.143   3.814
 5366SOL     OW16996   6.521   0.303   1.615
 5366SOL    HW116997   6.484   0.238   1.548
 5366SOL    HW216998   6.446   0.341   1.669
 5367SOL     OW16999   6.986   6.632   0.574
 5367SOL    HW117000   0.008   6.689   0.641
 5367SOL    HW217001   6.908   6.681   0.536
 5368SOL     OW17002   6.836   5.381   2.997
 5368SOL    HW117003   6.850   5.480   2.995
 5368SOL    HW217004   6.832   5.350   3.092
 5369SOL     OW17005   2.648   5.273   1.830
 5369SOL    HW117006   2.742   5.269   1.796
 5369SOL    HW217007   2.620   5.368   1.840
 5370SOL     OW17008   3.793   4.045   1.231
 5370SOL    HW117009   3.730   4.050   1.153
 5370SOL    HW217010   3.745   4.004   1.309
 5371SOL     OW17011   6.864   5.579   5.133
 5371SOL    HW117012   6.820   5.547   5.217
 5371SOL    HW217013   6.851   5.511   5.060
 5372SOL     OW17014   1.136   0.258   2.624
 5372SOL    HW117015   1.049   0.227   2.586
 5372SOL    HW217016   1.210   0.200   2.589
 5373SOL     OW17017   4.306   6.933   5.417
 5373SOL    HW117018   4.277   6.856   5.474
 5373SOL    HW217019   4.305   7.017   5.472
 5374SOL     OW17020   2.665   5.134   1.108
 5374SOL    HW117021   2.762   5.124   1.088
 5374SOL    HW217022   2.612   5.126   1.024
 5375SOL     OW17023   1.091   5.663   4.974
 5375SOL    HW117024   1.152   5.717   4.917
 5375SOL    HW217025   1.070   5.577   4.928
 5376SOL     OW17026   1.187   1.467   0.719
 5376SOL    HW117027   1.134   1.396   0.765
 5376SOL    HW217028   1.160   1.557   0.755
 5377SOL     OW17029   2.134   0.921   3.103
 5377SOL    HW117030   2.228   0.940   3.075
 5377SOL    HW217031   2.101   0.996   3.162
 5378SOL     OW17032   5.449   0.691   1.324
 5378SOL    HW117033   5.375   0.688   1.391
 5378SOL    HW217034   5.501   0.776   1.335
 5379SOL     OW17035   1.095   2.776   5.999
 5379SOL    HW117036   1.076   2.792   6.096
 5379SOL    HW217037   1.009   2.779   5.947
 5380SOL     OW17038   4.343   6.755   1.576
 5380SOL    HW117039   4.346   6.853   1.557
 5380SOL    HW217040   4.363   6.740   1.673
 5381SOL     OW17041   5.089   6.539   2.947
 5381SOL    HW117042   5.181   6.506   2.971
 5381SOL    HW217043   5.032   6.461   2.921
 5382SOL     OW17044   4.066   1.627   2.930
 5382SOL    HW117045   4.072   1.704   2.866
 5382SOL    HW217046   3.971   1.600   2.941
 5383SOL     OW17047   1.607   2.991   4.196
 5383SOL    HW117048   1.606   3.065   4.263
 5383SOL    HW217049   1.700   2.957   4.186
 5384SOL     OW17050   4.749   5.643   5.535
 5384SOL    HW117051   4.728   5.647   5.633
 5384SOL    HW217052   4.670   5.673   5.483
 5385SOL     OW17053   6.058   2.342   5.636
 5385SOL    HW117054   5.973   2.290   5.648
 5385SOL    HW217055   6.136   2.283   5.654
 5386SOL     OW17056   6.358   3.385   3.817
 5386SOL    HW117057   6.279   3.444   3.800
 5386SOL    HW217058   6.425   3.397   3.743
 5387SOL     OW17059   2.159   0.839   2.386
 5387SOL    HW117060   2.200   0.910   2.330
 5387SOL    HW217061   2.093   0.880   2.449
 5388SOL     OW17062   0.716   6.228   2.616
 5388SOL    HW117063   0.666   6.241   2.702
 5388SOL    HW217064   0.685   6.144   2.572
 5389SOL     OW17065   4.423   1.859   4.313
 5389SOL    HW117066   4.463   1.837   4.402
 5389SOL    HW217067   4.353   1.930   4.325
 5390SOL     OW17068   6.548   3.470   3.642
 5390SOL    HW117069   6.601   3.455   3.558
 5390SOL    HW217070   6.499   3.557   3.635
 5391SOL     OW17071   2.131   1.995   0.172
 5391SOL    HW117072   2.177   1.971   0.258
 5391SOL    HW217073   2.121   2.095   0.167
 5392SOL     OW17074   4.769   1.745   3.697
 5392SOL    HW117075   4.681   1.719   3.737
 5392SOL    HW217076   4.828   1.665   3.691
 5393SOL     OW17077   3.879   1.085   5.511
 5393SOL    HW117078   3.907   1.178   5.484
 5393SOL    HW217079   3.789   1.065   5.471
 5394SOL     OW17080   2.011   0.549   0.679
 5394SOL    HW117081   2.109   0.528   0.677
 5394SOL    HW217082   1.976   0.555   0.585
 5395SOL     OW17083   4.637   1.845   1.432
 5395SOL    HW117084   4.685   1.829   1.345
 5395SOL    HW217085   4.632   1.944   1.449
 5396SOL     OW17086   6.214   5.485   2.456
 5396SOL    HW117087   6.237   5.568   2.507
 5396SOL    HW217088   6.193   5.412   2.521
 5397SOL     OW17089   6.210   1.189   2.982
 5397SOL    HW117090   6.145   1.125   3.024
 5397SOL    HW217091   6.285   1.207   3.046
 5398SOL     OW17092   4.787   1.932   3.484
 5398SOL    HW117093   4.790   1.861   3.555
 5398SOL    HW217094   4.859   2.000   3.502
 5399SOL     OW17095   1.911   7.011   5.338
 5399SOL    HW117096   1.906   0.003   5.437
 5399SOL    HW217097   1.993   6.958   5.318
 5400SOL     OW17098   3.492   3.279   1.212
 5400SOL    HW117099   3.455   3.368   1.182
 5400SOL    HW217100   3.493   3.216   1.135
 5401SOL     OW17101   5.625   4.410   2.568
 5401SOL    HW117102   5.694   4.482   2.580
 5401SOL    HW217103   5.624   4.381   2.473
 5402SOL     OW17104   2.074   0.230   0.985
 5402SOL    HW117105   2.008   0.302   0.962
 5402SOL    HW217106   2.075   0.216   1.083
 5403SOL     OW17107   4.619   3.387   7.019
 5403SOL    HW117108   4.681   3.345   6.952
 5403SOL    HW217109   4.645   3.483   0.008
 5404SOL     OW17110   6.907   0.629   0.692
 5404SOL    HW117111   6.874   0.720   0.718
 5404SOL    HW217112   6.977   0.638   0.621
 5405SOL     OW17113   5.181   5.503   6.993
 5405SOL    HW117114   5.153   5.424   0.023
 5405SOL    HW217115   5.233   5.567   0.024
 5406SOL     OW17116   2.456   0.497   4.435
 5406SOL    HW117117   2.556   0.497   4.439
 5406SOL    HW217118   2.423   0.403   4.432
 5407SOL     OW17119   2.523   0.908   1.445
 5407SOL    HW117120   2.542   0.999   1.407
 5407SOL    HW217121   2.424   0.894   1.449
 5408SOL     OW17122   2.657   2.401   4.300
 5408SOL    HW117123   2.656   2.396   4.200
 5408SOL    HW217124   2.592   2.471   4.330
 5409SOL     OW17125   0.341   2.611   1.134
 5409SOL    HW117126   0.425   2.651   1.169
 5409SOL    HW217127   0.275   2.602   1.209
 5410SOL     OW17128   1.059   2.144   1.200
 5410SOL    HW117129   1.002   2.219   1.234
 5410SOL    HW217130   1.104   2.174   1.116
 5411SOL     OW17131   4.762   5.449   6.984
 5411SOL    HW117132   4.802   5.359   7.000
 5411SOL    HW217133   4.679   5.440   6.929
 5412SOL     OW17134   0.672   1.982   6.424
 5412SOL    HW117135   0.580   1.957   6.393
 5412SOL    HW217136   0.729   2.004   6.344
 5413SOL     OW17137   6.877   6.846   5.097
 5413SOL    HW117138   6.824   6.795   5.030
 5413SOL    HW217139   6.914   6.783   5.165
 5414SOL     OW17140   6.955   4.227   5.731
 5414SOL    HW117141   6.878   4.252   5.789
 5414SOL    HW217142   7.022   4.176   5.784
 5415SOL     OW17143   3.036   0.095   0.710
 5415SOL    HW117144   3.130   0.127   0.719
 5415SOL    HW217145   2.976   0.173   0.693
 5416SOL     OW17146   3.181   5.138   5.696
 5416SOL    HW117147   3.209   5.078   5.771
 5416SOL    HW217148   3.100   5.100   5.651
 5417SOL     OW17149   4.915   5.837   3.546
 5417SOL    HW117150   4.969   5.780   3.484
 5417SOL    HW217151   4.871   5.910   3.493
 5418SOL     OW17152   6.026   4.392   4.444
 5418SOL    HW117153   6.107   4.364   4.495
 5418SOL    HW217154   5.952   4.414   4.508
 5419SOL     OW17155   3.527   0.011   6.778
 5419SOL    HW117156   3.483   0.101   6.783
 5419SOL    HW217157   3.623   0.019   6.806
 5420SOL     OW17158   1.337   1.624   1.179
 5420SOL    HW117159   1.420   1.622   1.123
 5420SOL    HW217160   1.338   1.547   1.242
 5421SOL     OW17161   3.440   5.085   2.302
 5421SOL    HW117162   3.398   5.139   2.375
 5421SOL    HW217163   3.369   5.030   2.258
 5422SOL     OW17164   2.028   5.829   4.044
 5422SOL    HW117165   1.972   5.751   4.072
 5422SOL    HW217166   2.020   5.902   4.113
 5423SOL     OW17167   6.469   6.354   2.444
 5423SOL    HW117168   6.415   6.380   2.524
 5423SOL    HW217169   6.562   6.332   2.472
 5424SOL     OW17170   4.572   4.316   5.138
 5424SOL    HW117171   4.658   4.265   5.145
 5424SOL    HW217172   4.567   4.361   5.050
 5425SOL     OW17173   0.569   3.629   6.355
 5425SOL    HW117174   0.663   3.602   6.333
 5425SOL    HW217175   0.567   3.725   6.382
 5426SOL     OW17176   5.547   4.961   2.033
 5426SOL    HW117177   5.481   4.927   1.966
 5426SOL    HW217178   5.571   4.887   2.096
 5427SOL     OW17179   4.986   2.606   0.015
 5427SOL    HW117180   4.958   2.702   0.013
 5427SOL    HW217181   5.063   2.596   0.078
 5428SOL     OW17182   6.232   5.104   3.190
 5428SOL    HW117183   6.244   5.011   3.225
 5428SOL    HW217184   6.169   5.102   3.112
 5429SOL     OW17185   2.669   0.617   3.810
 5429SOL    HW117186   2.717   0.562   3.741
 5429SOL    HW217187   2.580   0.576   3.829
 5430SOL     OW17188   2.918   3.903   6.429
 5430SOL    HW117189   2.852   3.853   6.484
 5430SOL    HW217190   2.904   3.883   6.333
 5431SOL     OW17191   3.092   5.145   6.400
 5431SOL    HW117192   3.080   5.061   6.347
 5431SOL    HW217193   3.097   5.121   6.498
 5432SOL     OW17194   5.627   5.815   1.372
 5432SOL    HW117195   5.597   5.907   1.399
 5432SOL    HW217196   5.652   5.763   1.454
 5433SOL     OW17197   1.511   0.317   0.744
 5433SOL    HW117198   1.527   0.227   0.784
 5433SOL    HW217199   1.421   0.350   0.771
 5434SOL     OW17200   4.696   1.451   5.634
 5434SOL    HW117201   4.704   1.360   5.592
 5434SOL    HW217202   4.787   1.493   5.638
 5435SOL     OW17203   6.083   4.005   0.712
 5435SOL    HW117204   6.006   4.023   0.652
 5435SOL    HW217205   6.088   3.907   0.733
 5436SOL     OW17206   1.728   5.300   2.630
 5436SOL    HW117207   1.746   5.230   2.561
 5436SOL    HW217208   1.815   5.336   2.665
 5437SOL     OW17209   3.827   5.471   0.196
 5437SOL    HW117210   3.894   5.460   0.123
 5437SOL    HW217211   3.807   5.568   0.210
 5438SOL     OW17212   4.685   4.454   2.792
 5438SOL    HW117213   4.715   4.359   2.798
 5438SOL    HW217214   4.641   4.470   2.704
 5439SOL     OW17215   0.746   4.367   0.951
 5439SOL    HW117216   0.729   4.269   0.966
 5439SOL    HW217217   0.839   4.380   0.918
 5440SOL     OW17218   5.613   6.267   3.422
 5440SOL    HW117219   5.700   6.315   3.433
 5440SOL    HW217220   5.556   6.283   3.503
 5441SOL     OW17221   4.623   2.671   4.033
 5441SOL    HW117222   4.524   2.684   4.037
 5441SOL    HW217223   4.649   2.637   3.942
 5442SOL     OW17224   5.212   6.801   4.457
 5442SOL    HW117225   5.276   6.847   4.396
 5442SOL    HW217226   5.120   6.804   4.418
 5443SOL     OW17227   4.836   6.635   4.683
 5443SOL    HW117228   4.883   6.679   4.759
 5443SOL    HW217229   4.831   6.537   4.699
 5444SOL     OW17230   7.000   0.872   3.721
 5444SOL    HW117231   0.008   0.823   3.802
 5444SOL    HW217232   0.015   0.963   3.718
 5445SOL     OW17233   5.332   5.805   5.894
 5445SOL    HW117234   5.388   5.792   5.812
 5445SOL    HW217235   5.262   5.874   5.876
 5446SOL     OW17236   0.609   4.365   5.493
 5446SOL    HW117237   0.581   4.392   5.401
 5446SOL    HW217238   0.622   4.447   5.548
 5447SOL     OW17239   1.587   1.555   0.490
 5447SOL    HW117240   1.620   1.643   0.455
 5447SOL    HW217241   1.619   1.543   0.584
 5448SOL     OW17242   4.240   5.826   3.666
 5448SOL    HW117243   4.181   5.745   3.662
 5448SOL    HW217244   4.310   5.812   3.737
 5449SOL     OW17245   3.071   1.715   1.894
 5449SOL    HW117246   3.168   1.741   1.896
 5449SOL    HW217247   3.014   1.796   1.897
 5450SOL     OW17248   3.918   5.903   2.121
 5450SOL    HW117249   3.892   5.905   2.218
 5450SOL    HW217250   3.996   5.963   2.107
 5451SOL     OW17251   1.082   0.576   3.237
 5451SOL    HW117252   1.048   0.516   3.165
 5451SOL    HW217253   1.006   0.631   3.272
 5452SOL     OW17254   1.847   4.597   2.314
 5452SOL    HW117255   1.912   4.597   2.238
 5452SOL    HW217256   1.847   4.507   2.357
 5453SOL     OW17257   5.847   4.032   3.517
 5453SOL    HW117258   5.796   4.071   3.441
 5453SOL    HW217259   5.806   4.062   3.603
 5454SOL     OW17260   6.213   5.508   3.352
 5454SOL    HW117261   6.284   5.541   3.414
 5454SOL    HW217262   6.137   5.573   3.350
 5455SOL     OW17263   6.982   1.792   2.309
 5455SOL    HW117264   0.007   1.779   2.395
 5455SOL    HW217265   6.884   1.798   2.328
 5456SOL     OW17266   5.166   1.084   6.528
 5456SOL    HW117267   5.258   1.121   6.521
 5456SOL    HW217268   5.134   1.092   6.623
 5457SOL     OW17269   6.052   2.296   0.706
 5457SOL    HW117270   6.012   2.260   0.621
 5457SOL    HW217271   5.992   2.368   0.742
 5458SOL     OW17272   5.818   4.557   1.415
 5458SOL    HW117273   5.797   4.530   1.509
 5458SOL    HW217274   5.910   4.595   1.411
 5459SOL     OW17275   1.946   4.618   5.930
 5459SOL    HW117276   1.981   4.542   5.875
 5459SOL    HW217277   2.020   4.681   5.951
 5460SOL     OW17278   1.804   0.948   0.479
 5460SOL    HW117279   1.743   0.891   0.424
 5460SOL    HW217280   1.853   0.892   0.545
 5461SOL     OW17281   0.071   1.468   6.206
 5461SOL    HW117282   0.022   1.401   6.261
 5461SOL    HW217283   0.113   1.537   6.265
 5462SOL     OW17284   4.918   6.085   6.751
 5462SOL    HW117285   4.981   6.008   6.751
 5462SOL    HW217286   4.922   6.130   6.841
 5463SOL     OW17287   0.108   2.547   6.702
 5463SOL    HW117288   0.045   2.624   6.693
 5463SOL    HW217289   0.198   2.579   6.730
 5464SOL     OW17290   6.243   6.295   5.633
 5464SOL    HW117291   6.329   6.246   5.615
 5464SOL    HW217292   6.245   6.384   5.588
 5465SOL     OW17293   6.871   6.450   3.438
 5465SOL    HW117294   6.953   6.438   3.495
 5465SOL    HW217295   6.864   6.546   3.410
 5466SOL     OW17296   5.916   2.607   5.345
 5466SOL    HW117297   5.984   2.670   5.306
 5466SOL    HW217298   5.961   2.520   5.367
 5467SOL     OW17299   5.962   3.531   3.704
 5467SOL    HW117300   5.944   3.552   3.800
 5467SOL    HW217301   5.905   3.589   3.646
 5468SOL     OW17302   6.621   2.517   2.923
 5468SOL    HW117303   6.702   2.560   2.962
 5468SOL    HW217304   6.587   2.446   2.984
 5469SOL     OW17305   2.022   0.925   5.596
 5469SOL    HW117306   2.117   0.917   5.567
 5469SOL    HW217307   1.962   0.908   5.517
 5470SOL     OW17308   4.279   5.072   4.669
 5470SOL    HW117309   4.302   5.168   4.687
 5470SOL    HW217310   4.325   5.014   4.736
 5471SOL     OW17311   4.911   6.645   2.031
 5471SOL    HW117312   4.852   6.608   2.102
 5471SOL    HW217313   4.941   6.572   1.970
 5472SOL     OW17314   3.307   1.600   5.978
 5472SOL    HW117315   3.316   1.617   6.076
 5472SOL    HW217316   3.384   1.546   5.945
 5473SOL     OW17317   1.748   4.812   1.377
 5473SOL    HW117318   1.705   4.725   1.353
 5473SOL    HW217319   1.681   4.871   1.422
 5474SOL     OW17320   0.970   5.591   3.749
 5474SOL    HW117321   0.870   5.600   3.742
 5474SOL    HW217322   1.013   5.680   3.733
 5475SOL     OW17323   1.192   2.274   6.803
 5475SOL    HW117324   1.279   2.269   6.852
 5475SOL    HW217325   1.201   2.334   6.724
 5476SOL     OW17326   2.737   6.409   5.483
 5476SOL    HW117327   2.754   6.438   5.388
 5476SOL    HW217328   2.783   6.472   5.545
 5477SOL     OW17329   1.869   4.892   3.816
 5477SOL    HW117330   1.874   4.904   3.717
 5477SOL    HW217331   1.898   4.799   3.840
 5478SOL     OW17332   6.062   4.721   6.253
 5478SOL    HW117333   6.020   4.639   6.214
 5478SOL    HW217334   6.154   4.733   6.215
 5479SOL     OW17335   4.593   1.732   4.956
 5479SOL    HW117336   4.515   1.786   4.986
 5479SOL    HW217337   4.661   1.792   4.915
 5480SOL     OW17338   6.386   4.496   5.162
 5480SOL    HW117339   6.485   4.494   5.173
 5480SOL    HW217340   6.354   4.405   5.133
 5481SOL     OW17341   3.931   1.298   6.277
 5481SOL    HW117342   3.930   1.199   6.282
 5481SOL    HW217343   3.949   1.327   6.183
 5482SOL     OW17344   3.766   3.836   1.835
 5482SOL    HW117345   3.803   3.755   1.881
 5482SOL    HW217346   3.686   3.809   1.780
 5483SOL     OW17347   6.276   3.516   5.773
 5483SOL    HW117348   6.270   3.497   5.871
 5483SOL    HW217349   6.214   3.455   5.723
 5484SOL     OW17350   6.879   6.498   4.029
 5484SOL    HW117351   6.872   6.460   3.937
 5484SOL    HW217352   6.809   6.458   4.088
 5485SOL     OW17353   3.518   0.060   4.671
 5485SOL    HW117354   3.584   7.023   4.630
 5485SOL    HW217355   3.496   0.133   4.606
 5486SOL     OW17356   1.551   0.563   3.669
 5486SOL    HW117357   1.594   0.636   3.722
 5486SOL    HW217358   1.595   0.557   3.579
 5487SOL     OW17359   6.199   4.460   0.426
 5487SOL    HW117360   6.255   4.505   0.356
 5487SOL    HW217361   6.183   4.523   0.502
 5488SOL     OW17362   4.506   2.324   7.004
 5488SOL    HW117363   4.547   2.373   6.927
 5488SOL    HW217364   4.459   2.388   0.038
 5489SOL     OW17365   1.421   4.083   2.419
 5489SOL    HW117366   1.413   3.998   2.367
 5489SOL    HW217367   1.516   4.116   2.414
 5490SOL     OW17368   3.278   0.195   0.664
 5490SOL    HW117369   3.299   0.226   0.572
 5490SOL    HW217370   3.346   0.229   0.728
 5491SOL     OW17371   1.525   4.404   6.814
 5491SOL    HW117372   1.433   4.411   6.853
 5491SOL    HW217373   1.523   4.344   6.734
 5492SOL     OW17374   0.879   1.262   6.335
 5492SOL    HW117375   0.866   1.208   6.252
 5492SOL    HW217376   0.822   1.344   6.332
 5493SOL     OW17377   3.763   2.945   5.501
 5493SOL    HW117378   3.851   2.993   5.498
 5493SOL    HW217379   3.745   2.917   5.596
 5494SOL     OW17380   6.791   3.223   0.903
 5494SOL    HW117381   6.715   3.223   0.967
 5494SOL    HW217382   6.877   3.217   0.953
 5495SOL     OW17383   3.577   3.678   1.321
 5495SOL    HW117384   3.672   3.689   1.295
 5495SOL    HW217385   3.518   3.716   1.249
 5496SOL     OW17386   3.744   6.045   1.647
 5496SOL    HW117387   3.677   6.011   1.713
 5496SOL    HW217388   3.707   6.035   1.554
 5497SOL     OW17389   0.471   1.810   2.857
 5497SOL    HW117390   0.501   1.794   2.763
 5497SOL    HW217391   0.544   1.857   2.907
 5498SOL     OW17392   4.546   1.551   6.434
 5498SOL    HW117393   4.464   1.496   6.418
 5498SOL    HW217394   4.520   1.646   6.450
 5499SOL     OW17395   0.385   0.547   3.032
 5499SOL    HW117396   0.288   0.560   3.048
 5499SOL    HW217397   0.427   0.503   3.112
 5500SOL     OW17398   2.211   5.231   6.744
 5500SOL    HW117399   2.182   5.152   6.799
 5500SOL    HW217400   2.238   5.200   6.653
 5501SOL     OW17401   2.707   0.379   1.852
 5501SOL    HW117402   2.672   0.294   1.892
 5501SOL    HW217403   2.658   0.457   1.890
 5502SOL     OW17404   6.229   4.198   5.695
 5502SOL    HW117405   6.306   4.147   5.655
 5502SOL    HW217406   6.155   4.134   5.714
 5503SOL     OW17407   0.917   5.115   2.824
 5503SOL    HW117408   0.914   5.022   2.786
 5503SOL    HW217409   0.874   5.115   2.915
 5504SOL     OW17410   2.950   0.690   4.749
 5504SOL    HW117411   3.036   0.718   4.791
 5504SOL    HW217412   2.887   0.767   4.746
 5505SOL     OW17413   2.081   5.892   4.970
 5505SOL    HW117414   1.994   5.844   4.963
 5505SOL    HW217415   2.122   5.899   4.879
 5506SOL     OW17416   6.717   0.480   4.455
 5506SOL    HW117417   6.653   0.420   4.407
 5506SOL    HW217418   6.667   0.553   4.501
 5507SOL     OW17419   2.644   6.329   3.066
 5507SOL    HW117420   2.620   6.243   3.111
 5507SOL    HW217421   2.568   6.394   3.077
 5508SOL     OW17422   2.336   0.925   6.912
 5508SOL    HW117423   2.401   0.872   6.858
 5508SOL    HW217424   2.356   1.022   6.903
 5509SOL     OW17425   6.139   5.731   0.392
 5509SOL    HW117426   6.216   5.770   0.442
 5509SOL    HW217427   6.082   5.805   0.356
 5510SOL     OW17428   4.371   6.805   6.983
 5510SOL    HW117429   4.310   6.726   6.974
 5510SOL    HW217430   4.386   6.846   6.893
 5511SOL     OW17431   1.236   0.649   2.664
 5511SOL    HW117432   1.269   0.575   2.722
 5511SOL    HW217433   1.207   0.726   2.720
 5512SOL     OW17434   6.738   2.161   0.518
 5512SOL    HW117435   6.788   2.238   0.481
 5512SOL    HW217436   6.668   2.193   0.582
 5513SOL     OW17437   4.806   4.327   4.810
 5513SOL    HW117438   4.764   4.418   4.817
 5513SOL    HW217439   4.891   4.333   4.757
 5514SOL     OW17440   5.843   4.952   2.781
 5514SOL    HW117441   5.906   4.918   2.851
 5514SOL    HW217442   5.761   4.989   2.824
 5515SOL     OW17443   6.382   3.025   1.623
 5515SOL    HW117444   6.480   3.045   1.627
 5515SOL    HW217445   6.346   3.056   1.535
 5516SOL     OW17446   1.812   3.034   0.363
 5516SOL    HW117447   1.809   3.120   0.415
 5516SOL    HW217448   1.838   3.054   0.268
 5517SOL     OW17449   3.280   2.111   2.072
 5517SOL    HW117450   3.253   2.195   2.024
 5517SOL    HW217451   3.198   2.064   2.105
 5518SOL     OW17452   6.187   5.294   6.211
 5518SOL    HW117453   6.271   5.255   6.248
 5518SOL    HW217454   6.108   5.248   6.251
 5519SOL     OW17455   5.445   3.792   2.992
 5519SOL    HW117456   5.490   3.765   3.077
 5519SOL    HW217457   5.363   3.846   3.013
 5520SOL     OW17458   1.224   4.002   3.238
 5520SOL    HW117459   1.217   3.975   3.334
 5520SOL    HW217460   1.139   3.978   3.190
 5521SOL     OW17461   4.747   5.948   1.899
 5521SOL    HW117462   4.772   6.035   1.857
 5521SOL    HW217463   4.820   5.881   1.884
 5522SOL     OW17464   2.299   4.043   1.511
 5522SOL    HW117465   2.309   4.135   1.475
 5522SOL    HW217466   2.357   3.980   1.460
 5523SOL     OW17467   3.354   6.977   2.926
 5523SOL    HW117468   3.438   6.957   2.977
 5523SOL    HW217469   3.290   7.024   2.986
 5524SOL     OW17470   0.319   6.196   4.954
 5524SOL    HW117471   0.379   6.144   4.892
 5524SOL    HW217472   0.278   6.133   5.020
 5525SOL     OW17473   0.156   4.475   0.276
 5525SOL    HW117474   0.222   4.550   0.277
 5525SOL    HW217475   0.137   4.449   0.181
 5526SOL     OW17476   5.930   3.707   4.426
 5526SOL    HW117477   5.974   3.648   4.358
 5526SOL    HW217478   5.853   3.755   4.383
 5527SOL     OW17479   0.569   3.011   2.410
 5527SOL    HW117480   0.546   3.013   2.507
 5527SOL    HW217481   0.665   2.983   2.400
 5528SOL     OW17482   0.598   1.843   6.123
 5528SOL    HW117483   0.693   1.821   6.101
 5528SOL    HW217484   0.561   1.774   6.184
 5529SOL     OW17485   1.950   0.211   4.519
 5529SOL    HW117486   1.883   0.140   4.499
 5529SOL    HW217487   1.924   0.258   4.604
 5530SOL     OW17488   0.107   2.238   2.081
 5530SOL    HW117489   0.133   2.333   2.098
 5530SOL    HW217490   0.095   2.191   2.168
 5531SOL     OW17491   4.076   3.453   4.687
 5531SOL    HW117492   4.056   3.408   4.774
 5531SOL    HW217493   4.029   3.404   4.613
 5532SOL     OW17494   1.808   1.070   0.882
 5532SOL    HW117495   1.803   1.093   0.785
 5532SOL    HW217496   1.785   0.974   0.895
 5533SOL     OW17497   2.678   1.299   2.583
 5533SOL    HW117498   2.694   1.287   2.681
 5533SOL    HW217499   2.641   1.215   2.544
 5534SOL     OW17500   0.545   2.840   6.777
 5534SOL    HW117501   0.594   2.857   6.691
 5534SOL    HW217502   0.452   2.877   6.770
 5535SOL     OW17503   6.885   3.438   2.675
 5535SOL    HW117504   6.913   3.503   2.746
 5535SOL    HW217505   6.860   3.489   2.592
 5536SOL     OW17506   2.589   0.844   4.002
 5536SOL    HW117507   2.594   0.775   3.929
 5536SOL    HW217508   2.527   0.813   4.074
 5537SOL     OW17509   3.474   1.033   4.880
 5537SOL    HW117510   3.409   0.959   4.897
 5537SOL    HW217511   3.424   1.117   4.860
 5538SOL     OW17512   4.226   7.017   5.171
 5538SOL    HW117513   4.226   0.090   5.155
 5538SOL    HW217514   4.272   6.997   5.258
 5539SOL     OW17515   0.287   2.133   1.410
 5539SOL    HW117516   0.360   2.112   1.475
 5539SOL    HW217517   0.249   2.048   1.374
 5540SOL     OW17518   5.090   2.803   1.748
 5540SOL    HW117519   5.087   2.876   1.816
 5540SOL    HW217520   5.125   2.720   1.791
 5541SOL     OW17521   5.227   3.166   5.846
 5541SOL    HW117522   5.261   3.073   5.843
 5541SOL    HW217523   5.142   3.172   5.793
 5542SOL     OW17524   6.050   5.757   5.824
 5542SOL    HW117525   5.958   5.741   5.860
 5542SOL    HW217526   6.044   5.798   5.733
 5543SOL     OW17527   2.324   5.473   6.766
 5543SOL    HW117528   2.298   5.522   6.849
 5543SOL    HW217529   2.273   5.387   6.760
 5544SOL     OW17530   5.828   5.594   5.605
 5544SOL    HW117531   5.791   5.567   5.516
 5544SOL    HW217532   5.825   5.516   5.667
 5545SOL     OW17533   4.439   0.806   2.508
 5545SOL    HW117534   4.409   0.738   2.575
 5545SOL    HW217535   4.527   0.843   2.535
 5546SOL     OW17536   0.742   6.364   4.430
 5546SOL    HW117537   0.673   6.417   4.381
 5546SOL    HW217538   0.720   6.267   4.425
 5547SOL     OW17539   3.901   0.948   5.071
 5547SOL    HW117540   3.831   1.010   5.108
 5547SOL    HW217541   3.985   0.999   5.056
 5548SOL     OW17542   6.477   4.007   5.610
 5548SOL    HW117543   6.570   3.986   5.578
 5548SOL    HW217544   6.415   4.013   5.532
 5549SOL     OW17545   4.268   4.093   1.163
 5549SOL    HW117546   4.353   4.052   1.129
 5549SOL    HW217547   4.266   4.190   1.140
 5550SOL     OW17548   2.381   4.453   2.678
 5550SOL    HW117549   2.394   4.473   2.775
 5550SOL    HW217550   2.361   4.538   2.629
 5551SOL     OW17551   1.533   6.431   2.511
 5551SOL    HW117552   1.593   6.482   2.449
 5551SOL    HW217553   1.469   6.376   2.458
 5552SOL     OW17554   5.645   0.833   6.616
 5552SOL    HW117555   5.677   0.900   6.683
 5552SOL    HW217556   5.622   0.879   6.531
 5553SOL     OW17557   4.254   6.459   5.983
 5553SOL    HW117558   4.263   6.445   5.884
 5553SOL    HW217559   4.226   6.553   6.001
 5554SOL     OW17560   4.738   2.881   1.248
 5554SOL    HW117561   4.665   2.937   1.288
 5554SOL    HW217562   4.771   2.816   1.317
 5555SOL     OW17563   1.173   3.652   1.905
 5555SOL    HW117564   1.086   3.622   1.866
 5555SOL    HW217565   1.241   3.579   1.894
 5556SOL     OW17566   6.320   1.152   3.881
 5556SOL    HW117567   6.237   1.154   3.826
 5556SOL    HW217568   6.298   1.176   3.976
 5557SOL     OW17569   3.706   5.770   1.975
 5557SOL    HW117570   3.639   5.748   2.045
 5557SOL    HW217571   3.779   5.826   2.015
 5558SOL     OW17572   2.924   3.430   6.190
 5558SOL    HW117573   3.005   3.421   6.249
 5558SOL    HW217574   2.950   3.476   6.105
 5559SOL     OW17575   1.790   0.779   2.339
 5559SOL    HW117576   1.840   0.693   2.324
 5559SOL    HW217577   1.704   0.776   2.289
 5560SOL     OW17578   0.173   5.395   1.456
 5560SOL    HW117579   0.237   5.331   1.499
 5560SOL    HW217580   0.082   5.383   1.495
 5561SOL     OW17581   2.425   0.825   4.301
 5561SOL    HW117582   2.392   0.829   4.395
 5561SOL    HW217583   2.350   0.803   4.239
 5562SOL     OW17584   4.278   3.123   0.042
 5562SOL    HW117585   4.246   3.217   0.028
 5562SOL    HW217586   4.351   3.123   0.110
 5563SOL     OW17587   2.945   5.114   2.775
 5563SOL    HW117588   3.033   5.156   2.797
 5563SOL    HW217589   2.960   5.023   2.737
 5564SOL     OW17590   4.457   0.190   0.044
 5564SOL    HW117591   4.372   0.192   7.017
 5564SOL    HW217592   4.528   0.144   7.016
 5565SOL     OW17593   3.906   2.582   6.253
 5565SOL    HW117594   3.892   2.483   6.241
 5565SOL    HW217595   3.909   2.626   6.164
 5566SOL     OW17596   1.964   4.458   6.975
 5566SOL    HW117597   1.865   4.463   6.988
 5566SOL    HW217598   2.010   4.517   0.016
 5567SOL     OW17599   0.190   3.849   1.467
 5567SOL    HW117600   0.112   3.908   1.491
 5567SOL    HW217601   0.156   3.767   1.422
 5568SOL     OW17602   5.437   1.528   3.837
 5568SOL    HW117603   5.412   1.540   3.741
 5568SOL    HW217604   5.535   1.546   3.848
 5569SOL     OW17605   1.840   2.039   2.095
 5569SOL    HW117606   1.837   2.139   2.097
 5569SOL    HW217607   1.807   2.007   2.006
 5570SOL     OW17608   5.698   3.793   4.069
 5570SOL    HW117609   5.636   3.783   3.991
 5570SOL    HW217610   5.714   3.890   4.087
 5571SOL     OW17611   6.338   5.823   1.799
 5571SOL    HW117612   6.322   5.858   1.891
 5571SOL    HW217613   6.358   5.900   1.738
 5572SOL     OW17614   1.330   4.450   4.804
 5572SOL    HW117615   1.379   4.412   4.725
 5572SOL    HW217616   1.395   4.497   4.864
 5573SOL     OW17617   1.848   5.790   5.229
 5573SOL    HW117618   1.922   5.737   5.271
 5573SOL    HW217619   1.887   5.870   5.183
 5574SOL     OW17620   0.057   2.278   1.642
 5574SOL    HW117621   0.001   2.199   1.667
 5574SOL    HW217622   0.057   2.288   1.542
 5575SOL     OW17623   6.588   1.271   0.801
 5575SOL    HW117624   6.652   1.339   0.765
 5575SOL    HW217625   6.605   1.183   0.757
 5576SOL     OW17626   1.236   4.537   2.306
 5576SOL    HW117627   1.219   4.462   2.370
 5576SOL    HW217628   1.251   4.501   2.214
 5577SOL     OW17629   2.665   2.590   6.880
 5577SOL    HW117630   2.615   2.631   6.957
 5577SOL    HW217631   2.601   2.540   6.822
 5578SOL     OW17632   3.862   3.949   2.163
 5578SOL    HW117633   3.858   3.945   2.262
 5578SOL    HW217634   3.956   3.961   2.133
 5579SOL     OW17635   0.450   3.390   0.205
 5579SOL    HW117636   0.354   3.367   0.217
 5579SOL    HW217637   0.473   3.391   0.108
 5580SOL     OW17638   4.718   2.214   5.635
 5580SOL    HW117639   4.788   2.276   5.598
 5580SOL    HW217640   4.729   2.124   5.594
 5581SOL     OW17641   1.598   0.229   2.280
 5581SOL    HW117642   1.660   0.216   2.357
 5581SOL    HW217643   1.598   0.147   2.223
 5582SOL     OW17644   3.410   4.072   6.256
 5582SOL    HW117645   3.347   3.995   6.263
 5582SOL    HW217646   3.437   4.101   6.348
 5583SOL     OW17647   4.428   0.982   2.874
 5583SOL    HW117648   4.520   1.013   2.900
 5583SOL    HW217649   4.434   0.892   2.831
 5584SOL     OW17650   7.001   3.954   4.728
 5584SOL    HW117651   6.976   3.893   4.804
 5584SOL    HW217652   0.040   4.023   4.761
 5585SOL     OW17653   5.757   5.676   3.365
 5585SOL    HW117654   5.698   5.717   3.434
 5585SOL    HW217655   5.702   5.623   3.301
 5586SOL     OW17656   0.427   3.544   6.084
 5586SOL    HW117657   0.496   3.472   6.081
 5586SOL    HW217658   0.376   3.538   6.170
 5587SOL     OW17659   4.306   6.493   0.772
 5587SOL    HW117660   4.247   6.481   0.692
 5587SOL    HW217661   4.270   6.441   0.849
 5588SOL     OW17662   2.243   5.349   2.841
 5588SOL    HW117663   2.322   5.306   2.884
 5588SOL    HW217664   2.252   5.343   2.741
 5589SOL     OW17665   6.409   3.691   5.591
 5589SOL    HW117666   6.368   3.612   5.638
 5589SOL    HW217667   6.506   3.699   5.617
 5590SOL     OW17668   0.376   6.006   3.854
 5590SOL    HW117669   0.449   5.986   3.789
 5590SOL    HW217670   0.293   6.031   3.803
 5591SOL     OW17671   5.862   1.940   1.638
 5591SOL    HW117672   5.914   2.024   1.655
 5591SOL    HW217673   5.914   1.881   1.576
 5592SOL     OW17674   2.047   6.027   3.285
 5592SOL    HW117675   2.050   6.039   3.385
 5592SOL    HW217676   2.066   5.932   3.262
 5593SOL     OW17677   0.748   3.076   0.561
 5593SOL    HW117678   0.762   2.988   0.607
 5593SOL    HW217679   0.660   3.076   0.514
 5594SOL     OW17680   4.975   0.922   5.985
 5594SOL    HW117681   4.875   0.917   5.986
 5594SOL    HW217682   5.013   0.830   5.970
 5595SOL     OW17683   0.695   1.473   4.806
 5595SOL    HW117684   0.656   1.562   4.828
 5595SOL    HW217685   0.633   1.423   4.746
 5596SOL     OW17686   4.699   0.308   2.454
 5596SOL    HW117687   4.731   0.392   2.409
 5596SOL    HW217688   4.720   0.312   2.551
 5597SOL     OW17689   4.982   2.802   4.443
 5597SOL    HW117690   5.034   2.783   4.360
 5597SOL    HW217691   4.890   2.831   4.418
 5598SOL     OW17692   5.019   3.897   4.193
 5598SOL    HW117693   5.113   3.862   4.196
 5598SOL    HW217694   4.980   3.898   4.285
 5599SOL     OW17695   1.160   2.108   3.533
 5599SOL    HW117696   1.260   2.109   3.533
 5599SOL    HW217697   1.126   2.200   3.553
 5600SOL     OW17698   1.514   1.122   1.810
 5600SOL    HW117699   1.531   1.054   1.739
 5600SOL    HW217700   1.585   1.192   1.806
 5601SOL     OW17701   2.153   0.704   5.923
 5601SOL    HW117702   2.136   0.611   5.892
 5601SOL    HW217703   2.071   0.742   5.964
 5602SOL     OW17704   6.219   1.507   1.233
 5602SOL    HW117705   6.279   1.524   1.311
 5602SOL    HW217706   6.138   1.457   1.263
 5603SOL     OW17707   5.723   2.178   6.343
 5603SOL    HW117708   5.627   2.176   6.317
 5603SOL    HW217709   5.734   2.234   6.425
 5604SOL     OW17710   6.205   1.656   4.865
 5604SOL    HW117711   6.293   1.656   4.818
 5604SOL    HW217712   6.166   1.748   4.864
 5605SOL     OW17713   0.098   1.607   4.850
 5605SOL    HW117714   0.030   1.565   4.789
 5605SOL    HW217715   0.095   1.561   4.939
 5606SOL     OW17716   4.877   6.661   0.415
 5606SOL    HW117717   4.918   6.750   0.435
 5606SOL    HW217718   4.891   6.640   0.318
 5607SOL     OW17719   5.731   1.156   2.852
 5607SOL    HW117720   5.709   1.134   2.757
 5607SOL    HW217721   5.700   1.248   2.874
 5608SOL     OW17722   5.173   6.993   4.250
 5608SOL    HW117723   5.187   0.053   4.301
 5608SOL    HW217724   5.262   6.951   4.232
 5609SOL     OW17725   3.258   6.374   1.504
 5609SOL    HW117726   3.308   6.357   1.590
 5609SOL    HW217727   3.310   6.439   1.448
 5610SOL     OW17728   3.570   6.174   0.601
 5610SOL    HW117729   3.561   6.096   0.663
 5610SOL    HW217730   3.516   6.251   0.636
 5611SOL     OW17731   1.116   5.594   2.680
 5611SOL    HW117732   1.077   5.601   2.588
 5611SOL    HW217733   1.096   5.677   2.731
 5612SOL     OW17734   3.496   2.643   6.804
 5612SOL    HW117735   3.593   2.658   6.787
 5612SOL    HW217736   3.479   2.639   6.902
 5613SOL     OW17737   5.712   4.110   3.735
 5613SOL    HW117738   5.725   4.209   3.736
 5613SOL    HW217739   5.617   4.088   3.758
 5614SOL     OW17740   4.573   1.869   4.058
 5614SOL    HW117741   4.578   1.968   4.051
 5614SOL    HW217742   4.522   1.844   4.141
 5615SOL     OW17743   0.360   1.533   4.328
 5615SOL    HW117744   0.310   1.482   4.398
 5615SOL    HW217745   0.373   1.627   4.359
 5616SOL     OW17746   2.606   1.959   4.878
 5616SOL    HW117747   2.673   1.986   4.809
 5616SOL    HW217748   2.654   1.929   4.961
 5617SOL     OW17749   2.944   0.062   5.813
 5617SOL    HW117750   2.850   0.096   5.811
 5617SOL    HW217751   3.006   0.135   5.840
 5618SOL     OW17752   0.088   4.174   3.722
 5618SOL    HW117753   0.091   4.105   3.794
 5618SOL    HW217754   0.049   4.259   3.759
 5619SOL     OW17755   2.676   3.632   5.755
 5619SOL    HW117756   2.757   3.650   5.810
 5619SOL    HW217757   2.702   3.625   5.658
 5620SOL     OW17758   4.407   3.636   1.087
 5620SOL    HW117759   4.380   3.679   1.174
 5620SOL    HW217760   4.435   3.542   1.105
 5621SOL     OW17761   2.174   1.553   6.718
 5621SOL    HW117762   2.114   1.537   6.796
 5621SOL    HW217763   2.135   1.509   6.637
 5622SOL     OW17764   4.763   0.335   6.465
 5622SOL    HW117765   4.842   0.301   6.413
 5622SOL    HW217766   4.785   0.425   6.503
 5623SOL     OW17767   2.835   5.761   4.899
 5623SOL    HW117768   2.736   5.756   4.891
 5623SOL    HW217769   2.860   5.767   4.996
 5624SOL     OW17770   0.878   4.375   3.727
 5624SOL    HW117771   0.865   4.444   3.656
 5624SOL    HW217772   0.796   4.319   3.736
 5625SOL     OW17773   6.433   1.420   4.930
 5625SOL    HW117774   6.495   1.420   4.852
 5625SOL    HW217775   6.452   1.498   4.990
 5626SOL     OW17776   2.545   6.400   3.983
 5626SOL    HW117777   2.543   6.429   3.887
 5626SOL    HW217778   2.455   6.367   4.010
 5627SOL     OW17779   0.906   5.750   6.327
 5627SOL    HW117780   0.943   5.744   6.234
 5627SOL    HW217781   0.971   5.711   6.391
 5628SOL     OW17782   0.931   2.596   0.575
 5628SOL    HW117783   0.947   2.535   0.653
 5628SOL    HW217784   0.894   2.544   0.498
 5629SOL     OW17785   3.506   4.135   2.549
 5629SOL    HW117786   3.602   4.158   2.533
 5629SOL    HW217787   3.453   4.155   2.467
 5630SOL     OW17788   1.938   4.219   0.344
 5630SOL    HW117789   2.021   4.172   0.316
 5630SOL    HW217790   1.882   4.159   0.401
 5631SOL     OW17791   4.721   1.791   0.385
 5631SOL    HW117792   4.771   1.805   0.300
 5631SOL    HW217793   4.682   1.699   0.386
 5632SOL     OW17794   3.497   2.532   5.707
 5632SOL    HW117795   3.453   2.447   5.737
 5632SOL    HW217796   3.513   2.591   5.785
 5633SOL     OW17797   6.434   3.759   4.015
 5633SOL    HW117798   6.472   3.694   4.082
 5633SOL    HW217799   6.483   3.748   3.928
 5634SOL     OW17800   2.421   5.121   4.396
 5634SOL    HW117801   2.384   5.166   4.315
 5634SOL    HW217802   2.461   5.189   4.457
 5635SOL     OW17803   2.185   3.963   5.593
 5635SOL    HW117804   2.100   4.002   5.557
 5635SOL    HW217805   2.229   3.909   5.521
 5636SOL     OW17806   4.117   6.605   4.160
 5636SOL    HW117807   4.091   6.550   4.080
 5636SOL    HW217808   4.141   6.697   4.131
 5637SOL     OW17809   5.036   6.652   3.469
 5637SOL    HW117810   4.937   6.648   3.482
 5637SOL    HW217811   5.059   6.734   3.415
 5638SOL     OW17812   6.085   3.534   1.074
 5638SOL    HW117813   6.118   3.613   1.126
 5638SOL    HW217814   6.023   3.480   1.131
 5639SOL     OW17815   1.015   0.907   0.819
 5639SOL    HW117816   0.966   0.937   0.900
 5639SOL    HW217817   0.955   0.916   0.739
 5640SOL     OW17818   3.118   0.621   3.842
 5640SOL    HW117819   3.112   0.530   3.882
 5640SOL    HW217820   3.089   0.618   3.747
 5641SOL     OW17821   1.088   5.529   5.479
 5641SOL    HW117822   1.075   5.475   5.395
 5641SOL    HW217823   1.101   5.467   5.556
 5642SOL     OW17824   1.981   6.837   5.674
 5642SOL    HW117825   1.948   6.770   5.608
 5642SOL    HW217826   1.959   6.929   5.642
 5643SOL     OW17827   4.771   1.928   4.907
 5643SOL    HW117828   4.868   1.908   4.917
 5643SOL    HW217829   4.759   2.025   4.885
 5644SOL     OW17830   3.318   0.143   4.826
 5644SOL    HW117831   3.234   0.145   4.772
 5644SOL    HW217832   3.389   0.096   4.774
 5645SOL     OW17833   6.236   4.335   3.866
 5645SOL    HW117834   6.324   4.379   3.885
 5645SOL    HW217835   6.165   4.375   3.925
 5646SOL     OW17836   1.597   5.487   3.109
 5646SOL    HW117837   1.682   5.521   3.150
 5646SOL    HW217838   1.609   5.480   3.010
 5647SOL     OW17839   5.349   6.273   1.293
 5647SOL    HW117840   5.444   6.257   1.318
 5647SOL    HW217841   5.343   6.356   1.237
 5648SOL     OW17842   2.209   5.352   2.548
 5648SOL    HW117843   2.237   5.442   2.515
 5648SOL    HW217844   2.156   5.305   2.478
 5649SOL     OW17845   0.574   6.584   4.083
 5649SOL    HW117846   0.553   6.488   4.103
 5649SOL    HW217847   0.560   6.639   4.166
 5650SOL     OW17848   1.326   4.343   1.670
 5650SOL    HW117849   1.257   4.294   1.617
 5650SOL    HW217850   1.293   4.435   1.692
 5651SOL     OW17851   2.257   1.356   0.282
 5651SOL    HW117852   2.240   1.387   0.375
 5651SOL    HW217853   2.266   1.435   0.221
 5652SOL     OW17854   6.263   5.924   1.252
 5652SOL    HW117855   6.181   5.928   1.309
 5652SOL    HW217856   6.327   5.858   1.290
 5653SOL     OW17857   6.664   6.339   6.484
 5653SOL    HW117858   6.604   6.306   6.557
 5653SOL    HW217859   6.642   6.290   6.399
 5654SOL     OW17860   0.773   6.076   4.446
 5654SOL    HW117861   0.727   6.044   4.529
 5654SOL    HW217862   0.868   6.099   4.467
 5655SOL     OW17863   0.294   2.878   3.976
 5655SOL    HW117864   0.237   2.959   3.981
 5655SOL    HW217865   0.387   2.904   3.952
 5656SOL     OW17866   6.833   3.930   6.654
 5656SOL    HW117867   6.873   3.934   6.563
 5656SOL    HW217868   6.793   3.840   6.670
 5657SOL     OW17869   5.381   3.284   5.443
 5657SOL    HW117870   5.354   3.354   5.510
 5657SOL    HW217871   5.304   3.262   5.384
 5658SOL     OW17872   2.643   3.389   6.154
 5658SOL    HW117873   2.605   3.373   6.063
 5658SOL    HW217874   2.743   3.397   6.148
 5659SOL     OW17875   4.171   3.487   6.281
 5659SOL    HW117876   4.111   3.504   6.359
 5659SOL    HW217877   4.258   3.533   6.295
 5660SOL     OW17878   4.689   6.679   5.680
 5660SOL    HW117879   4.744   6.664   5.599
 5660SOL    HW217880   4.736   6.642   5.760
 5661SOL     OW17881   1.779   5.856   4.287
 5661SOL    HW117882   1.837   5.926   4.329
 5661SOL    HW217883   1.816   5.765   4.307
 5662SOL     OW17884   2.689   0.047   2.911
 5662SOL    HW117885   2.645   0.057   3.000
 5662SOL    HW217886   2.720   0.137   2.880
 5663SOL     OW17887   2.676   1.816   0.524
 5663SOL    HW117888   2.712   1.733   0.567
 5663SOL    HW217889   2.688   1.809   0.425
 5664SOL     OW17890   6.933   3.297   3.759
 5664SOL    HW117891   6.918   3.286   3.661
 5664SOL    HW217892   6.941   3.207   3.802
 5665SOL     OW17893   1.011   6.828   0.892
 5665SOL    HW117894   1.099   6.808   0.848
 5665SOL    HW217895   0.990   6.756   0.958
 5666SOL     OW17896   6.424   0.299   4.059
 5666SOL    HW117897   6.362   0.343   3.993
 5666SOL    HW217898   6.475   0.368   4.109
 5667SOL     OW17899   1.448   5.044   4.769
 5667SOL    HW117900   1.447   5.047   4.869
 5667SOL    HW217901   1.384   5.113   4.734
 5668SOL     OW17902   6.181   3.074   3.354
 5668SOL    HW117903   6.186   2.984   3.309
 5668SOL    HW217904   6.158   3.062   3.450
 5669SOL     OW17905   6.714   4.768   1.070
 5669SOL    HW117906   6.751   4.861   1.070
 5669SOL    HW217907   6.614   4.771   1.069
 5670SOL     OW17908   1.484   3.235   3.973
 5670SOL    HW117909   1.418   3.171   3.932
 5670SOL    HW217910   1.577   3.199   3.961
 5671SOL     OW17911   6.170   6.069   5.767
 5671SOL    HW117912   6.227   6.092   5.846
 5671SOL    HW217913   6.155   6.151   5.712
 5672SOL     OW17914   5.426   4.257   5.772
 5672SOL    HW117915   5.378   4.199   5.839
 5672SOL    HW217916   5.470   4.333   5.820
 5673SOL     OW17917   1.324   6.497   1.099
 5673SOL    HW117918   1.287   6.585   1.128
 5673SOL    HW217919   1.274   6.465   1.019
 5674SOL     OW17920   2.069   4.874   4.812
 5674SOL    HW117921   2.100   4.805   4.747
 5674SOL    HW217922   2.148   4.927   4.845
 5675SOL     OW17923   4.441   2.892   6.963
 5675SOL    HW117924   4.509   2.885   0.011
 5675SOL    HW217925   4.379   2.968   6.982
 5676SOL     OW17926   2.754   1.730   2.036
 5676SOL    HW117927   2.809   1.669   1.979
 5676SOL    HW217928   2.791   1.733   2.129
 5677SOL     OW17929   0.840   0.821   0.605
 5677SOL    HW117930   0.748   0.798   0.636
 5677SOL    HW217931   0.835   0.885   0.528
 5678SOL     OW17932   4.126   0.885   2.709
 5678SOL    HW117933   4.032   0.917   2.705
 5678SOL    HW217934   4.139   0.831   2.792
 5679SOL     OW17935   5.863   1.365   4.300
 5679SOL    HW117936   5.844   1.280   4.348
 5679SOL    HW217937   5.799   1.377   4.224
 5680SOL     OW17938   1.996   5.629   6.550
 5680SOL    HW117939   1.948   5.631   6.638
 5680SOL    HW217940   1.951   5.563   6.490
 5681SOL     OW17941   0.355   3.729   2.361
 5681SOL    HW117942   0.260   3.700   2.353
 5681SOL    HW217943   0.416   3.651   2.342
 5682SOL     OW17944   2.522   5.382   4.492
 5682SOL    HW117945   2.460   5.442   4.442
 5682SOL    HW217946   2.612   5.426   4.500
 5683SOL     OW17947   3.600   2.469   6.008
 5683SOL    HW117948   3.531   2.416   5.959
 5683SOL    HW217949   3.556   2.541   6.061
 5684SOL     OW17950   1.926   3.739   6.106
 5684SOL    HW117951   1.999   3.682   6.145
 5684SOL    HW217952   1.869   3.683   6.045
 5685SOL     OW17953   2.330   2.107   3.059
 5685SOL    HW117954   2.283   2.095   2.971
 5685SOL    HW217955   2.370   2.198   3.063
 5686SOL     OW17956   2.852   1.434   4.915
 5686SOL    HW117957   2.805   1.509   4.868
 5686SOL    HW217958   2.812   1.421   5.006
 5687SOL     OW17959   0.812   6.237   5.998
 5687SOL    HW117960   0.898   6.254   6.046
 5687SOL    HW217961   0.781   6.322   5.955
 5688SOL     OW17962   1.401   2.836   2.863
 5688SOL    HW117963   1.344   2.761   2.897
 5688SOL    HW217964   1.345   2.919   2.855
 5689SOL     OW17965   2.619   1.102   1.676
 5689SOL    HW117966   2.696   1.064   1.727
 5689SOL    HW217967   2.572   1.028   1.627
 5690SOL     OW17968   1.581   5.744   6.767
 5690SOL    HW117969   1.637   5.721   6.688
 5690SOL    HW217970   1.612   5.831   6.806
 5691SOL     OW17971   3.675   0.434   1.802
 5691SOL    HW117972   3.690   0.523   1.758
 5691SOL    HW217973   3.588   0.396   1.771
 5692SOL     OW17974   4.903   4.821   1.335
 5692SOL    HW117975   4.861   4.752   1.277
 5692SOL    HW217976   4.890   4.912   1.296
 5693SOL     OW17977   4.520   0.419   1.466
 5693SOL    HW117978   4.537   0.349   1.535
 5693SOL    HW217979   4.606   0.465   1.442
 5694SOL     OW17980   0.649   0.377   2.300
 5694SOL    HW117981   0.600   0.345   2.381
 5694SOL    HW217982   0.709   0.453   2.325
 5695SOL     OW17983   1.268   1.194   2.757
 5695SOL    HW117984   1.175   1.197   2.795
 5695SOL    HW217985   1.263   1.191   2.658
 5696SOL     OW17986   1.231   6.414   4.395
 5696SOL    HW117987   1.249   6.369   4.308
 5696SOL    HW217988   1.142   6.385   4.430
 5697SOL     OW17989   5.923   2.419   2.226
 5697SOL    HW117990   5.842   2.383   2.273
 5697SOL    HW217991   5.977   2.343   2.189
 5698SOL     OW17992   1.701   4.551   4.501
 5698SOL    HW117993   1.740   4.643   4.498
 5698SOL    HW217994   1.774   4.484   4.500
 5699SOL     OW17995   1.485   2.457   2.931
 5699SOL    HW117996   1.396   2.442   2.975
 5699SOL    HW217997   1.474   2.515   2.851
 5700SOL     OW17998   6.666   6.789   3.369
 5700SOL    HW117999   6.592   6.729   3.401
 5700SOL    HW218000   6.723   6.816   3.447
 5701SOL     OW18001   6.984   0.454   1.601
 5701SOL    HW118002   6.911   0.395   1.634
 5701SOL    HW218003   0.039   0.444   1.660
 5702SOL     OW18004   2.081   6.245   3.927
 5702SOL    HW118005   2.104   6.292   3.842
 5702SOL    HW218006   1.999   6.190   3.914
 5703SOL     OW18007   6.846   4.269   6.506
 5703SOL    HW118008   6.801   4.298   6.590
 5703SOL    HW218009   6.857   4.170   6.507
 5704SOL     OW18010   4.877   4.077   2.977
 5704SOL    HW118011   4.942   4.074   2.901
 5704SOL    HW218012   4.917   4.126   3.054
 5705SOL     OW18013   5.037   5.638   6.394
 5705SOL    HW118014   5.043   5.735   6.418
 5705SOL    HW218015   5.097   5.620   6.316
 5706SOL     OW18016   5.467   2.352   2.004
 5706SOL    HW118017   5.549   2.357   1.948
 5706SOL    HW218018   5.474   2.275   2.067
 5707SOL     OW18019   6.389   0.628   0.798
 5707SOL    HW118020   6.454   0.576   0.853
 5707SOL    HW218021   6.306   0.573   0.784
 5708SOL     OW18022   5.310   6.126   2.511
 5708SOL    HW118023   5.344   6.033   2.529
 5708SOL    HW218024   5.386   6.183   2.479
 5709SOL     OW18025   0.511   1.429   2.783
 5709SOL    HW118026   0.496   1.359   2.713
 5709SOL    HW218027   0.424   1.472   2.806
 5710SOL     OW18028   2.994   2.347   0.402
 5710SOL    HW118029   3.006   2.257   0.359
 5710SOL    HW218030   2.904   2.382   0.380
 5711SOL     OW18031   4.967   0.817   1.640
 5711SOL    HW118032   5.005   0.798   1.731
 5711SOL    HW218033   4.977   0.735   1.583
 5712SOL     OW18034   6.427   6.670   7.007
 5712SOL    HW118035   6.342   6.617   7.017
 5712SOL    HW218036   6.504   6.614   0.013
 5713SOL     OW18037   3.004   4.318   1.436
 5713SOL    HW118038   2.986   4.411   1.405
 5713SOL    HW218039   2.973   4.307   1.530
 5714SOL     OW18040   6.816   6.060   1.016
 5714SOL    HW118041   6.824   6.153   0.979
 5714SOL    HW218042   6.887   6.046   1.085
 5715SOL     OW18043   0.032   6.977   2.320
 5715SOL    HW118044   0.086   6.927   2.388
 5715SOL    HW218045   0.029   6.925   2.235
 5716SOL     OW18046   1.130   6.053   5.836
 5716SOL    HW118047   1.214   6.033   5.785
 5716SOL    HW218048   1.052   6.010   5.790
 5717SOL     OW18049   1.905   5.090   1.549
 5717SOL    HW118050   1.943   5.003   1.583
 5717SOL    HW218051   1.893   5.084   1.450
 5718SOL     OW18052   1.492   3.467   0.143
 5718SOL    HW118053   1.393   3.462   0.158
 5718SOL    HW218054   1.520   3.563   0.136
 5719SOL     OW18055   2.546   3.592   0.539
 5719SOL    HW118056   2.472   3.588   0.472
 5719SOL    HW218057   2.508   3.616   0.629
 5720SOL     OW18058   1.761   6.924   4.768
 5720SOL    HW118059   1.838   6.926   4.832
 5720SOL    HW218060   1.706   7.007   4.780
 5721SOL     OW18061   5.716   4.287   0.684
 5721SOL    HW118062   5.651   4.351   0.642
 5721SOL    HW218063   5.721   4.306   0.782
 5722SOL     OW18064   6.934   2.518   5.185
 5722SOL    HW118065   6.972   2.463   5.110
 5722SOL    HW218066   6.996   2.514   5.264
 5723SOL     OW18067   4.607   3.947   0.116
 5723SOL    HW118068   4.543   3.966   0.191
 5723SOL    HW218069   4.596   4.016   0.044
 5724SOL     OW18070   5.920   2.890   4.273
 5724SOL    HW118071   5.869   2.841   4.344
 5724SOL    HW218072   5.866   2.893   4.189
 5725SOL     OW18073   6.780   4.608   4.397
 5725SOL    HW118074   6.789   4.508   4.395
 5725SOL    HW218075   6.869   4.648   4.419
 5726SOL     OW18076   6.565   5.105   4.168
 5726SOL    HW118077   6.584   5.066   4.078
 5726SOL    HW218078   6.511   5.188   4.157
 5727SOL     OW18079   6.628   2.438   4.569
 5727SOL    HW118080   6.628   2.466   4.666
 5727SOL    HW218081   6.594   2.513   4.513
 5728SOL     OW18082   5.242   6.308   5.248
 5728SOL    HW118083   5.189   6.361   5.313
 5728SOL    HW218084   5.185   6.236   5.208
 5729SOL     OW18085   1.888   1.838   6.720
 5729SOL    HW118086   1.849   1.874   6.804
 5729SOL    HW218087   1.986   1.823   6.732
 5730SOL     OW18088   6.295   4.464   6.620
 5730SOL    HW118089   6.334   4.400   6.554
 5730SOL    HW218090   6.221   4.516   6.577
 5731SOL     OW18091   6.716   0.269   2.160
 5731SOL    HW118092   6.648   0.203   2.193
 5731SOL    HW218093   6.701   0.287   2.063
 5732SOL     OW18094   0.661   6.427   3.622
 5732SOL    HW118095   0.580   6.392   3.670
 5732SOL    HW218096   0.741   6.419   3.681
 5733SOL     OW18097   4.107   6.282   5.283
 5733SOL    HW118098   4.025   6.276   5.226
 5733SOL    HW218099   4.098   6.220   5.361
 5734SOL     OW18100   0.943   0.209   5.185
 5734SOL    HW118101   0.935   0.141   5.113
 5734SOL    HW218102   0.960   0.299   5.145
 5735SOL     OW18103   3.458   1.497   0.861
 5735SOL    HW118104   3.507   1.553   0.929
 5735SOL    HW218105   3.509   1.413   0.844
 5736SOL     OW18106   0.082   4.354   0.061
 5736SOL    HW118107   0.048   4.409   7.009
 5736SOL    HW218108   0.009   4.293   0.092
 5737SOL     OW18109   5.434   5.898   0.308
 5737SOL    HW118110   5.435   5.798   0.314
 5737SOL    HW218111   5.525   5.933   0.328
 5738SOL     OW18112   1.666   3.332   6.480
 5738SOL    HW118113   1.738   3.358   6.416
 5738SOL    HW218114   1.596   3.403   6.483
 5739SOL     OW18115   1.478   1.545   6.199
 5739SOL    HW118116   1.554   1.573   6.139
 5739SOL    HW218117   1.428   1.470   6.156
 5740SOL     OW18118   4.382   5.524   0.288
 5740SOL    HW118119   4.322   5.470   0.229
 5740SOL    HW218120   4.476   5.516   0.256
 5741SOL     OW18121   0.261   5.686   4.084
 5741SOL    HW118122   0.182   5.631   4.112
 5741SOL    HW218123   0.330   5.685   4.157
 5742SOL     OW18124   5.078   6.489   2.389
 5742SOL    HW118125   5.089   6.504   2.487
 5742SOL    HW218126   5.019   6.410   2.373
 5743SOL     OW18127   3.249   6.637   4.819
 5743SOL    HW118128   3.282   6.545   4.841
 5743SOL    HW218129   3.173   6.631   4.755
 5744SOL     OW18130   4.847   0.125   0.704
 5744SOL    HW118131   4.817   0.155   0.795
 5744SOL    HW218132   4.807   0.185   0.635
 5745SOL     OW18133   3.260   1.500   4.307
 5745SOL    HW118134   3.291   1.519   4.400
 5745SOL    HW218135   3.252   1.585   4.256
 5746SOL     OW18136   5.176   0.805   0.756
 5746SOL    HW118137   5.110   0.736   0.785
 5746SOL    HW218138   5.128   0.883   0.718
 5747SOL     OW18139   0.428   5.396   2.807
 5747SOL    HW118140   0.524   5.422   2.797
 5747SOL    HW218141   0.388   5.384   2.716
 5748SOL     OW18142   1.828   5.073   1.266
 5748SOL    HW118143   1.802   4.987   1.310
 5748SOL    HW218144   1.751   5.136   1.267
 5749SOL     OW18145   2.532   1.318   3.976
 5749SOL    HW118146   2.439   1.284   3.974
 5749SOL    HW218147   2.591   1.261   3.919
 5750SOL     OW18148   5.814   5.227   4.830
 5750SOL    HW118149   5.821   5.308   4.889
 5750SOL    HW218150   5.872   5.155   4.865
 5751SOL     OW18151   2.501   2.543   5.091
 5751SOL    HW118152   2.508   2.465   5.028
 5751SOL    HW218153   2.521   2.513   5.184
 5752SOL     OW18154   6.186   0.996   6.363
 5752SOL    HW118155   6.210   0.955   6.275
 5752SOL    HW218156   6.202   0.930   6.436
 5753SOL     OW18157   3.246   3.361   6.102
 5753SOL    HW118158   3.242   3.261   6.102
 5753SOL    HW218159   3.307   3.392   6.175
 5754SOL     OW18160   5.834   5.498   1.541
 5754SOL    HW118161   5.764   5.570   1.550
 5754SOL    HW218162   5.924   5.536   1.561
 5755SOL     OW18163   2.898   3.794   6.165
 5755SOL    HW118164   2.862   3.811   6.073
 5755SOL    HW218165   2.906   3.695   6.180
 5756SOL     OW18166   6.573   4.826   3.686
 5756SOL    HW118167   6.666   4.811   3.651
 5756SOL    HW218168   6.513   4.853   3.611
 5757SOL     OW18169   6.240   6.314   1.523
 5757SOL    HW118170   6.236   6.359   1.613
 5757SOL    HW218171   6.273   6.221   1.534
 5758SOL     OW18172   2.826   2.320   4.485
 5758SOL    HW118173   2.781   2.385   4.424
 5758SOL    HW218174   2.813   2.349   4.580
 5759SOL     OW18175   4.899   2.350   6.844
 5759SOL    HW118176   4.917   2.433   6.898
 5759SOL    HW218177   4.977   2.331   6.785
 5760SOL     OW18178   1.604   6.339   2.173
 5760SOL    HW118179   1.664   6.404   2.220
 5760SOL    HW218180   1.650   6.304   2.091
 5761SOL     OW18181   5.716   0.121   5.369
 5761SOL    HW118182   5.783   0.193   5.389
 5761SOL    HW218183   5.692   0.073   5.453
 5762SOL     OW18184   5.650   0.067   0.527
 5762SOL    HW118185   5.612   0.144   0.578
 5762SOL    HW218186   5.608   7.007   0.558
 5763SOL     OW18187   0.487   6.493   0.789
 5763SOL    HW118188   0.510   6.542   0.873
 5763SOL    HW218189   0.480   6.557   0.713
 5764SOL     OW18190   6.139   4.468   5.777
 5764SOL    HW118191   6.153   4.373   5.748
 5764SOL    HW218192   6.218   4.523   5.748
 5765SOL     OW18193   6.362   4.572   6.873
 5765SOL    HW118194   6.322   4.517   6.799
 5765SOL    HW218195   6.417   4.513   6.932
 5766SOL     OW18196   3.204   1.302   2.067
 5766SOL    HW118197   3.208   1.231   1.996
 5766SOL    HW218198   3.272   1.373   2.046
 5767SOL     OW18199   1.397   6.322   0.682
 5767SOL    HW118200   1.466   6.342   0.612
 5767SOL    HW218201   1.311   6.298   0.638
 5768SOL     OW18202   0.122   0.537   2.994
 5768SOL    HW118203   0.042   0.583   3.033
 5768SOL    HW218204   0.093   0.451   2.951
 5769SOL     OW18205   3.026   6.723   3.110
 5769SOL    HW118206   2.979   6.777   3.040
 5769SOL    HW218207   3.114   6.691   3.074
 5770SOL     OW18208   6.960   0.040   1.033
 5770SOL    HW118209   6.926   6.975   1.006
 5770SOL    HW218210   6.960   0.047   1.133
 5771SOL     OW18211   1.352   0.243   1.165
 5771SOL    HW118212   1.340   0.163   1.106
 5771SOL    HW218213   1.269   0.299   1.161
 5772SOL     OW18214   5.820   2.441   0.772
 5772SOL    HW118215   5.777   2.476   0.855
 5772SOL    HW218216   5.758   2.456   0.694
 5773SOL     OW18217   5.436   6.537   4.013
 5773SOL    HW118218   5.493   6.588   3.948
 5773SOL    HW218219   5.491   6.468   4.060
 5774SOL     OW18220   2.390   4.552   2.926
 5774SOL    HW118221   2.295   4.551   2.960
 5774SOL    HW218222   2.452   4.566   3.003
 5775SOL     OW18223   0.482   0.401   0.313
 5775SOL    HW118224   0.414   0.360   0.253
 5775SOL    HW218225   0.559   0.338   0.324
 5776SOL     OW18226   5.907   0.825   6.264
 5776SOL    HW118227   5.860   0.845   6.350
 5776SOL    HW218228   5.931   0.727   6.260
 5777SOL     OW18229   5.741   0.650   4.081
 5777SOL    HW118230   5.670   0.720   4.079
 5777SOL    HW218231   5.725   0.589   4.158
 5778SOL     OW18232   2.289   0.587   2.505
 5778SOL    HW118233   2.232   0.588   2.586
 5778SOL    HW218234   2.234   0.566   2.424
 5779SOL     OW18235   3.706   0.740   1.089
 5779SOL    HW118236   3.655   0.714   1.008
 5779SOL    HW218237   3.718   0.840   1.091
 5780SOL     OW18238   6.237   4.706   1.993
 5780SOL    HW118239   6.245   4.624   1.937
 5780SOL    HW218240   6.281   4.783   1.946
 5781SOL     OW18241   1.829   4.138   4.992
 5781SOL    HW118242   1.730   4.150   4.999
 5781SOL    HW218243   1.851   4.040   4.997
 5782SOL     OW18244   1.654   0.872   1.382
 5782SOL    HW118245   1.719   0.813   1.429
 5782SOL    HW218246   1.614   0.823   1.304
 5783SOL     OW18247   1.924   1.234   0.490
 5783SOL    HW118248   1.852   1.271   0.549
 5783SOL    HW218249   1.913   1.135   0.482
 5784SOL     OW18250   0.685   6.211   0.340
 5784SOL    HW118251   0.606   6.168   0.385
 5784SOL    HW218252   0.756   6.143   0.324
 5785SOL     OW18253   1.387   1.149   0.871
 5785SOL    HW118254   1.453   1.090   0.916
 5785SOL    HW218255   1.346   1.099   0.794
 5786SOL     OW18256   1.419   3.750   1.490
 5786SOL    HW118257   1.409   3.832   1.546
 5786SOL    HW218258   1.333   3.698   1.492
 5787SOL     OW18259   5.522   2.502   4.106
 5787SOL    HW118260   5.498   2.521   4.011
 5787SOL    HW218261   5.613   2.459   4.108
 5788SOL     OW18262   3.174   0.316   1.838
 5788SOL    HW118263   3.201   0.279   1.927
 5788SOL    HW218264   3.142   0.410   1.849
 5789SOL     OW18265   3.582   3.150   0.447
 5789SOL    HW118266   3.528   3.116   0.523
 5789SOL    HW218267   3.673   3.178   0.480
 5790SOL     OW18268   6.072   5.498   4.665
 5790SOL    HW118269   6.025   5.583   4.639
 5790SOL    HW218270   6.015   5.448   4.731
 5791SOL     OW18271   2.923   1.853   2.732
 5791SOL    HW118272   2.852   1.829   2.666
 5791SOL    HW218273   2.999   1.787   2.724
 5792SOL     OW18274   4.896   3.305   2.989
 5792SOL    HW118275   4.848   3.367   2.928
 5792SOL    HW218276   4.840   3.224   3.006
 5793SOL     OW18277   6.140   2.488   5.165
 5793SOL    HW118278   6.071   2.455   5.101
 5793SOL    HW218279   6.148   2.424   5.242
 5794SOL     OW18280   2.998   6.826   5.963
 5794SOL    HW118281   2.927   6.835   5.893
 5794SOL    HW218282   3.081   6.789   5.922
 5795SOL     OW18283   1.123   5.280   1.682
 5795SOL    HW118284   1.104   5.232   1.597
 5795SOL    HW218285   1.203   5.339   1.670
 5796SOL     OW18286   4.646   1.991   6.272
 5796SOL    HW118287   4.734   2.034   6.253
 5796SOL    HW218288   4.586   2.058   6.318
 5797SOL     OW18289   5.466   1.900   0.106
 5797SOL    HW118290   5.558   1.932   0.084
 5797SOL    HW218291   5.399   1.958   0.060
 5798SOL     OW18292   0.857   3.782   5.261
 5798SOL    HW118293   0.794   3.708   5.236
 5798SOL    HW218294   0.816   3.870   5.238
 5799SOL     OW18295   1.446   6.489   3.441
 5799SOL    HW118296   1.438   6.392   3.418
 5799SOL    HW218297   1.512   6.500   3.516
 5800SOL     OW18298   0.427   0.063   1.126
 5800SOL    HW118299   0.344   0.038   1.175
 5800SOL    HW218300   0.406   0.134   1.059
 5801SOL     OW18301   2.202   2.857   2.241
 5801SOL    HW118302   2.267   2.919   2.285
 5801SOL    HW218303   2.205   2.768   2.286
 5802SOL     OW18304   6.656   1.884   3.364
 5802SOL    HW118305   6.568   1.875   3.411
 5802SOL    HW218306   6.656   1.829   3.281
 5803SOL     OW18307   1.982   5.373   4.815
 5803SOL    HW118308   1.970   5.310   4.738
 5803SOL    HW218309   2.049   5.336   4.879
 5804SOL     OW18310   5.945   6.240   3.698
 5804SOL    HW118311   5.894   6.223   3.782
 5804SOL    HW218312   5.897   6.308   3.643
 5805SOL     OW18313   2.062   3.685   1.547
 5805SOL    HW118314   1.984   3.748   1.546
 5805SOL    HW218315   2.095   3.671   1.454
 5806SOL     OW18316   0.473   3.134   3.547
 5806SOL    HW118317   0.512   3.042   3.540
 5806SOL    HW218318   0.539   3.196   3.589
 5807SOL     OW18319   1.209   5.815   0.412
 5807SOL    HW118320   1.280   5.880   0.384
 5807SOL    HW218321   1.246   5.722   0.407
 5808SOL     OW18322   6.211   6.532   4.249
 5808SOL    HW118323   6.297   6.538   4.300
 5808SOL    HW218324   6.147   6.475   4.299
 5809SOL     OW18325   0.093   2.324   6.088
 5809SOL    HW118326   0.182   2.286   6.064
 5809SOL    HW218327   0.105   2.413   6.132
 5810SOL     OW18328   4.391   6.774   5.096
 5810SOL    HW118329   4.481   6.766   5.055
 5810SOL    HW218330   4.365   6.870   5.102
 5811SOL     OW18331   2.822   3.301   5.886
 5811SOL    HW118332   2.742   3.311   5.826
 5811SOL    HW218333   2.821   3.211   5.929
 5812SOL     OW18334   6.002   3.039   0.593
 5812SOL    HW118335   5.944   3.047   0.512
 5812SOL    HW218336   6.044   2.948   0.595
 5813SOL     OW18337   4.318   5.904   1.123
 5813SOL    HW118338   4.277   5.897   1.032
 5813SOL    HW218339   4.372   5.988   1.128
 5814SOL     OW18340   6.326   1.973   2.648
 5814SOL    HW118341   6.403   2.036   2.634
 5814SOL    HW218342   6.249   2.024   2.685
 5815SOL     OW18343   6.491   0.951   3.988
 5815SOL    HW118344   6.411   0.996   3.948
 5815SOL    HW218345   6.554   1.021   4.021
 5816SOL     OW18346   0.603   4.610   2.536
 5816SOL    HW118347   0.515   4.655   2.526
 5816SOL    HW218348   0.604   4.555   2.619
 5817SOL     OW18349   5.518   4.031   4.645
 5817SOL    HW118350   5.513   4.108   4.581
 5817SOL    HW218351   5.597   3.975   4.623
 5818SOL     OW18352   1.606   6.962   5.074
 5818SOL    HW118353   1.582   7.000   4.985
 5818SOL    HW218354   1.526   6.964   5.134
 5819SOL     OW18355   3.804   4.745   0.185
 5819SOL    HW118356   3.898   4.765   0.156
 5819SOL    HW218357   3.751   4.830   0.186
 5820SOL     OW18358   5.678   4.796   2.244
 5820SOL    HW118359   5.700   4.871   2.305
 5820SOL    HW218360   5.603   4.742   2.282
 5821SOL     OW18361   6.643   0.846   1.414
 5821SOL    HW118362   6.629   0.759   1.462
 5821SOL    HW218363   6.741   0.864   1.406
 5822SOL     OW18364   1.368   2.204   2.706
 5822SOL    HW118365   1.368   2.302   2.685
 5822SOL    HW218366   1.459   2.167   2.689
 5823SOL     OW18367   2.035   6.646   3.486
 5823SOL    HW118368   2.114   6.652   3.546
 5823SOL    HW218369   1.960   6.599   3.533
 5824SOL     OW18370   0.852   6.775   2.302
 5824SOL    HW118371   0.755   6.790   2.284
 5824SOL    HW218372   0.885   6.697   2.247
 5825SOL     OW18373   6.110   0.304   4.514
 5825SOL    HW118374   6.112   0.205   4.531
 5825SOL    HW218375   6.142   0.322   4.421
 5826SOL     OW18376   6.882   0.360   5.224
 5826SOL    HW118377   6.898   0.312   5.311
 5826SOL    HW218378   6.895   0.458   5.237
 5827SOL     OW18379   1.418   4.154   5.538
 5827SOL    HW118380   1.351   4.134   5.609
 5827SOL    HW218381   1.486   4.217   5.574
 5828SOL     OW18382   5.217   6.608   4.252
 5828SOL    HW118383   5.230   6.635   4.347
 5828SOL    HW218384   5.304   6.611   4.204
 5829SOL     OW18385   2.200   1.037   4.059
 5829SOL    HW118386   2.198   0.938   4.044
 5829SOL    HW218387   2.107   1.069   4.081
 5830SOL     OW18388   3.515   4.996   5.544
 5830SOL    HW118389   3.562   5.004   5.632
 5830SOL    HW218390   3.578   4.959   5.476
 5831SOL     OW18391   0.943   0.896   5.047
 5831SOL    HW118392   0.937   0.941   5.136
 5831SOL    HW218393   1.034   0.855   5.036
 5832SOL     OW18394   3.391   4.809   1.469
 5832SOL    HW118395   3.401   4.900   1.429
 5832SOL    HW218396   3.481   4.765   1.476
 5833SOL     OW18397   4.266   3.636   5.695
 5833SOL    HW118398   4.203   3.673   5.628
 5833SOL    HW218399   4.249   3.678   5.784
 5834SOL     OW18400   6.504   4.214   6.976
 5834SOL    HW118401   6.551   4.203   6.888
 5834SOL    HW218402   6.538   4.297   7.021
 5835SOL     OW18403   5.449   0.579   2.694
 5835SOL    HW118404   5.453   0.492   2.644
 5835SOL    HW218405   5.432   0.561   2.791
 5836SOL     OW18406   4.499   6.360   2.205
 5836SOL    HW118407   4.448   6.417   2.270
 5836SOL    HW218408   4.453   6.362   2.116
 5837SOL     OW18409   3.556   3.917   0.460
 5837SOL    HW118410   3.462   3.889   0.442
 5837SOL    HW218411   3.611   3.836   0.480
 5838SOL     OW18412   2.765   1.918   1.528
 5838SOL    HW118413   2.749   1.902   1.431
 5838SOL    HW218414   2.681   1.951   1.572
 5839SOL     OW18415   1.378   2.252   1.946
 5839SOL    HW118416   1.419   2.165   1.973
 5839SOL    HW218417   1.295   2.268   2.001
 5840SOL     OW18418   0.748   3.717   2.278
 5840SOL    HW118419   0.671   3.744   2.219
 5840SOL    HW218420   0.717   3.712   2.373
 5841SOL     OW18421   4.542   1.024   0.944
 5841SOL    HW118422   4.504   1.036   1.036
 5841SOL    HW218423   4.586   0.935   0.937
 5842SOL     OW18424   3.359   1.902   0.396
 5842SOL    HW118425   3.444   1.848   0.397
 5842SOL    HW218426   3.341   1.938   0.487
 5843SOL     OW18427   1.891   3.418   1.010
 5843SOL    HW118428   1.884   3.492   1.077
 5843SOL    HW218429   1.801   3.376   0.997
 5844SOL     OW18430   0.749   0.370   4.943
 5844SOL    HW118431   0.806   0.432   4.889
 5844SOL    HW218432   0.794   0.282   4.952
 5845SOL     OW18433   0.510   6.648   1.804
 5845SOL    HW118434   0.425   6.618   1.846
 5845SOL    HW218435   0.553   6.719   1.860
 5846SOL     OW18436   6.736   3.707   5.382
 5846SOL    HW118437   6.688   3.626   5.415
 5846SOL    HW218438   6.834   3.694   5.393
 5847SOL     OW18439   2.445   3.485   0.943
 5847SOL    HW118440   2.424   3.528   1.031
 5847SOL    HW218441   2.436   3.386   0.952
 5848SOL     OW18442   2.371   6.088   3.747
 5848SOL    HW118443   2.355   6.172   3.798
 5848SOL    HW218444   2.324   6.012   3.792
 5849SOL     OW18445   2.308   6.392   5.261
 5849SOL    HW118446   2.267   6.455   5.327
 5849SOL    HW218447   2.281   6.298   5.283
 5850SOL     OW18448   1.600   2.422   1.979
 5850SOL    HW118449   1.573   2.476   2.059
 5850SOL    HW218450   1.518   2.382   1.937
 5851SOL     OW18451   5.748   3.374   4.608
 5851SOL    HW118452   5.745   3.373   4.508
 5851SOL    HW218453   5.838   3.405   4.638
 5852SOL     OW18454   4.888   5.267   4.029
 5852SOL    HW118455   4.911   5.335   3.959
 5852SOL    HW218456   4.893   5.175   3.990
 5853SOL     OW18457   3.624   5.033   5.785
 5853SOL    HW118458   3.684   4.996   5.856
 5853SOL    HW218459   3.562   5.100   5.826
 5854SOL     OW18460   2.995   4.557   6.074
 5854SOL    HW118461   2.965   4.470   6.035
 5854SOL    HW218462   2.948   4.573   6.161
 5855SOL     OW18463   2.192   2.508   3.964
 5855SOL    HW118464   2.108   2.458   3.942
 5855SOL    HW218465   2.183   2.551   4.053
 5856SOL     OW18466   1.467   6.626   2.871
 5856SOL    HW118467   1.452   6.664   2.780
 5856SOL    HW218468   1.383   6.584   2.904
 5857SOL     OW18469   0.529   3.163   5.884
 5857SOL    HW118470   0.468   3.224   5.833
 5857SOL    HW218471   0.542   3.198   5.977
 5858SOL     OW18472   2.175   1.490   2.909
 5858SOL    HW118473   2.101   1.424   2.901
 5858SOL    HW218474   2.184   1.541   2.823
 5859SOL     OW18475   5.691   0.052   2.111
 5859SOL    HW118476   5.783   0.082   2.086
 5859SOL    HW218477   5.624   0.109   2.065
 5860SOL     OW18478   6.905   3.206   3.156
 5860SOL    HW118479   6.876   3.128   3.211
 5860SOL    HW218480   6.895   3.185   3.059
 5861SOL     OW18481   6.017   0.691   5.069
 5861SOL    HW118482   5.960   0.655   4.996
 5861SOL    HW218483   6.058   0.778   5.041
 5862SOL     OW18484   6.624   5.596   2.871
 5862SOL    HW118485   6.686   5.610   2.947
 5862SOL    HW218486   6.656   5.647   2.791
 5863SOL     OW18487   3.305   0.803   4.406
 5863SOL    HW118488   3.238   0.762   4.344
 5863SOL    HW218489   3.390   0.821   4.358
 5864SOL     OW18490   3.408   3.754   3.398
 5864SOL    HW118491   3.314   3.781   3.375
 5864SOL    HW218492   3.432   3.790   3.488
 5865SOL     OW18493   6.139   1.071   5.905
 5865SOL    HW118494   6.141   1.171   5.898
 5865SOL    HW218495   6.062   1.036   5.852
 5866SOL     OW18496   3.862   3.368   1.365
 5866SOL    HW118497   3.799   3.423   1.421
 5866SOL    HW218498   3.816   3.283   1.337
 5867SOL     OW18499   2.672   2.245   1.422
 5867SOL    HW118500   2.668   2.342   1.444
 5867SOL    HW218501   2.767   2.217   1.411
 5868SOL     OW18502   0.670   1.521   5.899
 5868SOL    HW118503   0.738   1.587   5.931
 5868SOL    HW218504   0.706   1.471   5.820
 5869SOL     OW18505   0.708   4.394   4.049
 5869SOL    HW118506   0.651   4.472   4.022
 5869SOL    HW218507   0.757   4.415   4.133
 5870SOL     OW18508   4.496   4.828   5.412
 5870SOL    HW118509   4.516   4.906   5.471
 5870SOL    HW218510   4.446   4.859   5.331
 5871SOL     OW18511   3.057   3.220   3.369
 5871SOL    HW118512   3.006   3.290   3.319
 5871SOL    HW218513   3.111   3.166   3.304
 5872SOL     OW18514   4.350   6.107   2.286
 5872SOL    HW118515   4.372   6.090   2.189
 5872SOL    HW218516   4.294   6.189   2.293
 5873SOL     OW18517   3.265   4.874   2.812
 5873SOL    HW118518   3.181   4.833   2.776
 5873SOL    HW218519   3.244   4.963   2.853
 5874SOL     OW18520   2.181   4.363   5.397
 5874SOL    HW118521   2.187   4.356   5.297
 5874SOL    HW218522   2.171   4.460   5.422
 5875SOL     OW18523   3.518   2.334   0.204
 5875SOL    HW118524   3.581   2.410   0.188
 5875SOL    HW218525   3.557   2.272   0.272
 5876SOL     OW18526   3.726   3.696   2.086
 5876SOL    HW118527   3.817   3.666   2.057
 5876SOL    HW218528   3.717   3.684   2.185
 5877SOL     OW18529   5.944   6.276   0.907
 5877SOL    HW118530   5.898   6.199   0.951
 5877SOL    HW218531   6.041   6.252   0.892
 5878SOL     OW18532   1.232   5.407   2.917
 5878SOL    HW118533   1.239   5.473   2.843
 5878SOL    HW218534   1.263   5.449   3.002
 5879SOL     OW18535   6.347   3.566   6.848
 5879SOL    HW118536   6.365   3.663   6.829
 5879SOL    HW218537   6.341   3.516   6.762
 5880SOL     OW18538   2.713   6.110   1.195
 5880SOL    HW118539   2.705   6.026   1.250
 5880SOL    HW218540   2.797   6.158   1.220
 5881SOL     OW18541   0.154   4.365   3.258
 5881SOL    HW118542   0.101   4.311   3.193
 5881SOL    HW218543   0.218   4.423   3.208
 5882SOL     OW18544   5.398   0.600   1.039
 5882SOL    HW118545   5.308   0.638   1.057
 5882SOL    HW218546   5.455   0.609   1.121
 5883SOL     OW18547   0.557   2.620   6.474
 5883SOL    HW118548   0.630   2.688   6.471
 5883SOL    HW218549   0.468   2.666   6.471
 5884SOL     OW18550   1.301   1.097   3.410
 5884SOL    HW118551   1.343   1.187   3.401
 5884SOL    HW218552   1.331   1.038   3.335
 5885SOL     OW18553   6.715   6.699   1.246
 5885SOL    HW118554   6.784   6.755   1.201
 5885SOL    HW218555   6.669   6.753   1.317
 5886SOL     OW18556   0.654   2.551   5.610
 5886SOL    HW118557   0.630   2.601   5.693
 5886SOL    HW218558   0.576   2.496   5.581
 5887SOL     OW18559   3.588   0.881   3.878
 5887SOL    HW118560   3.654   0.904   3.949
 5887SOL    HW218561   3.527   0.809   3.911
 5888SOL     OW18562   2.507   5.994   2.600
 5888SOL    HW118563   2.441   6.040   2.661
 5888SOL    HW218564   2.478   6.005   2.505
 5889SOL     OW18565   2.237   0.419   1.656
 5889SOL    HW118566   2.299   0.403   1.579
 5889SOL    HW218567   2.272   0.372   1.737
 5890SOL     OW18568   1.239   6.879   5.333
 5890SOL    HW118569   1.239   6.789   5.377
 5890SOL    HW218570   1.157   6.930   5.362
 5891SOL     OW18571   3.669   3.698   6.861
 5891SOL    HW118572   3.599   3.631   6.833
 5891SOL    HW218573   3.624   3.774   6.908
 5892SOL     OW18574   1.006   6.177   1.029
 5892SOL    HW118575   1.046   6.095   0.987
 5892SOL    HW218576   0.916   6.154   1.068
 5893SOL     OW18577   1.491   2.941   3.085
 5893SOL    HW118578   1.466   2.888   3.005
 5893SOL    HW218579   1.577   2.990   3.068
 5894SOL     OW18580   1.150   5.038   3.187
 5894SOL    HW118581   1.195   4.950   3.202
 5894SOL    HW218582   1.126   5.080   3.274
 5895SOL     OW18583   5.356   2.522   4.876
 5895SOL    HW118584   5.386   2.506   4.970
 5895SOL    HW218585   5.427   2.490   4.813
 5896SOL     OW18586   3.632   2.097   6.767
 5896SOL    HW118587   3.557   2.087   6.833
 5896SOL    HW218588   3.658   2.194   6.761
 5897SOL     OW18589   4.140   0.051   1.366
 5897SOL    HW118590   4.184   0.096   1.288
 5897SOL    HW218591   4.207   0.038   1.439
 5898SOL     OW18592   1.297   0.060   1.781
 5898SOL    HW118593   1.259   0.031   1.869
 5898SOL    HW218594   1.245   0.137   1.745
 5899SOL     OW18595   6.043   6.959   5.302
 5899SOL    HW118596   6.049   7.022   5.379
 5899SOL    HW218597   6.121   6.972   5.241
 5900SOL     OW18598   4.545   5.303   2.944
 5900SOL    HW118599   4.545   5.232   2.874
 5900SOL    HW218600   4.542   5.261   3.035
 5901SOL     OW18601   2.058   0.136   6.886
 5901SOL    HW118602   2.011   0.201   6.826
 5901SOL    HW218603   2.149   0.117   6.849
 5902SOL     OW18604   7.022   1.914   1.111
 5902SOL    HW118605   6.928   1.921   1.143
 5902SOL    HW218606   7.023   1.880   1.017
 5903SOL     OW18607   5.476   4.394   0.608
 5903SOL    HW118608   5.419   4.316   0.633
 5903SOL    HW218609   5.461   4.468   0.674
 5904SOL     OW18610   0.689   3.423   2.619
 5904SOL    HW118611   0.615   3.390   2.561
 5904SOL    HW218612   0.732   3.503   2.577
 5905SOL     OW18613   6.407   6.703   2.943
 5905SOL    HW118614   6.489   6.745   2.983
 5905SOL    HW218615   6.387   6.746   2.855
 5906SOL     OW18616   5.670   0.548   3.809
 5906SOL    HW118617   5.712   0.594   3.887
 5906SOL    HW218618   5.665   0.449   3.828
 5907SOL     OW18619   1.239   6.412   1.928
 5907SOL    HW118620   1.260   6.326   1.881
 5907SOL    HW218621   1.157   6.401   1.984
 5908SOL     OW18622   0.684   1.858   5.742
 5908SOL    HW118623   0.646   1.951   5.743
 5908SOL    HW218624   0.609   1.792   5.738
 5909SOL     OW18625   0.969   5.724   0.393
 5909SOL    HW118626   1.060   5.765   0.388
 5909SOL    HW218627   0.953   5.689   0.485
 5910SOL     OW18628   1.171   2.588   3.216
 5910SOL    HW118629   1.269   2.571   3.201
 5910SOL    HW218630   1.145   2.550   3.305
 5911SOL     OW18631   6.896   5.720   6.234
 5911SOL    HW118632   6.803   5.701   6.265
 5911SOL    HW218633   6.895   5.795   6.168
 5912SOL     OW18634   6.297   1.320   5.523
 5912SOL    HW118635   6.343   1.405   5.548
 5912SOL    HW218636   6.288   1.315   5.424
 5913SOL     OW18637   5.409   2.964   0.409
 5913SOL    HW118638   5.423   2.947   0.311
 5913SOL    HW218639   5.386   2.878   0.454
 5914SOL     OW18640   1.088   6.856   6.609
 5914SOL    HW118641   1.035   6.934   6.643
 5914SOL    HW218642   1.028   6.777   6.599
 5915SOL     OW18643   2.989   6.427   6.905
 5915SOL    HW118644   2.950   6.508   6.949
 5915SOL    HW218645   2.970   6.346   6.962
 5916SOL     OW18646   0.287   6.609   1.926
 5916SOL    HW118647   0.206   6.553   1.939
 5916SOL    HW218648   0.261   6.706   1.924
 5917SOL     OW18649   2.844   3.866   5.911
 5917SOL    HW118650   2.897   3.949   5.928
 5917SOL    HW218651   2.888   3.813   5.838
 5918SOL     OW18652   2.411   5.978   6.006
 5918SOL    HW118653   2.382   6.005   6.098
 5918SOL    HW218654   2.507   5.950   6.008
 5919SOL     OW18655   2.892   3.694   3.261
 5919SOL    HW118656   2.983   3.724   3.291
 5919SOL    HW218657   2.830   3.772   3.261
 5920SOL     OW18658   5.343   1.499   5.814
 5920SOL    HW118659   5.407   1.547   5.754
 5920SOL    HW218660   5.349   1.536   5.906
 5921SOL     OW18661   3.856   4.841   6.868
 5921SOL    HW118662   3.842   4.935   6.900
 5921SOL    HW218663   3.949   4.812   6.891
 5922SOL     OW18664   6.278   3.817   3.758
 5922SOL    HW118665   6.370   3.803   3.796
 5922SOL    HW218666   6.263   3.915   3.745
 5923SOL     OW18667   6.854   0.809   1.616
 5923SOL    HW118668   6.767   0.802   1.665
 5923SOL    HW218669   6.865   0.730   1.557
 5924SOL     OW18670   5.778   6.647   3.304
 5924SOL    HW118671   5.689   6.651   3.258
 5924SOL    HW218672   5.783   6.719   3.373
 5925SOL     OW18673   4.013   6.063   1.655
 5925SOL    HW118674   4.055   6.008   1.582
 5925SOL    HW218675   3.915   6.042   1.659
 5926SOL     OW18676   4.339   4.729   3.160
 5926SOL    HW118677   4.270   4.717   3.230
 5926SOL    HW218678   4.297   4.762   3.076
 5927SOL     OW18679   1.257   3.859   2.038
 5927SOL    HW118680   1.221   3.944   2.000
 5927SOL    HW218681   1.209   3.781   1.998
 5928SOL     OW18682   3.946   6.954   1.239
 5928SOL    HW118683   4.025   6.996   1.283
 5928SOL    HW218684   3.976   6.886   1.173
 5929SOL     OW18685   6.461   1.135   5.601
 5929SOL    HW118686   6.399   1.212   5.582
 5929SOL    HW218687   6.425   1.082   5.678
 5930SOL     OW18688   0.998   2.831   1.786
 5930SOL    HW118689   1.067   2.861   1.852
 5930SOL    HW218690   0.925   2.899   1.781
 5931SOL     OW18691   6.332   6.065   2.694
 5931SOL    HW118692   6.394   6.005   2.645
 5931SOL    HW218693   6.384   6.135   2.743
 5932SOL     OW18694   3.146   0.095   6.461
 5932SOL    HW118695   3.244   0.094   6.483
 5932SOL    HW218696   3.098   0.151   6.528
 5933SOL     OW18697   0.224   4.851   4.088
 5933SOL    HW118698   0.258   4.759   4.067
 5933SOL    HW218699   0.263   4.882   4.175
 5934SOL     OW18700   3.851   3.505   5.906
 5934SOL    HW118701   3.816   3.421   5.864
 5934SOL    HW218702   3.791   3.581   5.882
 5935SOL     OW18703   0.582   6.021   5.261
 5935SOL    HW118704   0.616   6.045   5.170
 5935SOL    HW218705   0.631   6.076   5.329
 5936SOL     OW18706   3.151   3.128   2.403
 5936SOL    HW118707   3.102   3.201   2.451
 5936SOL    HW218708   3.222   3.091   2.463
 5937SOL     OW18709   6.663   2.898   1.857
 5937SOL    HW118710   6.663   2.996   1.875
 5937SOL    HW218711   6.590   2.854   1.910
 5938SOL     OW18712   5.950   5.713   4.503
 5938SOL    HW118713   5.922   5.697   4.408
 5938SOL    HW218714   5.870   5.743   4.556
 5939SOL     OW18715   3.297   5.843   4.021
 5939SOL    HW118716   3.340   5.857   4.110
 5939SOL    HW218717   3.235   5.765   4.026
 5940SOL     OW18718   4.000   4.794   3.088
 5940SOL    HW118719   4.024   4.725   3.156
 5940SOL    HW218720   4.066   4.791   3.013
 5941SOL     OW18721   5.637   2.337   3.168
 5941SOL    HW118722   5.625   2.436   3.161
 5941SOL    HW218723   5.724   2.312   3.125
 5942SOL     OW18724   5.893   2.886   6.051
 5942SOL    HW118725   5.878   2.937   6.135
 5942SOL    HW218726   5.841   2.927   5.976
 5943SOL     OW18727   3.828   3.727   0.274
 5943SOL    HW118728   3.754   3.789   0.248
 5943SOL    HW218729   3.913   3.779   0.284
 5944SOL     OW18730   0.470   2.760   0.337
 5944SOL    HW118731   0.551   2.807   0.372
 5944SOL    HW218732   0.498   2.682   0.280
 5945SOL     OW18733   0.258   6.124   5.401
 5945SOL    HW118734   0.223   6.112   5.308
 5945SOL    HW218735   0.277   6.034   5.440
 5946SOL     OW18736   3.371   4.987   6.838
 5946SOL    HW118737   3.427   4.906   6.854
 5946SOL    HW218738   3.330   5.017   6.924
 5947SOL     OW18739   3.021   3.340   4.563
 5947SOL    HW118740   3.062   3.328   4.653
 5947SOL    HW218741   2.988   3.434   4.554
 5948SOL     OW18742   4.715   4.591   2.211
 5948SOL    HW118743   4.738   4.496   2.189
 5948SOL    HW218744   4.759   4.652   2.146
 5949SOL     OW18745   5.856   5.547   1.264
 5949SOL    HW118746   5.930   5.500   1.215
 5949SOL    HW218747   5.834   5.497   1.348
 5950SOL     OW18748   4.971   2.435   5.136
 5950SOL    HW118749   5.027   2.512   5.107
 5950SOL    HW218750   5.000   2.405   5.227
 5951SOL     OW18751   0.981   5.870   5.145
 5951SOL    HW118752   0.940   5.818   5.220
 5951SOL    HW218753   1.027   5.807   5.082
 5952SOL     OW18754   4.023   5.782   3.145
 5952SOL    HW118755   4.101   5.762   3.204
 5952SOL    HW218756   3.938   5.766   3.196
 5953SOL     OW18757   6.878   3.571   4.567
 5953SOL    HW118758   6.806   3.635   4.592
 5953SOL    HW218759   6.958   3.621   4.535
 5954SOL     OW18760   0.716   5.261   6.022
 5954SOL    HW118761   0.695   5.179   5.967
 5954SOL    HW218762   0.642   5.327   6.012
 5955SOL     OW18763   4.224   5.370   1.568
 5955SOL    HW118764   4.220   5.402   1.473
 5955SOL    HW218765   4.211   5.448   1.630
 5956SOL     OW18766   5.693   1.764   4.057
 5956SOL    HW118767   5.647   1.708   4.127
 5956SOL    HW218768   5.669   1.860   4.071
 5957SOL     OW18769   1.821   1.612   3.267
 5957SOL    HW118770   1.890   1.587   3.335
 5957SOL    HW218771   1.828   1.710   3.246
 5958SOL     OW18772   3.932   0.754   3.302
 5958SOL    HW118773   4.014   0.697   3.289
 5958SOL    HW218774   3.912   0.762   3.400
 5959SOL     OW18775   4.329   2.900   5.396
 5959SOL    HW118776   4.341   2.896   5.495
 5959SOL    HW218777   4.417   2.920   5.353
 5960SOL     OW18778   3.019   6.670   4.609
 5960SOL    HW118779   3.054   6.760   4.638
 5960SOL    HW218780   3.088   6.625   4.552
 5961SOL     OW18781   3.561   1.559   2.485
 5961SOL    HW118782   3.590   1.561   2.389
 5961SOL    HW218783   3.642   1.567   2.544
 5962SOL     OW18784   4.924   6.005   6.342
 5962SOL    HW118785   4.947   6.090   6.389
 5962SOL    HW218786   4.824   5.994   6.341
 5963SOL     OW18787   3.303   3.938   0.075
 5963SOL    HW118788   3.205   3.949   0.061
 5963SOL    HW218789   3.323   3.843   0.098
 5964SOL     OW18790   2.400   6.844   3.277
 5964SOL    HW118791   2.314   6.813   3.236
 5964SOL    HW218792   2.386   6.858   3.376
 5965SOL     OW18793   1.705   0.555   6.359
 5965SOL    HW118794   1.647   0.616   6.304
 5965SOL    HW218795   1.724   0.597   6.447
 5966SOL     OW18796   1.158   0.151   5.618
 5966SOL    HW118797   1.079   0.145   5.556
 5966SOL    HW218798   1.229   0.207   5.575
 5967SOL     OW18799   2.632   1.173   5.371
 5967SOL    HW118800   2.730   1.153   5.368
 5967SOL    HW218801   2.590   1.124   5.447
 5968SOL     OW18802   5.468   2.627   0.718
 5968SOL    HW118803   5.508   2.704   0.769
 5968SOL    HW218804   5.541   2.577   0.672
 5969SOL     OW18805   5.050   1.301   6.431
 5969SOL    HW118806   5.076   1.207   6.454
 5969SOL    HW218807   4.956   1.317   6.462
 5970SOL     OW18808   0.453   4.095   0.561
 5970SOL    HW118809   0.394   4.141   0.494
 5970SOL    HW218810   0.543   4.138   0.562
 5971SOL     OW18811   6.153   0.168   1.782
 5971SOL    HW118812   6.062   0.153   1.745
 5971SOL    HW218813   6.177   0.093   1.843
 5972SOL     OW18814   5.356   5.515   6.463
 5972SOL    HW118815   5.312   5.580   6.525
 5972SOL    HW218816   5.322   5.529   6.370
 5973SOL     OW18817   2.004   3.493   2.646
 5973SOL    HW118818   1.965   3.583   2.626
 5973SOL    HW218819   1.964   3.424   2.586
 5974SOL     OW18820   4.999   0.492   0.172
 5974SOL    HW118821   4.950   0.453   0.250
 5974SOL    HW218822   5.090   0.452   0.166
 5975SOL     OW18823   4.742   5.662   1.556
 5975SOL    HW118824   4.674   5.590   1.552
 5975SOL    HW218825   4.698   5.747   1.586
 5976SOL     OW18826   3.318   3.462   5.839
 5976SOL    HW118827   3.305   3.448   5.937
 5976SOL    HW218828   3.373   3.545   5.824
 5977SOL     OW18829   0.718   5.727   0.297
 5977SOL    HW118830   0.807   5.710   0.340
 5977SOL    HW218831   0.732   5.776   0.211
 5978SOL     OW18832   3.799   5.250   1.049
 5978SOL    HW118833   3.866   5.308   1.003
 5978SOL    HW218834   3.764   5.295   1.130
 5979SOL     OW18835   6.033   0.995   2.255
 5979SOL    HW118836   6.020   0.999   2.156
 5979SOL    HW218837   6.090   1.072   2.284
 5980SOL     OW18838   3.536   2.828   2.035
 5980SOL    HW118839   3.562   2.736   2.063
 5980SOL    HW218840   3.576   2.895   2.098
 5981SOL     OW18841   5.112   1.704   0.258
 5981SOL    HW118842   5.081   1.617   0.296
 5981SOL    HW218843   5.036   1.769   0.256
 5982SOL     OW18844   5.882   2.148   2.702
 5982SOL    HW118845   5.885   2.082   2.626
 5982SOL    HW218846   5.829   2.228   2.674
 5983SOL     OW18847   1.293   0.648   3.909
 5983SOL    HW118848   1.198   0.659   3.940
 5983SOL    HW218849   1.312   0.715   3.837
 5984SOL     OW18850   5.693   6.180   3.848
 5984SOL    HW118851   5.635   6.222   3.778
 5984SOL    HW218852   5.698   6.081   3.831
 5985SOL     OW18853   6.499   2.401   3.502
 5985SOL    HW118854   6.485   2.460   3.581
 5985SOL    HW218855   6.492   2.456   3.418
 5986SOL     OW18856   4.020   4.064   6.030
 5986SOL    HW118857   3.974   4.153   6.020
 5986SOL    HW218858   4.116   4.074   6.003
 5987SOL     OW18859   5.992   0.731   4.208
 5987SOL    HW118860   5.976   0.810   4.267
 5987SOL    HW218861   5.904   0.690   4.183
 5988SOL     OW18862   3.626   1.051   6.420
 5988SOL    HW118863   3.592   1.114   6.490
 5988SOL    HW218864   3.714   1.013   6.447
 5989SOL     OW18865   1.998   5.854   5.924
 5989SOL    HW118866   2.060   5.912   5.872
 5989SOL    HW218867   2.023   5.856   6.021
 5990SOL     OW18868   3.691   3.787   0.952
 5990SOL    HW118869   3.753   3.839   0.892
 5990SOL    HW218870   3.743   3.750   1.029
 5991SOL     OW18871   4.287   5.724   0.027
 5991SOL    HW118872   4.221   5.703   6.980
 5991SOL    HW218873   4.259   5.678   0.111
 5992SOL     OW18874   2.951   7.018   2.605
 5992SOL    HW118875   2.989   0.075   2.648
 5992SOL    HW218876   3.023   6.972   2.553
 5993SOL     OW18877   5.635   4.355   6.279
 5993SOL    HW118878   5.723   4.359   6.232
 5993SOL    HW218879   5.561   4.378   6.215
 5994SOL     OW18880   7.019   2.726   1.151
 5994SOL    HW118881   0.071   2.674   1.188
 5994SOL    HW218882   6.937   2.707   1.205
 5995SOL     OW18883   4.306   3.135   1.744
 5995SOL    HW118884   4.394   3.108   1.784
 5995SOL    HW218885   4.236   3.069   1.772
 5996SOL     OW18886   1.797   5.801   1.641
 5996SOL    HW118887   1.870   5.841   1.695
 5996SOL    HW218888   1.758   5.871   1.581
 5997SOL     OW18889   0.292   6.731   3.688
 5997SOL    HW118890   0.319   6.815   3.735
 5997SOL    HW218891   0.335   6.728   3.598
 5998SOL     OW18892   5.631   0.829   1.664
 5998SOL    HW118893   5.727   0.833   1.634
 5998SOL    HW218894   5.580   0.904   1.622
 5999SOL     OW18895   3.213   3.349   0.944
 5999SOL    HW118896   3.268   3.406   1.004
 5999SOL    HW218897   3.271   3.314   0.869
 6000SOL     OW18898   0.181   6.040   0.014
 6000SOL    HW118899   0.140   5.979   6.971
 6000SOL    HW218900   0.113   6.107   0.043
 6001SOL     OW18901   5.518   5.419   0.079
 6001SOL    HW118902   5.495   5.376   0.167
 6001SOL    HW218903   5.543   5.349   0.013
 6002SOL     OW18904   6.865   0.074   5.709
 6002SOL    HW118905   6.789   0.113   5.657
 6002SOL    HW218906   6.835   0.051   5.801
 6003SOL     OW18907   6.277   2.817   4.466
 6003SOL    HW118908   6.220   2.859   4.395
 6003SOL    HW218909   6.254   2.859   4.554
 6004SOL     OW18910   6.112   2.578   3.276
 6004SOL    HW118911   6.144   2.664   3.237
 6004SOL    HW218912   6.029   2.595   3.330
 6005SOL     OW18913   5.643   4.792   5.140
 6005SOL    HW118914   5.698   4.741   5.206
 6005SOL    HW218915   5.671   4.769   5.047
 6006SOL     OW18916   3.389   0.152   5.132
 6006SOL    HW118917   3.417   0.175   5.039
 6006SOL    HW218918   3.289   0.141   5.135
 6007SOL     OW18919   6.916   2.973   6.608
 6007SOL    HW118920   6.870   2.958   6.520
 6007SOL    HW218921   6.870   3.048   6.657
 6008SOL     OW18922   1.971   4.555   5.497
 6008SOL    HW118923   2.012   4.608   5.571
 6008SOL    HW218924   1.873   4.545   5.512
 6009SOL     OW18925   4.667   5.614   3.480
 6009SOL    HW118926   4.758   5.655   3.485
 6009SOL    HW218927   4.599   5.683   3.504
 6010SOL     OW18928   0.300   3.959   3.757
 6010SOL    HW118929   0.243   3.997   3.830
 6010SOL    HW218930   0.246   3.891   3.706
 6011SOL     OW18931   4.744   2.710   2.546
 6011SOL    HW118932   4.702   2.625   2.514
 6011SOL    HW218933   4.701   2.738   2.632
 6012SOL     OW18934   6.060   0.631   6.996
 6012SOL    HW118935   6.062   0.662   6.901
 6012SOL    HW218936   6.004   0.693   0.026
 6013SOL     OW18937   4.779   1.168   2.537
 6013SOL    HW118938   4.858   1.230   2.542
 6013SOL    HW218939   4.750   1.159   2.442
 6014SOL     OW18940   3.193   3.585   4.058
 6014SOL    HW118941   3.219   3.589   4.155
 6014SOL    HW218942   3.110   3.530   4.048
 6015SOL     OW18943   5.998   3.556   4.629
 6015SOL    HW118944   5.954   3.605   4.554
 6015SOL    HW218945   6.081   3.512   4.596
 6016SOL     OW18946   5.131   1.757   5.714
 6016SOL    HW118947   5.222   1.798   5.721
 6016SOL    HW218948   5.117   1.724   5.621
 6017SOL     OW18949   0.265   4.348   5.143
 6017SOL    HW118950   0.321   4.318   5.066
 6017SOL    HW218951   0.172   4.312   5.133
 6018SOL     OW18952   3.180   1.207   4.608
 6018SOL    HW118953   3.137   1.130   4.562
 6018SOL    HW218954   3.127   1.290   4.591
 6019SOL     OW18955   1.057   3.510   6.026
 6019SOL    HW118956   1.098   3.437   5.971
 6019SOL    HW218957   1.083   3.599   5.989
 6020SOL     OW18958   1.056   5.206   1.037
 6020SOL    HW118959   1.117   5.134   1.072
 6020SOL    HW218960   1.103   5.258   0.966
 6021SOL     OW18961   4.671   0.044   2.803
 6021SOL    HW118962   4.599   0.076   2.741
 6021SOL    HW218963   4.661   0.091   2.891
 6022SOL     OW18964   6.757   1.500   3.516
 6022SOL    HW118965   6.816   1.563   3.465
 6022SOL    HW218966   6.774   1.406   3.485
 6023SOL     OW18967   5.354   0.017   1.237
 6023SOL    HW118968   5.440   7.016   1.282
 6023SOL    HW218969   5.368   0.100   1.184
 6024SOL     OW18970   0.558   4.891   0.258
 6024SOL    HW118971   0.508   4.976   0.266
 6024SOL    HW218972   0.582   4.856   0.349
 6025SOL     OW18973   3.043   0.849   3.601
 6025SOL    HW118974   3.136   0.812   3.591
 6025SOL    HW218975   3.032   0.927   3.540
 6026SOL     OW18976   6.516   5.097   4.925
 6026SOL    HW118977   6.516   5.012   4.977
 6026SOL    HW218978   6.430   5.106   4.875
 6027SOL     OW18979   6.433   3.721   5.950
 6027SOL    HW118980   6.495   3.704   5.873
 6027SOL    HW218981   6.405   3.634   5.990
 6028SOL     OW18982   5.203   4.954   1.282
 6028SOL    HW118983   5.285   5.008   1.297
 6028SOL    HW218984   5.147   4.955   1.365
 6029SOL     OW18985   2.050   0.024   3.503
 6029SOL    HW118986   2.046   0.110   3.451
 6029SOL    HW218987   2.016   6.975   3.446
 6030SOL     OW18988   4.914   3.524   4.722
 6030SOL    HW118989   4.849   3.522   4.799
 6030SOL    HW218990   4.961   3.436   4.716
 6031SOL     OW18991   1.891   5.612   4.089
 6031SOL    HW118992   1.869   5.566   4.003
 6031SOL    HW218993   1.818   5.595   4.156
 6032SOL     OW18994   2.444   5.218   2.949
 6032SOL    HW118995   2.520   5.191   2.889
 6032SOL    HW218996   2.405   5.136   2.991
 6033SOL     OW18997   2.330   2.769   2.537
 6033SOL    HW118998   2.383   2.723   2.609
 6033SOL    HW218999   2.320   2.866   2.560
 6034SOL     OW19000   0.911   0.295   6.731
 6034SOL    HW119001   0.975   0.339   6.668
 6034SOL    HW219002   0.852   0.365   6.772
 6035SOL     OW19003   0.853   0.735   2.616
 6035SOL    HW119004   0.810   0.663   2.670
 6035SOL    HW219005   0.813   0.824   2.639
 6036SOL     OW19006   6.043   4.699   1.472
 6036SOL    HW119007   6.118   4.648   1.514
 6036SOL    HW219008   5.974   4.721   1.540
 6037SOL     OW19009   3.975   0.540   0.821
 6037SOL    HW119010   4.067   0.578   0.814
 6037SOL    HW219011   3.913   0.594   0.764
 6038SOL     OW19012   0.571   2.397   6.737
 6038SOL    HW119013   0.512   2.362   6.810
 6038SOL    HW219014   0.605   2.321   6.682
 6039SOL     OW19015   3.884   3.940   3.961
 6039SOL    HW119016   3.843   3.928   3.870
 6039SOL    HW219017   3.982   3.954   3.952
 6040SOL     OW19018   1.598   1.108   0.107
 6040SOL    HW119019   1.532   1.170   0.149
 6040SOL    HW219020   1.565   1.079   0.018
 6041SOL     OW19021   3.358   2.665   5.281
 6041SOL    HW119022   3.389   2.742   5.225
 6041SOL    HW219023   3.304   2.602   5.225
 6042SOL     OW19024   3.843   6.445   3.177
 6042SOL    HW119025   3.873   6.424   3.084
 6042SOL    HW219026   3.790   6.368   3.214
 6043SOL     OW19027   0.955   0.474   4.125
 6043SOL    HW119028   0.955   0.456   4.027
 6043SOL    HW219029   1.049   0.479   4.158
 6044SOL     OW19030   2.178   2.487   2.276
 6044SOL    HW119031   2.252   2.441   2.326
 6044SOL    HW219032   2.101   2.424   2.266
 6045SOL     OW19033   4.892   3.130   3.831
 6045SOL    HW119034   4.975   3.142   3.886
 6045SOL    HW219035   4.817   3.100   3.889
 6046SOL     OW19036   3.113   2.678   1.004
 6046SOL    HW119037   3.105   2.699   0.907
 6046SOL    HW219038   3.135   2.761   1.055
 6047SOL     OW19039   5.369   2.369   1.201
 6047SOL    HW119040   5.269   2.370   1.201
 6047SOL    HW219041   5.401   2.276   1.184
 6048SOL     OW19042   5.100   5.705   5.218
 6048SOL    HW119043   5.039   5.785   5.216
 6048SOL    HW219044   5.099   5.660   5.129
 6049SOL     OW19045   5.865   4.407   6.144
 6049SOL    HW119046   5.875   4.451   6.054
 6049SOL    HW219047   5.871   4.476   6.216
 6050SOL     OW19048   2.582   5.219   0.774
 6050SOL    HW119049   2.554   5.125   0.794
 6050SOL    HW219050   2.656   5.218   0.708
 6051SOL     OW19051   1.747   0.345   2.980
 6051SOL    HW119052   1.670   0.303   2.932
 6051SOL    HW219053   1.730   0.342   3.078
 6052SOL     OW19054   5.157   0.966   1.534
 6052SOL    HW119055   5.153   1.056   1.578
 6052SOL    HW219056   5.073   0.915   1.554
 6053SOL     OW19057   3.850   0.484   6.355
 6053SOL    HW119058   3.818   0.444   6.440
 6053SOL    HW219059   3.773   0.528   6.308
 6054SOL     OW19060   3.418   4.913   0.823
 6054SOL    HW119061   3.372   4.950   0.904
 6054SOL    HW219062   3.458   4.988   0.771
 6055SOL     OW19063   3.400   5.785   6.374
 6055SOL    HW119064   3.397   5.692   6.335
 6055SOL    HW219065   3.362   5.849   6.307
 6056SOL     OW19066   5.770   2.874   4.960
 6056SOL    HW119067   5.700   2.938   4.928
 6056SOL    HW219068   5.728   2.806   5.020
 6057SOL     OW19069   5.880   0.741   2.023
 6057SOL    HW119070   5.973   0.752   1.988
 6057SOL    HW219071   5.815   0.763   1.951
 6058SOL     OW19072   5.250   3.492   0.162
 6058SOL    HW119073   5.346   3.498   0.137
 6058SOL    HW219074   5.226   3.396   0.181
 6059SOL     OW19075   5.095   4.191   5.380
 6059SOL    HW119076   5.175   4.227   5.429
 6059SOL    HW219077   5.118   4.103   5.339
 6060SOL     OW19078   2.974   3.077   7.008
 6060SOL    HW119079   2.937   2.991   6.973
 6060SOL    HW219080   2.916   3.109   0.058
 6061SOL     OW19081   4.601   4.506   0.566
 6061SOL    HW119082   4.634   4.413   0.585
 6061SOL    HW219083   4.502   4.503   0.554
 6062SOL     OW19084   2.425   1.934   6.517
 6062SOL    HW119085   2.479   1.850   6.526
 6062SOL    HW219086   2.437   1.971   6.425
 6063SOL     OW19087   3.388   4.203   5.797
 6063SOL    HW119088   3.452   4.272   5.763
 6063SOL    HW219089   3.347   4.235   5.882
 6064SOL     OW19090   0.728   0.372   1.085
 6064SOL    HW119091   0.699   0.296   1.144
 6064SOL    HW219092   0.801   0.423   1.130
 6065SOL     OW19093   0.653   5.750   1.873
 6065SOL    HW119094   0.585   5.710   1.812
 6065SOL    HW219095   0.631   5.846   1.890
 6066SOL     OW19096   5.366   0.827   4.326
 6066SOL    HW119097   5.366   0.735   4.286
 6066SOL    HW219098   5.340   0.820   4.423
 6067SOL     OW19099   4.942   1.526   5.430
 6067SOL    HW119100   4.923   1.497   5.336
 6067SOL    HW219101   4.961   1.446   5.486
 6068SOL     OW19102   5.098   2.520   4.457
 6068SOL    HW119103   5.008   2.561   4.465
 6068SOL    HW219104   5.119   2.468   4.541
 6069SOL     OW19105   6.666   3.997   5.848
 6069SOL    HW119106   6.723   3.919   5.822
 6069SOL    HW219107   6.570   3.976   5.829
 6070SOL     OW19108   3.462   2.488   1.463
 6070SOL    HW119109   3.543   2.430   1.452
 6070SOL    HW219110   3.470   2.567   1.402
 6071SOL     OW19111   0.661   5.514   4.466
 6071SOL    HW119112   0.749   5.472   4.443
 6071SOL    HW219113   0.670   5.568   4.549
 6072SOL     OW19114   6.886   1.288   1.789
 6072SOL    HW119115   6.867   1.221   1.718
 6072SOL    HW219116   6.804   1.340   1.809
 6073SOL     OW19117   4.712   2.779   0.820
 6073SOL    HW119118   4.708   2.734   0.910
 6073SOL    HW219119   4.806   2.777   0.787
 6074SOL     OW19120   1.660   0.039   2.111
 6074SOL    HW119121   1.668   6.978   2.162
 6074SOL    HW219122   1.624   0.020   2.019
 6075SOL     OW19123   4.942   0.798   5.417
 6075SOL    HW119124   4.921   0.732   5.345
 6075SOL    HW219125   4.997   0.754   5.488
 6076SOL     OW19126   2.520   5.328   3.218
 6076SOL    HW119127   2.466   5.304   3.299
 6076SOL    HW219128   2.487   5.276   3.139
 6077SOL     OW19129   5.498   6.255   0.964
 6077SOL    HW119130   5.477   6.158   0.978
 6077SOL    HW219131   5.559   6.265   0.885
 6078SOL     OW19132   4.440   4.675   0.793
 6078SOL    HW119133   4.387   4.653   0.711
 6078SOL    HW219134   4.531   4.707   0.767
 6079SOL     OW19135   5.049   5.044   6.011
 6079SOL    HW119136   5.007   4.990   5.937
 6079SOL    HW219137   4.977   5.087   6.065
 6080SOL     OW19138   0.522   5.012   1.863
 6080SOL    HW119139   0.426   4.998   1.886
 6080SOL    HW219140   0.551   5.102   1.895
 6081SOL     OW19141   6.599   3.446   5.417
 6081SOL    HW119142   6.504   3.416   5.412
 6081SOL    HW219143   6.659   3.367   5.433
 6082SOL     OW19144   3.226   6.539   2.466
 6082SOL    HW119145   3.131   6.569   2.476
 6082SOL    HW219146   3.241   6.456   2.519
 6083SOL     OW19147   5.477   5.582   0.785
 6083SOL    HW119148   5.573   5.595   0.760
 6083SOL    HW219149   5.461   5.623   0.874
 6084SOL     OW19150   0.963   6.587   2.163
 6084SOL    HW119151   1.015   6.501   2.168
 6084SOL    HW219152   0.888   6.577   2.097
 6085SOL     OW19153   6.268   6.044   6.218
 6085SOL    HW119154   6.358   6.013   6.246
 6085SOL    HW219155   6.208   5.964   6.207
 6086SOL     OW19156   2.927   2.267   5.790
 6086SOL    HW119157   2.961   2.326   5.717
 6086SOL    HW219158   2.890   2.183   5.751
 6087SOL     OW19159   4.033   5.632   1.177
 6087SOL    HW119160   4.049   5.605   1.082
 6087SOL    HW219161   4.067   5.725   1.192
 6088SOL     OW19162   5.674   6.666   5.472
 6088SOL    HW119163   5.725   6.715   5.543
 6088SOL    HW219164   5.688   6.712   5.384
 6089SOL     OW19165   6.631   2.794   2.721
 6089SOL    HW119166   6.628   2.884   2.765
 6089SOL    HW219167   6.716   2.784   2.671
 6090SOL     OW19168   2.818   5.226   4.606
 6090SOL    HW119169   2.819   5.235   4.507
 6090SOL    HW219170   2.856   5.137   4.632
 6091SOL     OW19171   3.245   1.535   0.522
 6091SOL    HW119172   3.153   1.566   0.544
 6091SOL    HW219173   3.310   1.609   0.538
 6092SOL     OW19174   3.903   0.898   1.920
 6092SOL    HW119175   3.997   0.864   1.925
 6092SOL    HW219176   3.870   0.918   2.013
 6093SOL     OW19177   2.507   2.575   2.069
 6093SOL    HW119178   2.444   2.604   2.140
 6093SOL    HW219179   2.515   2.647   2.000
 6094SOL     OW19180   1.479   6.190   3.704
 6094SOL    HW119181   1.444   6.271   3.750
 6094SOL    HW219182   1.422   6.170   3.624
 6095SOL     OW19183   4.769   5.050   6.389
 6095SOL    HW119184   4.754   5.062   6.487
 6095SOL    HW219185   4.740   4.958   6.362
 6096SOL     OW19186   5.303   6.866   2.098
 6096SOL    HW119187   5.321   6.954   2.141
 6096SOL    HW219188   5.258   6.805   2.164
 6097SOL     OW19189   1.958   5.347   1.976
 6097SOL    HW119190   1.896   5.330   1.900
 6097SOL    HW219191   1.964   5.265   2.033
 6098SOL     OW19192   6.573   1.019   6.226
 6098SOL    HW119193   6.501   1.071   6.179
 6098SOL    HW219194   6.571   0.924   6.195
 6099SOL     OW19195   4.987   5.835   5.575
 6099SOL    HW119196   4.914   5.811   5.511
 6099SOL    HW219197   4.964   5.802   5.666
 6100SOL     OW19198   0.356   6.173   2.048
 6100SOL    HW119199   0.347   6.227   1.964
 6100SOL    HW219200   0.430   6.211   2.104
 6101SOL     OW19201   6.427   2.824   2.564
 6101SOL    HW119202   6.394   2.737   2.530
 6101SOL    HW219203   6.497   2.808   2.634
 6102SOL     OW19204   3.947   6.080   2.827
 6102SOL    HW119205   3.855   6.050   2.802
 6102SOL    HW219206   3.998   6.103   2.744
 6103SOL     OW19207   6.922   0.944   1.356
 6103SOL    HW119208   7.007   0.893   1.342
 6103SOL    HW219209   6.926   1.029   1.304
 6104SOL     OW19210   6.078   0.214   5.349
 6104SOL    HW119211   6.002   0.257   5.301
 6104SOL    HW219212   6.151   0.192   5.283
 6105SOL     OW19213   2.059   5.301   5.866
 6105SOL    HW119214   2.126   5.227   5.865
 6105SOL    HW219215   2.102   5.385   5.833
 6106SOL     OW19216   1.037   5.125   0.176
 6106SOL    HW119217   1.080   5.055   0.233
 6106SOL    HW219218   1.089   5.134   0.090
 6107SOL     OW19219   4.682   5.276   4.581
 6107SOL    HW119220   4.745   5.311   4.650
 6107SOL    HW219221   4.666   5.179   4.596
 6108SOL     OW19222   1.756   2.676   2.944
 6108SOL    HW119223   1.704   2.677   2.859
 6108SOL    HW219224   1.694   2.653   3.020
 6109SOL     OW19225   5.417   1.048   5.048
 6109SOL    HW119226   5.351   1.083   5.114
 6109SOL    HW219227   5.461   0.966   5.086
 6110SOL     OW19228   1.957   3.035   0.105
 6110SOL    HW119229   1.994   3.088   0.029
 6110SOL    HW219230   2.011   2.952   0.117
 6111SOL     OW19231   1.058   3.263   1.977
 6111SOL    HW119232   1.118   3.256   1.898
 6111SOL    HW219233   1.107   3.235   2.059
 6112SOL     OW19234   4.219   0.101   2.421
 6112SOL    HW119235   4.142   0.053   2.465
 6112SOL    HW219236   4.221   0.196   2.454
 6113SOL     OW19237   2.387   3.079   6.662
 6113SOL    HW119238   2.364   3.112   6.570
 6113SOL    HW219239   2.377   3.153   6.727
 6114SOL     OW19240   4.941   3.575   2.611
 6114SOL    HW119241   4.993   3.564   2.527
 6114SOL    HW219242   4.858   3.518   2.607
 6115SOL     OW19243   6.565   1.600   5.089
 6115SOL    HW119244   6.580   1.652   5.173
 6115SOL    HW219245   6.631   1.627   5.020
 6116SOL     OW19246   4.088   2.229   5.543
 6116SOL    HW119247   4.033   2.307   5.572
 6116SOL    HW219248   4.184   2.245   5.568
 6117SOL     OW19249   1.705   2.403   3.077
 6117SOL    HW119250   1.771   2.478   3.071
 6117SOL    HW219251   1.616   2.433   3.041
 6118SOL     OW19252   5.972   1.140   1.494
 6118SOL    HW119253   5.979   1.044   1.467
 6118SOL    HW219254   5.877   1.171   1.483
 6119SOL     OW19255   1.000   3.178   0.534
 6119SOL    HW119256   0.933   3.129   0.591
 6119SOL    HW219257   0.951   3.233   0.466
 6120SOL     OW19258   2.072   6.858   4.880
 6120SOL    HW119259   1.991   6.849   4.938
 6120SOL    HW219260   2.151   6.881   4.937
 6121SOL     OW19261   0.973   4.027   5.576
 6121SOL    HW119262   0.912   3.952   5.552
 6121SOL    HW219263   0.923   4.113   5.575
 6122SOL     OW19264   4.932   5.205   6.200
 6122SOL    HW119265   4.876   5.288   6.188
 6122SOL    HW219266   4.883   5.140   6.258
 6123SOL     OW19267   5.234   0.663   5.527
 6123SOL    HW119268   5.170   0.603   5.479
 6123SOL    HW219269   5.293   0.608   5.588
 6124SOL     OW19270   0.205   6.727   5.836
 6124SOL    HW119271   0.251   6.788   5.771
 6124SOL    HW219272   0.248   6.637   5.833
 6125SOL     OW19273   2.685   4.166   6.768
 6125SOL    HW119274   2.735   4.221   6.836
 6125SOL    HW219275   2.743   4.148   6.690
 6126SOL     OW19276   0.864   1.969   5.178
 6126SOL    HW119277   0.828   2.062   5.170
 6126SOL    HW219278   0.936   1.967   5.248
 6127SOL     OW19279   3.995   0.152   1.602
 6127SOL    HW119280   3.983   0.091   1.524
 6127SOL    HW219281   3.954   0.240   1.581
 6128SOL     OW19282   5.273   5.131   0.937
 6128SOL    HW119283   5.261   5.034   0.957
 6128SOL    HW219284   5.238   5.185   1.014
 6129SOL     OW19285   1.186   3.604   4.126
 6129SOL    HW119286   1.245   3.637   4.052
 6129SOL    HW219287   1.218   3.640   4.213
 6130SOL     OW19288   5.875   2.302   3.048
 6130SOL    HW119289   5.926   2.219   3.024
 6130SOL    HW219290   5.934   2.363   3.100
 6131SOL     OW19291   1.074   1.771   2.713
 6131SOL    HW119292   1.139   1.809   2.779
 6131SOL    HW219293   1.105   1.681   2.683
 6132SOL     OW19294   3.815   1.894   6.725
 6132SOL    HW119295   3.763   1.810   6.732
 6132SOL    HW219296   3.753   1.973   6.730
 6133SOL     OW19297   1.772   2.976   3.294
 6133SOL    HW119298   1.699   3.039   3.321
 6133SOL    HW219299   1.802   2.997   3.201
 6134SOL     OW19300   4.118   6.649   6.941
 6134SOL    HW119301   4.066   6.658   0.001
 6134SOL    HW219302   4.056   6.648   6.863
 6135SOL     OW19303   6.980   5.726   0.814
 6135SOL    HW119304   0.017   5.723   0.892
 6135SOL    HW219305   6.886   5.736   0.847
 6136SOL     OW19306   1.367   2.829   1.649
 6136SOL    HW119307   1.341   2.734   1.630
 6136SOL    HW219308   1.463   2.843   1.625
 6137SOL     OW19309   0.766   3.683   2.533
 6137SOL    HW119310   0.842   3.739   2.566
 6137SOL    HW219311   0.683   3.707   2.583
 6138SOL     OW19312   3.842   6.913   3.240
 6138SOL    HW119313   3.901   6.988   3.268
 6138SOL    HW219314   3.809   6.931   3.147
 6139SOL     OW19315   0.503   6.802   5.696
 6139SOL    HW119316   0.447   6.760   5.625
 6139SOL    HW219317   0.519   6.736   5.769
 6140SOL     OW19318   0.515   1.195   2.912
 6140SOL    HW119319   0.604   1.160   2.942
 6140SOL    HW219320   0.523   1.294   2.896
 6141SOL     OW19321   0.597   0.415   6.318
 6141SOL    HW119322   0.602   0.321   6.284
 6141SOL    HW219323   0.689   0.454   6.321
 6142SOL     OW19324   0.946   6.692   6.361
 6142SOL    HW119325   0.988   6.775   6.397
 6142SOL    HW219326   0.889   6.650   6.432
 6143SOL     OW19327   0.042   4.260   0.800
 6143SOL    HW119328   0.044   4.291   0.895
 6143SOL    HW219329   0.110   4.311   0.747
 6144SOL     OW19330   4.762   4.908   3.271
 6144SOL    HW119331   4.693   4.930   3.202
 6144SOL    HW219332   4.791   4.993   3.317
 6145SOL     OW19333   5.765   4.755   4.431
 6145SOL    HW119334   5.746   4.805   4.347
 6145SOL    HW219335   5.823   4.810   4.491
 6146SOL     OW19336   3.463   5.975   3.704
 6146SOL    HW119337   3.518   6.018   3.776
 6146SOL    HW219338   3.401   6.043   3.664
 6147SOL     OW19339   2.052   2.538   4.683
 6147SOL    HW119340   2.142   2.549   4.641
 6147SOL    HW219341   2.047   2.594   4.766
 6148SOL     OW19342   3.825   5.505   6.321
 6148SOL    HW119343   3.925   5.494   6.316
 6148SOL    HW219344   3.800   5.544   6.409
 6149SOL     OW19345   2.123   0.148   1.933
 6149SOL    HW119346   2.046   0.152   1.998
 6149SOL    HW219347   2.102   0.082   1.861
 6150SOL     OW19348   6.331   3.826   6.728
 6150SOL    HW119349   6.259   3.880   6.772
 6150SOL    HW219350   6.298   3.791   6.641
 6151SOL     OW19351   5.443   5.289   4.445
 6151SOL    HW119352   5.379   5.335   4.383
 6151SOL    HW219353   5.467   5.199   4.408
 6152SOL     OW19354   1.232   5.442   4.558
 6152SOL    HW119355   1.312   5.386   4.538
 6152SOL    HW219356   1.192   5.414   4.646
 6153SOL     OW19357   4.847   5.085   1.244
 6153SOL    HW119358   4.907   5.124   1.175
 6153SOL    HW219359   4.837   5.150   1.319
 6154SOL     OW19360   5.459   3.104   2.814
 6154SOL    HW119361   5.554   3.073   2.826
 6154SOL    HW219362   5.451   3.150   2.725
 6155SOL     OW19363   3.005   1.393   2.761
 6155SOL    HW119364   3.042   1.328   2.828
 6155SOL    HW219365   2.931   1.445   2.803
 6156SOL     OW19366   4.346   4.709   2.065
 6156SOL    HW119367   4.248   4.703   2.079
 6156SOL    HW219368   4.378   4.630   2.013
 6157SOL     OW19369   1.026   2.126   3.085
 6157SOL    HW119370   0.993   2.179   3.007
 6157SOL    HW219371   0.958   2.057   3.110
 6158SOL     OW19372   3.296   2.138   0.197
 6158SOL    HW119373   3.347   2.069   0.249
 6158SOL    HW219374   3.348   2.224   0.196
 6159SOL     OW19375   4.996   2.775   0.740
 6159SOL    HW119376   5.013   2.697   0.680
 6159SOL    HW219377   5.067   2.844   0.724
 6160SOL     OW19378   6.916   0.152   6.669
 6160SOL    HW119379   6.937   0.114   6.579
 6160SOL    HW219380   6.817   0.164   6.677
 6161SOL     OW19381   5.053   0.849   0.403
 6161SOL    HW119382   5.103   0.882   0.323
 6161SOL    HW219383   5.071   0.909   0.481
 6162SOL     OW19384   6.207   6.120   3.732
 6162SOL    HW119385   6.113   6.152   3.720
 6162SOL    HW219386   6.246   6.098   3.642
 6163SOL     OW19387   5.430   5.870   2.492
 6163SOL    HW119388   5.418   5.863   2.591
 6163SOL    HW219389   5.481   5.791   2.458
 6164SOL     OW19390   3.552   4.088   4.827
 6164SOL    HW119391   3.619   4.018   4.851
 6164SOL    HW219392   3.507   4.120   4.910
 6165SOL     OW19393   3.505   1.954   5.553
 6165SOL    HW119394   3.446   2.012   5.497
 6165SOL    HW219395   3.594   1.944   5.508
 6166SOL     OW19396   6.042   1.934   0.232
 6166SOL    HW119397   6.015   2.022   0.192
 6166SOL    HW219398   6.117   1.948   0.296
 6167SOL     OW19399   0.373   4.828   3.366
 6167SOL    HW119400   0.276   4.815   3.350
 6167SOL    HW219401   0.416   4.740   3.387
 6168SOL     OW19402   0.917   2.712   3.189
 6168SOL    HW119403   1.008   2.671   3.194
 6168SOL    HW219404   0.865   2.687   3.271
 6169SOL     OW19405   0.942   1.147   6.646
 6169SOL    HW119406   1.000   1.216   6.602
 6169SOL    HW219407   0.847   1.161   6.618
 6170SOL     OW19408   3.020   3.934   5.443
 6170SOL    HW119409   2.983   4.027   5.440
 6170SOL    HW219410   2.991   3.885   5.360
 6171SOL     OW19411   1.533   3.392   1.369
 6171SOL    HW119412   1.573   3.475   1.330
 6171SOL    HW219413   1.487   3.340   1.298
 6172SOL     OW19414   0.393   0.857   2.554
 6172SOL    HW119415   0.343   0.919   2.614
 6172SOL    HW219416   0.491   0.874   2.561
 6173SOL     OW19417   6.902   4.728   2.728
 6173SOL    HW119418   6.892   4.684   2.817
 6173SOL    HW219419   6.927   4.824   2.742
 6174SOL     OW19420   5.994   5.240   3.058
 6174SOL    HW119421   6.022   5.324   3.011
 6174SOL    HW219422   6.022   5.161   3.004
 6175SOL     OW19423   5.361   0.197   3.968
 6175SOL    HW119424   5.398   0.157   3.884
 6175SOL    HW219425   5.262   0.183   3.971
 6176SOL     OW19426   6.183   2.818   6.935
 6176SOL    HW119427   6.104   2.758   6.951
 6176SOL    HW219428   6.186   2.843   6.838
 6177SOL     OW19429   5.860   1.327   1.125
 6177SOL    HW119430   5.949   1.291   1.097
 6177SOL    HW219431   5.788   1.280   1.073
 6178SOL     OW19432   4.407   5.396   1.854
 6178SOL    HW119433   4.310   5.413   1.873
 6178SOL    HW219434   4.463   5.449   1.917
 6179SOL     OW19435   6.816   4.378   4.708
 6179SOL    HW119436   6.810   4.383   4.609
 6179SOL    HW219437   6.900   4.424   4.739
 6180SOL     OW19438   3.145   6.557   6.114
 6180SOL    HW119439   3.103   6.645   6.088
 6180SOL    HW219440   3.243   6.561   6.098
 6181SOL     OW19441   5.042   6.420   1.125
 6181SOL    HW119442   5.075   6.334   1.088
 6181SOL    HW219443   4.981   6.463   1.059
 6182SOL     OW19444   5.547   4.013   5.699
 6182SOL    HW119445   5.603   4.017   5.616
 6182SOL    HW219446   5.499   4.100   5.711
 6183SOL     OW19447   2.884   0.026   3.268
 6183SOL    HW119448   2.962   7.007   3.313
 6183SOL    HW219449   2.819   6.981   3.240
 6184SOL     OW19450   1.905   6.524   6.055
 6184SOL    HW119451   1.905   6.554   5.959
 6184SOL    HW219452   1.821   6.473   6.073
 6185SOL     OW19453   1.572   4.759   6.840
 6185SOL    HW119454   1.497   4.812   6.880
 6185SOL    HW219455   1.533   4.688   6.781
 6186SOL     OW19456   6.071   0.048   4.103
 6186SOL    HW119457   6.157   7.025   4.091
 6186SOL    HW219458   6.000   7.008   4.132
 6187SOL     OW19459   4.764   4.153   4.371
 6187SOL    HW119460   4.842   4.212   4.389
 6187SOL    HW219461   4.688   4.208   4.336
 6188SOL     OW19462   2.210   6.526   1.105
 6188SOL    HW119463   2.241   6.447   1.158
 6188SOL    HW219464   2.231   6.511   1.008
 6189SOL     OW19465   4.700   4.444   3.722
 6189SOL    HW119466   4.664   4.471   3.811
 6189SOL    HW219467   4.752   4.359   3.731
 6190SOL     OW19468   6.360   3.811   6.199
 6190SOL    HW119469   6.347   3.910   6.207
 6190SOL    HW219470   6.374   3.787   6.103
 6191SOL     OW19471   4.732   2.587   0.163
 6191SOL    HW119472   4.734   2.500   0.214
 6191SOL    HW219473   4.814   2.594   0.106
 6192SOL     OW19474   3.469   3.263   0.182
 6192SOL    HW119475   3.495   3.176   0.140
 6192SOL    HW219476   3.527   3.280   0.261
 6193SOL     OW19477   5.002   1.167   2.895
 6193SOL    HW119478   5.066   1.135   2.825
 6193SOL    HW219479   4.941   1.093   2.921
 6194SOL     OW19480   1.637   6.663   0.146
 6194SOL    HW119481   1.704   6.659   0.072
 6194SOL    HW219482   1.677   6.711   0.224
 6195SOL     OW19483   3.662   5.443   5.684
 6195SOL    HW119484   3.616   5.527   5.713
 6195SOL    HW219485   3.652   5.432   5.585
 6196SOL     OW19486   5.411   2.104   1.228
 6196SOL    HW119487   5.510   2.086   1.231
 6196SOL    HW219488   5.372   2.060   1.147
 6197SOL     OW19489   4.366   3.953   0.366
 6197SOL    HW119490   4.444   3.930   0.424
 6197SOL    HW219491   4.281   3.933   0.414
 6198SOL     OW19492   3.095   5.435   2.579
 6198SOL    HW119493   3.165   5.368   2.601
 6198SOL    HW219494   3.067   5.425   2.483
 6199SOL     OW19495   0.618   6.869   1.106
 6199SOL    HW119496   0.699   6.863   1.165
 6199SOL    HW219497   0.560   6.944   1.137
 6200SOL     OW19498   1.833   0.893   5.798
 6200SOL    HW119499   1.916   0.919   5.747
 6200SOL    HW219500   1.859   0.854   5.886
 6201SOL     OW19501   1.804   3.833   5.511
 6201SOL    HW119502   1.786   3.916   5.459
 6201SOL    HW219503   1.801   3.854   5.609
 6202SOL     OW19504   4.047   2.105   1.579
 6202SOL    HW119505   4.048   2.205   1.586
 6202SOL    HW219506   3.960   2.070   1.614
 6203SOL     OW19507   5.302   6.837   3.388
 6203SOL    HW119508   5.327   6.929   3.420
 6203SOL    HW219509   5.239   6.845   3.311
 6204SOL     OW19510   0.419   5.114   5.476
 6204SOL    HW119511   0.492   5.160   5.526
 6204SOL    HW219512   0.376   5.178   5.412
 6205SOL     OW19513   5.472   6.299   0.190
 6205SOL    HW119514   5.390   6.296   0.248
 6205SOL    HW219515   5.494   6.207   0.158
 6206SOL     OW19516   6.253   0.558   2.670
 6206SOL    HW119517   6.272   0.566   2.572
 6206SOL    HW219518   6.308   0.484   2.709
 6207SOL     OW19519   1.288   4.338   4.394
 6207SOL    HW119520   1.355   4.276   4.354
 6207SOL    HW219521   1.330   4.388   4.471
 6208SOL     OW19522   6.131   0.780   6.756
 6208SOL    HW119523   6.218   0.797   6.803
 6208SOL    HW219524   6.098   0.866   6.717
 6209SOL     OW19525   4.934   5.641   0.081
 6209SOL    HW119526   4.866   5.569   0.068
 6209SOL    HW219527   5.020   5.601   0.112
 6210SOL     OW19528   6.148   4.954   3.450
 6210SOL    HW119529   6.133   5.049   3.422
 6210SOL    HW219530   6.060   4.912   3.470
 6211SOL     OW19531   3.195   6.759   4.248
 6211SOL    HW119532   3.123   6.802   4.193
 6211SOL    HW219533   3.182   6.660   4.248
 6212SOL     OW19534   2.003   5.173   2.935
 6212SOL    HW119535   2.078   5.237   2.915
 6212SOL    HW219536   2.001   5.102   2.865
 6213SOL     OW19537   5.068   0.245   6.767
 6213SOL    HW119538   4.998   0.268   6.834
 6213SOL    HW219539   5.103   0.329   6.725
 6214SOL     OW19540   5.531   4.772   3.105
 6214SOL    HW119541   5.480   4.805   3.184
 6214SOL    HW219542   5.570   4.682   3.126
 6215SOL     OW19543   4.097   1.936   6.761
 6215SOL    HW119544   4.000   1.954   6.742
 6215SOL    HW219545   4.150   2.018   6.742
 6216SOL     OW19546   0.005   2.629   2.360
 6216SOL    HW119547   0.078   2.666   2.418
 6216SOL    HW219548   0.029   2.537   2.331
 6217SOL     OW19549   6.943   2.860   2.646
 6217SOL    HW119550   0.003   2.836   2.693
 6217SOL    HW219551   6.960   2.933   2.581
 6218SOL     OW19552   3.393   5.390   4.948
 6218SOL    HW119553   3.465   5.321   4.950
 6218SOL    HW219554   3.425   5.471   4.898
 6219SOL     OW19555   1.207   1.891   4.607
 6219SOL    HW119556   1.157   1.977   4.609
 6219SOL    HW219557   1.225   1.860   4.701
 6220SOL     OW19558   1.023   3.292   5.513
 6220SOL    HW119559   0.982   3.333   5.432
 6220SOL    HW219560   1.079   3.361   5.561
 6221SOL     OW19561   6.410   6.088   6.521
 6221SOL    HW119562   6.352   6.009   6.543
 6221SOL    HW219563   6.354   6.170   6.516
 6222SOL     OW19564   0.709   6.493   1.208
 6222SOL    HW119565   0.621   6.520   1.247
 6222SOL    HW219566   0.775   6.478   1.282
 6223SOL     OW19567   0.053   4.058   5.008
 6223SOL    HW119568   0.133   3.999   5.013
 6223SOL    HW219569   6.996   4.004   5.028
 6224SOL     OW19570   2.172   1.750   6.304
 6224SOL    HW119571   2.086   1.791   6.273
 6224SOL    HW219572   2.226   1.818   6.353
 6225SOL     OW19573   3.178   2.928   1.100
 6225SOL    HW119574   3.169   2.942   1.199
 6225SOL    HW219575   3.272   2.945   1.071
 6226SOL     OW19576   5.668   2.106   4.797
 6226SOL    HW119577   5.657   2.083   4.894
 6226SOL    HW219578   5.602   2.053   4.743
 6227SOL     OW19579   3.646   5.580   6.117
 6227SOL    HW119580   3.713   5.532   6.174
 6227SOL    HW219581   3.592   5.512   6.066
 6228SOL     OW19582   0.236   3.076   2.453
 6228SOL    HW119583   0.311   3.093   2.516
 6228SOL    HW219584   0.208   3.162   2.411
 6229SOL     OW19585   0.807   2.838   2.407
 6229SOL    HW119586   0.897   2.795   2.394
 6229SOL    HW219587   0.735   2.770   2.389
 6230SOL     OW19588   1.291   1.408   4.115
 6230SOL    HW119589   1.237   1.418   4.199
 6230SOL    HW219590   1.232   1.426   4.036
 6231SOL     OW19591   6.812   4.563   1.573
 6231SOL    HW119592   6.782   4.512   1.492
 6231SOL    HW219593   6.897   4.525   1.607
 6232SOL     OW19594   6.141   2.064   1.033
 6232SOL    HW119595   6.157   2.028   1.125
 6232SOL    HW219596   6.043   2.078   1.019
 6233SOL     OW19597   5.607   1.043   6.908
 6233SOL    HW119598   5.526   1.092   6.875
 6233SOL    HW219599   5.597   1.020   7.004
 6234SOL     OW19600   6.713   1.257   5.559
 6234SOL    HW119601   6.624   1.215   5.575
 6234SOL    HW219602   6.778   1.186   5.529
 6235SOL     OW19603   1.046   0.363   2.028
 6235SOL    HW119604   1.090   0.369   2.118
 6235SOL    HW219605   1.102   0.307   1.967
 6236SOL     OW19606   0.946   4.813   0.584
 6236SOL    HW119607   0.968   4.744   0.516
 6236SOL    HW219608   0.887   4.883   0.544
 6237SOL     OW19609   3.303   6.221   6.741
 6237SOL    HW119610   3.319   6.174   6.654
 6237SOL    HW219611   3.315   6.156   6.816
 6238SOL     OW19612   3.776   4.907   2.986
 6238SOL    HW119613   3.835   4.854   3.047
 6238SOL    HW219614   3.818   4.995   2.966
 6239SOL     OW19615   2.984   6.465   1.907
 6239SOL    HW119616   2.976   6.391   1.840
 6239SOL    HW219617   2.914   6.534   1.890
 6240SOL     OW19618   3.110   2.623   6.541
 6240SOL    HW119619   3.103   2.609   6.442
 6240SOL    HW219620   3.018   2.632   6.580
 6241SOL     OW19621   2.587   0.601   1.983
 6241SOL    HW119622   2.612   0.623   2.077
 6241SOL    HW219623   2.565   0.685   1.933
 6242SOL     OW19624   5.204   0.425   3.514
 6242SOL    HW119625   5.215   0.462   3.421
 6242SOL    HW219626   5.288   0.442   3.566
 6243SOL     OW19627   5.409   6.698   3.595
 6243SOL    HW119628   5.372   6.764   3.530
 6243SOL    HW219629   5.342   6.625   3.611
 6244SOL     OW19630   1.580   2.498   2.239
 6244SOL    HW119631   1.651   2.529   2.302
 6244SOL    HW219632   1.561   2.401   2.254
 6245SOL     OW19633   1.748   5.044   0.997
 6245SOL    HW119634   1.742   4.964   0.938
 6245SOL    HW219635   1.840   5.051   1.035
 6246SOL     OW19636   1.829   2.936   5.958
 6246SOL    HW119637   1.915   2.958   6.003
 6246SOL    HW219638   1.822   2.988   5.873
 6247SOL     OW19639   0.950   6.772   3.776
 6247SOL    HW119640   0.921   6.841   3.710
 6247SOL    HW219641   0.879   6.702   3.785
 6248SOL     OW19642   2.901   4.040   1.131
 6248SOL    HW119643   2.960   4.092   1.069
 6248SOL    HW219644   2.958   3.990   1.196
 6249SOL     OW19645   0.919   4.180   0.321
 6249SOL    HW119646   0.894   4.094   0.276
 6249SOL    HW219647   1.011   4.207   0.292
 6250SOL     OW19648   6.735   6.119   0.246
 6250SOL    HW119649   6.654   6.071   0.215
 6250SOL    HW219650   6.790   6.058   0.304
 6251SOL     OW19651   3.471   6.245   0.110
 6251SOL    HW119652   3.521   6.223   0.194
 6251SOL    HW219653   3.393   6.183   0.100
 6252SOL     OW19654   1.549   6.845   5.760
 6252SOL    HW119655   1.538   6.933   5.713
 6252SOL    HW219656   1.571   6.774   5.693
 6253SOL     OW19657   2.171   3.845   2.592
 6253SOL    HW119658   2.239   3.792   2.541
 6253SOL    HW219659   2.169   3.939   2.557
 6254SOL     OW19660   4.919   1.215   0.735
 6254SOL    HW119661   4.927   1.313   0.750
 6254SOL    HW219662   4.823   1.190   0.721
 6255SOL     OW19663   2.323   1.232   1.490
 6255SOL    HW119664   2.291   1.316   1.445
 6255SOL    HW219665   2.412   1.206   1.451
 6256SOL     OW19666   3.358   5.387   2.859
 6256SOL    HW119667   3.397   5.401   2.768
 6256SOL    HW219668   3.322   5.474   2.894
 6257SOL     OW19669   5.101   2.333   1.105
 6257SOL    HW119670   5.140   2.307   1.016
 6257SOL    HW219671   5.135   2.272   1.176
 6258SOL     OW19672   4.598   0.448   3.537
 6258SOL    HW119673   4.556   0.512   3.472
 6258SOL    HW219674   4.660   0.498   3.597
 6259SOL     OW19675   2.658   2.614   0.673
 6259SOL    HW119676   2.628   2.524   0.642
 6259SOL    HW219677   2.667   2.614   0.772
 6260SOL     OW19678   2.598   4.680   0.052
 6260SOL    HW119679   2.525   4.645   7.019
 6260SOL    HW219680   2.643   4.757   0.008
 6261SOL     OW19681   3.569   0.429   6.576
 6261SOL    HW119682   3.501   0.446   6.505
 6261SOL    HW219683   3.563   0.500   6.646
 6262SOL     OW19684   1.562   4.352   1.135
 6262SOL    HW119685   1.629   4.313   1.072
 6262SOL    HW219686   1.529   4.281   1.198
 6263SOL     OW19687   0.074   0.784   5.821
 6263SOL    HW119688   0.141   0.813   5.889
 6263SOL    HW219689   0.056   0.686   5.831
 6264SOL     OW19690   1.250   0.006   1.016
 6264SOL    HW119691   1.254   6.933   0.997
 6264SOL    HW219692   1.200   0.021   1.102
 6265SOL     OW19693   3.221   4.318   0.831
 6265SOL    HW119694   3.161   4.238   0.840
 6265SOL    HW219695   3.226   4.365   0.919
 6266SOL     OW19696   4.319   0.320   4.592
 6266SOL    HW119697   4.258   0.322   4.672
 6266SOL    HW219698   4.302   0.236   4.541
 6267SOL     OW19699   2.509   0.270   6.946
 6267SOL    HW119700   2.533   0.365   6.967
 6267SOL    HW219701   2.455   0.232   7.021
 6268SOL     OW19702   3.393   6.394   3.316
 6268SOL    HW119703   3.383   6.307   3.268
 6268SOL    HW219704   3.309   6.448   3.306
 6269SOL     OW19705   6.773   5.879   2.121
 6269SOL    HW119706   6.820   5.965   2.140
 6269SOL    HW219707   6.773   5.862   2.023
 6270SOL     OW19708   1.701   6.819   5.303
 6270SOL    HW119709   1.776   6.885   5.312
 6270SOL    HW219710   1.615   6.867   5.287
 6271SOL     OW19711   5.865   2.152   5.639
 6271SOL    HW119712   5.911   2.071   5.677
 6271SOL    HW219713   5.777   2.165   5.686
 6272SOL     OW19714   0.837   2.636   6.230
 6272SOL    HW119715   0.896   2.560   6.258
 6272SOL    HW219716   0.866   2.720   6.277
 6273SOL     OW19717   2.079   0.301   2.609
 6273SOL    HW119718   2.131   0.338   2.533
 6273SOL    HW219719   2.062   0.373   2.676
 6274SOL     OW19720   2.440   5.493   5.769
 6274SOL    HW119721   2.366   5.551   5.804
 6274SOL    HW219722   2.524   5.547   5.760
 6275SOL     OW19723   2.106   6.189   4.996
 6275SOL    HW119724   2.094   6.090   4.987
 6275SOL    HW219725   2.180   6.218   4.935
 6276SOL     OW19726   1.891   5.133   3.979
 6276SOL    HW119727   1.884   5.064   3.907
 6276SOL    HW219728   1.967   5.109   4.040
 6277SOL     OW19729   5.140   3.262   1.365
 6277SOL    HW119730   5.226   3.238   1.319
 6277SOL    HW219731   5.151   3.349   1.413
 6278SOL     OW19732   4.927   6.761   4.448
 6278SOL    HW119733   4.912   6.719   4.537
 6278SOL    HW219734   4.840   6.795   4.411
 6279SOL     OW19735   3.460   0.759   6.530
 6279SOL    HW119736   3.518   0.838   6.548
 6279SOL    HW219737   3.450   0.705   6.613
 6280SOL     OW19738   0.751   2.249   6.062
 6280SOL    HW119739   0.841   2.229   6.022
 6280SOL    HW219740   0.763   2.280   6.156
 6281SOL     OW19741   1.526   5.808   4.375
 6281SOL    HW119742   1.625   5.804   4.365
 6281SOL    HW219743   1.484   5.819   4.285
 6282SOL     OW19744   1.146   0.747   4.707
 6282SOL    HW119745   1.052   0.713   4.707
 6282SOL    HW219746   1.207   0.676   4.671
 6283SOL     OW19747   6.475   3.238   5.767
 6283SOL    HW119748   6.511   3.331   5.779
 6283SOL    HW219749   6.463   3.220   5.669
 6284SOL     OW19750   2.304   5.677   5.128
 6284SOL    HW119751   2.258   5.588   5.122
 6284SOL    HW219752   2.235   5.749   5.134
 6285SOL     OW19753   1.007   2.894   3.540
 6285SOL    HW119754   0.920   2.890   3.490
 6285SOL    HW219755   1.017   2.813   3.597
 6286SOL     OW19756   6.736   1.996   4.080
 6286SOL    HW119757   6.681   2.076   4.054
 6286SOL    HW219758   6.675   1.918   4.096
 6287SOL     OW19759   4.084   5.110   3.185
 6287SOL    HW119760   3.993   5.122   3.224
 6287SOL    HW219761   4.106   5.013   3.179
 6288SOL     OW19762   6.066   4.755   2.489
 6288SOL    HW119763   6.111   4.742   2.400
 6288SOL    HW219764   6.135   4.778   2.557
 6289SOL     OW19765   1.364   4.867   2.467
 6289SOL    HW119766   1.450   4.916   2.483
 6289SOL    HW219767   1.359   4.840   2.370
 6290SOL     OW19768   6.100   3.591   4.223
 6290SOL    HW119769   6.191   3.557   4.245
 6290SOL    HW219770   6.053   3.526   4.162
 6291SOL     OW19771   3.496   3.263   4.156
 6291SOL    HW119772   3.448   3.176   4.167
 6291SOL    HW219773   3.444   3.323   4.095
 6292SOL     OW19774   1.616   2.188   3.719
 6292SOL    HW119775   1.609   2.275   3.768
 6292SOL    HW219776   1.687   2.196   3.648
 6293SOL     OW19777   3.785   0.362   0.063
 6293SOL    HW119778   3.795   0.262   0.056
 6293SOL    HW219779   3.858   0.399   0.120
 6294SOL     OW19780   3.798   4.861   3.694
 6294SOL    HW119781   3.817   4.821   3.604
 6294SOL    HW219782   3.884   4.874   3.743
 6295SOL     OW19783   5.128   5.206   5.109
 6295SOL    HW119784   5.106   5.112   5.136
 6295SOL    HW219785   5.048   5.248   5.067
 6296SOL     OW19786   0.060   6.712   4.797
 6296SOL    HW119787   0.105   6.799   4.819
 6296SOL    HW219788   0.032   6.668   4.882
 6297SOL     OW19789   4.746   0.293   5.498
 6297SOL    HW119790   4.751   0.226   5.573
 6297SOL    HW219791   4.823   0.279   5.436
 6298SOL     OW19792   1.512   2.626   5.669
 6298SOL    HW119793   1.516   2.569   5.587
 6298SOL    HW219794   1.539   2.719   5.646
 6299SOL     OW19795   5.117   1.435   0.301
 6299SOL    HW119796   5.059   1.383   0.238
 6299SOL    HW219797   5.088   1.417   0.395
 6300SOL     OW19798   5.273   0.506   6.029
 6300SOL    HW119799   5.304   0.425   5.979
 6300SOL    HW219800   5.314   0.507   6.120
 6301SOL     OW19801   3.028   0.619   1.323
 6301SOL    HW119802   3.064   0.526   1.316
 6301SOL    HW219803   3.097   0.678   1.365
 6302SOL     OW19804   1.582   1.563   4.127
 6302SOL    HW119805   1.495   1.538   4.083
 6302SOL    HW219806   1.622   1.641   4.079
 6303SOL     OW19807   2.374   1.066   4.686
 6303SOL    HW119808   2.285   1.025   4.663
 6303SOL    HW219809   2.403   1.033   4.775
 6304SOL     OW19810   2.191   1.386   0.538
 6304SOL    HW119811   2.113   1.324   0.535
 6304SOL    HW219812   2.235   1.379   0.628
 6305SOL     OW19813   6.301   6.658   1.137
 6305SOL    HW119814   6.398   6.640   1.125
 6305SOL    HW219815   6.286   6.755   1.155
 6306SOL     OW19816   1.388   3.963   4.291
 6306SOL    HW119817   1.465   3.900   4.283
 6306SOL    HW219818   1.312   3.918   4.337
 6307SOL     OW19819   3.943   4.159   5.742
 6307SOL    HW119820   3.877   4.190   5.673
 6307SOL    HW219821   4.016   4.108   5.697
 6308SOL     OW19822   1.819   1.623   4.378
 6308SOL    HW119823   1.801   1.717   4.406
 6308SOL    HW219824   1.817   1.563   4.458
 6309SOL     OW19825   4.938   3.891   4.450
 6309SOL    HW119826   4.856   3.935   4.487
 6309SOL    HW219827   5.018   3.946   4.470
 6310SOL     OW19828   2.033   5.537   3.659
 6310SOL    HW119829   2.003   5.473   3.589
 6310SOL    HW219830   1.994   5.510   3.747
 6311SOL     OW19831   5.550   0.076   5.571
 6311SOL    HW119832   5.529   0.081   5.669
 6311SOL    HW219833   5.499   0.147   5.523
 6312SOL     OW19834   5.963   5.157   5.628
 6312SOL    HW119835   5.902   5.109   5.566
 6312SOL    HW219836   6.043   5.191   5.578
 6313SOL     OW19837   1.639   6.068   3.389
 6313SOL    HW119838   1.547   6.080   3.427
 6313SOL    HW219839   1.670   5.975   3.405
 6314SOL     OW19840   3.896   6.415   1.370
 6314SOL    HW119841   3.970   6.365   1.415
 6314SOL    HW219842   3.833   6.452   1.440
 6315SOL     OW19843   3.650   2.842   6.112
 6315SOL    HW119844   3.732   2.794   6.083
 6315SOL    HW219845   3.669   2.894   6.196
 6316SOL     OW19846   4.895   1.997   6.613
 6316SOL    HW119847   4.818   1.943   6.580
 6316SOL    HW219848   4.875   2.094   6.603
 6317SOL     OW19849   4.994   5.335   3.608
 6317SOL    HW119850   5.058   5.411   3.604
 6317SOL    HW219851   5.044   5.249   3.621
 6318SOL     OW19852   3.104   2.138   4.621
 6318SOL    HW119853   3.187   2.176   4.580
 6318SOL    HW219854   3.028   2.145   4.556
 6319SOL     OW19855   0.384   2.195   3.327
 6319SOL    HW119856   0.466   2.199   3.270
 6319SOL    HW219857   0.383   2.109   3.378
 6320SOL     OW19858   5.791   4.646   5.344
 6320SOL    HW119859   5.815   4.697   5.427
 6320SOL    HW219860   5.789   4.548   5.364
 6321SOL     OW19861   3.100   4.813   1.035
 6321SOL    HW119862   3.090   4.765   0.948
 6321SOL    HW219863   3.195   4.805   1.066
 6322SOL     OW19864   1.657   2.344   6.955
 6322SOL    HW119865   1.738   2.398   6.975
 6322SOL    HW219866   1.678   2.247   6.965
 6323SOL     OW19867   3.401   2.758   1.346
 6323SOL    HW119868   3.407   2.694   1.269
 6323SOL    HW219869   3.308   2.756   1.384
 6324SOL     OW19870   5.013   0.048   6.581
 6324SOL    HW119871   5.041   0.126   6.638
 6324SOL    HW219872   4.918   0.025   6.601
 6325SOL     OW19873   2.074   1.955   2.260
 6325SOL    HW119874   2.040   1.993   2.347
 6325SOL    HW219875   2.011   1.980   2.187
 6326SOL     OW19876   4.698   5.799   2.128
 6326SOL    HW119877   4.637   5.864   2.173
 6326SOL    HW219878   4.724   5.834   2.039
 6327SOL     OW19879   0.022   0.699   5.424
 6327SOL    HW119880   0.092   0.658   5.366
 6327SOL    HW219881   7.003   0.628   5.478
 6328SOL     OW19882   2.239   3.978   0.719
 6328SOL    HW119883   2.308   3.992   0.790
 6328SOL    HW219884   2.246   4.052   0.651
 6329SOL     OW19885   2.460   2.658   3.119
 6329SOL    HW119886   2.462   2.668   3.020
 6329SOL    HW219887   2.411   2.735   3.159
 6330SOL     OW19888   4.488   1.069   1.522
 6330SOL    HW119889   4.509   1.166   1.514
 6330SOL    HW219890   4.569   1.015   1.500
 6331SOL     OW19891   6.190   2.253   0.008
 6331SOL    HW119892   6.249   2.230   0.086
 6331SOL    HW219893   6.095   2.235   0.033
 6332SOL     OW19894   6.779   3.672   2.082
 6332SOL    HW119895   6.720   3.683   2.002
 6332SOL    HW219896   6.788   3.759   2.129
 6333SOL     OW19897   4.074   4.845   4.379
 6333SOL    HW119898   4.088   4.790   4.296
 6333SOL    HW219899   3.999   4.806   4.431
 6334SOL     OW19900   2.642   0.085   2.270
 6334SOL    HW119901   2.728   0.092   2.321
 6334SOL    HW219902   2.565   0.102   2.332
 6335SOL     OW19903   4.617   1.535   0.404
 6335SOL    HW119904   4.577   1.472   0.338
 6335SOL    HW219905   4.560   1.536   0.487
 6336SOL     OW19906   0.396   1.847   6.354
 6336SOL    HW119907   0.382   1.869   6.450
 6336SOL    HW219908   0.387   1.930   6.299
 6337SOL     OW19909   4.635   4.112   5.971
 6337SOL    HW119910   4.718   4.168   5.964
 6337SOL    HW219911   4.572   4.154   6.036
 6338SOL     OW19912   2.998   2.093   2.709
 6338SOL    HW119913   2.977   1.998   2.736
 6338SOL    HW219914   3.096   2.110   2.722
 6339SOL     OW19915   0.893   2.876   2.973
 6339SOL    HW119916   0.877   2.793   3.027
 6339SOL    HW219917   0.806   2.920   2.953
 6340SOL     OW19918   1.858   4.807   2.914
 6340SOL    HW119919   1.773   4.852   2.886
 6340SOL    HW219920   1.841   4.710   2.930
 6341SOL     OW19921   0.654   4.226   3.856
 6341SOL    HW119922   0.684   4.303   3.913
 6341SOL    HW219923   0.569   4.251   3.810
 6342SOL     OW19924   2.656   1.959   1.861
 6342SOL    HW119925   2.679   2.050   1.826
 6342SOL    HW219926   2.738   1.914   1.896
 6343SOL     OW19927   5.249   2.303   6.840
 6343SOL    HW119928   5.312   2.297   6.763
 6343SOL    HW219929   5.245   2.397   6.873
 6344SOL     OW19930   5.910   3.622   5.595
 6344SOL    HW119931   5.819   3.603   5.560
 6344SOL    HW219932   5.936   3.716   5.570
 6345SOL     OW19933   4.479   1.895   1.997
 6345SOL    HW119934   4.469   1.847   1.909
 6345SOL    HW219935   4.566   1.944   1.998
 6346SOL     OW19936   6.858   3.811   3.679
 6346SOL    HW119937   6.918   3.868   3.623
 6346SOL    HW219938   6.910   3.733   3.714
 6347SOL     OW19939   1.932   0.370   1.524
 6347SOL    HW119940   1.950   0.395   1.429
 6347SOL    HW219941   2.011   0.394   1.581
 6348SOL     OW19942   1.181   4.293   5.012
 6348SOL    HW119943   1.220   4.334   4.930
 6348SOL    HW219944   1.187   4.193   5.006
 6349SOL     OW19945   3.348   6.852   1.242
 6349SOL    HW119946   3.322   6.783   1.174
 6349SOL    HW219947   3.268   6.909   1.264
 6350SOL     OW19948   2.665   4.712   3.986
 6350SOL    HW119949   2.604   4.791   3.981
 6350SOL    HW219950   2.753   4.740   4.025
 6351SOL     OW19951   6.440   3.315   2.759
 6351SOL    HW119952   6.387   3.325   2.675
 6351SOL    HW219953   6.497   3.233   2.753
 6352SOL     OW19954   2.240   5.098   4.671
 6352SOL    HW119955   2.294   5.182   4.669
 6352SOL    HW219956   2.301   5.018   4.667
 6353SOL     OW19957   6.562   1.200   6.423
 6353SOL    HW119958   6.577   1.120   6.365
 6353SOL    HW219959   6.466   1.226   6.420
 6354SOL     OW19960   1.476   0.230   2.830
 6354SOL    HW119961   1.414   0.299   2.867
 6354SOL    HW219962   1.449   0.207   2.737
 6355SOL     OW19963   1.416   5.499   6.129
 6355SOL    HW119964   1.463   5.567   6.184
 6355SOL    HW219965   1.339   5.461   6.180
 6356SOL     OW19966   3.963   5.159   2.926
 6356SOL    HW119967   4.019   5.165   3.008
 6356SOL    HW219968   3.911   5.244   2.915
 6357SOL     OW19969   5.222   2.706   1.993
 6357SOL    HW119970   5.290   2.772   1.963
 6357SOL    HW219971   5.260   2.651   2.068
 6358SOL     OW19972   1.213   2.068   6.007
 6358SOL    HW119973   1.265   2.073   5.922
 6358SOL    HW219974   1.240   1.987   6.058
 6359SOL     OW19975   6.449   0.012   5.813
 6359SOL    HW119976   6.483   7.007   5.725
 6359SOL    HW219977   6.440   6.958   5.874
 6360SOL     OW19978   1.756   3.769   4.299
 6360SOL    HW119979   1.750   3.767   4.399
 6360SOL    HW219980   1.850   3.749   4.271
 6361SOL     OW19981   6.421   0.015   0.344
 6361SOL    HW119982   6.401   7.012   0.438
 6361SOL    HW219983   6.439   0.114   0.342
 6362SOL     OW19984   6.623   5.376   6.469
 6362SOL    HW119985   6.702   5.318   6.453
 6362SOL    HW219986   6.544   5.319   6.494
 6363SOL     OW19987   2.154   4.430   3.411
 6363SOL    HW119988   2.065   4.416   3.369
 6363SOL    HW219989   2.211   4.349   3.398
 6364SOL     OW19990   3.164   1.320   5.745
 6364SOL    HW119991   3.126   1.390   5.805
 6364SOL    HW219992   3.217   1.255   5.799
 6365SOL     OW19993   5.296   6.633   4.678
 6365SOL    HW119994   5.238   6.661   4.601
 6365SOL    HW219995   5.380   6.687   4.677
 6366SOL     OW19996   0.689   5.922   6.380
 6366SOL    HW119997   0.762   5.854   6.365
 6366SOL    HW219998   0.708   6.003   6.326
 6367SOL     OW19999   3.578   0.389   4.137
 6367SOL    HW120000   3.587   0.428   4.229
 6367SOL    HW220001   3.663   0.405   4.085
 6368SOL     OW20002   3.803   6.756   3.664
 6368SOL    HW120003   3.747   6.839   3.665
 6368SOL    HW220004   3.851   6.747   3.751
 6369SOL     OW20005   2.544   4.855   4.793
 6369SOL    HW120006   2.474   4.895   4.852
 6369SOL    HW220007   2.559   4.760   4.818
 6370SOL     OW20008   1.043   3.176   2.416
 6370SOL    HW120009   1.019   3.167   2.512
 6370SOL    HW220010   1.007   3.262   2.380
 6371SOL     OW20011   4.900   3.402   3.767
 6371SOL    HW120012   4.874   3.314   3.806
 6371SOL    HW220013   4.984   3.434   3.811
 6372SOL     OW20014   3.364   0.131   1.559
 6372SOL    HW120015   3.347   0.229   1.548
 6372SOL    HW220016   3.446   0.117   1.614
 6373SOL     OW20017   5.569   4.539   3.617
 6373SOL    HW120018   5.476   4.542   3.579
 6373SOL    HW220019   5.631   4.590   3.558
 6374SOL     OW20020   3.191   4.094   4.231
 6374SOL    HW120021   3.232   4.088   4.322
 6374SOL    HW220022   3.118   4.162   4.232
 6375SOL     OW20023   0.345   1.868   3.863
 6375SOL    HW120024   0.302   1.786   3.824
 6375SOL    HW220025   0.301   1.890   3.950
 6376SOL     OW20026   6.218   2.649   5.551
 6376SOL    HW120027   6.294   2.604   5.598
 6376SOL    HW220028   6.133   2.603   5.576
 6377SOL     OW20029   6.364   1.710   5.399
 6377SOL    HW120030   6.453   1.736   5.361
 6377SOL    HW220031   6.309   1.668   5.328
 6378SOL     OW20032   5.309   4.857   3.313
 6378SOL    HW120033   5.291   4.953   3.294
 6378SOL    HW220034   5.289   4.837   3.409
 6379SOL     OW20035   2.356   4.250   4.379
 6379SOL    HW120036   2.306   4.172   4.342
 6379SOL    HW220037   2.321   4.272   4.470
 6380SOL     OW20038   0.528   1.517   6.147
 6380SOL    HW120039   0.571   1.514   6.056
 6380SOL    HW220040   0.432   1.540   6.137
 6381SOL     OW20041   3.771   3.414   1.941
 6381SOL    HW120042   3.806   3.400   1.849
 6381SOL    HW220043   3.690   3.472   1.938
 6382SOL     OW20044   1.449   2.695   0.721
 6382SOL    HW120045   1.416   2.616   0.669
 6382SOL    HW220046   1.372   2.755   0.742
 6383SOL     OW20047   1.822   2.397   2.700
 6383SOL    HW120048   1.849   2.493   2.694
 6383SOL    HW220049   1.851   2.359   2.788
 6384SOL     OW20050   5.680   4.126   1.215
 6384SOL    HW120051   5.695   4.030   1.242
 6384SOL    HW220052   5.607   4.130   1.147
 6385SOL     OW20053   6.783   4.325   4.443
 6385SOL    HW120054   6.709   4.295   4.502
 6385SOL    HW220055   6.866   4.274   4.465
 6386SOL     OW20056   2.616   4.333   6.215
 6386SOL    HW120057   2.622   4.421   6.263
 6386SOL    HW220058   2.708   4.295   6.205
 6387SOL     OW20059   0.685   1.302   6.767
 6387SOL    HW120060   0.634   1.334   6.846
 6387SOL    HW220061   0.763   1.363   6.750
 6388SOL     OW20062   3.925   4.836   1.555
 6388SOL    HW120063   3.868   4.884   1.488
 6388SOL    HW220064   4.020   4.834   1.523
 6389SOL     OW20065   1.011   6.087   2.334
 6389SOL    HW120066   1.047   6.014   2.275
 6389SOL    HW220067   0.933   6.130   2.290
 6390SOL     OW20068   1.509   2.072   4.765
 6390SOL    HW120069   1.489   1.995   4.704
 6390SOL    HW220070   1.560   2.039   4.844
 6391SOL     OW20071   3.290   7.012   5.883
 6391SOL    HW120072   3.248   0.024   5.966
 6391SOL    HW220073   3.269   6.915   5.876
 6392SOL     OW20074   2.321   0.012   3.833
 6392SOL    HW120075   2.402   0.022   3.890
 6392SOL    HW220076   2.301   6.940   3.820
 6393SOL     OW20077   6.186   6.420   1.267
 6393SOL    HW120078   6.212   6.368   1.349
 6393SOL    HW220079   6.268   6.454   1.222
 6394SOL     OW20080   2.221   4.718   0.828
 6394SOL    HW120081   2.164   4.665   0.765
 6394SOL    HW220082   2.190   4.813   0.829
 6395SOL     OW20083   6.003   2.472   1.464
 6395SOL    HW120084   6.032   2.378   1.484
 6395SOL    HW220085   5.988   2.482   1.366
 6396SOL     OW20086   5.405   3.133   6.648
 6396SOL    HW120087   5.351   3.189   6.585
 6396SOL    HW220088   5.458   3.192   6.708
 6397SOL     OW20089   5.685   2.430   6.494
 6397SOL    HW120090   5.705   2.498   6.424
 6397SOL    HW220091   5.770   2.393   6.530
 6398SOL     OW20092   3.366   0.636   0.708
 6398SOL    HW120093   3.359   0.604   0.613
 6398SOL    HW220094   3.299   0.587   0.764
 6399SOL     OW20095   1.496   4.986   6.619
 6399SOL    HW120096   1.541   4.897   6.614
 6399SOL    HW220097   1.435   4.997   6.541
 6400SOL     OW20098   1.944   5.866   2.938
 6400SOL    HW120099   2.041   5.888   2.945
 6400SOL    HW220100   1.931   5.789   2.876
 6401SOL     OW20101   6.987   4.402   3.821
 6401SOL    HW120102   6.995   4.430   3.917
 6401SOL    HW220103   6.944   4.475   3.768
 6402SOL     OW20104   3.518   0.999   3.022
 6402SOL    HW120105   3.477   1.088   3.002
 6402SOL    HW220106   3.470   0.957   3.100
 6403SOL     OW20107   0.410   6.461   6.516
 6403SOL    HW120108   0.376   6.449   6.609
 6403SOL    HW220109   0.355   6.407   6.453
 6404SOL     OW20110   3.644   1.250   3.218
 6404SOL    HW120111   3.627   1.347   3.237
 6404SOL    HW220112   3.559   1.206   3.192
 6405SOL     OW20113   1.671   0.948   3.428
 6405SOL    HW120114   1.755   0.917   3.471
 6405SOL    HW220115   1.683   0.951   3.329
 6406SOL     OW20116   1.926   2.514   3.496
 6406SOL    HW120117   2.017   2.507   3.455
 6406SOL    HW220118   1.931   2.571   3.578
 6407SOL     OW20119   3.311   0.231   3.263
 6407SOL    HW120120   3.247   0.220   3.187
 6407SOL    HW220121   3.267   0.283   3.337
 6408SOL     OW20122   5.902   2.344   6.632
 6408SOL    HW120123   5.931   2.424   6.685
 6408SOL    HW220124   5.983   2.292   6.604
 6409SOL     OW20125   0.299   4.520   3.085
 6409SOL    HW120126   0.307   4.552   2.991
 6409SOL    HW220127   0.351   4.581   3.146
 6410SOL     OW20128   2.000   1.252   0.230
 6410SOL    HW120129   2.096   1.280   0.238
 6410SOL    HW220130   1.953   1.271   0.316
 6411SOL     OW20131   7.022   2.776   3.210
 6411SOL    HW120132   0.072   2.802   3.271
 6411SOL    HW220133   0.027   2.782   3.115
 6412SOL     OW20134   6.989   2.921   5.456
 6412SOL    HW120135   6.944   2.945   5.542
 6412SOL    HW220136   6.920   2.913   5.384
 6413SOL     OW20137   5.310   4.808   2.977
 6413SOL    HW120138   5.317   4.816   2.878
 6413SOL    HW220139   5.398   4.777   3.014
 6414SOL     OW20140   6.105   0.558   1.707
 6414SOL    HW120141   6.064   0.549   1.798
 6414SOL    HW220142   6.046   0.516   1.639
 6415SOL     OW20143   2.477   2.369   2.615
 6415SOL    HW120144   2.538   2.359   2.536
 6415SOL    HW220145   2.532   2.383   2.697
 6416SOL     OW20146   1.296   1.426   5.694
 6416SOL    HW120147   1.235   1.445   5.617
 6416SOL    HW220148   1.246   1.378   5.765
 6417SOL     OW20149   6.917   4.760   2.370
 6417SOL    HW120150   6.867   4.683   2.409
 6417SOL    HW220151   6.905   4.760   2.270
 6418SOL     OW20152   5.622   4.397   2.004
 6418SOL    HW120153   5.601   4.491   2.029
 6418SOL    HW220154   5.602   4.383   1.907
 6419SOL     OW20155   2.338   5.095   2.536
 6419SOL    HW120156   2.329   5.076   2.438
 6419SOL    HW220157   2.340   5.194   2.551
 6420SOL     OW20158   2.531   3.411   5.896
 6420SOL    HW120159   2.589   3.474   5.845
 6420SOL    HW220160   2.494   3.342   5.834
 6421SOL     OW20161   5.179   1.467   1.910
 6421SOL    HW120162   5.263   1.469   1.856
 6421SOL    HW220163   5.101   1.489   1.852
 6422SOL     OW20164   0.156   0.415   4.185
 6422SOL    HW120165   0.135   0.335   4.241
 6422SOL    HW220166   0.168   0.387   4.089
 6423SOL     OW20167   5.071   4.781   2.276
 6423SOL    HW120168   5.133   4.839   2.224
 6423SOL    HW220169   4.983   4.774   2.229
 6424SOL     OW20170   6.963   5.703   5.599
 6424SOL    HW120171   0.034   5.686   5.578
 6424SOL    HW220172   6.936   5.646   5.676
 6425SOL     OW20173   6.292   5.370   3.146
 6425SOL    HW120174   6.258   5.425   3.223
 6425SOL    HW220175   6.263   5.275   3.159
 6426SOL     OW20176   0.402   4.528   3.538
 6426SOL    HW120177   0.489   4.479   3.536
 6426SOL    HW220178   0.327   4.464   3.550
 6427SOL     OW20179   2.170   3.392   6.703
 6427SOL    HW120180   2.212   3.482   6.693
 6427SOL    HW220181   2.159   3.350   6.613
 6428SOL     OW20182   6.605   3.363   0.663
 6428SOL    HW120183   6.517   3.410   0.672
 6428SOL    HW220184   6.638   3.336   0.753
 6429SOL     OW20185   0.722   1.579   5.135
 6429SOL    HW120186   0.711   1.671   5.097
 6429SOL    HW220187   0.663   1.515   5.086
 6430SOL     OW20188   5.285   1.087   2.262
 6430SOL    HW120189   5.363   1.074   2.323
 6430SOL    HW220190   5.212   1.024   2.287
 6431SOL     OW20191   5.482   6.668   3.238
 6431SOL    HW120192   5.447   6.706   3.323
 6431SOL    HW220193   5.440   6.716   3.161
 6432SOL     OW20194   4.077   3.932   6.885
 6432SOL    HW120195   4.085   3.849   6.941
 6432SOL    HW220196   3.991   3.979   6.908
 6433SOL     OW20197   3.587   4.486   0.593
 6433SOL    HW120198   3.547   4.505   0.683
 6433SOL    HW220199   3.584   4.387   0.576
 6434SOL     OW20200   2.085   3.747   0.493
 6434SOL    HW120201   2.064   3.803   0.573
 6434SOL    HW220202   2.047   3.789   0.411
 6435SOL     OW20203   4.323   5.927   6.660
 6435SOL    HW120204   4.322   5.911   6.758
 6435SOL    HW220205   4.374   6.011   6.640
 6436SOL     OW20206   2.114   3.276   3.853
 6436SOL    HW120207   2.074   3.282   3.762
 6436SOL    HW220208   2.172   3.356   3.869
 6437SOL     OW20209   2.131   1.201   0.927
 6437SOL    HW120210   2.153   1.108   0.956
 6437SOL    HW220211   2.202   1.234   0.865
 6438SOL     OW20212   0.694   4.840   6.460
 6438SOL    HW120213   0.609   4.806   6.419
 6438SOL    HW220214   0.715   4.788   6.542
 6439SOL     OW20215   6.766   0.303   1.731
 6439SOL    HW120216   6.772   0.387   1.784
 6439SOL    HW220217   6.671   0.286   1.704
 6440SOL     OW20218   2.326   1.749   1.846
 6440SOL    HW120219   2.342   1.666   1.793
 6440SOL    HW220220   2.329   1.829   1.786
 6441SOL     OW20221   0.979   6.969   2.442
 6441SOL    HW120222   0.934   6.896   2.390
 6441SOL    HW220223   1.066   6.935   2.479
 6442SOL     OW20224   1.969   1.679   3.041
 6442SOL    HW120225   1.937   1.636   3.126
 6442SOL    HW220226   1.994   1.607   2.975
 6443SOL     OW20227   3.925   2.914   0.391
 6443SOL    HW120228   3.841   2.916   0.337
 6443SOL    HW220229   3.938   3.003   0.436
 6444SOL     OW20230   0.949   2.670   3.713
 6444SOL    HW120231   0.911   2.684   3.804
 6444SOL    HW220232   1.048   2.658   3.721
 6445SOL     OW20233   4.892   2.651   5.731
 6445SOL    HW120234   4.885   2.651   5.631
 6445SOL    HW220235   4.976   2.698   5.759
 6446SOL     OW20236   1.149   0.982   6.282
 6446SOL    HW120237   1.077   0.942   6.338
 6446SOL    HW220238   1.119   0.986   6.187
 6447SOL     OW20239   0.223   5.712   2.692
 6447SOL    HW120240   0.235   5.646   2.766
 6447SOL    HW220241   0.195   5.664   2.609
 6448SOL     OW20242   5.359   4.206   2.303
 6448SOL    HW120243   5.324   4.230   2.213
 6448SOL    HW220244   5.309   4.257   2.373
 6449SOL     OW20245   3.446   4.629   0.804
 6449SOL    HW120246   3.465   4.726   0.817
 6449SOL    HW220247   3.351   4.617   0.775
 6450SOL     OW20248   0.026   3.321   1.528
 6450SOL    HW120249   7.001   3.238   1.505
 6450SOL    HW220250   0.124   3.302   1.529
 6451SOL     OW20251   2.804   6.455   4.923
 6451SOL    HW120252   2.727   6.404   4.962
 6451SOL    HW220253   2.861   6.393   4.869
 6452SOL     OW20254   3.498   5.875   5.177
 6452SOL    HW120255   3.404   5.873   5.143
 6452SOL    HW220256   3.545   5.954   5.139
 6453SOL     OW20257   1.474   6.462   0.229
 6453SOL    HW120258   1.412   6.503   0.296
 6453SOL    HW220259   1.528   6.533   0.185
 6454SOL     OW20260   3.138   1.253   3.630
 6454SOL    HW120261   3.040   1.267   3.615
 6454SOL    HW220262   3.156   1.250   3.728
 6455SOL     OW20263   1.129   2.022   3.807
 6455SOL    HW120264   1.189   2.067   3.740
 6455SOL    HW220265   1.034   2.034   3.780
 6456SOL     OW20266   1.874   0.516   3.649
 6456SOL    HW120267   1.860   0.563   3.562
 6456SOL    HW220268   1.817   0.558   3.720
 6457SOL     OW20269   5.123   1.038   0.976
 6457SOL    HW120270   5.064   0.979   1.030
 6457SOL    HW220271   5.072   1.076   0.899
 6458SOL     OW20272   0.880   6.992   3.649
 6458SOL    HW120273   0.884   0.028   3.728
 6458SOL    HW220274   0.866   0.020   3.566
 6459SOL     OW20275   5.683   5.537   0.495
 6459SOL    HW120276   5.780   5.559   0.489
 6459SOL    HW220277   5.672   5.444   0.532
 6460SOL     OW20278   4.537   5.334   5.638
 6460SOL    HW120279   4.561   5.371   5.728
 6460SOL    HW220280   4.621   5.321   5.585
 6461SOL     OW20281   2.965   5.097   5.143
 6461SOL    HW120282   3.036   5.103   5.214
 6461SOL    HW220283   2.992   5.030   5.075
 6462SOL     OW20284   2.452   2.781   5.367
 6462SOL    HW120285   2.453   2.866   5.315
 6462SOL    HW220286   2.546   2.750   5.382
 6463SOL     OW20287   1.693   3.925   6.591
 6463SOL    HW120288   1.636   3.845   6.571
 6463SOL    HW220289   1.789   3.898   6.596
 6464SOL     OW20290   1.033   5.206   5.093
 6464SOL    HW120291   1.065   5.155   5.013
 6464SOL    HW220292   0.933   5.210   5.093
 6465SOL     OW20293   6.153   2.467   3.873
 6465SOL    HW120294   6.116   2.442   3.783
 6465SOL    HW220295   6.115   2.406   3.943
 6466SOL     OW20296   0.849   1.490   6.646
 6466SOL    HW120297   0.851   1.589   6.663
 6466SOL    HW220298   0.942   1.458   6.627
 6467SOL     OW20299   3.166   1.034   0.075
 6467SOL    HW120300   3.149   1.052   0.172
 6467SOL    HW220301   3.189   0.937   0.063
 6468SOL     OW20302   3.718   6.490   1.582
 6468SOL    HW120303   3.703   6.429   1.659
 6468SOL    HW220304   3.731   6.584   1.615
 6469SOL     OW20305   4.682   0.629   5.299
 6469SOL    HW120306   4.643   0.551   5.249
 6469SOL    HW220307   4.611   0.698   5.312
 6470SOL     OW20308   5.718   5.473   6.340
 6470SOL    HW120309   5.665   5.434   6.265
 6470SOL    HW220310   5.816   5.467   6.318
 6471SOL     OW20311   6.530   5.902   5.884
 6471SOL    HW120312   6.524   5.893   5.785
 6471SOL    HW220313   6.529   5.811   5.926
 6472SOL     OW20314   0.342   4.714   1.079
 6472SOL    HW120315   0.437   4.734   1.053
 6472SOL    HW220316   0.303   4.649   1.014
 6473SOL     OW20317   2.435   1.737   4.157
 6473SOL    HW120318   2.337   1.735   4.176
 6473SOL    HW220319   2.485   1.760   4.241
 6474SOL     OW20320   1.911   3.420   5.762
 6474SOL    HW120321   1.951   3.379   5.843
 6474SOL    HW220322   1.901   3.350   5.691
 6475SOL     OW20323   6.852   4.992   4.386
 6475SOL    HW120324   6.857   5.082   4.430
 6475SOL    HW220325   6.920   4.931   4.427
 6476SOL     OW20326   4.256   3.525   1.630
 6476SOL    HW120327   4.192   3.591   1.668
 6476SOL    HW220328   4.206   3.460   1.572
 6477SOL     OW20329   0.059   4.415   1.568
 6477SOL    HW120330   0.081   4.318   1.554
 6477SOL    HW220331   0.078   4.465   1.483
 6478SOL     OW20332   3.351   6.352   2.205
 6478SOL    HW120333   3.261   6.392   2.220
 6478SOL    HW220334   3.374   6.293   2.282
 6479SOL     OW20335   3.942   5.582   3.598
 6479SOL    HW120336   3.967   5.491   3.567
 6479SOL    HW220337   3.965   5.592   3.695
 6480SOL     OW20338   3.330   2.690   5.560
 6480SOL    HW120339   3.405   2.636   5.597
 6480SOL    HW220340   3.330   2.682   5.460
 6481SOL     OW20341   2.923   1.957   1.920
 6481SOL    HW120342   2.968   1.990   2.003
 6481SOL    HW220343   2.945   2.017   1.844
 6482SOL     OW20344   0.238   1.202   6.108
 6482SOL    HW120345   0.320   1.169   6.060
 6482SOL    HW220346   0.162   1.206   6.043
 6483SOL     OW20347   2.569   5.781   1.506
 6483SOL    HW120348   2.588   5.686   1.531
 6483SOL    HW220349   2.470   5.797   1.511
 6484SOL     OW20350   3.951   0.229   3.002
 6484SOL    HW120351   3.862   0.246   2.960
 6484SOL    HW220352   3.938   0.194   3.095
 6485SOL     OW20353   2.130   3.787   3.655
 6485SOL    HW120354   2.110   3.796   3.753
 6485SOL    HW220355   2.162   3.875   3.619
 6486SOL     OW20356   1.185   4.624   4.214
 6486SOL    HW120357   1.226   4.712   4.239
 6486SOL    HW220358   1.214   4.598   4.122
 6487SOL     OW20359   6.791   6.001   5.002
 6487SOL    HW120360   6.722   5.929   5.005
 6487SOL    HW220361   6.746   6.088   4.979
 6488SOL     OW20362   3.012   5.643   4.732
 6488SOL    HW120363   2.929   5.668   4.781
 6488SOL    HW220364   3.069   5.584   4.790
 6489SOL     OW20365   2.756   3.517   6.849
 6489SOL    HW120366   2.716   3.589   6.906
 6489SOL    HW220367   2.854   3.531   6.840
 6490SOL     OW20368   4.180   2.664   7.023
 6490SOL    HW120369   4.090   2.639   6.987
 6490SOL    HW220370   4.189   2.629   0.091
 6491SOL     OW20371   4.346   1.245   6.763
 6491SOL    HW120372   4.278   1.280   6.699
 6491SOL    HW220373   4.334   1.288   6.852
 6492SOL     OW20374   6.061   5.746   6.870
 6492SOL    HW120375   6.045   5.742   6.968
 6492SOL    HW220376   6.030   5.834   6.834
 6493SOL     OW20377   1.882   6.060   5.149
 6493SOL    HW120378   1.801   6.039   5.094
 6493SOL    HW220379   1.933   6.134   5.105
 6494SOL     OW20380   0.109   1.245   3.234
 6494SOL    HW120381   0.147   1.258   3.142
 6494SOL    HW220382   0.010   1.241   3.229
 6495SOL     OW20383   5.137   6.312   4.468
 6495SOL    HW120384   5.109   6.318   4.564
 6495SOL    HW220385   5.079   6.372   4.413
 6496SOL     OW20386   0.429   6.826   2.570
 6496SOL    HW120387   0.402   6.857   2.479
 6496SOL    HW220388   0.525   6.849   2.586
 6497SOL     OW20389   2.479   3.286   6.833
 6497SOL    HW120390   2.512   3.375   6.803
 6497SOL    HW220391   2.556   3.232   6.868
 6498SOL     OW20392   2.268   4.247   3.855
 6498SOL    HW120393   2.261   4.320   3.788
 6498SOL    HW220394   2.353   4.257   3.906
 6499SOL     OW20395   5.877   2.399   5.018
 6499SOL    HW120396   5.862   2.313   5.068
 6499SOL    HW220397   5.840   2.475   5.071
 6500SOL     OW20398   0.034   4.604   3.547
 6500SOL    HW120399   0.035   4.633   3.452
 6500SOL    HW220400   0.057   4.506   3.552
 6501SOL     OW20401   6.750   2.313   6.943
 6501SOL    HW120402   6.786   2.244   7.005
 6501SOL    HW220403   6.651   2.301   6.934
 6502SOL     OW20404   6.457   3.858   2.920
 6502SOL    HW120405   6.443   3.891   2.827
 6502SOL    HW220406   6.554   3.869   2.945
 6503SOL     OW20407   5.597   6.897   3.738
 6503SOL    HW120408   5.546   6.829   3.684
 6503SOL    HW220409   5.553   6.909   3.827
 6504SOL     OW20410   4.874   6.461   6.205
 6504SOL    HW120411   4.829   6.526   6.266
 6504SOL    HW220412   4.943   6.410   6.256
 6505SOL     OW20413   5.565   4.379   1.724
 6505SOL    HW120414   5.624   4.365   1.643
 6505SOL    HW220415   5.504   4.300   1.734
 6506SOL     OW20416   0.039   3.095   0.912
 6506SOL    HW120417   0.029   2.997   0.897
 6506SOL    HW220418   0.045   3.113   1.010
 6507SOL     OW20419   1.742   5.845   5.874
 6507SOL    HW120420   1.841   5.838   5.888
 6507SOL    HW220421   1.724   5.876   5.781
 6508SOL     OW20422   2.317   1.754   3.287
 6508SOL    HW120423   2.374   1.835   3.300
 6508SOL    HW220424   2.292   1.715   3.376
 6509SOL     OW20425   2.454   2.581   4.287
 6509SOL    HW120426   2.427   2.629   4.204
 6509SOL    HW220427   2.396   2.501   4.300
 6510SOL     OW20428   0.057   5.282   6.359
 6510SOL    HW120429   0.076   5.331   6.444
 6510SOL    HW220430   0.103   5.193   6.361
 6511SOL     OW20431   5.013   0.818   4.987
 6511SOL    HW120432   4.968   0.776   4.908
 6511SOL    HW220433   5.110   0.832   4.968
 6512SOL     OW20434   5.063   0.308   2.717
 6512SOL    HW120435   5.071   0.345   2.810
 6512SOL    HW220436   5.052   0.383   2.652
 6513SOL     OW20437   3.133   5.347   3.277
 6513SOL    HW120438   3.228   5.352   3.246
 6513SOL    HW220439   3.084   5.429   3.247
 6514SOL     OW20440   5.918   0.258   3.340
 6514SOL    HW120441   5.977   0.223   3.268
 6514SOL    HW220442   5.839   0.197   3.350
 6515SOL     OW20443   0.465   5.027   4.073
 6515SOL    HW120444   0.462   4.964   3.995
 6515SOL    HW220445   0.381   5.082   4.075
 6516SOL     OW20446   0.345   2.666   0.579
 6516SOL    HW120447   0.368   2.657   0.482
 6516SOL    HW220448   0.430   2.671   0.632
 6517SOL     OW20449   6.329   1.228   0.865
 6517SOL    HW120450   6.425   1.246   0.846
 6517SOL    HW220451   6.313   1.231   0.964
 6518SOL     OW20452   0.267   6.419   6.733
 6518SOL    HW120453   0.278   6.443   6.829
 6518SOL    HW220454   0.169   6.412   6.712
 6519SOL     OW20455   2.445   2.032   3.292
 6519SOL    HW120456   2.382   2.056   3.218
 6519SOL    HW220457   2.538   2.057   3.265
 6520SOL     OW20458   6.385   5.726   2.895
 6520SOL    HW120459   6.476   5.687   2.883
 6520SOL    HW220460   6.326   5.658   2.938
 6521SOL     OW20461   1.232   1.612   4.509
 6521SOL    HW120462   1.250   1.577   4.601
 6521SOL    HW220463   1.306   1.674   4.482
 6522SOL     OW20464   3.410   4.345   0.003
 6522SOL    HW120465   3.494   4.394   0.026
 6522SOL    HW220466   3.337   4.372   0.066
 6523SOL     OW20467   3.496   1.199   6.626
 6523SOL    HW120468   3.447   1.170   6.708
 6523SOL    HW220469   3.431   1.215   6.552
 6524SOL     OW20470   3.428   3.203   2.999
 6524SOL    HW120471   3.475   3.136   3.057
 6524SOL    HW220472   3.494   3.246   2.938
 6525SOL     OW20473   2.208   2.944   2.830
 6525SOL    HW120474   2.234   3.020   2.890
 6525SOL    HW220475   2.114   2.917   2.849
 6526SOL     OW20476   0.944   6.535   5.401
 6526SOL    HW120477   0.894   6.622   5.395
 6526SOL    HW220478   0.903   6.478   5.472
 6527SOL     OW20479   0.689   1.799   4.310
 6527SOL    HW120480   0.636   1.884   4.308
 6527SOL    HW220481   0.714   1.778   4.404
 6528SOL     OW20482   0.151   0.693   3.490
 6528SOL    HW120483   0.100   0.778   3.479
 6528SOL    HW220484   0.152   0.643   3.404
 6529SOL     OW20485   6.544   1.523   3.319
 6529SOL    HW120486   6.600   1.503   3.399
 6529SOL    HW220487   6.599   1.512   3.236
 6530SOL     OW20488   6.497   4.026   1.053
 6530SOL    HW120489   6.469   4.098   0.990
 6530SOL    HW220490   6.596   4.031   1.069
 6531SOL     OW20491   5.243   3.528   4.388
 6531SOL    HW120492   5.148   3.533   4.417
 6531SOL    HW220493   5.271   3.432   4.382
 6532SOL     OW20494   5.764   0.874   0.827
 6532SOL    HW120495   5.799   0.802   0.886
 6532SOL    HW220496   5.735   0.835   0.739
 6533SOL     OW20497   5.394   5.800   1.706
 6533SOL    HW120498   5.353   5.862   1.639
 6533SOL    HW220499   5.426   5.853   1.785
 6534SOL     OW20500   2.883   4.771   1.578
 6534SOL    HW120501   2.793   4.727   1.571
 6534SOL    HW220502   2.938   4.724   1.646
 6535SOL     OW20503   6.985   3.139   4.524
 6535SOL    HW120504   0.007   3.228   4.520
 6535SOL    HW220505   0.028   3.066   4.532
 6536SOL     OW20506   6.644   2.371   5.722
 6536SOL    HW120507   6.573   2.301   5.716
 6536SOL    HW220508   6.730   2.330   5.752
 6537SOL     OW20509   6.185   5.462   6.523
 6537SOL    HW120510   6.234   5.516   6.591
 6537SOL    HW220511   6.096   5.505   6.504
 6538SOL     OW20512   3.934   4.252   6.999
 6538SOL    HW120513   3.883   4.172   0.008
 6538SOL    HW220514   3.937   4.322   0.045
 6539SOL     OW20515   3.057   1.303   6.230
 6539SOL    HW120516   2.994   1.257   6.167
 6539SOL    HW220517   3.151   1.276   6.209
 6540SOL     OW20518   4.730   1.910   5.242
 6540SOL    HW120519   4.664   1.871   5.177
 6540SOL    HW220520   4.823   1.894   5.209
 6541SOL     OW20521   4.041   1.893   4.998
 6541SOL    HW120522   4.099   1.843   5.062
 6541SOL    HW220523   4.066   1.869   4.904
 6542SOL     OW20524   6.810   4.662   3.644
 6542SOL    HW120525   6.905   4.672   3.612
 6542SOL    HW220526   6.805   4.683   3.741
 6543SOL     OW20527   6.132   3.968   6.876
 6543SOL    HW120528   6.067   4.035   6.840
 6543SOL    HW220529   6.183   4.010   6.952
 6544SOL     OW20530   0.458   6.067   3.443
 6544SOL    HW120531   0.372   6.110   3.414
 6544SOL    HW220532   0.456   5.970   3.419
 6545SOL     OW20533   5.426   2.032   6.564
 6545SOL    HW120534   5.340   1.992   6.596
 6545SOL    HW220535   5.410   2.127   6.536
 6546SOL     OW20536   4.579   4.437   6.247
 6546SOL    HW120537   4.667   4.476   6.276
 6546SOL    HW220538   4.505   4.491   6.286
 6547SOL     OW20539   4.444   1.510   5.730
 6547SOL    HW120540   4.528   1.474   5.689
 6547SOL    HW220541   4.418   1.595   5.684
 6548SOL     OW20542   1.224   3.293   6.620
 6548SOL    HW120543   1.155   3.276   6.690
 6548SOL    HW220544   1.311   3.313   6.664
 6549SOL     OW20545   3.661   1.735   0.731
 6549SOL    HW120546   3.724   1.659   0.717
 6549SOL    HW220547   3.603   1.718   0.811
 6550SOL     OW20548   6.874   6.128   3.163
 6550SOL    HW120549   6.850   6.145   3.259
 6550SOL    HW220550   6.973   6.113   3.156
 6551SOL     OW20551   1.766   4.032   2.020
 6551SOL    HW120552   1.865   4.037   2.020
 6551SOL    HW220553   1.737   3.938   2.000
 6552SOL     OW20554   2.148   0.261   5.249
 6552SOL    HW120555   2.158   0.258   5.348
 6552SOL    HW220556   2.234   0.236   5.205
 6553SOL     OW20557   0.292   1.712   1.930
 6553SOL    HW120558   0.318   1.808   1.932
 6553SOL    HW220559   0.235   1.691   2.009
 6554SOL     OW20560   5.608   1.999   5.823
 6554SOL    HW120561   5.697   1.960   5.848
 6554SOL    HW220562   5.557   1.934   5.768
 6555SOL     OW20563   1.155   1.726   1.867
 6555SOL    HW120564   1.115   1.668   1.795
 6555SOL    HW220565   1.157   1.821   1.836
 6556SOL     OW20566   4.536   4.641   5.212
 6556SOL    HW120567   4.537   4.713   5.281
 6556SOL    HW220568   4.468   4.664   5.142
 6557SOL     OW20569   5.461   5.361   1.608
 6557SOL    HW120570   5.410   5.398   1.530
 6557SOL    HW220571   5.453   5.425   1.686
 6558SOL     OW20572   6.055   5.930   1.423
 6558SOL    HW120573   5.991   5.898   1.353
 6558SOL    HW220574   6.025   5.897   1.513
 6559SOL     OW20575   6.573   4.102   0.202
 6559SOL    HW120576   6.481   4.138   0.215
 6559SOL    HW220577   6.595   4.101   0.104
 6560SOL     OW20578   3.792   3.157   1.618
 6560SOL    HW120579   3.746   3.147   1.530
 6560SOL    HW220580   3.725   3.157   1.691
 6561SOL     OW20581   3.416   3.875   2.018
 6561SOL    HW120582   3.394   3.908   1.927
 6561SOL    HW220583   3.363   3.792   2.037
 6562SOL     OW20584   5.899   4.864   6.693
 6562SOL    HW120585   5.997   4.847   6.698
 6562SOL    HW220586   5.873   4.879   6.598
 6563SOL     OW20587   0.549   6.595   0.204
 6563SOL    HW120588   0.582   6.683   0.168
 6563SOL    HW220589   0.463   6.610   0.253
 6564SOL     OW20590   0.473   3.986   2.431
 6564SOL    HW120591   0.434   3.914   2.374
 6564SOL    HW220592   0.522   4.051   2.374
 6565SOL     OW20593   6.440   2.120   4.170
 6565SOL    HW120594   6.494   2.171   4.237
 6565SOL    HW220595   6.425   2.176   4.089
 6566SOL     OW20596   3.418   6.817   0.944
 6566SOL    HW120597   3.341   6.834   0.882
 6566SOL    HW220598   3.449   6.904   0.983
 6567SOL     OW20599   3.940   2.339   1.314
 6567SOL    HW120600   3.889   2.315   1.231
 6567SOL    HW220601   4.026   2.289   1.316
 6568SOL     OW20602   5.212   5.167   3.291
 6568SOL    HW120603   5.201   5.124   3.201
 6568SOL    HW220604   5.122   5.176   3.334
 6569SOL     OW20605   3.320   4.686   1.204
 6569SOL    HW120606   3.416   4.659   1.194
 6569SOL    HW220607   3.304   4.716   1.298
 6570SOL     OW20608   4.576   6.611   1.462
 6570SOL    HW120609   4.486   6.653   1.479
 6570SOL    HW220610   4.645   6.659   1.516
 6571SOL     OW20611   2.515   6.422   2.205
 6571SOL    HW120612   2.486   6.476   2.284
 6571SOL    HW220613   2.591   6.469   2.159
 6572SOL     OW20614   6.509   5.057   5.415
 6572SOL    HW120615   6.469   4.974   5.453
 6572SOL    HW220616   6.505   5.130   5.484
 6573SOL     OW20617   2.914   1.424   2.495
 6573SOL    HW120618   2.824   1.384   2.509
 6573SOL    HW220619   2.955   1.446   2.584
 6574SOL     OW20620   2.843   6.056   2.414
 6574SOL    HW120621   2.890   6.014   2.491
 6574SOL    HW220622   2.788   5.987   2.367
 6575SOL     OW20623   0.845   1.721   1.375
 6575SOL    HW120624   0.834   1.674   1.287
 6575SOL    HW220625   0.935   1.700   1.413
 6576SOL     OW20626   1.256   6.635   6.784
 6576SOL    HW120627   1.254   6.661   6.687
 6576SOL    HW220628   1.173   6.585   6.807
 6577SOL     OW20629   0.188   1.498   3.339
 6577SOL    HW120630   0.149   1.406   3.337
 6577SOL    HW220631   0.160   1.544   3.423
 6578SOL     OW20632   0.576   4.768   3.108
 6578SOL    HW120633   0.597   4.849   3.162
 6578SOL    HW220634   0.497   4.786   3.049
 6579SOL     OW20635   0.176   3.888   4.471
 6579SOL    HW120636   0.166   3.938   4.385
 6579SOL    HW220637   0.110   3.923   4.537
 6580SOL     OW20638   6.611   1.324   1.276
 6580SOL    HW120639   6.610   1.242   1.219
 6580SOL    HW220640   6.630   1.404   1.220
 6581SOL     OW20641   3.678   1.412   6.293
 6581SOL    HW120642   3.749   1.342   6.302
 6581SOL    HW220643   3.716   1.493   6.247
 6582SOL     OW20644   1.528   0.688   1.729
 6582SOL    HW120645   1.524   0.764   1.663
 6582SOL    HW220646   1.441   0.638   1.727
 6583SOL     OW20647   3.982   1.012   5.773
 6583SOL    HW120648   3.924   1.038   5.695
 6583SOL    HW220649   3.948   0.927   5.812
 6584SOL     OW20650   5.187   1.641   0.005
 6584SOL    HW120651   5.173   1.681   0.096
 6584SOL    HW220652   5.135   1.694   6.963
 6585SOL     OW20653   6.158   1.233   0.341
 6585SOL    HW120654   6.148   1.293   0.420
 6585SOL    HW220655   6.190   1.286   0.262
 6586SOL     OW20656   5.900   2.426   5.970
 6586SOL    HW120657   5.801   2.430   5.961
 6586SOL    HW220658   5.934   2.511   6.010
 6587SOL     OW20659   3.140   5.307   4.093
 6587SOL    HW120660   3.239   5.310   4.084
 6587SOL    HW220661   3.102   5.397   4.071
 6588SOL     OW20662   1.771   3.876   1.241
 6588SOL    HW120663   1.826   3.851   1.161
 6588SOL    HW220664   1.718   3.959   1.219
 6589SOL     OW20665   4.266   0.726   6.302
 6589SOL    HW120666   4.199   0.719   6.376
 6589SOL    HW220667   4.220   0.758   6.219
 6590SOL     OW20668   0.799   1.469   6.185
 6590SOL    HW120669   0.842   1.552   6.218
 6590SOL    HW220670   0.701   1.483   6.175
 6591SOL     OW20671   5.582   6.096   2.334
 6591SOL    HW120672   5.522   6.108   2.255
 6591SOL    HW220673   5.554   6.015   2.385
 6592SOL     OW20674   5.566   6.579   4.428
 6592SOL    HW120675   5.509   6.497   4.419
 6592SOL    HW220676   5.653   6.564   4.380
 6593SOL     OW20677   2.371   2.581   3.540
 6593SOL    HW120678   2.301   2.512   3.554
 6593SOL    HW220679   2.460   2.544   3.566
 6594SOL     OW20680   3.780   1.469   0.733
 6594SOL    HW120681   3.781   1.427   0.642
 6594SOL    HW220682   3.789   1.397   0.802
 6595SOL     OW20683   0.550   3.480   0.434
 6595SOL    HW120684   0.515   3.427   0.356
 6595SOL    HW220685   0.500   3.566   0.441
 6596SOL     OW20686   3.998   6.901   4.736
 6596SOL    HW120687   4.093   6.925   4.758
 6596SOL    HW220688   3.964   6.960   4.663
 6597SOL     OW20689   1.461   6.184   3.082
 6597SOL    HW120690   1.555   6.212   3.100
 6597SOL    HW220691   1.401   6.264   3.087
 6598SOL     OW20692   1.344   6.340   4.667
 6598SOL    HW120693   1.286   6.411   4.706
 6598SOL    HW220694   1.345   6.348   4.567
 6599SOL     OW20695   3.761   5.088   5.428
 6599SOL    HW120696   3.721   5.179   5.425
 6599SOL    HW220697   3.749   5.043   5.339
 6600SOL     OW20698   5.207   5.551   5.743
 6600SOL    HW120699   5.174   5.484   5.676
 6600SOL    HW220700   5.295   5.587   5.712
 6601SOL     OW20701   0.915   1.223   0.442
 6601SOL    HW120702   0.997   1.215   0.386
 6601SOL    HW220703   0.886   1.319   0.446
 6602SOL     OW20704   6.199   1.538   1.548
 6602SOL    HW120705   6.127   1.501   1.490
 6602SOL    HW220706   6.288   1.520   1.507
 6603SOL     OW20707   1.023   2.894   4.280
 6603SOL    HW120708   1.078   2.824   4.233
 6603SOL    HW220709   1.078   2.937   4.352
 6604SOL     OW20710   2.708   6.295   1.426
 6604SOL    HW120711   2.699   6.245   1.341
 6604SOL    HW220712   2.630   6.356   1.438
 6605SOL     OW20713   5.013   4.953   0.865
 6605SOL    HW120714   5.099   4.930   0.909
 6605SOL    HW220715   4.989   5.048   0.886
 6606SOL     OW20716   4.835   0.013   1.987
 6606SOL    HW120717   4.911   6.985   2.026
 6606SOL    HW220718   4.763   0.024   2.055
 6607SOL     OW20719   1.970   2.223   1.312
 6607SOL    HW120720   1.905   2.162   1.356
 6607SOL    HW220721   2.056   2.175   1.295
 6608SOL     OW20722   5.334   4.871   1.879
 6608SOL    HW120723   5.236   4.855   1.881
 6608SOL    HW220724   5.359   4.914   1.792
 6609SOL     OW20725   4.790   1.145   6.312
 6609SOL    HW120726   4.797   1.226   6.369
 6609SOL    HW220727   4.786   1.064   6.370
 6610SOL     OW20728   2.181   0.546   6.526
 6610SOL    HW120729   2.114   0.607   6.484
 6610SOL    HW220730   2.272   0.566   6.490
 6611SOL     OW20731   6.714   2.784   3.429
 6611SOL    HW120732   6.706   2.809   3.526
 6611SOL    HW220733   6.645   2.714   3.408
 6612SOL     OW20734   6.867   3.185   6.818
 6612SOL    HW120735   6.874   3.128   6.900
 6612SOL    HW220736   6.949   3.241   6.810
 6613SOL     OW20737   5.736   5.899   3.824
 6613SOL    HW120738   5.831   5.925   3.842
 6613SOL    HW220739   5.726   5.800   3.836
 6614SOL     OW20740   5.055   6.205   6.993
 6614SOL    HW120741   5.138   6.226   6.941
 6614SOL    HW220742   5.078   6.196   0.065
 6615SOL     OW20743   0.954   4.121   4.162
 6615SOL    HW120744   0.974   4.202   4.217
 6615SOL    HW220745   0.996   4.131   4.072
 6616SOL     OW20746   4.305   1.125   6.273
 6616SOL    HW120747   4.357   1.079   6.346
 6616SOL    HW220748   4.229   1.066   6.245
 6617SOL     OW20749   3.354   6.102   3.249
 6617SOL    HW120750   3.295   6.096   3.168
 6617SOL    HW220751   3.444   6.065   3.227
 6618SOL     OW20752   1.108   3.333   2.895
 6618SOL    HW120753   1.198   3.313   2.934
 6618SOL    HW220754   1.117   3.404   2.825
 6619SOL     OW20755   6.485   6.892   4.799
 6619SOL    HW120756   6.515   6.816   4.742
 6619SOL    HW220757   6.544   6.971   4.783
 6620SOL     OW20758   2.136   2.730   5.279
 6620SOL    HW120759   2.114   2.747   5.375
 6620SOL    HW220760   2.233   2.744   5.265
 6621SOL     OW20761   2.701   3.242   0.117
 6621SOL    HW120762   2.626   3.275   0.175
 6621SOL    HW220763   2.770   3.314   0.108
 6622SOL     OW20764   6.028   6.250   1.955
 6622SOL    HW120765   5.981   6.338   1.956
 6622SOL    HW220766   6.024   6.209   2.046
 6623SOL     OW20767   3.193   3.471   1.316
 6623SOL    HW120768   3.114   3.515   1.273
 6623SOL    HW220769   3.175   3.373   1.325
 6624SOL     OW20770   2.145   0.499   4.063
 6624SOL    HW120771   2.050   0.473   4.074
 6624SOL    HW220772   2.203   0.418   4.068
 6625SOL     OW20773   5.184   1.709   6.295
 6625SOL    HW120774   5.115   1.770   6.254
 6625SOL    HW220775   5.227   1.755   6.372
 6626SOL     OW20776   4.291   4.872   3.854
 6626SOL    HW120777   4.324   4.781   3.829
 6626SOL    HW220778   4.338   4.941   3.798
 6627SOL     OW20779   2.480   0.648   5.563
 6627SOL    HW120780   2.534   0.719   5.517
 6627SOL    HW220781   2.541   0.575   5.594
 6628SOL     OW20782   4.795   4.993   3.659
 6628SOL    HW120783   4.777   4.896   3.676
 6628SOL    HW220784   4.712   5.037   3.623
 6629SOL     OW20785   2.580   6.282   0.042
 6629SOL    HW120786   2.636   6.203   0.066
 6629SOL    HW220787   2.504   6.290   0.107
 6630SOL     OW20788   3.590   1.441   1.573
 6630SOL    HW120789   3.552   1.524   1.533
 6630SOL    HW220790   3.685   1.432   1.546
 6631SOL     OW20791   4.164   0.355   2.088
 6631SOL    HW120792   4.080   0.370   2.035
 6631SOL    HW220793   4.163   0.413   2.169
 6632SOL     OW20794   0.201   0.814   1.864
 6632SOL    HW120795   0.297   0.830   1.885
 6632SOL    HW220796   0.172   0.877   1.792
 6633SOL     OW20797   1.441   5.131   5.935
 6633SOL    HW120798   1.444   5.163   5.840
 6633SOL    HW220799   1.446   5.031   5.936
 6634SOL     OW20800   5.432   3.382   5.892
 6634SOL    HW120801   5.478   3.340   5.813
 6634SOL    HW220802   5.334   3.388   5.873
 6635SOL     OW20803   4.268   5.691   3.341
 6635SOL    HW120804   4.338   5.744   3.389
 6635SOL    HW220805   4.211   5.644   3.407
 6636SOL     OW20806   2.968   1.949   6.069
 6636SOL    HW120807   3.040   2.009   6.034
 6636SOL    HW220808   2.900   2.003   6.118
 6637SOL     OW20809   1.649   0.286   6.417
 6637SOL    HW120810   1.660   0.385   6.407
 6637SOL    HW220811   1.724   0.239   6.369
 6638SOL     OW20812   4.024   4.887   5.093
 6638SOL    HW120813   3.961   4.951   5.049
 6638SOL    HW220814   3.972   4.825   5.153
 6639SOL     OW20815   5.888   6.189   6.948
 6639SOL    HW120816   5.836   6.253   6.891
 6639SOL    HW220817   5.880   6.216   0.019
 6640SOL     OW20818   6.901   2.241   5.414
 6640SOL    HW120819   6.906   2.238   5.314
 6640SOL    HW220820   6.882   2.334   5.444
 6641SOL     OW20821   2.392   2.589   6.479
 6641SOL    HW120822   2.336   2.643   6.542
 6641SOL    HW220823   2.408   2.498   6.517
 6642SOL     OW20824   2.460   5.501   0.575
 6642SOL    HW120825   2.560   5.500   0.576
 6642SOL    HW220826   2.426   5.495   0.668
 6643SOL     OW20827   6.623   4.586   6.655
 6643SOL    HW120828   6.532   4.574   6.693
 6643SOL    HW220829   6.640   4.684   6.641
 6644SOL     OW20830   2.778   4.843   1.872
 6644SOL    HW120831   2.869   4.885   1.868
 6644SOL    HW220832   2.786   4.747   1.899
 6645SOL     OW20833   6.844   4.968   0.256
 6645SOL    HW120834   6.794   4.909   0.319
 6645SOL    HW220835   6.903   5.030   0.308
 6646SOL     OW20836   3.910   6.326   4.440
 6646SOL    HW120837   3.907   6.392   4.515
 6646SOL    HW220838   3.818   6.317   4.400
 6647SOL     OW20839   3.577   1.354   2.106
 6647SOL    HW120840   3.517   1.407   2.046
 6647SOL    HW220841   3.628   1.415   2.166
 6648SOL     OW20842   3.094   5.842   2.072
 6648SOL    HW120843   3.059   5.899   1.998
 6648SOL    HW220844   3.025   5.772   2.095
 6649SOL     OW20845   5.047   1.892   6.832
 6649SOL    HW120846   5.121   1.851   6.779
 6649SOL    HW220847   4.984   1.940   6.771
 6650SOL     OW20848   4.275   1.273   5.454
 6650SOL    HW120849   4.259   1.254   5.551
 6650SOL    HW220850   4.192   1.309   5.412
 6651SOL     OW20851   1.686   1.644   6.710
 6651SOL    HW120852   1.734   1.732   6.708
 6651SOL    HW220853   1.666   1.615   6.617
 6652SOL     OW20854   6.577   4.998   0.554
 6652SOL    HW120855   6.553   4.910   0.596
 6652SOL    HW220856   6.496   5.038   0.511
 6653SOL     OW20857   3.753   3.313   2.855
 6653SOL    HW120858   3.726   3.326   2.760
 6653SOL    HW220859   3.838   3.363   2.873
 6654SOL     OW20860   2.024   3.194   1.028
 6654SOL    HW120861   1.980   3.281   1.051
 6654SOL    HW220862   2.025   3.134   1.108
 6655SOL     OW20863   3.081   6.712   1.605
 6655SOL    HW120864   3.161   6.674   1.652
 6655SOL    HW220865   3.101   6.806   1.577
 6656SOL     OW20866   5.745   1.449   2.673
 6656SOL    HW120867   5.767   1.476   2.579
 6656SOL    HW220868   5.727   1.530   2.728
 6657SOL     OW20869   4.955   6.230   6.511
 6657SOL    HW120870   4.926   6.312   6.561
 6657SOL    HW220871   4.941   6.149   6.569
 6658SOL     OW20872   5.831   1.542   4.771
 6658SOL    HW120873   5.909   1.511   4.825
 6658SOL    HW220874   5.845   1.517   4.675
 6659SOL     OW20875   2.646   2.365   0.604
 6659SOL    HW120876   2.706   2.370   0.524
 6659SOL    HW220877   2.596   2.278   0.603
 6660SOL     OW20878   0.133   6.085   0.692
 6660SOL    HW120879   0.178   6.174   0.680
 6660SOL    HW220880   0.035   6.095   0.674
 6661SOL     OW20881   0.646   5.449   3.983
 6661SOL    HW120882   0.588   5.458   4.065
 6661SOL    HW220883   0.599   5.392   3.916
 6662SOL     OW20884   1.576   0.421   6.739
 6662SOL    HW120885   1.491   0.420   6.687
 6662SOL    HW220886   1.568   0.359   6.817
 6663SOL     OW20887   0.063   5.418   3.207
 6663SOL    HW120888   0.011   5.348   3.257
 6663SOL    HW220889   0.153   5.382   3.185
 6664SOL     OW20890   1.608   6.896   1.394
 6664SOL    HW120891   1.514   6.882   1.362
 6664SOL    HW220892   1.671   6.839   1.340
 6665SOL     OW20893   2.112   0.686   2.694
 6665SOL    HW120894   2.026   0.673   2.744
 6665SOL    HW220895   2.131   0.783   2.685
 6666SOL     OW20896   5.656   1.630   5.768
 6666SOL    HW120897   5.677   1.545   5.719
 6666SOL    HW220898   5.659   1.613   5.866
 6667SOL     OW20899   7.021   5.295   5.268
 6667SOL    HW120900   0.044   5.376   5.302
 6667SOL    HW220901   6.935   5.324   5.226
 6668SOL     OW20902   6.742   5.925   1.609
 6668SOL    HW120903   6.681   5.908   1.531
 6668SOL    HW220904   6.746   6.023   1.628
 6669SOL     OW20905   2.243   2.983   4.153
 6669SOL    HW120906   2.221   3.078   4.175
 6669SOL    HW220907   2.230   2.926   4.235
 6670SOL     OW20908   3.454   3.393   6.303
 6670SOL    HW120909   3.432   3.460   6.374
 6670SOL    HW220910   3.539   3.420   6.257
 6671SOL     OW20911   5.351   5.480   1.368
 6671SOL    HW120912   5.422   5.509   1.303
 6671SOL    HW220913   5.301   5.560   1.401
 6672SOL     OW20914   1.266   1.855   4.916
 6672SOL    HW120915   1.265   1.900   5.005
 6672SOL    HW220916   1.359   1.825   4.894
 6673SOL     OW20917   4.779   6.324   3.514
 6673SOL    HW120918   4.680   6.330   3.525
 6673SOL    HW220919   4.804   6.350   3.421
 6674SOL     OW20920   0.798   5.390   6.681
 6674SOL    HW120921   0.879   5.415   6.629
 6674SOL    HW220922   0.730   5.349   6.619
 6675SOL     OW20923   4.496   4.000   1.647
 6675SOL    HW120924   4.440   4.015   1.565
 6675SOL    HW220925   4.481   4.075   1.712
 6676SOL     OW20926   0.278   4.011   5.602
 6676SOL    HW120927   0.361   4.056   5.633
 6676SOL    HW220928   0.287   3.990   5.504
 6677SOL     OW20929   0.245   2.671   0.006
 6677SOL    HW120930   0.172   2.702   6.970
 6677SOL    HW220931   0.317   2.740   0.009
 6678SOL     OW20932   1.711   2.505   0.269
 6678SOL    HW120933   1.685   2.532   0.362
 6678SOL    HW220934   1.798   2.455   0.272
 6679SOL     OW20935   2.818   1.652   4.161
 6679SOL    HW120936   2.740   1.597   4.192
 6679SOL    HW220937   2.901   1.619   4.205
 6680SOL     OW20938   4.301   6.490   6.275
 6680SOL    HW120939   4.282   6.480   6.177
 6680SOL    HW220940   4.216   6.477   6.326
 6681SOL     OW20941   5.071   4.832   7.017
 6681SOL    HW120942   5.151   4.779   0.020
 6681SOL    HW220943   4.988   4.791   0.031
 6682SOL     OW20944   0.939   3.932   2.565
 6682SOL    HW120945   0.898   4.021   2.542
 6682SOL    HW220946   0.998   3.903   2.489
 6683SOL     OW20947   5.174   2.527   5.888
 6683SOL    HW120948   5.251   2.560   5.943
 6683SOL    HW220949   5.132   2.448   5.933
 6684SOL     OW20950   2.157   6.768   0.967
 6684SOL    HW120951   2.164   6.695   1.035
 6684SOL    HW220952   2.065   6.769   0.929
 6685SOL     OW20953   5.342   2.603   5.202
 6685SOL    HW120954   5.283   2.634   5.127
 6685SOL    HW220955   5.373   2.683   5.255
 6686SOL     OW20956   5.172   5.515   3.607
 6686SOL    HW120957   5.185   5.607   3.643
 6686SOL    HW220958   5.233   5.501   3.529
 6687SOL     OW20959   0.407   1.716   1.226
 6687SOL    HW120960   0.447   1.652   1.292
 6687SOL    HW220961   0.450   1.702   1.136
 6688SOL     OW20962   0.216   4.012   1.922
 6688SOL    HW120963   0.246   4.037   2.015
 6688SOL    HW220964   0.219   4.093   1.863
 6689SOL     OW20965   4.131   3.108   0.754
 6689SOL    HW120966   4.222   3.087   0.792
 6689SOL    HW220967   4.079   3.160   0.822
 6690SOL     OW20968   2.501   0.893   2.012
 6690SOL    HW120969   2.452   0.834   2.076
 6690SOL    HW220970   2.486   0.860   1.919
 6691SOL     OW20971   3.218   5.422   1.832
 6691SOL    HW120972   3.232   5.468   1.745
 6691SOL    HW220973   3.216   5.490   1.906
 6692SOL     OW20974   2.933   4.817   5.265
 6692SOL    HW120975   2.904   4.888   5.201
 6692SOL    HW220976   2.940   4.730   5.217
 6693SOL     OW20977   4.861   3.582   6.181
 6693SOL    HW120978   4.773   3.568   6.227
 6693SOL    HW220979   4.883   3.679   6.182
 6694SOL     OW20980   4.803   6.218   0.031
 6694SOL    HW120981   4.900   6.204   0.012
 6694SOL    HW220982   4.774   6.306   7.017
 6695SOL     OW20983   1.603   1.887   5.970
 6695SOL    HW120984   1.564   1.925   6.054
 6695SOL    HW220985   1.659   1.955   5.925
 6696SOL     OW20986   1.510   2.338   0.545
 6696SOL    HW120987   1.586   2.325   0.609
 6696SOL    HW220988   1.518   2.272   0.471
 6697SOL     OW20989   4.584   2.392   3.443
 6697SOL    HW120990   4.522   2.345   3.506
 6697SOL    HW220991   4.677   2.386   3.477
 6698SOL     OW20992   3.258   3.037   0.293
 6698SOL    HW120993   3.182   2.976   0.274
 6698SOL    HW220994   3.285   3.085   0.209
 6699SOL     OW20995   3.636   4.591   0.019
 6699SOL    HW120996   3.692   4.650   0.076
 6699SOL    HW220997   3.672   4.497   0.022
 6700SOL     OW20998   0.127   5.876   1.006
 6700SOL    HW120999   0.110   5.948   0.938
 6700SOL    HW221000   0.176   5.915   1.084
 6701SOL     OW21001   6.087   2.786   1.334
 6701SOL    HW121002   6.147   2.757   1.409
 6701SOL    HW221003   6.100   2.726   1.256
 6702SOL     OW21004   2.615   2.675   0.399
 6702SOL    HW121005   2.662   2.678   0.488
 6702SOL    HW221006   2.531   2.729   0.405
 6703SOL     OW21007   6.634   1.840   6.858
 6703SOL    HW121008   6.656   1.828   6.762
 6703SOL    HW221009   6.660   1.758   6.909
 6704SOL     OW21010   4.295   2.087   2.900
 6704SOL    HW121011   4.306   1.988   2.912
 6704SOL    HW221012   4.327   2.113   2.809
 6705SOL     OW21013   0.108   1.882   1.806
 6705SOL    HW121014   0.166   1.945   1.858
 6705SOL    HW221015   0.163   1.804   1.776
 6706SOL     OW21016   1.190   4.033   0.574
 6706SOL    HW121017   1.117   4.066   0.634
 6706SOL    HW221018   1.186   3.933   0.570
 6707SOL     OW21019   0.153   5.502   4.680
 6707SOL    HW121020   0.060   5.494   4.646
 6707SOL    HW221021   0.215   5.525   4.604
 6708SOL     OW21022   1.859   5.593   2.795
 6708SOL    HW121023   1.890   5.499   2.784
 6708SOL    HW221024   1.794   5.616   2.722
 6709SOL     OW21025   2.861   5.684   1.618
 6709SOL    HW121026   2.925   5.700   1.694
 6709SOL    HW221027   2.773   5.654   1.655
 6710SOL     OW21028   2.094   2.035   5.943
 6710SOL    HW121029   2.161   2.097   5.984
 6710SOL    HW221030   2.114   2.024   5.846
 6711SOL     OW21031   6.154   4.788   6.676
 6711SOL    HW121032   6.196   4.716   6.622
 6711SOL    HW221033   6.183   4.780   6.771
 6712SOL     OW21034   4.627   5.513   0.210
 6712SOL    HW121035   4.716   5.492   0.251
 6712SOL    HW221036   4.622   5.474   0.118
 6713SOL     OW21037   2.055   1.691   1.381
 6713SOL    HW121038   2.149   1.712   1.408
 6713SOL    HW221039   2.016   1.770   1.333
 6714SOL     OW21040   5.290   0.919   5.572
 6714SOL    HW121041   5.372   0.902   5.517
 6714SOL    HW221042   5.237   0.835   5.579
 6715SOL     OW21043   0.170   0.705   0.109
 6715SOL    HW121044   0.230   0.664   0.178
 6715SOL    HW221045   0.078   0.718   0.148
 6716SOL     OW21046   1.111   6.331   2.161
 6716SOL    HW121047   1.073   6.239   2.148
 6716SOL    HW221048   1.111   6.354   2.258
 6717SOL     OW21049   4.494   2.514   0.628
 6717SOL    HW121050   4.588   2.504   0.662
 6717SOL    HW221051   4.441   2.572   0.690
 6718SOL     OW21052   3.894   6.309   6.310
 6718SOL    HW121053   3.858   6.283   6.400
 6718SOL    HW221054   3.964   6.379   6.322
 6719SOL     OW21055   0.199   0.311   6.095
 6719SOL    HW121056   0.218   0.379   6.024
 6719SOL    HW221057   0.266   0.320   6.169
 6720SOL     OW21058   2.237   6.221   1.965
 6720SOL    HW121059   2.326   6.197   1.927
 6720SOL    HW221060   2.249   6.291   2.036
 6721SOL     OW21061   6.214   6.784   4.831
 6721SOL    HW121062   6.304   6.810   4.794
 6721SOL    HW221063   6.225   6.707   4.893
 6722SOL     OW21064   5.125   3.158   1.002
 6722SOL    HW121065   5.076   3.243   0.981
 6722SOL    HW221066   5.064   3.093   1.046
 6723SOL     OW21067   2.331   6.945   3.545
 6723SOL    HW121068   2.269   7.020   3.523
 6723SOL    HW221069   2.417   6.982   3.581
 6724SOL     OW21070   1.187   4.128   5.716
 6724SOL    HW121071   1.207   4.086   5.804
 6724SOL    HW221072   1.125   4.069   5.664
 6725SOL     OW21073   1.059   4.339   1.921
 6725SOL    HW121074   0.984   4.274   1.935
 6725SOL    HW221075   1.021   4.430   1.906
 6726SOL     OW21076   1.352   1.889   4.221
 6726SOL    HW121077   1.369   1.880   4.123
 6726SOL    HW221078   1.287   1.964   4.237
 6727SOL     OW21079   5.769   3.925   5.866
 6727SOL    HW121080   5.717   3.901   5.784
 6727SOL    HW221081   5.840   3.856   5.883
 6728SOL     OW21082   4.586   1.342   4.743
 6728SOL    HW121083   4.654   1.372   4.810
 6728SOL    HW221084   4.546   1.422   4.698
 6729SOL     OW21085   6.536   1.693   2.597
 6729SOL    HW121086   6.448   1.689   2.550
 6729SOL    HW221087   6.523   1.672   2.694
 6730SOL     OW21088   1.952   6.625   6.809
 6730SOL    HW121089   1.904   6.618   6.722
 6730SOL    HW221090   2.020   6.699   6.804
 6731SOL     OW21091   2.568   4.415   1.064
 6731SOL    HW121092   2.528   4.494   1.017
 6731SOL    HW221093   2.500   4.342   1.070
 6732SOL     OW21094   3.159   5.703   6.581
 6732SOL    HW121095   3.230   5.699   6.652
 6732SOL    HW221096   3.203   5.711   6.491
 6733SOL     OW21097   4.370   4.993   6.644
 6733SOL    HW121098   4.293   4.980   6.582
 6733SOL    HW221099   4.394   5.090   6.648
 6734SOL     OW21100   0.845   3.282   6.024
 6734SOL    HW121101   0.891   3.360   6.066
 6734SOL    HW221102   0.893   3.254   5.941
 6735SOL     OW21103   0.480   5.493   5.187
 6735SOL    HW121104   0.435   5.554   5.123
 6735SOL    HW221105   0.572   5.472   5.154
 6736SOL     OW21106   1.983   3.500   0.550
 6736SOL    HW121107   2.034   3.584   0.531
 6736SOL    HW221108   1.885   3.521   0.554
 6737SOL     OW21109   2.231   2.124   1.335
 6737SOL    HW121110   2.221   2.149   1.432
 6737SOL    HW221111   2.328   2.107   1.316
 6738SOL     OW21112   1.714   2.917   2.089
 6738SOL    HW121113   1.664   2.842   2.046
 6738SOL    HW221114   1.798   2.882   2.131
 6739SOL     OW21115   3.353   5.677   5.948
 6739SOL    HW121116   3.389   5.711   6.035
 6739SOL    HW221117   3.428   5.666   5.882
 6740SOL     OW21118   2.190   1.677   4.240
 6740SOL    HW121119   2.227   1.647   4.328
 6740SOL    HW221120   2.124   1.609   4.207
 6741SOL     OW21121   4.527   1.786   6.130
 6741SOL    HW121122   4.595   1.770   6.059
 6741SOL    HW221123   4.561   1.855   6.194
 6742SOL     OW21124   0.383   5.699   3.734
 6742SOL    HW121125   0.339   5.679   3.821
 6742SOL    HW221126   0.432   5.787   3.741
 6743SOL     OW21127   4.368   4.186   6.618
 6743SOL    HW121128   4.436   4.230   6.560
 6743SOL    HW221129   4.282   4.176   6.569
 6744SOL     OW21130   4.111   5.563   6.158
 6744SOL    HW121131   4.148   5.631   6.096
 6744SOL    HW221132   4.088   5.480   6.107
 6745SOL     OW21133   0.686   5.383   2.775
 6745SOL    HW121134   0.688   5.456   2.707
 6745SOL    HW221135   0.766   5.390   2.834
 6746SOL     OW21136   0.134   0.611   2.190
 6746SOL    HW121137   0.121   0.555   2.271
 6746SOL    HW221138   0.156   0.705   2.217
 6747SOL     OW21139   5.504   6.162   4.253
 6747SOL    HW121140   5.467   6.206   4.335
 6747SOL    HW221141   5.598   6.134   4.269
 6748SOL     OW21142   1.018   0.813   2.436
 6748SOL    HW121143   1.105   0.779   2.400
 6748SOL    HW221144   0.986   0.751   2.508
 6749SOL     OW21145   2.902   6.957   6.896
 6749SOL    HW121146   2.940   6.987   6.984
 6749SOL    HW221147   2.816   7.004   6.880
 6750SOL     OW21148   3.889   1.551   4.808
 6750SOL    HW121149   3.967   1.549   4.870
 6750SOL    HW221150   3.849   1.643   4.807
 6751SOL     OW21151   3.212   2.132   3.687
 6751SOL    HW121152   3.199   2.084   3.601
 6751SOL    HW221153   3.125   2.172   3.717
 6752SOL     OW21154   6.277   2.509   1.449
 6752SOL    HW121155   6.278   2.605   1.476
 6752SOL    HW221156   6.186   2.471   1.463
 6753SOL     OW21157   4.425   1.597   6.793
 6753SOL    HW121158   4.446   1.678   6.848
 6753SOL    HW221159   4.394   1.523   6.852
 6754SOL     OW21160   6.510   2.142   5.734
 6754SOL    HW121161   6.563   2.060   5.716
 6754SOL    HW221162   6.444   2.124   5.808
 6755SOL     OW21163   5.048   1.645   4.013
 6755SOL    HW121164   5.036   1.743   4.002
 6755SOL    HW221165   4.961   1.599   3.999
 6756SOL     OW21166   4.788   4.092   4.081
 6756SOL    HW121167   4.708   4.034   4.071
 6756SOL    HW221168   4.844   4.059   4.157
 6757SOL     OW21169   4.941   5.734   0.386
 6757SOL    HW121170   4.940   5.668   0.311
 6757SOL    HW221171   4.944   5.827   0.349
 6758SOL     OW21172   5.000   3.391   1.939
 6758SOL    HW121173   5.075   3.409   1.875
 6758SOL    HW221174   4.943   3.317   1.904
 6759SOL     OW21175   1.175   3.951   3.990
 6759SOL    HW121176   1.223   3.867   3.965
 6759SOL    HW221177   1.239   4.015   4.031
 6760SOL     OW21178   0.121   5.158   4.667
 6760SOL    HW121179   0.035   5.108   4.665
 6760SOL    HW221180   0.196   5.095   4.647
 6761SOL     OW21181   5.559   2.710   5.922
 6761SOL    HW121182   5.643   2.759   5.900
 6761SOL    HW221183   5.491   2.725   5.849
 6762SOL     OW21184   6.579   5.343   3.391
 6762SOL    HW121185   6.497   5.286   3.381
 6762SOL    HW221186   6.651   5.308   3.332
 6763SOL     OW21187   6.524   5.699   4.154
 6763SOL    HW121188   6.550   5.757   4.231
 6763SOL    HW221189   6.445   5.644   4.178
 6764SOL     OW21190   3.210   3.961   6.002
 6764SOL    HW121191   3.297   4.010   5.997
 6764SOL    HW221192   3.214   3.891   6.073
 6765SOL     OW21193   6.424   4.867   3.458
 6765SOL    HW121194   6.454   4.929   3.386
 6765SOL    HW221195   6.330   4.889   3.485
 6766SOL     OW21196   2.357   0.351   5.950
 6766SOL    HW121197   2.390   0.304   5.869
 6766SOL    HW221198   2.413   0.432   5.966
 6767SOL     OW21199   0.535   2.402   0.437
 6767SOL    HW121200   0.461   2.369   0.496
 6767SOL    HW221201   0.496   2.437   0.352
 6768SOL     OW21202   0.518   0.431   3.334
 6768SOL    HW121203   0.594   0.464   3.390
 6768SOL    HW221204   0.534   0.456   3.238
 6769SOL     OW21205   3.063   1.810   5.063
 6769SOL    HW121206   2.965   1.795   5.051
 6769SOL    HW221207   3.079   1.895   5.112
 6770SOL     OW21208   0.303   2.638   4.121
 6770SOL    HW121209   0.312   2.719   4.063
 6770SOL    HW221210   0.279   2.559   4.065
 6771SOL     OW21211   3.871   2.199   3.280
 6771SOL    HW121212   3.810   2.215   3.202
 6771SOL    HW221213   3.966   2.199   3.250
 6772SOL     OW21214   5.264   1.724   2.560
 6772SOL    HW121215   5.260   1.821   2.585
 6772SOL    HW221216   5.271   1.715   2.461
 6773SOL     OW21217   6.864   6.516   1.566
 6773SOL    HW121218   6.931   6.532   1.493
 6773SOL    HW221219   6.776   6.491   1.525
 6774SOL     OW21220   2.025   1.777   5.181
 6774SOL    HW121221   2.123   1.795   5.172
 6774SOL    HW221222   2.006   1.683   5.155
 6775SOL     OW21223   0.825   1.715   3.798
 6775SOL    HW121224   0.812   1.814   3.797
 6775SOL    HW221225   0.913   1.692   3.758
 6776SOL     OW21226   3.798   4.146   0.933
 6776SOL    HW121227   3.715   4.142   0.989
 6776SOL    HW221228   3.823   4.054   0.904
 6777SOL     OW21229   4.535   5.492   1.552
 6777SOL    HW121230   4.518   5.502   1.454
 6777SOL    HW221231   4.540   5.395   1.576
 6778SOL     OW21232   5.296   3.133   2.533
 6778SOL    HW121233   5.292   3.231   2.514
 6778SOL    HW221234   5.337   3.086   2.455
 6779SOL     OW21235   5.990   4.092   5.822
 6779SOL    HW121236   6.013   4.124   5.914
 6779SOL    HW221237   5.919   4.022   5.828
 6780SOL     OW21238   2.315   2.897   3.201
 6780SOL    HW121239   2.255   2.975   3.182
 6780SOL    HW221240   2.319   2.882   3.300
 6781SOL     OW21241   6.286   1.191   4.157
 6781SOL    HW121242   6.302   1.289   4.168
 6781SOL    HW221243   6.216   1.161   4.222
 6782SOL     OW21244   6.955   1.537   3.110
 6782SOL    HW121245   6.939   1.445   3.074
 6782SOL    HW221246   6.922   1.542   3.205
 6783SOL     OW21247   0.937   4.897   5.446
 6783SOL    HW121248   0.851   4.898   5.498
 6783SOL    HW221249   0.986   4.983   5.463
 6784SOL     OW21250   2.246   3.406   1.581
 6784SOL    HW121251   2.190   3.412   1.664
 6784SOL    HW221252   2.327   3.463   1.591
 6785SOL     OW21253   5.279   4.718   5.029
 6785SOL    HW121254   5.245   4.634   5.072
 6785SOL    HW221255   5.202   4.781   5.015
 6786SOL     OW21256   6.260   2.582   0.863
 6786SOL    HW121257   6.347   2.609   0.822
 6786SOL    HW221258   6.264   2.485   0.887
 6787SOL     OW21259   3.631   2.314   0.490
 6787SOL    HW121260   3.548   2.269   0.520
 6787SOL    HW221261   3.618   2.414   0.494
 6788SOL     OW21262   0.808   3.787   3.226
 6788SOL    HW121263   0.751   3.717   3.182
 6788SOL    HW221264   0.857   3.839   3.156
 6789SOL     OW21265   6.826   3.683   4.026
 6789SOL    HW121266   6.797   3.777   4.007
 6789SOL    HW221267   6.767   3.620   3.976
 6790SOL     OW21268   0.960   5.004   6.118
 6790SOL    HW121269   1.032   5.065   6.086
 6790SOL    HW221270   0.993   4.909   6.118
 6791SOL     OW21271   4.323   1.471   3.942
 6791SOL    HW121272   4.374   1.387   3.960
 6791SOL    HW221273   4.384   1.540   3.901
 6792SOL     OW21274   4.768   0.215   5.090
 6792SOL    HW121275   4.704   0.288   5.111
 6792SOL    HW221276   4.804   0.176   5.175
 6793SOL     OW21277   2.253   2.955   0.026
 6793SOL    HW121278   2.339   2.921   0.066
 6793SOL    HW221279   2.252   3.055   0.029
 6794SOL     OW21280   4.466   1.409   5.988
 6794SOL    HW121281   4.440   1.455   5.904
 6794SOL    HW221282   4.438   1.313   5.984
 6795SOL     OW21283   1.571   1.087   1.235
 6795SOL    HW121284   1.617   1.026   1.300
 6795SOL    HW221285   1.640   1.138   1.183
 6796SOL     OW21286   5.949   1.445   1.916
 6796SOL    HW121287   5.969   1.352   1.884
 6796SOL    HW221288   6.029   1.503   1.904
 6797SOL     OW21289   0.502   2.458   1.669
 6797SOL    HW121290   0.499   2.360   1.648
 6797SOL    HW221291   0.409   2.493   1.680
 6798SOL     OW21292   5.716   0.592   2.223
 6798SOL    HW121293   5.656   0.671   2.234
 6798SOL    HW221294   5.785   0.612   2.153
 6799SOL     OW21295   5.206   0.041   2.887
 6799SOL    HW121296   5.172   6.975   2.908
 6799SOL    HW221297   5.139   0.110   2.913
 6800SOL     OW21298   0.926   0.817   1.472
 6800SOL    HW121299   1.019   0.796   1.444
 6800SOL    HW221300   0.894   0.748   1.536
 6801SOL     OW21301   1.312   6.395   5.015
 6801SOL    HW121302   1.361   6.322   5.064
 6801SOL    HW221303   1.375   6.444   4.955
 6802SOL     OW21304   3.375   5.797   1.736
 6802SOL    HW121305   3.446   5.753   1.681
 6802SOL    HW221306   3.416   5.869   1.791
 6803SOL     OW21307   5.294   4.996   7.004
 6803SOL    HW121308   5.202   4.957   7.003
 6803SOL    HW221309   5.329   4.992   0.073
 6804SOL     OW21310   2.591   4.738   2.754
 6804SOL    HW121311   2.609   4.748   2.656
 6804SOL    HW221312   2.536   4.656   2.769
 6805SOL     OW21313   0.519   4.726   5.981
 6805SOL    HW121314   0.485   4.759   6.069
 6805SOL    HW221315   0.450   4.668   5.938
 6806SOL     OW21316   6.585   0.477   3.338
 6806SOL    HW121317   6.594   0.546   3.410
 6806SOL    HW221318   6.545   0.518   3.257
 6807SOL     OW21319   3.449   3.751   2.400
 6807SOL    HW121320   3.493   3.783   2.484
 6807SOL    HW221321   3.427   3.831   2.343
 6808SOL     OW21322   4.402   1.855   5.310
 6808SOL    HW121323   4.349   1.905   5.378
 6808SOL    HW221324   4.451   1.780   5.355
 6809SOL     OW21325   5.877   4.610   2.238
 6809SOL    HW121326   5.812   4.670   2.286
 6809SOL    HW221327   5.863   4.516   2.268
 6810SOL     OW21328   2.689   1.132   3.154
 6810SOL    HW121329   2.637   1.051   3.181
 6810SOL    HW221330   2.628   1.211   3.146
 6811SOL     OW21331   6.256   1.725   2.539
 6811SOL    HW121332   6.175   1.677   2.575
 6811SOL    HW221333   6.252   1.821   2.566
 6812SOL     OW21334   2.920   3.829   5.193
 6812SOL    HW121335   2.907   3.854   5.097
 6812SOL    HW221336   2.833   3.839   5.242
 6813SOL     OW21337   4.933   3.096   1.298
 6813SOL    HW121338   4.946   2.998   1.310
 6813SOL    HW221339   5.015   3.145   1.327
 6814SOL     OW21340   4.219   1.626   6.293
 6814SOL    HW121341   4.259   1.534   6.289
 6814SOL    HW221342   4.159   1.639   6.214
 6815SOL     OW21343   2.225   5.194   6.446
 6815SOL    HW121344   2.205   5.161   6.353
 6815SOL    HW221345   2.246   5.291   6.443
 6816SOL     OW21346   0.535   2.011   4.375
 6816SOL    HW121347   0.536   2.075   4.453
 6816SOL    HW221348   0.441   1.979   4.361
 6817SOL     OW21349   2.945   1.996   2.423
 6817SOL    HW121350   2.941   2.058   2.502
 6817SOL    HW221351   2.857   1.950   2.411
 6818SOL     OW21352   2.221   6.452   5.862
 6818SOL    HW121353   2.298   6.422   5.806
 6818SOL    HW221354   2.207   6.550   5.850
 6819SOL     OW21355   4.492   5.059   3.167
 6819SOL    HW121356   4.539   5.008   3.095
 6819SOL    HW221357   4.425   5.000   3.212
 6820SOL     OW21358   2.181   6.224   1.520
 6820SOL    HW121359   2.208   6.278   1.440
 6820SOL    HW221360   2.157   6.286   1.594
 6821SOL     OW21361   4.581   2.820   5.241
 6821SOL    HW121362   4.553   2.814   5.145
 6821SOL    HW221363   4.660   2.881   5.248
 6822SOL     OW21364   0.150   2.720   6.394
 6822SOL    HW121365   0.147   2.785   6.470
 6822SOL    HW221366   0.080   2.650   6.406
 6823SOL     OW21367   5.663   3.487   6.952
 6823SOL    HW121368   5.622   3.540   6.878
 6823SOL    HW221369   5.762   3.483   6.939
 6824SOL     OW21370   1.417   1.574   6.709
 6824SOL    HW121371   1.423   1.497   6.646
 6824SOL    HW221372   1.509   1.598   6.741
 6825SOL     OW21373   0.164   5.907   1.465
 6825SOL    HW121374   0.222   5.829   1.488
 6825SOL    HW221375   0.106   5.931   1.543
 6826SOL     OW21376   1.257   3.537   3.218
 6826SOL    HW121377   1.189   3.590   3.269
 6826SOL    HW221378   1.232   3.440   3.221
 6827SOL     OW21379   4.333   5.649   4.903
 6827SOL    HW121380   4.358   5.604   4.817
 6827SOL    HW221381   4.236   5.633   4.922
 6828SOL     OW21382   3.740   1.674   2.964
 6828SOL    HW121383   3.710   1.735   2.891
 6828SOL    HW221384   3.770   1.729   3.043
 6829SOL     OW21385   5.086   6.513   4.857
 6829SOL    HW121386   5.076   6.445   4.785
 6829SOL    HW221387   5.156   6.580   4.831
 6830SOL     OW21388   5.654   0.717   3.198
 6830SOL    HW121389   5.657   0.798   3.139
 6830SOL    HW221390   5.746   0.694   3.228
 6831SOL     OW21391   1.447   1.155   5.615
 6831SOL    HW121392   1.415   1.248   5.598
 6831SOL    HW221393   1.421   1.128   5.708
 6832SOL     OW21394   2.982   1.918   0.485
 6832SOL    HW121395   2.908   1.984   0.504
 6832SOL    HW221396   3.068   1.953   0.522
 6833SOL     OW21397   2.968   5.173   5.960
 6833SOL    HW121398   3.005   5.255   6.003
 6833SOL    HW221399   2.918   5.199   5.877
 6834SOL     OW21400   5.101   0.054   1.010
 6834SOL    HW121401   5.030   7.009   1.008
 6834SOL    HW221402   5.185   0.017   0.972
 6835SOL     OW21403   3.584   2.127   4.273
 6835SOL    HW121404   3.653   2.156   4.206
 6835SOL    HW221405   3.493   2.140   4.235
 6836SOL     OW21406   2.090   5.118   6.225
 6836SOL    HW121407   2.051   5.027   6.240
 6836SOL    HW221408   2.016   5.185   6.217
 6837SOL     OW21409   1.101   0.700   2.071
 6837SOL    HW121410   1.093   0.643   1.989
 6837SOL    HW221411   1.112   0.796   2.044
 6838SOL     OW21412   2.779   4.389   5.323
 6838SOL    HW121413   2.841   4.455   5.280
 6838SOL    HW221414   2.684   4.413   5.303
 6839SOL     OW21415   5.190   2.427   4.029
 6839SOL    HW121416   5.276   2.376   4.028
 6839SOL    HW221417   5.124   2.381   4.088
 6840SOL     OW21418   2.479   6.420   4.715
 6840SOL    HW121419   2.577   6.412   4.693
 6840SOL    HW221420   2.469   6.466   4.803
 6841SOL     OW21421   3.731   5.674   2.288
 6841SOL    HW121422   3.662   5.648   2.356
 6841SOL    HW221423   3.802   5.729   2.332
 6842SOL     OW21424   0.493   3.292   6.968
 6842SOL    HW121425   0.449   3.212   6.929
 6842SOL    HW221426   0.589   3.271   6.988
 6843SOL     OW21427   4.382   2.228   2.068
 6843SOL    HW121428   4.391   2.252   1.971
 6843SOL    HW221429   4.426   2.140   2.084
 6844SOL     OW21430   4.381   5.170   4.343
 6844SOL    HW121431   4.320   5.219   4.405
 6844SOL    HW221432   4.463   5.224   4.326
 6845SOL     OW21433   4.620   5.075   2.795
 6845SOL    HW121434   4.583   4.997   2.744
 6845SOL    HW221435   4.691   5.120   2.741
 6846SOL     OW21436   3.713   3.348   2.303
 6846SOL    HW121437   3.767   3.284   2.249
 6846SOL    HW221438   3.625   3.363   2.259
 6847SOL     OW21439   4.883   3.680   1.626
 6847SOL    HW121440   4.822   3.637   1.559
 6847SOL    HW221441   4.912   3.769   1.590
 6848SOL     OW21442   0.479   5.236   4.358
 6848SOL    HW121443   0.446   5.149   4.321
 6848SOL    HW221444   0.407   5.278   4.414
 6849SOL     OW21445   3.732   5.849   4.106
 6849SOL    HW121446   3.693   5.757   4.102
 6849SOL    HW221447   3.672   5.912   4.058
 6850SOL     OW21448   5.515   2.273   3.486
 6850SOL    HW121449   5.566   2.196   3.447
 6850SOL    HW221450   5.557   2.359   3.457
 6851SOL     OW21451   1.613   5.284   6.088
 6851SOL    HW121452   1.552   5.233   6.027
 6851SOL    HW221453   1.568   5.368   6.117
 6852SOL     OW21454   0.918   4.320   1.427
 6852SOL    HW121455   0.857   4.271   1.364
 6852SOL    HW221456   0.871   4.401   1.462
 6853SOL     OW21457   0.970   5.821   6.026
 6853SOL    HW121458   1.007   5.906   6.063
 6853SOL    HW221459   1.044   5.766   5.988
 6854SOL     OW21460   6.649   1.664   5.727
 6854SOL    HW121461   6.664   1.746   5.782
 6854SOL    HW221462   6.679   1.584   5.778
 6855SOL     OW21463   4.244   0.094   2.765
 6855SOL    HW121464   4.205   0.181   2.795
 6855SOL    HW221465   4.174   0.042   2.714
 6856SOL     OW21466   6.561   3.655   4.478
 6856SOL    HW121467   6.581   3.636   4.382
 6856SOL    HW221468   6.467   3.687   4.487
 6857SOL     OW21469   3.297   2.125   6.221
 6857SOL    HW121470   3.244   2.168   6.147
 6857SOL    HW221471   3.360   2.058   6.182
 6858SOL     OW21472   4.105   3.728   4.624
 6858SOL    HW121473   4.099   3.628   4.616
 6858SOL    HW221474   4.153   3.764   4.544
 6859SOL     OW21475   2.375   6.842   0.784
 6859SOL    HW121476   2.437   6.770   0.815
 6859SOL    HW221477   2.284   6.826   0.822
 6860SOL     OW21478   5.543   4.898   1.609
 6860SOL    HW121479   5.582   4.977   1.657
 6860SOL    HW221480   5.447   4.916   1.588
 6861SOL     OW21481   5.551   5.622   0.281
 6861SOL    HW121482   5.558   5.548   0.213
 6861SOL    HW221483   5.605   5.599   0.361
 6862SOL     OW21484   2.953   5.359   5.080
 6862SOL    HW121485   2.888   5.411   5.135
 6862SOL    HW221486   2.941   5.261   5.098
 6863SOL     OW21487   6.312   1.449   4.172
 6863SOL    HW121488   6.259   1.445   4.257
 6863SOL    HW221489   6.331   1.544   4.149
 6864SOL     OW21490   2.783   5.911   3.506
 6864SOL    HW121491   2.758   5.995   3.555
 6864SOL    HW221492   2.879   5.915   3.479
 6865SOL     OW21493   6.453   3.960   4.662
 6865SOL    HW121494   6.424   3.905   4.584
 6865SOL    HW221495   6.487   3.901   4.735
 6866SOL     OW21496   6.995   3.878   1.905
 6866SOL    HW121497   6.941   3.911   1.828
 6866SOL    HW221498   0.064   3.913   1.898
 6867SOL     OW21499   1.499   4.772   1.913
 6867SOL    HW121500   1.563   4.779   1.837
 6867SOL    HW221501   1.465   4.864   1.936
 6868SOL     OW21502   1.881   6.083   4.707
 6868SOL    HW121503   1.797   6.116   4.750
 6868SOL    HW221504   1.945   6.158   4.695
 6869SOL     OW21505   5.490   3.049   4.980
 6869SOL    HW121506   5.454   3.015   5.067
 6869SOL    HW221507   5.474   3.148   4.974
 6870SOL     OW21508   5.561   3.315   3.642
 6870SOL    HW121509   5.629   3.295   3.712
 6870SOL    HW221510   5.606   3.359   3.564
 6871SOL     OW21511   6.037   4.265   1.512
 6871SOL    HW121512   5.999   4.248   1.421
 6871SOL    HW221513   6.087   4.183   1.543
 6872SOL     OW21514   1.615   3.578   1.027
 6872SOL    HW121515   1.590   3.485   1.001
 6872SOL    HW221516   1.577   3.599   1.117
 6873SOL     OW21517   5.744   2.878   5.798
 6873SOL    HW121518   5.682   2.876   5.720
 6873SOL    HW221519   5.809   2.953   5.786
 6874SOL     OW21520   6.999   3.017   3.767
 6874SOL    HW121521   6.999   3.020   3.667
 6874SOL    HW221522   0.059   3.058   3.802
 6875SOL     OW21523   1.170   1.499   2.632
 6875SOL    HW121524   1.180   1.458   2.541
 6875SOL    HW221525   1.257   1.494   2.680
 6876SOL     OW21526   3.662   5.507   6.796
 6876SOL    HW121527   3.590   5.464   6.742
 6876SOL    HW221528   3.680   5.452   6.878
 6877SOL     OW21529   2.230   4.062   6.829
 6877SOL    HW121530   2.302   4.115   6.783
 6877SOL    HW221531   2.166   4.125   6.873
 6878SOL     OW21532   2.405   1.616   5.636
 6878SOL    HW121533   2.499   1.611   5.604
 6878SOL    HW221534   2.405   1.626   5.736
 6879SOL     OW21535   0.283   1.802   6.989
 6879SOL    HW121536   0.285   1.844   0.055
 6879SOL    HW221537   0.284   1.703   6.998
 6880SOL     OW21538   2.116   4.077   5.198
 6880SOL    HW121539   2.208   4.063   5.159
 6880SOL    HW221540   2.049   4.027   5.143
 6881SOL     OW21541   0.053   4.383   1.062
 6881SOL    HW121542   0.148   4.357   1.074
 6881SOL    HW221543   0.027   4.448   1.134
 6882SOL     OW21544   2.155   0.903   4.723
 6882SOL    HW121545   2.153   0.870   4.817
 6882SOL    HW221546   2.062   0.900   4.684
 6883SOL     OW21547   3.708   6.854   1.062
 6883SOL    HW121548   3.675   6.779   1.118
 6883SOL    HW221549   3.666   6.940   1.093
 6884SOL     OW21550   2.307   4.309   4.645
 6884SOL    HW121551   2.293   4.228   4.702
 6884SOL    HW221552   2.341   4.384   4.702
 6885SOL     OW21553   2.761   5.913   3.188
 6885SOL    HW121554   2.732   5.894   3.282
 6885SOL    HW221555   2.854   5.949   3.188
 6886SOL     OW21556   5.037   1.395   2.337
 6886SOL    HW121557   4.941   1.404   2.311
 6886SOL    HW221558   5.049   1.426   2.431
 6887SOL     OW21559   5.444   0.197   5.148
 6887SOL    HW121560   5.484   0.159   5.231
 6887SOL    HW221561   5.418   0.292   5.164
 6888SOL     OW21562   6.046   0.514   5.271
 6888SOL    HW121563   6.050   0.600   5.221
 6888SOL    HW221564   5.975   0.456   5.232
 6889SOL     OW21565   0.975   2.413   5.841
 6889SOL    HW121566   1.022   2.428   5.754
 6889SOL    HW221567   0.906   2.342   5.830
 6890SOL     OW21568   2.316   0.384   1.043
 6890SOL    HW121569   2.325   0.411   1.138
 6890SOL    HW221570   2.236   0.324   1.032
 6891SOL     OW21571   1.924   3.873   4.996
 6891SOL    HW121572   1.944   3.807   5.068
 6891SOL    HW221573   2.001   3.875   4.932
 6892SOL     OW21574   3.813   0.227   4.225
 6892SOL    HW121575   3.728   0.214   4.275
 6892SOL    HW221576   3.883   0.264   4.287
 6893SOL     OW21577   5.475   5.780   2.895
 6893SOL    HW121578   5.519   5.850   2.840
 6893SOL    HW221579   5.407   5.823   2.956
 6894SOL     OW21580   5.973   5.570   0.521
 6894SOL    HW121581   5.944   5.637   0.588
 6894SOL    HW221582   6.047   5.607   0.465
 6895SOL     OW21583   2.804   4.210   0.021
 6895SOL    HW121584   2.760   4.294   0.052
 6895SOL    HW221585   2.755   4.131   0.058
 6896SOL     OW21586   3.440   0.467   3.830
 6896SOL    HW121587   3.452   0.370   3.848
 6896SOL    HW221588   3.399   0.511   3.910
 6897SOL     OW21589   3.160   3.358   0.244
 6897SOL    HW121590   3.155   3.404   0.156
 6897SOL    HW221591   3.255   3.335   0.265
 6898SOL     OW21592   4.273   0.935   1.822
 6898SOL    HW121593   4.217   1.012   1.793
 6898SOL    HW221594   4.265   0.860   1.756
 6899SOL     OW21595   5.356   0.306   6.552
 6899SOL    HW121596   5.330   0.225   6.604
 6899SOL    HW221597   5.279   0.338   6.498
 6900SOL     OW21598   5.589   0.758   5.720
 6900SOL    HW121599   5.523   0.769   5.795
 6900SOL    HW221600   5.562   0.817   5.644
 6901SOL     OW21601   0.481   0.546   6.521
 6901SOL    HW121602   0.505   0.643   6.520
 6901SOL    HW221603   0.535   0.498   6.452
 6902SOL     OW21604   0.604   0.136   0.079
 6902SOL    HW121605   0.517   0.100   0.113
 6902SOL    HW221606   0.655   0.178   0.155
 6903SOL     OW21607   3.624   3.676   0.539
 6903SOL    HW121608   3.632   3.590   0.488
 6903SOL    HW221609   3.585   3.658   0.629
 6904SOL     OW21610   6.536   1.209   3.695
 6904SOL    HW121611   6.630   1.177   3.711
 6904SOL    HW221612   6.477   1.179   3.770
 6905SOL     OW21613   6.203   6.802   0.605
 6905SOL    HW121614   6.195   6.884   0.662
 6905SOL    HW221615   6.209   6.722   0.664
 6906SOL     OW21616   3.909   1.005   4.304
 6906SOL    HW121617   3.831   0.994   4.366
 6906SOL    HW221618   3.989   1.034   4.355
 6907SOL     OW21619   3.750   1.003   0.986
 6907SOL    HW121620   3.686   1.060   1.037
 6907SOL    HW221621   3.745   1.026   0.889
 6908SOL     OW21622   0.890   0.734   5.707
 6908SOL    HW121623   0.925   0.643   5.687
 6908SOL    HW221624   0.899   0.754   5.804
 6909SOL     OW21625   4.247   5.251   0.979
 6909SOL    HW121626   4.290   5.188   1.044
 6909SOL    HW221627   4.279   5.230   0.887
 6910SOL     OW21628   6.214   1.436   2.809
 6910SOL    HW121629   6.168   1.513   2.853
 6910SOL    HW221630   6.209   1.356   2.869
 6911SOL     OW21631   4.260   0.489   3.775
 6911SOL    HW121632   4.266   0.406   3.718
 6911SOL    HW221633   4.181   0.482   3.835
 6912SOL     OW21634   4.417   4.969   1.618
 6912SOL    HW121635   4.325   4.939   1.645
 6912SOL    HW221636   4.484   4.899   1.643
 6913SOL     OW21637   5.087   4.343   4.666
 6913SOL    HW121638   5.163   4.287   4.697
 6913SOL    HW221639   5.118   4.437   4.652
 6914SOL     OW21640   6.058   5.382   6.904
 6914SOL    HW121641   5.982   5.384   6.839
 6914SOL    HW221642   6.108   5.296   6.895
 6915SOL     OW21643   0.753   4.671   2.320
 6915SOL    HW121644   0.703   4.642   2.402
 6915SOL    HW221645   0.841   4.710   2.346
 6916SOL     OW21646   6.656   4.133   6.723
 6916SOL    HW121647   6.574   4.108   6.672
 6916SOL    HW221648   6.715   4.052   6.732
 6917SOL     OW21649   4.867   5.633   6.080
 6917SOL    HW121650   4.818   5.588   6.154
 6917SOL    HW221651   4.921   5.566   6.030
 6918SOL     OW21652   0.255   3.672   4.129
 6918SOL    HW121653   0.338   3.622   4.105
 6918SOL    HW221654   0.200   3.615   4.191
 6919SOL     OW21655   1.838   5.773   2.409
 6919SOL    HW121656   1.751   5.767   2.360
 6919SOL    HW221657   1.844   5.859   2.458
 6920SOL     OW21658   4.869   5.203   4.860
 6920SOL    HW121659   4.855   5.250   4.948
 6920SOL    HW221660   4.899   5.270   4.792
 6921SOL     OW21661   6.271   6.054   3.250
 6921SOL    HW121662   6.307   6.096   3.167
 6921SOL    HW221663   6.211   5.978   3.226
 6922SOL     OW21664   1.651   6.208   0.152
 6922SOL    HW121665   1.606   6.220   0.240
 6922SOL    HW221666   1.582   6.191   0.082
 6923SOL     OW21667   4.325   6.522   3.811
 6923SOL    HW121668   4.244   6.462   3.812
 6923SOL    HW221669   4.381   6.502   3.891
 6924SOL     OW21670   0.785   4.395   0.307
 6924SOL    HW121671   0.847   4.319   0.325
 6924SOL    HW221672   0.690   4.362   0.313
 6925SOL     OW21673   3.858   6.120   3.658
 6925SOL    HW121674   3.869   6.215   3.628
 6925SOL    HW221675   3.768   6.087   3.630
 6926SOL     OW21676   3.893   3.997   3.546
 6926SOL    HW121677   3.887   3.984   3.447
 6926SOL    HW221678   3.823   4.062   3.575
 6927SOL     OW21679   4.966   4.150   6.135
 6927SOL    HW121680   4.927   4.058   6.141
 6927SOL    HW221681   5.015   4.170   6.220
 6928SOL     OW21682   4.190   0.307   6.517
 6928SOL    HW121683   4.170   0.334   6.423
 6928SOL    HW221684   4.270   0.358   6.549
 6929SOL     OW21685   4.364   6.466   6.976
 6929SOL    HW121686   4.311   6.478   0.034
 6929SOL    HW221687   4.314   6.507   6.899
 6930SOL     OW21688   0.360   6.907   2.339
 6930SOL    HW121689   0.334   6.866   2.252
 6930SOL    HW221690   0.333   7.003   2.341
 6931SOL     OW21691   0.581   0.056   1.560
 6931SOL    HW121692   0.649   7.008   1.553
 6931SOL    HW221693   0.490   0.019   1.542
 6932SOL     OW21694   3.296   0.888   6.788
 6932SOL    HW121695   3.291   0.988   6.791
 6932SOL    HW221696   3.206   0.850   6.768
 6933SOL     OW21697   3.657   5.590   4.916
 6933SOL    HW121698   3.677   5.495   4.941
 6933SOL    HW221699   3.581   5.592   4.852
 6934SOL     OW21700   5.337   3.105   0.044
 6934SOL    HW121701   5.300   3.186   7.024
 6934SOL    HW221702   5.301   3.023   7.025
 6935SOL     OW21703   4.447   6.069   3.345
 6935SOL    HW121704   4.365   6.125   3.359
 6935SOL    HW221705   4.478   6.078   3.250
 6936SOL     OW21706   0.062   1.664   2.071
 6936SOL    HW121707   7.025   1.700   2.001
 6936SOL    HW221708   0.034   1.699   2.161
 6937SOL     OW21709   4.776   6.378   6.773
 6937SOL    HW121710   4.777   6.443   6.697
 6937SOL    HW221711   4.710   6.305   6.753
 6938SOL     OW21712   4.866   3.791   5.555
 6938SOL    HW121713   4.856   3.712   5.615
 6938SOL    HW221714   4.902   3.762   5.467
 6939SOL     OW21715   0.156   4.817   2.413
 6939SOL    HW121716   0.209   4.733   2.417
 6939SOL    HW221717   0.060   4.797   2.434
 6940SOL     OW21718   4.562   0.702   0.485
 6940SOL    HW121719   4.658   0.680   0.470
 6940SOL    HW221720   4.515   0.708   0.397
 6941SOL     OW21721   3.516   3.498   1.892
 6941SOL    HW121722   3.479   3.588   1.870
 6941SOL    HW221723   3.493   3.434   1.819
 6942SOL     OW21724   0.144   2.646   0.771
 6942SOL    HW121725   0.215   2.673   0.706
 6942SOL    HW221726   0.180   2.575   0.831
 6943SOL     OW21727   5.010   6.655   6.407
 6943SOL    HW121728   5.024   6.688   6.500
 6943SOL    HW221729   5.098   6.649   6.360
 6944SOL     OW21730   1.327   5.881   5.293
 6944SOL    HW121731   1.337   5.908   5.197
 6944SOL    HW221732   1.363   5.953   5.352
 6945SOL     OW21733   6.307   3.486   6.603
 6945SOL    HW121734   6.211   3.510   6.592
 6945SOL    HW221735   6.355   3.497   6.516
 6946SOL     OW21736   6.005   5.026   2.576
 6946SOL    HW121737   6.003   4.946   2.517
 6946SOL    HW221738   5.942   5.013   2.653
 6947SOL     OW21739   4.063   6.902   3.694
 6947SOL    HW121740   4.088   6.820   3.641
 6947SOL    HW221741   4.018   6.874   3.778
 6948SOL     OW21742   4.953   0.398   0.447
 6948SOL    HW121743   4.885   0.340   0.491
 6948SOL    HW221744   5.043   0.353   0.452
 6949SOL     OW21745   4.847   6.361   3.245
 6949SOL    HW121746   4.823   6.458   3.232
 6949SOL    HW221747   4.874   6.322   3.157
 6950SOL     OW21748   2.305   0.278   2.937
 6950SOL    HW121749   2.351   0.191   2.920
 6950SOL    HW221750   2.339   0.318   3.022
 6951SOL     OW21751   6.717   6.685   6.028
 6951SOL    HW121752   6.784   6.660   6.097
 6951SOL    HW221753   6.726   6.624   5.948
 6952SOL     OW21754   6.813   4.984   3.323
 6952SOL    HW121755   6.807   4.949   3.416
 6952SOL    HW221756   6.851   4.914   3.263
 6953SOL     OW21757   5.314   1.198   5.555
 6953SOL    HW121758   5.308   1.098   5.556
 6953SOL    HW221759   5.285   1.233   5.644
 6954SOL     OW21760   0.678   3.141   3.852
 6954SOL    HW121761   0.701   3.103   3.941
 6954SOL    HW221762   0.632   3.229   3.864
 6955SOL     OW21763   6.465   0.067   1.799
 6955SOL    HW121764   6.512   0.087   1.885
 6955SOL    HW221765   6.501   0.125   1.726
 6956SOL     OW21766   4.359   5.669   2.407
 6956SOL    HW121767   4.410   5.584   2.392
 6956SOL    HW221768   4.372   5.730   2.330
 6957SOL     OW21769   7.021   5.056   1.385
 6957SOL    HW121770   6.999   5.148   1.354
 6957SOL    HW221771   7.017   5.052   1.485
 6958SOL     OW21772   2.276   2.163   6.097
 6958SOL    HW121773   2.272   2.245   6.155
 6958SOL    HW221774   2.356   2.168   6.038
 6959SOL     OW21775   2.923   1.178   4.920
 6959SOL    HW121776   2.888   1.272   4.922
 6959SOL    HW221777   2.991   1.166   4.993
 6960SOL     OW21778   0.307   5.096   0.248
 6960SOL    HW121779   0.295   5.148   0.163
 6960SOL    HW221780   0.236   5.026   0.254
 6961SOL     OW21781   0.671   2.171   3.558
 6961SOL    HW121782   0.600   2.232   3.594
 6961SOL    HW221783   0.663   2.166   3.459
 6962SOL     OW21784   5.665   5.051   2.988
 6962SOL    HW121785   5.675   5.027   3.085
 6962SOL    HW221786   5.651   5.150   2.979
 6963SOL     OW21787   0.262   5.498   1.243
 6963SOL    HW121788   0.245   5.459   1.334
 6963SOL    HW221789   0.318   5.581   1.253
 6964SOL     OW21790   4.703   4.839   5.659
 6964SOL    HW121791   4.778   4.847   5.724
 6964SOL    HW221792   4.644   4.919   5.666
 6965SOL     OW21793   6.785   3.509   6.017
 6965SOL    HW121794   6.721   3.467   6.081
 6965SOL    HW221795   6.783   3.608   6.028
 6966SOL     OW21796   5.361   2.851   2.815
 6966SOL    HW121797   5.335   2.807   2.730
 6966SOL    HW221798   5.400   2.941   2.796
 6967SOL     OW21799   1.841   1.833   5.388
 6967SOL    HW121800   1.873   1.833   5.482
 6967SOL    HW221801   1.914   1.801   5.328
 6968SOL     OW21802   4.226   6.293   0.933
 6968SOL    HW121803   4.257   6.214   0.985
 6968SOL    HW221804   4.165   6.348   0.989
 6969SOL     OW21805   3.811   1.639   1.954
 6969SOL    HW121806   3.792   1.720   1.899
 6969SOL    HW221807   3.800   1.557   1.898
 6970SOL     OW21808   3.915   3.916   0.862
 6970SOL    HW121809   3.995   3.931   0.920
 6970SOL    HW221810   3.943   3.867   0.779
 6971SOL     OW21811   6.476   2.767   2.037
 6971SOL    HW121812   6.556   2.709   2.052
 6971SOL    HW221813   6.425   2.734   1.958
 6972SOL     OW21814   5.610   4.309   4.553
 6972SOL    HW121815   5.598   4.274   4.460
 6972SOL    HW221816   5.521   4.340   4.589
 6973SOL     OW21817   1.611   4.842   4.872
 6973SOL    HW121818   1.707   4.847   4.899
 6973SOL    HW221819   1.586   4.925   4.821
 6974SOL     OW21820   3.738   3.371   3.480
 6974SOL    HW121821   3.731   3.376   3.380
 6974SOL    HW221822   3.663   3.422   3.521
 6975SOL     OW21823   3.606   0.025   5.277
 6975SOL    HW121824   3.680   7.011   5.223
 6975SOL    HW221825   3.533   0.057   5.217
 6976SOL     OW21826   3.555   4.779   6.842
 6976SOL    HW121827   3.647   4.804   6.812
 6976SOL    HW221828   3.561   4.722   6.923
 6977SOL     OW21829   5.355   1.893   1.592
 6977SOL    HW121830   5.431   1.865   1.651
 6977SOL    HW221831   5.325   1.985   1.618
 6978SOL     OW21832   6.517   0.712   1.782
 6978SOL    HW121833   6.464   0.703   1.866
 6978SOL    HW221834   6.591   0.644   1.782
 6979SOL     OW21835   1.443   5.857   2.193
 6979SOL    HW121836   1.392   5.940   2.172
 6979SOL    HW221837   1.454   5.803   2.109
 6980SOL     OW21838   1.916   0.854   3.520
 6980SOL    HW121839   1.992   0.857   3.454
 6980SOL    HW221840   1.928   0.926   3.588
 6981SOL     OW21841   2.433   4.195   6.703
 6981SOL    HW121842   2.438   4.202   6.603
 6981SOL    HW221843   2.525   4.182   6.740
 6982SOL     OW21844   1.478   1.226   4.047
 6982SOL    HW121845   1.401   1.288   4.065
 6982SOL    HW221846   1.562   1.265   4.084
 6983SOL     OW21847   0.172   1.009   4.145
 6983SOL    HW121848   0.151   0.919   4.107
 6983SOL    HW221849   0.271   1.025   4.140
 6984SOL     OW21850   2.562   1.601   5.241
 6984SOL    HW121851   2.527   1.626   5.331
 6984SOL    HW221852   2.501   1.637   5.171
 6985SOL     OW21853   3.820   5.446   2.428
 6985SOL    HW121854   3.798   5.518   2.362
 6985SOL    HW221855   3.774   5.361   2.402
 6986SOL     OW21856   2.432   6.260   5.785
 6986SOL    HW121857   2.444   6.165   5.755
 6986SOL    HW221858   2.502   6.282   5.853
 6987SOL     OW21859   0.197   1.915   6.021
 6987SOL    HW121860   0.293   1.944   6.016
 6987SOL    HW221861   0.187   1.824   5.982
 6988SOL     OW21862   5.881   1.137   5.052
 6988SOL    HW121863   5.875   1.070   4.978
 6988SOL    HW221864   5.791   1.178   5.068
 6989SOL     OW21865   1.088   1.779   3.107
 6989SOL    HW121866   1.137   1.821   3.183
 6989SOL    HW221867   1.138   1.794   3.022
 6990SOL     OW21868   4.863   1.862   0.180
 6990SOL    HW121869   4.839   1.842   0.085
 6990SOL    HW221870   4.898   1.956   0.186
 6991SOL     OW21871   2.591   4.614   4.958
 6991SOL    HW121872   2.558   4.670   5.033
 6991SOL    HW221873   2.690   4.601   4.966
 6992SOL     OW21874   5.878   6.122   4.809
 6992SOL    HW121875   5.793   6.169   4.832
 6992SOL    HW221876   5.950   6.148   4.874
 6993SOL     OW21877   5.827   6.466   3.110
 6993SOL    HW121878   5.842   6.376   3.151
 6993SOL    HW221879   5.801   6.531   3.182
 6994SOL     OW21880   0.630   3.442   5.173
 6994SOL    HW121881   0.692   3.471   5.100
 6994SOL    HW221882   0.538   3.477   5.154
 6995SOL     OW21883   6.278   5.151   4.747
 6995SOL    HW121884   6.239   5.059   4.741
 6995SOL    HW221885   6.279   5.193   4.657
 6996SOL     OW21886   2.709   0.708   5.122
 6996SOL    HW121887   2.611   0.725   5.134
 6996SOL    HW221888   2.757   0.795   5.111
 6997SOL     OW21889   4.795   6.459   5.507
 6997SOL    HW121890   4.828   6.415   5.424
 6997SOL    HW221891   4.770   6.389   5.574
 6998SOL     OW21892   1.869   3.450   1.574
 6998SOL    HW121893   1.822   3.529   1.535
 6998SOL    HW221894   1.962   3.475   1.599
 6999SOL     OW21895   2.443   1.610   6.729
 6999SOL    HW121896   2.352   1.605   6.768
 6999SOL    HW221897   2.505   1.552   6.781
 7000SOL     OW21898   0.112   6.089   2.800
 7000SOL    HW121899   0.084   6.184   2.787
 7000SOL    HW221900   0.165   6.059   2.720
 7001SOL     OW21901   2.719   2.516   6.120
 7001SOL    HW121902   2.709   2.500   6.022
 7001SOL    HW221903   2.815   2.510   6.146
 7002SOL     OW21904   2.417   4.622   3.691
 7002SOL    HW121905   2.338   4.560   3.691
 7002SOL    HW221906   2.464   4.615   3.603
 7003SOL     OW21907   2.702   0.096   6.839
 7003SOL    HW121908   2.638   0.167   6.866
 7003SOL    HW221909   2.701   0.085   6.740
 7004SOL     OW21910   2.038   4.639   1.853
 7004SOL    HW121911   2.109   4.604   1.792
 7004SOL    HW221912   1.949   4.605   1.823
 7005SOL     OW21913   0.296   5.856   5.497
 7005SOL    HW121914   0.266   5.783   5.559
 7005SOL    HW221915   0.322   5.817   5.409
 7006SOL     OW21916   5.055   4.291   5.128
 7006SOL    HW121917   5.132   4.253   5.077
 7006SOL    HW221918   5.070   4.278   5.226
 7007SOL     OW21919   4.762   6.645   3.162
 7007SOL    HW121920   4.762   6.669   3.259
 7007SOL    HW221921   4.816   6.712   3.111
 7008SOL     OW21922   2.448   4.905   3.927
 7008SOL    HW121923   2.355   4.940   3.917
 7008SOL    HW221924   2.445   4.806   3.942
 7009SOL     OW21925   6.482   4.899   2.272
 7009SOL    HW121926   6.507   4.973   2.334
 7009SOL    HW221927   6.505   4.925   2.178
 7010SOL     OW21928   4.259   4.708   5.809
 7010SOL    HW121929   4.295   4.797   5.782
 7010SOL    HW221930   4.223   4.713   5.902
 7011SOL     OW21931   1.361   6.979   5.934
 7011SOL    HW121932   1.423   6.932   5.872
 7011SOL    HW221933   1.291   6.914   5.966
 7012SOL     OW21934   1.778   0.875   1.967
 7012SOL    HW121935   1.814   0.935   1.896
 7012SOL    HW221936   1.766   0.782   1.931
 7013SOL     OW21937   0.482   6.658   1.034
 7013SOL    HW121938   0.540   6.735   1.061
 7013SOL    HW221939   0.439   6.619   1.115
 7014SOL     OW21940   4.643   4.168   1.135
 7014SOL    HW121941   4.565   4.223   1.163
 7014SOL    HW221942   4.612   4.076   1.109
 7015SOL     OW21943   5.431   3.518   1.964
 7015SOL    HW121944   5.473   3.608   1.957
 7015SOL    HW221945   5.427   3.490   2.059
 7016SOL     OW21946   4.060   4.775   2.548
 7016SOL    HW121947   4.071   4.850   2.613
 7016SOL    HW221948   3.969   4.781   2.507
 7017SOL     OW21949   2.253   1.076   2.280
 7017SOL    HW121950   2.185   1.082   2.207
 7017SOL    HW221951   2.210   1.097   2.368
 7018SOL     OW21952   0.059   4.467   4.730
 7018SOL    HW121953   0.103   4.377   4.727
 7018SOL    HW221954   0.116   4.530   4.783
 7019SOL     OW21955   2.734   4.854   6.697
 7019SOL    HW121956   2.829   4.831   6.675
 7019SOL    HW221957   2.687   4.884   6.613
 7020SOL     OW21958   5.436   6.605   0.468
 7020SOL    HW121959   5.362   6.647   0.416
 7020SOL    HW221960   5.516   6.595   0.409
 7021SOL     OW21961   2.988   0.709   5.584
 7021SOL    HW121962   3.015   0.747   5.495
 7021SOL    HW221963   2.956   0.615   5.572
 7022SOL     OW21964   4.728   4.268   0.229
 7022SOL    HW121965   4.648   4.230   0.276
 7022SOL    HW221966   4.800   4.199   0.225
 7023SOL     OW21967   6.751   2.377   3.260
 7023SOL    HW121968   6.799   2.297   3.294
 7023SOL    HW221969   6.814   2.435   3.208
 7024SOL     OW21970   1.706   5.753   6.524
 7024SOL    HW121971   1.794   5.777   6.563
 7024SOL    HW221972   1.649   5.834   6.517
 7025SOL     OW21973   3.519   1.627   6.737
 7025SOL    HW121974   3.562   1.628   6.827
 7025SOL    HW221975   3.450   1.699   6.732
 7026SOL     OW21976   2.783   1.539   1.734
 7026SOL    HW121977   2.831   1.499   1.812
 7026SOL    HW221978   2.849   1.564   1.664
 7027SOL     OW21979   3.432   5.815   2.736
 7027SOL    HW121980   3.429   5.792   2.833
 7027SOL    HW221981   3.377   5.748   2.685
 7028SOL     OW21982   5.687   6.380   4.664
 7028SOL    HW121983   5.605   6.434   4.644
 7028SOL    HW221984   5.696   6.370   4.763
 7029SOL     OW21985   3.960   6.645   6.700
 7029SOL    HW121986   3.944   6.731   6.651
 7029SOL    HW221987   3.873   6.597   6.713
 7030SOL     OW21988   0.345   3.331   5.762
 7030SOL    HW121989   0.256   3.344   5.718
 7030SOL    HW221990   0.406   3.406   5.738
 7031SOL     OW21991   2.272   5.871   3.869
 7031SOL    HW121992   2.256   5.819   3.785
 7031SOL    HW221993   2.190   5.867   3.926
 7032SOL     OW21994   4.354   6.765   3.724
 7032SOL    HW121995   4.373   6.823   3.804
 7032SOL    HW221996   4.328   6.674   3.756
 7033SOL     OW21997   6.599   1.477   4.306
 7033SOL    HW121998   6.515   1.442   4.264
 7033SOL    HW221999   6.604   1.576   4.291
 7034SOL     OW22000   5.395   0.966   3.041
 7034SOL    HW122001   5.440   0.971   2.952
 7034SOL    HW222002   5.373   1.059   3.072
 7035SOL     OW22003   1.200   6.885   2.598
 7035SOL    HW122004   1.256   6.858   2.677
 7035SOL    HW222005   1.252   6.948   2.541
 7036SOL     OW22006   6.396   5.763   1.398
 7036SOL    HW122007   6.483   5.720   1.425
 7036SOL    HW222008   6.322   5.696   1.409
 7037SOL     OW22009   0.256   6.693   6.499
 7037SOL    HW122010   0.323   6.619   6.494
 7037SOL    HW222011   0.220   6.711   6.408
 7038SOL     OW22012   1.709   3.778   4.570
 7038SOL    HW122013   1.651   3.712   4.616
 7038SOL    HW222014   1.737   3.849   4.635
 7039SOL     OW22015   2.898   6.684   6.993
 7039SOL    HW122016   2.886   6.775   6.953
 7039SOL    HW222017   2.983   6.681   0.020
 7040SOL     OW22018   4.785   2.484   5.930
 7040SOL    HW122019   4.849   2.411   5.954
 7040SOL    HW222020   4.823   2.539   5.856
 7041SOL     OW22021   1.353   1.730   3.239
 7041SOL    HW122022   1.419   1.660   3.210
 7041SOL    HW222023   1.386   1.820   3.210
 7042SOL     OW22024   5.392   5.250   6.382
 7042SOL    HW122025   5.415   5.331   6.437
 7042SOL    HW222026   5.296   5.254   6.354
 7043SOL     OW22027   2.397   2.726   2.837
 7043SOL    HW122028   2.338   2.806   2.851
 7043SOL    HW222029   2.353   2.645   2.874
 7044SOL     OW22030   5.053   4.648   2.926
 7044SOL    HW122031   5.110   4.729   2.939
 7044SOL    HW222032   5.103   4.567   2.956
 7045SOL     OW22033   4.702   6.367   1.474
 7045SOL    HW122034   4.638   6.444   1.479
 7045SOL    HW222035   4.742   6.364   1.383
 7046SOL     OW22036   3.660   1.801   3.807
 7046SOL    HW122037   3.597   1.877   3.823
 7046SOL    HW222038   3.728   1.828   3.739
 7047SOL     OW22039   1.236   2.002   3.242
 7047SOL    HW122040   1.224   2.017   3.340
 7047SOL    HW222041   1.157   2.039   3.193
 7048SOL     OW22042   1.035   5.896   1.322
 7048SOL    HW122043   1.009   5.802   1.300
 7048SOL    HW222044   1.134   5.901   1.332
 7049SOL     OW22045   2.842   0.767   0.889
 7049SOL    HW122046   2.825   0.676   0.851
 7049SOL    HW222047   2.764   0.795   0.945
 7050SOL     OW22048   3.307   4.140   3.654
 7050SOL    HW122049   3.232   4.120   3.718
 7050SOL    HW222050   3.392   4.147   3.705
 7051SOL     OW22051   0.316   0.254   0.985
 7051SOL    HW122052   0.335   0.308   1.068
 7051SOL    HW222053   0.330   0.312   0.904
 7052SOL     OW22054   6.503   2.342   4.332
 7052SOL    HW122055   6.544   2.390   4.409
 7052SOL    HW222056   6.439   2.403   4.284
 7053SOL     OW22057   0.110   3.187   6.364
 7053SOL    HW122058   0.186   3.235   6.321
 7053SOL    HW222059   0.026   3.240   6.352
 7054SOL     OW22060   1.264   6.630   1.324
 7054SOL    HW122061   1.211   6.644   1.407
 7054SOL    HW222062   1.340   6.568   1.342
 7055SOL     OW22063   4.263   6.651   5.501
 7055SOL    HW122064   4.198   6.654   5.577
 7055SOL    HW222065   4.354   6.627   5.536
 7056SOL     OW22066   5.810   4.927   3.651
 7056SOL    HW122067   5.711   4.914   3.645
 7056SOL    HW222068   5.836   4.940   3.747
 7057SOL     OW22069   0.659   4.255   4.646
 7057SOL    HW122070   0.665   4.159   4.670
 7057SOL    HW222071   0.728   4.278   4.578
 7058SOL     OW22072   0.210   5.598   5.552
 7058SOL    HW122073   0.204   5.526   5.621
 7058SOL    HW222074   0.291   5.583   5.495
 7059SOL     OW22075   0.116   0.259   2.512
 7059SOL    HW122076   0.061   0.269   2.429
 7059SOL    HW222077   0.077   0.186   2.569
 7060SOL     OW22078   3.548   0.153   1.302
 7060SOL    HW122079   3.636   0.128   1.262
 7060SOL    HW222080   3.523   0.088   1.373
 7061SOL     OW22081   0.092   2.016   3.527
 7061SOL    HW122082   0.010   2.059   3.564
 7061SOL    HW222083   0.165   2.020   3.594
 7062SOL     OW22084   5.984   1.464   5.794
 7062SOL    HW122085   6.019   1.485   5.703
 7062SOL    HW222086   6.044   1.398   5.839
 7063SOL     OW22087   1.276   6.773   0.755
 7063SOL    HW122088   1.326   6.830   0.690
 7063SOL    HW222089   1.211   6.716   0.705
 7064SOL     OW22090   4.140   2.343   1.635
 7064SOL    HW122091   4.119   2.328   1.732
 7064SOL    HW222092   4.112   2.435   1.609
 7065SOL     OW22093   4.926   3.920   1.182
 7065SOL    HW122094   4.871   3.840   1.161
 7065SOL    HW222095   4.987   3.900   1.259
 7066SOL     OW22096   3.897   0.839   0.419
 7066SOL    HW122097   3.979   0.820   0.473
 7066SOL    HW222098   3.859   0.927   0.446
 7067SOL     OW22099   1.428   2.406   4.946
 7067SOL    HW122100   1.441   2.505   4.959
 7067SOL    HW222101   1.332   2.383   4.960
 7068SOL     OW22102   0.657   3.568   3.126
 7068SOL    HW122103   0.628   3.517   3.207
 7068SOL    HW222104   0.710   3.508   3.066
 7069SOL     OW22105   6.891   3.131   5.070
 7069SOL    HW122106   6.943   3.046   5.071
 7069SOL    HW222107   6.890   3.168   4.976
 7070SOL     OW22108   6.689   5.286   4.833
 7070SOL    HW122109   6.652   5.282   4.740
 7070SOL    HW222110   6.635   5.227   4.893
 7071SOL     OW22111   0.402   6.902   5.149
 7071SOL    HW122112   0.330   6.945   5.094
 7071SOL    HW222113   0.462   6.972   5.187
 7072SOL     OW22114   6.803   0.453   6.030
 7072SOL    HW122115   6.780   0.368   5.983
 7072SOL    HW222116   6.723   0.512   6.033
 7073SOL     OW22117   6.318   0.866   4.580
 7073SOL    HW122118   6.352   0.958   4.560
 7073SOL    HW222119   6.363   0.800   4.519
 7074SOL     OW22120   3.677   2.968   2.221
 7074SOL    HW122121   3.690   2.949   2.318
 7074SOL    HW222122   3.742   3.039   2.192
 7075SOL     OW22123   0.963   6.411   4.544
 7075SOL    HW122124   0.875   6.414   4.497
 7075SOL    HW222125   1.000   6.318   4.538
 7076SOL     OW22126   3.919   2.445   0.650
 7076SOL    HW122127   3.839   2.449   0.591
 7076SOL    HW222128   3.946   2.537   0.677
 7077SOL     OW22129   2.467   5.328   5.558
 7077SOL    HW122130   2.445   5.378   5.474
 7077SOL    HW222131   2.463   5.390   5.636
 7078SOL     OW22132   6.409   0.399   2.023
 7078SOL    HW122133   6.397   0.395   1.924
 7078SOL    HW222134   6.350   0.333   2.067
 7079SOL     OW22135   6.647   6.723   5.689
 7079SOL    HW122136   6.613   6.638   5.648
 7079SOL    HW222137   6.744   6.713   5.709
 7080SOL     OW22138   4.370   2.148   3.872
 7080SOL    HW122139   4.318   2.113   3.794
 7080SOL    HW222140   4.467   2.149   3.850
 7081SOL     OW22141   3.412   0.835   5.419
 7081SOL    HW122142   3.396   0.742   5.451
 7081SOL    HW222143   3.427   0.834   5.320
 7082SOL     OW22144   5.679   6.511   0.569
 7082SOL    HW122145   5.585   6.524   0.539
 7082SOL    HW222146   5.738   6.497   0.490
 7083SOL     OW22147   3.404   1.340   6.350
 7083SOL    HW122148   3.376   1.288   6.270
 7083SOL    HW222149   3.490   1.388   6.331
 7084SOL     OW22150   6.741   6.954   5.325
 7084SOL    HW122151   6.750   6.943   5.226
 7084SOL    HW222152   6.829   6.938   5.369
 7085SOL     OW22153   1.751   0.945   3.169
 7085SOL    HW122154   1.819   1.009   3.134
 7085SOL    HW222155   1.747   0.865   3.110
 7086SOL     OW22156   5.276   1.456   6.341
 7086SOL    HW122157   5.266   1.555   6.340
 7086SOL    HW222158   5.191   1.415   6.375
 7087SOL     OW22159   0.103   3.615   3.686
 7087SOL    HW122160   0.092   3.653   3.777
 7087SOL    HW222161   0.153   3.680   3.628
 7088SOL     OW22162   4.951   3.051   4.152
 7088SOL    HW122163   4.951   3.136   4.205
 7088SOL    HW222164   5.015   3.060   4.075
 7089SOL     OW22165   3.396   2.377   6.385
 7089SOL    HW122166   3.330   2.371   6.459
 7089SOL    HW222167   3.374   2.309   6.315
 7090SOL     OW22168   2.579   1.218   5.911
 7090SOL    HW122169   2.668   1.247   5.875
 7090SOL    HW222170   2.593   1.166   5.995
 7091SOL     OW22171   6.918   2.005   6.655
 7091SOL    HW122172   6.980   1.996   6.733
 7091SOL    HW222173   6.905   2.102   6.634
 7092SOL     OW22174   4.165   2.942   6.920
 7092SOL    HW122175   4.198   3.012   6.983
 7092SOL    HW222176   4.173   2.852   6.962
 7093SOL     OW22177   2.969   3.866   4.107
 7093SOL    HW122178   3.008   3.784   4.067
 7093SOL    HW222179   2.994   3.945   4.051
 7094SOL     OW22180   0.557   6.600   5.381
 7094SOL    HW122181   0.510   6.593   5.469
 7094SOL    HW222182   0.488   6.608   5.308
 7095SOL     OW22183   2.983   2.566   6.997
 7095SOL    HW122184   3.018   2.588   6.906
 7095SOL    HW222185   3.041   2.608   0.041
 7096SOL     OW22186   6.090   1.466   3.749
 7096SOL    HW122187   6.023   1.537   3.725
 7096SOL    HW222188   6.147   1.499   3.823
 7097SOL     OW22189   6.794   0.798   2.041
 7097SOL    HW122190   6.716   0.738   2.029
 7097SOL    HW222191   6.875   0.757   2.000
 7098SOL     OW22192   1.196   6.076   4.817
 7098SOL    HW122193   1.196   6.067   4.917
 7098SOL    HW222194   1.286   6.106   4.786
 7099SOL     OW22195   2.020   0.952   4.370
 7099SOL    HW122196   2.058   1.041   4.395
 7099SOL    HW222197   1.952   0.963   4.298
 7100SOL     OW22198   5.088   3.766   0.941
 7100SOL    HW122199   4.989   3.759   0.930
 7100SOL    HW222200   5.115   3.862   0.947
 7101SOL     OW22201   2.025   0.428   4.347
 7101SOL    HW122202   2.050   0.515   4.390
 7101SOL    HW222203   2.010   0.359   4.417
 7102SOL     OW22204   4.248   0.629   0.780
 7102SOL    HW122205   4.242   0.720   0.822
 7102SOL    HW222206   4.343   0.607   0.760
 7103SOL     OW22207   4.130   5.750   6.800
 7103SOL    HW122208   4.127   5.651   6.792
 7103SOL    HW222209   4.079   5.791   6.724
 7104SOL     OW22210   0.887   3.480   4.634
 7104SOL    HW122211   0.921   3.404   4.579
 7104SOL    HW222212   0.835   3.543   4.576
 7105SOL     OW22213   3.473   2.990   5.496
 7105SOL    HW122214   3.466   3.063   5.565
 7105SOL    HW222215   3.565   2.951   5.498
 7106SOL     OW22216   3.288   2.937   3.536
 7106SOL    HW122217   3.299   2.839   3.549
 7106SOL    HW222218   3.378   2.981   3.535
 7107SOL     OW22219   2.930   0.804   0.635
 7107SOL    HW122220   2.908   0.769   0.726
 7107SOL    HW222221   2.869   0.762   0.568
 7108SOL     OW22222   4.455   6.165   1.108
 7108SOL    HW122223   4.551   6.136   1.108
 7108SOL    HW222224   4.450   6.265   1.113
 7109SOL     OW22225   3.472   6.853   6.539
 7109SOL    HW122226   3.462   6.939   6.488
 7109SOL    HW222227   3.518   6.870   6.625
 7110SOL     OW22228   5.388   4.904   3.999
 7110SOL    HW122229   5.297   4.922   3.961
 7110SOL    HW222230   5.447   4.983   3.983
 7111SOL     OW22231   1.770   2.945   4.498
 7111SOL    HW122232   1.679   2.933   4.536
 7111SOL    HW222233   1.820   2.858   4.502
 7112SOL     OW22234   1.858   5.618   4.420
 7112SOL    HW122235   1.910   5.638   4.503
 7112SOL    HW222236   1.803   5.535   4.434
 7113SOL     OW22237   2.964   3.764   4.755
 7113SOL    HW122238   3.055   3.799   4.735
 7113SOL    HW222239   2.971   3.684   4.814
 7114SOL     OW22240   4.051   6.631   1.655
 7114SOL    HW122241   4.092   6.694   1.720
 7114SOL    HW222242   4.121   6.597   1.592
 7115SOL     OW22243   5.247   2.337   1.793
 7115SOL    HW122244   5.303   2.359   1.873
 7115SOL    HW222245   5.297   2.274   1.734
 7116SOL     OW22246   5.732   3.056   3.246
 7116SOL    HW122247   5.717   3.135   3.186
 7116SOL    HW222248   5.815   3.008   3.218
 7117SOL     OW22249   0.072   0.190   4.335
 7117SOL    HW122250   0.126   0.154   4.411
 7117SOL    HW222251   7.000   0.189   4.359
 7118SOL     OW22252   4.239   3.070   1.051
 7118SOL    HW122253   4.305   3.004   1.014
 7118SOL    HW222254   4.266   3.163   1.023
 7119SOL     OW22255   4.813   1.465   3.325
 7119SOL    HW122256   4.902   1.504   3.350
 7119SOL    HW222257   4.740   1.523   3.361
 7120SOL     OW22258   3.710   1.507   3.311
 7120SOL    HW122259   3.705   1.524   3.410
 7120SOL    HW222260   3.803   1.524   3.279
 7121SOL     OW22261   2.256   0.063   2.619
 7121SOL    HW122262   2.335   0.071   2.557
 7121SOL    HW222263   2.204   0.149   2.618
 7122SOL     OW22264   6.489   1.244   6.756
 7122SOL    HW122265   6.434   1.251   6.839
 7122SOL    HW222266   6.544   1.161   6.760
 7123SOL     OW22267   3.171   5.205   1.313
 7123SOL    HW122268   3.147   5.287   1.262
 7123SOL    HW222269   3.129   5.125   1.270
 7124SOL     OW22270   1.060   3.681   0.231
 7124SOL    HW122271   1.143   3.697   0.177
 7124SOL    HW222272   1.084   3.627   0.313
 7125SOL     OW22273   0.053   6.583   1.386
 7125SOL    HW122274   0.100   6.497   1.363
 7125SOL    HW222275   0.067   6.649   1.312
 7126SOL     OW22276   2.583   4.355   0.112
 7126SOL    HW122277   2.545   4.408   0.188
 7126SOL    HW222278   2.523   4.364   0.032
 7127SOL     OW22279   2.706   5.741   4.460
 7127SOL    HW122280   2.740   5.668   4.519
 7127SOL    HW222281   2.695   5.706   4.367
 7128SOL     OW22282   2.802   5.170   0.619
 7128SOL    HW122283   2.860   5.109   0.673
 7128SOL    HW222284   2.854   5.207   0.542
 7129SOL     OW22285   3.577   0.654   0.867
 7129SOL    HW122286   3.504   0.658   0.798
 7129SOL    HW222287   3.665   0.675   0.823
 7130SOL     OW22288   3.168   5.148   4.573
 7130SOL    HW122289   3.222   5.118   4.494
 7130SOL    HW222290   3.092   5.085   4.588
 7131SOL     OW22291   2.337   1.948   0.378
 7131SOL    HW122292   2.392   1.997   0.310
 7131SOL    HW222293   2.357   1.850   0.372
 7132SOL     OW22294   3.439   3.956   1.488
 7132SOL    HW122295   3.386   3.882   1.448
 7132SOL    HW222296   3.410   4.043   1.448
 7133SOL     OW22297   5.657   4.761   3.436
 7133SOL    HW122298   5.743   4.784   3.390
 7133SOL    HW222299   5.593   4.837   3.428
 7134SOL     OW22300   5.805   5.687   3.039
 7134SOL    HW122301   5.737   5.643   2.981
 7134SOL    HW222302   5.829   5.626   3.115
 7135SOL     OW22303   1.861   1.873   3.229
 7135SOL    HW122304   1.958   1.888   3.213
 7135SOL    HW222305   1.813   1.961   3.232
 7136SOL     OW22306   2.323   2.062   0.907
 7136SOL    HW122307   2.357   1.992   0.970
 7136SOL    HW222308   2.382   2.143   0.912
 7137SOL     OW22309   5.160   0.989   5.210
 7137SOL    HW122310   5.221   0.912   5.226
 7137SOL    HW222311   5.068   0.965   5.241
 7138SOL     OW22312   2.949   2.481   0.819
 7138SOL    HW122313   2.999   2.511   0.900
 7138SOL    HW222314   2.968   2.543   0.742
 7139SOL     OW22315   4.885   3.201   2.230
 7139SOL    HW122316   4.814   3.193   2.159
 7139SOL    HW222317   4.947   3.122   2.224
 7140SOL     OW22318   6.233   3.462   5.021
 7140SOL    HW122319   6.194   3.522   5.091
 7140SOL    HW222320   6.225   3.506   4.931
 7141SOL     OW22321   3.239   6.389   0.957
 7141SOL    HW122322   3.161   6.422   1.011
 7141SOL    HW222323   3.316   6.451   0.967
 7142SOL     OW22324   4.265   6.825   2.818
 7142SOL    HW122325   4.289   6.922   2.811
 7142SOL    HW222326   4.213   6.809   2.902
 7143SOL     OW22327   1.269   2.420   6.571
 7143SOL    HW122328   1.246   2.518   6.568
 7143SOL    HW222329   1.356   2.406   6.523
 7144SOL     OW22330   1.191   1.506   3.047
 7144SOL    HW122331   1.230   1.529   2.958
 7144SOL    HW222332   1.168   1.589   3.097
 7145SOL     OW22333   4.391   6.183   6.073
 7145SOL    HW122334   4.472   6.241   6.066
 7145SOL    HW222335   4.308   6.240   6.075
 7146SOL     OW22336   2.045   0.438   6.962
 7146SOL    HW122337   2.078   0.350   6.994
 7146SOL    HW222338   2.106   0.473   6.891
 7147SOL     OW22339   6.253   6.517   3.449
 7147SOL    HW122340   6.234   6.477   3.539
 7147SOL    HW222341   6.308   6.600   3.460
 7148SOL     OW22342   0.073   6.046   1.872
 7148SOL    HW122343   0.017   6.008   1.798
 7148SOL    HW222344   0.140   6.110   1.834
 7149SOL     OW22345   6.909   6.676   3.246
 7149SOL    HW122346   6.809   6.678   3.236
 7149SOL    HW222347   6.942   6.769   3.264
 7150SOL     OW22348   4.727   2.453   1.676
 7150SOL    HW122349   4.777   2.538   1.658
 7150SOL    HW222350   4.773   2.401   1.747
 7151SOL     OW22351   0.796   5.958   0.941
 7151SOL    HW122352   0.866   5.901   0.898
 7151SOL    HW222353   0.800   6.050   0.903
 7152SOL     OW22354   0.365   2.232   5.722
 7152SOL    HW122355   0.360   2.308   5.787
 7152SOL    HW222356   0.272   2.206   5.695
 7153SOL     OW22357   3.529   6.052   3.962
 7153SOL    HW122358   3.508   6.150   3.956
 7153SOL    HW222359   3.445   6.002   3.983
 7154SOL     OW22360   4.045   6.040   4.942
 7154SOL    HW122361   4.111   6.026   5.016
 7154SOL    HW222362   4.053   5.966   4.876
 7155SOL     OW22363   1.812   6.412   1.488
 7155SOL    HW122364   1.806   6.363   1.575
 7155SOL    HW222365   1.794   6.348   1.413
 7156SOL     OW22366   0.711   5.002   4.680
 7156SOL    HW122367   0.771   5.061   4.627
 7156SOL    HW222368   0.765   4.946   4.742
 7157SOL     OW22369   5.863   4.703   0.986
 7157SOL    HW122370   5.938   4.739   1.042
 7157SOL    HW222371   5.823   4.778   0.933
 7158SOL     OW22372   0.399   6.800   3.238
 7158SOL    HW122373   0.429   6.732   3.171
 7158SOL    HW222374   0.330   6.759   3.298
 7159SOL     OW22375   0.299   4.572   2.445
 7159SOL    HW122376   0.259   4.510   2.512
 7159SOL    HW222377   0.325   4.520   2.363
 7160SOL     OW22378   6.470   0.504   2.808
 7160SOL    HW122379   6.394   0.564   2.835
 7160SOL    HW222380   6.488   0.439   2.881
 7161SOL     OW22381   3.290   4.141   4.753
 7161SOL    HW122382   3.245   4.172   4.837
 7161SOL    HW222383   3.383   4.112   4.774
 7162SOL     OW22384   3.403   6.127   5.703
 7162SOL    HW122385   3.369   6.213   5.743
 7162SOL    HW222386   3.329   6.083   5.651
 7163SOL     OW22387   3.202   6.589   3.948
 7163SOL    HW122388   3.201   6.489   3.953
 7163SOL    HW222389   3.288   6.624   3.985
 7164SOL     OW22390   1.971   2.296   2.907
 7164SOL    HW122391   2.003   2.388   2.926
 7164SOL    HW222392   1.961   2.245   2.992
 7165SOL     OW22393   6.278   0.962   1.165
 7165SOL    HW122394   6.263   0.947   1.067
 7165SOL    HW222395   6.287   0.874   1.211
 7166SOL     OW22396   5.041   3.781   0.403
 7166SOL    HW122397   5.130   3.736   0.415
 7166SOL    HW222398   5.039   3.867   0.455
 7167SOL     OW22399   4.940   3.939   5.167
 7167SOL    HW122400   5.014   3.955   5.232
 7167SOL    HW222401   4.914   4.026   5.124
 7168SOL     OW22402   1.219   2.565   3.784
 7168SOL    HW122403   1.267   2.523   3.707
 7168SOL    HW222404   1.223   2.503   3.863
 7169SOL     OW22405   0.925   3.079   5.033
 7169SOL    HW122406   0.901   3.043   5.123
 7169SOL    HW222407   0.972   3.167   5.044
 7170SOL     OW22408   4.008   5.299   3.905
 7170SOL    HW122409   4.107   5.306   3.919
 7170SOL    HW222410   3.988   5.310   3.808
 7171SOL     OW22411   5.648   4.096   6.076
 7171SOL    HW122412   5.700   4.080   5.992
 7171SOL    HW222413   5.601   4.012   6.102
 7172SOL     OW22414   1.073   0.177   5.896
 7172SOL    HW122415   1.130   0.167   5.814
 7172SOL    HW222416   1.040   0.271   5.902
 7173SOL     OW22417   0.519   4.618   5.646
 7173SOL    HW122418   0.454   4.619   5.722
 7173SOL    HW222419   0.484   4.676   5.572
 7174SOL     OW22420   1.086   5.452   6.841
 7174SOL    HW122421   1.154   5.525   6.831
 7174SOL    HW222422   1.085   5.395   6.759
 7175SOL     OW22423   5.872   3.239   0.774
 7175SOL    HW122424   5.914   3.154   0.743
 7175SOL    HW222425   5.825   3.224   0.861
 7176SOL     OW22426   0.579   5.129   2.762
 7176SOL    HW122427   0.491   5.134   2.716
 7176SOL    HW222428   0.624   5.219   2.759
 7177SOL     OW22429   2.268   6.698   3.644
 7177SOL    HW122430   2.289   6.776   3.584
 7177SOL    HW222431   2.299   6.718   3.737
 7178SOL     OW22432   2.500   2.509   5.689
 7178SOL    HW122433   2.559   2.589   5.688
 7178SOL    HW222434   2.405   2.538   5.702
 7179SOL     OW22435   1.581   3.463   5.098
 7179SOL    HW122436   1.665   3.469   5.152
 7179SOL    HW222437   1.510   3.417   5.152
 7180SOL     OW22438   1.227   5.708   6.311
 7180SOL    HW122439   1.290   5.768   6.261
 7180SOL    HW222440   1.253   5.706   6.407
 7181SOL     OW22441   2.800   6.834   0.972
 7181SOL    HW122442   2.736   6.831   1.048
 7181SOL    HW222443   2.751   6.823   0.886
 7182SOL     OW22444   0.807   2.853   5.521
 7182SOL    HW122445   0.735   2.784   5.510
 7182SOL    HW222446   0.771   2.931   5.571
 7183SOL     OW22447   1.715   4.922   1.780
 7183SOL    HW122448   1.685   5.017   1.792
 7183SOL    HW222449   1.804   4.910   1.824
 7184SOL     OW22450   0.571   6.980   3.817
 7184SOL    HW122451   0.531   0.022   3.754
 7184SOL    HW222452   0.591   6.896   3.767
 7185SOL     OW22453   5.095   2.138   5.736
 7185SOL    HW122454   5.067   2.077   5.662
 7185SOL    HW222455   5.189   2.118   5.762
 7186SOL     OW22456   0.240   7.008   5.538
 7186SOL    HW122457   0.307   0.047   5.576
 7186SOL    HW222458   0.288   6.928   5.502
 7187SOL     OW22459   1.778   4.720   1.060
 7187SOL    HW122460   1.705   4.700   0.994
 7187SOL    HW222461   1.741   4.776   1.134
 7188SOL     OW22462   5.486   6.888   0.569
 7188SOL    HW122463   5.413   6.926   0.627
 7188SOL    HW222464   5.505   6.794   0.595
 7189SOL     OW22465   6.281   1.050   6.952
 7189SOL    HW122466   6.212   1.096   6.897
 7189SOL    HW222467   6.324   0.977   6.899
 7190SOL     OW22468   5.402   3.244   3.048
 7190SOL    HW122469   5.325   3.235   3.110
 7190SOL    HW222470   5.405   3.166   2.986
 7191SOL     OW22471   0.811   4.153   2.463
 7191SOL    HW122472   0.721   4.196   2.447
 7191SOL    HW222473   0.861   4.149   2.376
 7192SOL     OW22474   2.230   5.889   4.745
 7192SOL    HW122475   2.165   5.851   4.679
 7192SOL    HW222476   2.276   5.969   4.706
 7193SOL     OW22477   2.960   1.974   3.207
 7193SOL    HW122478   3.037   2.035   3.186
 7193SOL    HW222479   2.943   1.914   3.130
 7194SOL     OW22480   2.284   2.281   1.084
 7194SOL    HW122481   2.288   2.225   1.167
 7194SOL    HW222482   2.306   2.376   1.108
 7195SOL     OW22483   0.457   5.080   6.676
 7195SOL    HW122484   0.504   5.133   6.605
 7195SOL    HW222485   0.460   5.130   6.762
 7196SOL     OW22486   2.871   3.308   2.208
 7196SOL    HW122487   2.915   3.220   2.190
 7196SOL    HW222488   2.836   3.345   2.122
 7197SOL     OW22489   6.802   2.812   5.935
 7197SOL    HW122490   6.815   2.868   5.853
 7197SOL    HW222491   6.738   2.858   5.996
 7198SOL     OW22492   1.001   0.445   5.101
 7198SOL    HW122493   0.950   0.525   5.133
 7198SOL    HW222494   1.008   0.448   5.001
 7199SOL     OW22495   1.794   1.104   2.143
 7199SOL    HW122496   1.780   1.077   2.048
 7199SOL    HW222497   1.869   1.051   2.182
 7200SOL     OW22498   2.493   0.901   0.164
 7200SOL    HW122499   2.433   0.924   0.087
 7200SOL    HW222500   2.563   0.837   0.134
 7201SOL     OW22501   1.465   5.172   3.447
 7201SOL    HW122502   1.506   5.250   3.495
 7201SOL    HW222503   1.465   5.189   3.349
 7202SOL     OW22504   3.454   0.153   6.431
 7202SOL    HW122505   3.511   0.153   6.349
 7202SOL    HW222506   3.426   0.246   6.453
 7203SOL     OW22507   6.114   1.386   0.849
 7203SOL    HW122508   6.184   1.323   0.814
 7203SOL    HW222509   6.156   1.448   0.915
 7204SOL     OW22510   5.820   6.629   4.989
 7204SOL    HW122511   5.887   6.557   4.971
 7204SOL    HW222512   5.747   6.625   4.921
 7205SOL     OW22513   1.852   6.483   3.590
 7205SOL    HW122514   1.824   6.418   3.519
 7205SOL    HW222515   1.784   6.484   3.663
 7206SOL     OW22516   1.088   0.418   1.532
 7206SOL    HW122517   1.058   0.350   1.465
 7206SOL    HW222518   1.103   0.506   1.486
 7207SOL     OW22519   3.496   6.903   1.445
 7207SOL    HW122520   3.457   6.877   1.357
 7207SOL    HW222521   3.590   6.867   1.452
 7208SOL     OW22522   4.340   6.360   4.600
 7208SOL    HW122523   4.307   6.439   4.550
 7208SOL    HW222524   4.269   6.290   4.605
 7209SOL     OW22525   2.909   3.414   3.243
 7209SOL    HW122526   2.940   3.401   3.149
 7209SOL    HW222527   2.884   3.510   3.258
 7210SOL     OW22528   5.340   0.059   3.485
 7210SOL    HW122529   5.337   0.024   3.579
 7210SOL    HW222530   5.361   0.157   3.487
 7211SOL     OW22531   1.670   5.786   3.838
 7211SOL    HW122532   1.586   5.821   3.797
 7211SOL    HW222533   1.745   5.849   3.819
 7212SOL     OW22534   0.972   6.147   3.520
 7212SOL    HW122535   1.062   6.126   3.484
 7212SOL    HW222536   0.970   6.243   3.550
 7213SOL     OW22537   5.636   0.232   5.848
 7213SOL    HW122538   5.552   0.265   5.892
 7213SOL    HW222539   5.656   0.289   5.768
 7214SOL     OW22540   2.411   5.129   4.085
 7214SOL    HW122541   2.439   5.037   4.056
 7214SOL    HW222542   2.361   5.173   4.010
 7215SOL     OW22543   0.401   3.356   4.331
 7215SOL    HW122544   0.468   3.409   4.384
 7215SOL    HW222545   0.321   3.338   4.388
 7216SOL     OW22546   2.511   5.989   6.790
 7216SOL    HW122547   2.512   6.002   6.691
 7216SOL    HW222548   2.486   6.075   6.836
 7217SOL     OW22549   1.626   4.717   1.618
 7217SOL    HW122550   1.684   4.639   1.595
 7217SOL    HW222551   1.684   4.795   1.644
 7218SOL     OW22552   4.691   2.976   5.534
 7218SOL    HW122553   4.669   2.894   5.587
 7218SOL    HW222554   4.611   3.037   5.534
 7219SOL     OW22555   4.883   5.370   3.117
 7219SOL    HW122556   4.878   5.281   3.071
 7219SOL    HW222557   4.808   5.377   3.183
 7220SOL     OW22558   6.679   5.562   3.482
 7220SOL    HW122559   6.591   5.605   3.500
 7220SOL    HW222560   6.664   5.468   3.451
 7221SOL     OW22561   5.216   5.394   4.755
 7221SOL    HW122562   5.261   5.313   4.718
 7221SOL    HW222563   5.285   5.460   4.785
 7222SOL     OW22564   6.456   6.717   0.455
 7222SOL    HW122565   6.553   6.692   0.446
 7222SOL    HW222566   6.400   6.636   0.438
 7223SOL     OW22567   3.171   1.912   1.671
 7223SOL    HW122568   3.122   1.850   1.610
 7223SOL    HW222569   3.111   1.987   1.698
 7224SOL     OW22570   5.913   2.136   4.676
 7224SOL    HW122571   5.838   2.135   4.741
 7224SOL    HW222572   5.886   2.088   4.592
 7225SOL     OW22573   1.450   5.458   6.690
 7225SOL    HW122574   1.550   5.459   6.696
 7225SOL    HW222575   1.423   5.437   6.596
 7226SOL     OW22576   0.395   0.833   0.475
 7226SOL    HW122577   0.487   0.800   0.457
 7226SOL    HW222578   0.363   0.797   0.563
 7227SOL     OW22579   0.865   2.173   0.484
 7227SOL    HW122580   0.786   2.114   0.501
 7227SOL    HW222581   0.880   2.182   0.386
 7228SOL     OW22582   6.882   0.981   2.195
 7228SOL    HW122583   6.841   0.900   2.154
 7228SOL    HW222584   6.980   0.968   2.206
 7229SOL     OW22585   0.745   0.669   3.955
 7229SOL    HW122586   0.733   0.689   4.052
 7229SOL    HW222587   0.837   0.697   3.927
 7230SOL     OW22588   4.525   5.326   4.878
 7230SOL    HW122589   4.603   5.263   4.875
 7230SOL    HW222590   4.501   5.343   4.974
 7231SOL     OW22591   4.383   0.383   0.203
 7231SOL    HW122592   4.285   0.377   0.222
 7231SOL    HW222593   4.407   0.316   0.133
 7232SOL     OW22594   3.707   4.927   3.261
 7232SOL    HW122595   3.680   4.913   3.165
 7232SOL    HW222596   3.626   4.922   3.319
 7233SOL     OW22597   0.696   3.000   4.786
 7233SOL    HW122598   0.674   2.910   4.823
 7233SOL    HW222599   0.674   3.070   4.854
 7234SOL     OW22600   6.350   2.979   2.139
 7234SOL    HW122601   6.325   3.043   2.066
 7234SOL    HW222602   6.395   2.899   2.100
 7235SOL     OW22603   6.491   3.791   3.494
 7235SOL    HW122604   6.576   3.793   3.440
 7235SOL    HW222605   6.414   3.817   3.436
 7236SOL     OW22606   3.238   1.958   2.929
 7236SOL    HW122607   3.258   1.884   2.993
 7236SOL    HW222608   3.205   2.038   2.979
 7237SOL     OW22609   6.670   6.514   5.070
 7237SOL    HW122610   6.591   6.550   5.020
 7237SOL    HW222611   6.753   6.556   5.035
 7238SOL     OW22612   2.302   1.734   1.455
 7238SOL    HW122613   2.376   1.666   1.461
 7238SOL    HW222614   2.323   1.811   1.515
 7239SOL     OW22615   2.118   1.878   3.153
 7239SOL    HW122616   2.088   1.812   3.084
 7239SOL    HW222617   2.195   1.841   3.204
 7240SOL     OW22618   2.672   4.039   0.226
 7240SOL    HW122619   2.656   4.104   0.300
 7240SOL    HW222620   2.607   4.056   0.152
 7241SOL     OW22621   3.148   0.576   6.262
 7241SOL    HW122622   3.058   0.532   6.252
 7241SOL    HW222623   3.196   0.575   6.175
 7242SOL     OW22624   6.011   4.421   6.960
 7242SOL    HW122625   6.106   4.410   6.989
 7242SOL    HW222626   5.960   4.469   0.007
 7243SOL     OW22627   1.120   4.444   6.538
 7243SOL    HW122628   1.038   4.401   6.501
 7243SOL    HW222629   1.170   4.490   6.465
 7244SOL     OW22630   4.577   0.626   1.083
 7244SOL    HW122631   4.525   0.675   1.152
 7244SOL    HW222632   4.638   0.689   1.035
 7245SOL     OW22633   0.391   2.660   4.851
 7245SOL    HW122634   0.379   2.584   4.915
 7245SOL    HW222635   0.476   2.708   4.872
 7246SOL     OW22636   6.699   6.549   4.442
 7246SOL    HW122637   6.794   6.553   4.474
 7246SOL    HW222638   6.697   6.513   4.349
 7247SOL     OW22639   2.482   6.714   2.878
 7247SOL    HW122640   2.458   6.654   2.954
 7247SOL    HW222641   2.413   6.706   2.806
 7248SOL     OW22642   3.265   0.991   3.741
 7248SOL    HW122643   3.303   1.029   3.657
 7248SOL    HW222644   3.240   1.065   3.803
 7249SOL     OW22645   5.808   4.303   1.010
 7249SOL    HW122646   5.786   4.207   1.024
 7249SOL    HW222647   5.776   4.357   1.088
 7250SOL     OW22648   2.247   4.646   6.259
 7250SOL    HW122649   2.261   4.580   6.334
 7250SOL    HW222650   2.158   4.689   6.269
 7251SOL     OW22651   6.635   0.227   5.622
 7251SOL    HW122652   6.583   0.164   5.564
 7251SOL    HW222653   6.576   0.304   5.647
 7252SOL     OW22654   3.513   3.565   4.661
 7252SOL    HW122655   3.429   3.558   4.607
 7252SOL    HW222656   3.493   3.539   4.755
 7253SOL     OW22657   1.480   6.217   0.378
 7253SOL    HW122658   1.535   6.233   0.460
 7253SOL    HW222659   1.467   6.303   0.329
 7254SOL     OW22660   3.411   5.585   4.758
 7254SOL    HW122661   3.388   5.524   4.682
 7254SOL    HW222662   3.424   5.678   4.724
 7255SOL     OW22663   3.519   3.152   2.071
 7255SOL    HW122664   3.507   3.082   2.141
 7255SOL    HW222665   3.483   3.239   2.104
 7256SOL     OW22666   4.742   4.776   4.533
 7256SOL    HW122667   4.660   4.819   4.494
 7256SOL    HW222668   4.823   4.808   4.485
 7257SOL     OW22669   6.252   2.852   3.195
 7257SOL    HW122670   6.302   2.771   3.226
 7257SOL    HW222671   6.309   2.904   3.131
 7258SOL     OW22672   4.529   0.333   4.178
 7258SOL    HW122673   4.540   0.348   4.079
 7258SOL    HW222674   4.439   0.293   4.195
 7259SOL     OW22675   2.857   4.571   0.089
 7259SOL    HW122676   2.895   4.520   0.167
 7259SOL    HW222677   2.770   4.612   0.117
 7260SOL     OW22678   3.783   1.838   3.198
 7260SOL    HW122679   3.855   1.797   3.253
 7260SOL    HW222680   3.746   1.918   3.246
 7261SOL     OW22681   2.541   3.220   1.685
 7261SOL    HW122682   2.463   3.236   1.746
 7261SOL    HW222683   2.508   3.205   1.592
 7262SOL     OW22684   5.879   2.554   4.256
 7262SOL    HW122685   5.971   2.586   4.233
 7262SOL    HW222686   5.855   2.586   4.348
 7263SOL     OW22687   1.364   5.441   1.750
 7263SOL    HW122688   1.356   5.515   1.817
 7263SOL    HW222689   1.436   5.462   1.685
 7264SOL     OW22690   6.953   1.419   6.872
 7264SOL    HW122691   6.980   1.508   6.836
 7264SOL    HW222692   0.010   1.365   6.892
 7265SOL     OW22693   5.621   5.456   6.084
 7265SOL    HW122694   5.550   5.522   6.110
 7265SOL    HW222695   5.699   5.504   6.046
 7266SOL     OW22696   4.496   0.752   1.319
 7266SOL    HW122697   4.449   0.715   1.399
 7266SOL    HW222698   4.480   0.851   1.314
 7267SOL     OW22699   6.842   4.699   4.985
 7267SOL    HW122700   6.843   4.713   5.084
 7267SOL    HW222701   6.921   4.745   4.944
 7268SOL     OW22702   4.053   5.749   2.324
 7268SOL    HW122703   4.036   5.678   2.256
 7268SOL    HW222704   4.079   5.706   2.411
 7269SOL     OW22705   0.922   5.436   1.514
 7269SOL    HW122706   0.932   5.489   1.599
 7269SOL    HW222707   1.008   5.439   1.463
 7270SOL     OW22708   2.703   2.041   3.237
 7270SOL    HW122709   2.701   2.141   3.229
 7270SOL    HW222710   2.797   2.009   3.226
 7271SOL     OW22711   0.024   4.351   2.811
 7271SOL    HW122712   0.110   4.367   2.764
 7271SOL    HW222713   6.996   4.436   2.814
 7272SOL     OW22714   5.253   2.851   2.519
 7272SOL    HW122715   5.184   2.783   2.544
 7272SOL    HW222716   5.215   2.943   2.531
 7273SOL     OW22717   5.513   3.783   1.545
 7273SOL    HW122718   5.530   3.878   1.575
 7273SOL    HW222719   5.435   3.746   1.596
 7274SOL     OW22720   6.958   5.115   5.824
 7274SOL    HW122721   0.020   5.070   5.842
 7274SOL    HW222722   6.906   5.060   5.758
 7275SOL     OW22723   6.370   0.794   0.299
 7275SOL    HW122724   6.439   0.770   0.230
 7275SOL    HW222725   6.290   0.833   0.253
 7276SOL     OW22726   2.732   1.956   3.747
 7276SOL    HW122727   2.736   1.880   3.683
 7276SOL    HW222728   2.819   1.964   3.796
 7277SOL     OW22729   4.959   1.312   5.611
 7277SOL    HW122730   5.014   1.228   5.614
 7277SOL    HW222731   4.969   1.362   5.697
 7278SOL     OW22732   3.951   1.718   3.359
 7278SOL    HW122733   3.929   1.734   3.455
 7278SOL    HW222734   3.959   1.619   3.343
 7279SOL     OW22735   4.215   4.494   1.202
 7279SOL    HW122736   4.186   4.555   1.128
 7279SOL    HW222737   4.181   4.402   1.186
 7280SOL     OW22738   5.127   2.431   5.371
 7280SOL    HW122739   5.167   2.342   5.347
 7280SOL    HW222740   5.174   2.503   5.320
 7281SOL     OW22741   3.638   6.941   0.777
 7281SOL    HW122742   3.634   6.921   0.875
 7281SOL    HW222743   3.657   6.857   0.726
 7282SOL     OW22744   6.757   5.500   2.098
 7282SOL    HW122745   6.851   5.511   2.066
 7282SOL    HW222746   6.695   5.551   2.039
 7283SOL     OW22747   2.820   6.149   2.067
 7283SOL    HW122748   2.863   6.094   1.995
 7283SOL    HW222749   2.869   6.136   2.153
 7284SOL     OW22750   6.763   2.682   3.851
 7284SOL    HW122751   6.776   2.609   3.784
 7284SOL    HW222752   6.763   2.771   3.805
 7285SOL     OW22753   4.831   2.726   1.724
 7285SOL    HW122754   4.765   2.800   1.715
 7285SOL    HW222755   4.924   2.763   1.727
 7286SOL     OW22756   0.831   1.157   0.725
 7286SOL    HW122757   0.893   1.170   0.648
 7286SOL    HW222758   0.739   1.188   0.699
 7287SOL     OW22759   0.460   2.794   3.665
 7287SOL    HW122760   0.367   2.779   3.631
 7287SOL    HW222761   0.493   2.711   3.710
 7288SOL     OW22762   2.800   2.293   2.657
 7288SOL    HW122763   2.807   2.321   2.561
 7288SOL    HW222764   2.874   2.229   2.678
 7289SOL     OW22765   5.700   2.298   1.865
 7289SOL    HW122766   5.668   2.280   1.772
 7289SOL    HW222767   5.789   2.343   1.861
 7290SOL     OW22768   4.337   1.163   5.993
 7290SOL    HW122769   4.324   1.172   6.091
 7290SOL    HW222770   4.308   1.072   5.963
 7291SOL     OW22771   3.290   6.988   0.004
 7291SOL    HW122772   3.304   6.898   0.046
 7291SOL    HW222773   3.264   6.976   6.933
 7292SOL     OW22774   1.599   6.974   3.354
 7292SOL    HW122775   1.552   6.917   3.421
 7292SOL    HW222776   1.668   6.919   3.306
 7293SOL     OW22777   1.351   0.801   5.382
 7293SOL    HW122778   1.324   0.718   5.334
 7293SOL    HW222779   1.418   0.851   5.328
 7294SOL     OW22780   3.062   4.647   1.719
 7294SOL    HW122781   3.013   4.568   1.755
 7294SOL    HW222782   3.161   4.630   1.724
 7295SOL     OW22783   6.385   4.840   1.690
 7295SOL    HW122784   6.337   4.887   1.615
 7295SOL    HW222785   6.368   4.742   1.683
 7296SOL     OW22786   3.502   4.929   3.048
 7296SOL    HW122787   3.579   4.911   2.986
 7296SOL    HW222788   3.422   4.876   3.018
 7297SOL     OW22789   3.359   6.698   1.608
 7297SOL    HW122790   3.355   6.781   1.552
 7297SOL    HW222791   3.428   6.636   1.571
 7298SOL     OW22792   4.369   5.616   6.627
 7298SOL    HW122793   4.453   5.567   6.603
 7298SOL    HW222794   4.393   5.702   6.672
 7299SOL     OW22795   1.092   2.780   6.935
 7299SOL    HW122796   1.149   2.702   6.910
 7299SOL    HW222797   1.004   2.747   6.971
 7300SOL     OW22798   1.243   5.422   2.040
 7300SOL    HW122799   1.256   5.354   1.969
 7300SOL    HW222800   1.328   5.434   2.092
 7301SOL     OW22801   5.976   0.209   5.835
 7301SOL    HW122802   6.074   0.205   5.816
 7301SOL    HW222803   5.939   0.116   5.839
 7302SOL     OW22804   5.289   3.340   6.454
 7302SOL    HW122805   5.316   3.295   6.369
 7302SOL    HW222806   5.306   3.438   6.446
 7303SOL     OW22807   3.047   1.089   0.855
 7303SOL    HW122808   2.959   1.054   0.821
 7303SOL    HW222809   3.092   1.141   0.782
 7304SOL     OW22810   2.564   4.921   1.357
 7304SOL    HW122811   2.619   4.886   1.282
 7304SOL    HW222812   2.480   4.963   1.321
 7305SOL     OW22813   5.920   2.133   0.077
 7305SOL    HW122814   5.887   2.056   0.023
 7305SOL    HW222815   5.846   2.198   0.093
 7306SOL     OW22816   3.457   1.794   0.978
 7306SOL    HW122817   3.531   1.861   0.983
 7306SOL    HW222818   3.372   1.840   0.954
 7307SOL     OW22819   3.109   6.737   2.142
 7307SOL    HW122820   3.077   6.764   2.051
 7307SOL    HW222821   3.208   6.744   2.147
 7308SOL     OW22822   5.783   1.039   2.032
 7308SOL    HW122823   5.725   1.109   2.074
 7308SOL    HW222824   5.728   0.960   2.008
 7309SOL     OW22825   2.512   5.876   3.066
 7309SOL    HW122826   2.610   5.895   3.056
 7309SOL    HW222827   2.497   5.777   3.066
 7310SOL     OW22828   1.252   3.262   0.301
 7310SOL    HW122829   1.249   3.280   0.202
 7310SOL    HW222830   1.253   3.163   0.316
 7311SOL     OW22831   0.369   0.267   0.549
 7311SOL    HW122832   0.313   0.321   0.486
 7311SOL    HW222833   0.388   0.321   0.631
 7312SOL     OW22834   6.858   2.002   5.551
 7312SOL    HW122835   6.862   2.088   5.500
 7312SOL    HW222836   6.945   1.987   5.598
 7313SOL     OW22837   2.243   0.956   1.454
 7313SOL    HW122838   2.262   1.045   1.411
 7313SOL    HW222839   2.208   0.971   1.547
 7314SOL     OW22840   6.937   4.154   0.152
 7314SOL    HW122841   6.850   4.161   0.202
 7314SOL    HW222842   6.926   4.091   0.075
 7315SOL     OW22843   6.871   5.337   2.510
 7315SOL    HW122844   6.892   5.382   2.597
 7315SOL    HW222845   6.869   5.238   2.524
 7316SOL     OW22846   2.809   2.153   6.157
 7316SOL    HW122847   2.743   2.204   6.212
 7316SOL    HW222848   2.895   2.205   6.151
 7317SOL     OW22849   3.486   1.561   1.788
 7317SOL    HW122850   3.553   1.517   1.727
 7317SOL    HW222851   3.460   1.650   1.750
 7318SOL     OW22852   3.453   7.010   2.242
 7318SOL    HW122853   3.477   0.068   2.191
 7318SOL    HW222854   3.403   6.947   2.182
 7319SOL     OW22855   6.786   3.866   0.357
 7319SOL    HW122856   6.884   3.884   0.365
 7319SOL    HW222857   6.760   3.857   0.261
 7320SOL     OW22858   6.784   3.996   0.987
 7320SOL    HW122859   6.826   4.086   1.003
 7320SOL    HW222860   6.846   3.939   0.933
 7321SOL     OW22861   1.918   6.160   5.867
 7321SOL    HW122862   1.949   6.100   5.793
 7321SOL    HW222863   1.990   6.169   5.935
 7322SOL     OW22864   1.065   1.266   3.105
 7322SOL    HW122865   0.990   1.291   3.167
 7322SOL    HW222866   1.110   1.350   3.073
 7323SOL     OW22867   1.950   1.526   1.063
 7323SOL    HW122868   1.945   1.485   1.154
 7323SOL    HW222869   2.039   1.570   1.052
 7324SOL     OW22870   6.021   4.777   2.921
 7324SOL    HW122871   5.955   4.712   2.959
 7324SOL    HW222872   6.042   4.752   2.826
 7325SOL     OW22873   3.643   0.603   5.447
 7325SOL    HW122874   3.634   0.688   5.499
 7325SOL    HW222875   3.620   0.620   5.351
 7326SOL     OW22876   3.017   0.930   6.477
 7326SOL    HW122877   3.102   0.898   6.436
 7326SOL    HW222878   3.004   0.884   6.565
 7327SOL     OW22879   5.852   3.547   3.263
 7327SOL    HW122880   5.949   3.556   3.284
 7327SOL    HW222881   5.838   3.564   3.165
 7328SOL     OW22882   3.847   5.282   5.813
 7328SOL    HW122883   3.816   5.252   5.903
 7328SOL    HW222884   3.768   5.316   5.761
 7329SOL     OW22885   2.175   3.362   0.299
 7329SOL    HW122886   2.120   3.361   0.216
 7329SOL    HW222887   2.119   3.333   0.376
 7330SOL     OW22888   3.061   2.983   1.351
 7330SOL    HW122889   3.063   3.082   1.364
 7330SOL    HW222890   2.967   2.952   1.341
 7331SOL     OW22891   5.193   0.398   2.094
 7331SOL    HW122892   5.226   0.422   2.185
 7331SOL    HW222893   5.262   0.421   2.026
 7332SOL     OW22894   3.575   3.897   7.006
 7332SOL    HW122895   3.489   3.935   0.016
 7332SOL    HW222896   3.604   3.950   6.926
 7333SOL     OW22897   6.661   3.263   2.195
 7333SOL    HW122898   6.746   3.309   2.171
 7333SOL    HW222899   6.681   3.175   2.238
 7334SOL     OW22900   2.962   6.925   5.596
 7334SOL    HW122901   3.055   6.888   5.597
 7334SOL    HW222902   2.941   6.962   5.686
 7335SOL     OW22903   6.974   3.656   2.824
 7335SOL    HW122904   6.888   3.705   2.814
 7335SOL    HW222905   6.989   3.635   2.921
 7336SOL     OW22906   1.597   6.429   1.151
 7336SOL    HW122907   1.646   6.452   1.067
 7336SOL    HW222908   1.498   6.436   1.135
 7337SOL     OW22909   3.213   2.862   1.985
 7337SOL    HW122910   3.166   2.933   2.036
 7337SOL    HW222911   3.305   2.850   2.021
 7338SOL     OW22912   5.447   2.626   1.146
 7338SOL    HW122913   5.366   2.663   1.099
 7338SOL    HW222914   5.452   2.528   1.131
 7339SOL     OW22915   6.948   6.327   4.996
 7339SOL    HW122916   6.961   6.235   4.960
 7339SOL    HW222917   6.915   6.387   4.923
 7340SOL     OW22918   3.316   1.324   0.042
 7340SOL    HW122919   3.269   1.242   0.075
 7340SOL    HW222920   3.362   1.369   0.118
 7341SOL     OW22921   0.322   4.617   3.997
 7341SOL    HW122922   0.343   4.519   3.991
 7341SOL    HW222923   0.258   4.642   3.925
 7342SOL     OW22924   6.612   0.719   0.133
 7342SOL    HW122925   6.625   0.674   0.045
 7342SOL    HW222926   6.629   0.654   0.207
 7343SOL     OW22927   5.937   4.123   2.108
 7343SOL    HW122928   5.936   4.217   2.141
 7343SOL    HW222929   5.843   4.092   2.092
 7344SOL     OW22930   1.847   6.558   6.573
 7344SOL    HW122931   1.816   6.465   6.557
 7344SOL    HW222932   1.869   6.602   6.486
 7345SOL     OW22933   4.204   5.053   5.579
 7345SOL    HW122934   4.127   5.009   5.626
 7345SOL    HW222935   4.195   5.152   5.586
 7346SOL     OW22936   3.586   4.414   0.962
 7346SOL    HW122937   3.531   4.463   0.895
 7346SOL    HW222938   3.562   4.445   1.054
 7347SOL     OW22939   6.062   2.235   2.069
 7347SOL    HW122940   5.978   2.199   2.028
 7347SOL    HW222941   6.142   2.199   2.020
 7348SOL     OW22942   1.272   3.071   3.909
 7348SOL    HW122943   1.280   2.972   3.906
 7348SOL    HW222944   1.192   3.096   3.965
 7349SOL     OW22945   3.370   2.074   1.544
 7349SOL    HW122946   3.383   2.041   1.451
 7349SOL    HW222947   3.290   2.029   1.584
 7350SOL     OW22948   0.671   2.157   3.284
 7350SOL    HW122949   0.708   2.249   3.293
 7350SOL    HW222950   0.736   2.100   3.234
 7351SOL     OW22951   4.074   4.583   6.395
 7351SOL    HW122952   4.013   4.645   6.345
 7351SOL    HW222953   4.029   4.553   6.479
 7352SOL     OW22954   1.205   1.449   2.369
 7352SOL    HW122955   1.282   1.512   2.367
 7352SOL    HW222956   1.147   1.464   2.289
 7353SOL     OW22957   6.449   1.779   4.766
 7353SOL    HW122958   6.447   1.875   4.735
 7353SOL    HW222959   6.543   1.755   4.792
 7354SOL     OW22960   6.762   0.881   6.461
 7354SOL    HW122961   6.816   0.898   6.379
 7354SOL    HW222962   6.685   0.821   6.440
 7355SOL     OW22963   1.054   6.398   1.208
 7355SOL    HW122964   1.031   6.301   1.201
 7355SOL    HW222965   1.066   6.436   1.117
 7356SOL     OW22966   5.749   2.638   6.323
 7356SOL    HW122967   5.675   2.686   6.276
 7356SOL    HW222968   5.836   2.657   6.277
 7357SOL     OW22969   4.859   0.850   0.688
 7357SOL    HW122970   4.906   0.937   0.674
 7357SOL    HW222971   4.860   0.797   0.604
 7358SOL     OW22972   3.552   2.154   3.619
 7358SOL    HW122973   3.534   2.252   3.611
 7358SOL    HW222974   3.569   2.131   3.714
 7359SOL     OW22975   3.623   3.056   1.816
 7359SOL    HW122976   3.569   3.070   1.898
 7359SOL    HW222977   3.562   3.037   1.739
 7360SOL     OW22978   1.737   3.008   5.222
 7360SOL    HW122979   1.664   3.061   5.266
 7360SOL    HW222980   1.697   2.935   5.166
 7361SOL     OW22981   5.353   6.681   0.866
 7361SOL    HW122982   5.340   6.779   0.883
 7361SOL    HW222983   5.441   6.666   0.821
 7362SOL     OW22984   0.858   0.115   4.939
 7362SOL    HW122985   0.775   0.060   4.926
 7362SOL    HW222986   0.919   0.103   4.861
 7363SOL     OW22987   6.110   2.363   0.363
 7363SOL    HW122988   6.111   2.431   0.436
 7363SOL    HW222989   6.053   2.395   0.287
 7364SOL     OW22990   4.095   6.763   1.081
 7364SOL    HW122991   4.045   6.802   1.003
 7364SOL    HW222992   4.043   6.687   1.119
 7365SOL     OW22993   2.692   6.956   2.662
 7365SOL    HW122994   2.783   6.988   2.636
 7365SOL    HW222995   2.687   6.951   2.762
 7366SOL     OW22996   0.865   5.175   6.833
 7366SOL    HW122997   0.831   5.152   6.925
 7366SOL    HW222998   0.856   5.273   6.818
 7367SOL     OW22999   4.591   3.906   1.293
 7367SOL    HW123000   4.508   3.962   1.292
 7367SOL    HW223001   4.671   3.966   1.290
 7368SOL     OW23002   3.314   3.730   4.238
 7368SOL    HW123003   3.403   3.758   4.202
 7368SOL    HW223004   3.323   3.705   4.334
 7369SOL     OW23005   4.729   3.498   1.282
 7369SOL    HW123006   4.710   3.583   1.332
 7369SOL    HW223007   4.763   3.429   1.346
 7370SOL     OW23008   1.969   0.284   6.650
 7370SOL    HW123009   1.873   0.278   6.623
 7370SOL    HW223010   2.026   0.295   6.568
 7371SOL     OW23011   2.950   5.081   3.874
 7371SOL    HW123012   2.896   5.095   3.957
 7371SOL    HW223013   2.990   5.168   3.846
 7372SOL     OW23014   3.775   6.904   5.076
 7372SOL    HW123015   3.874   6.913   5.065
 7372SOL    HW223016   3.744   6.818   5.036
 7373SOL     OW23017   4.282   0.902   3.495
 7373SOL    HW123018   4.237   0.835   3.555
 7373SOL    HW223019   4.275   0.993   3.535
 7374SOL     OW23020   1.616   2.808   5.092
 7374SOL    HW123021   1.574   2.718   5.079
 7374SOL    HW223022   1.652   2.840   5.004
 7375SOL     OW23023   1.490   1.696   4.377
 7375SOL    HW123024   1.549   1.644   4.314
 7375SOL    HW223025   1.421   1.746   4.324
 7376SOL     OW23026   3.282   2.866   6.881
 7376SOL    HW123027   3.215   2.881   6.808
 7376SOL    HW223028   3.373   2.888   6.846
 7377SOL     OW23029   4.920   5.139   1.660
 7377SOL    HW123030   5.018   5.160   1.658
 7377SOL    HW223031   4.868   5.224   1.659
 7378SOL     OW23032   6.854   2.250   4.582
 7378SOL    HW123033   6.766   2.299   4.586
 7378SOL    HW223034   6.859   2.199   4.496
 7379SOL     OW23035   4.292   1.033   2.565
 7379SOL    HW123036   4.221   0.990   2.620
 7379SOL    HW223037   4.347   0.963   2.519
 7380SOL     OW23038   6.634   3.642   5.754
 7380SOL    HW123039   6.647   3.544   5.761
 7380SOL    HW223040   6.721   3.686   5.732
 7381SOL     OW23041   4.855   2.861   2.361
 7381SOL    HW123042   4.852   2.950   2.405
 7381SOL    HW223043   4.823   2.791   2.425
 7382SOL     OW23044   0.468   4.847   5.424
 7382SOL    HW123045   0.439   4.941   5.440
 7382SOL    HW223046   0.525   4.842   5.342
 7383SOL     OW23047   0.471   6.484   2.553
 7383SOL    HW123048   0.555   6.451   2.596
 7383SOL    HW223049   0.462   6.582   2.568
 7384SOL     OW23050   5.468   0.811   2.347
 7384SOL    HW123051   5.455   0.757   2.264
 7384SOL    HW223052   5.565   0.827   2.362
 7385SOL     OW23053   4.278   5.851   2.211
 7385SOL    HW123054   4.193   5.816   2.250
 7385SOL    HW223055   4.286   5.949   2.230
 7386SOL     OW23056   0.798   2.251   5.629
 7386SOL    HW123057   0.784   2.350   5.624
 7386SOL    HW223058   0.710   2.204   5.621
 7387SOL     OW23059   4.139   5.856   4.272
 7387SOL    HW123060   4.042   5.834   4.288
 7387SOL    HW223061   4.152   5.955   4.274
 7388SOL     OW23062   0.032   5.526   4.134
 7388SOL    HW123063   0.057   5.430   4.144
 7388SOL    HW223064   0.024   5.549   4.037
 7389SOL     OW23065   1.456   4.265   0.099
 7389SOL    HW123066   1.393   4.289   0.025
 7389SOL    HW223067   1.467   4.344   0.159
 7390SOL     OW23068   0.870   1.972   6.224
 7390SOL    HW123069   0.857   1.980   6.125
 7390SOL    HW223070   0.949   2.026   6.252
 7391SOL     OW23071   5.369   4.412   6.177
 7391SOL    HW123072   5.374   4.330   6.120
 7391SOL    HW223073   5.301   4.475   6.138
 7392SOL     OW23074   1.669   5.952   5.636
 7392SOL    HW123075   1.640   5.909   5.550
 7392SOL    HW223076   1.654   6.051   5.631
 7393SOL     OW23077   6.100   5.237   2.009
 7393SOL    HW123078   6.132   5.281   2.093
 7393SOL    HW223079   6.056   5.305   1.951
 7394SOL     OW23080   4.056   3.220   6.044
 7394SOL    HW123081   4.066   3.318   6.060
 7394SOL    HW223082   3.982   3.184   6.099
 7395SOL     OW23083   0.563   0.737   6.194
 7395SOL    HW123084   0.638   0.687   6.237
 7395SOL    HW223085   0.548   0.702   6.101
 7396SOL     OW23086   1.676   1.037   6.278
 7396SOL    HW123087   1.595   0.983   6.301
 7396SOL    HW223088   1.733   1.047   6.360
 7397SOL     OW23089   6.268   4.609   4.623
 7397SOL    HW123090   6.248   4.705   4.601
 7397SOL    HW223091   6.273   4.598   4.722
 7398SOL     OW23092   3.540   4.944   3.937
 7398SOL    HW123093   3.541   4.904   3.845
 7398SOL    HW223094   3.630   4.935   3.978
 7399SOL     OW23095   0.489   4.134   5.709
 7399SOL    HW123096   0.460   4.170   5.798
 7399SOL    HW223097   0.553   4.197   5.667
 7400SOL     OW23098   3.045   4.120   6.777
 7400SOL    HW123099   3.116   4.069   6.728
 7400SOL    HW223100   3.012   4.065   6.854
 7401SOL     OW23101   0.394   0.921   3.176
 7401SOL    HW123102   0.330   0.945   3.250
 7401SOL    HW223103   0.344   0.879   3.101
 7402SOL     OW23104   1.992   0.127   3.976
 7402SOL    HW123105   1.930   0.056   4.009
 7402SOL    HW223106   1.940   0.210   3.954
 7403SOL     OW23107   2.007   2.929   3.900
 7403SOL    HW123108   2.061   2.858   3.855
 7403SOL    HW223109   2.035   3.019   3.865
 7404SOL     OW23110   2.478   0.389   1.505
 7404SOL    HW123111   2.495   0.422   1.413
 7404SOL    HW223112   2.525   0.301   1.518
 7405SOL     OW23113   1.840   4.988   4.751
 7405SOL    HW123114   1.816   5.085   4.755
 7405SOL    HW223115   1.937   4.977   4.770
 7406SOL     OW23116   1.778   3.708   2.261
 7406SOL    HW123117   1.868   3.722   2.302
 7406SOL    HW223118   1.781   3.732   2.164
 7407SOL     OW23119   6.966   6.062   4.597
 7407SOL    HW123120   7.017   6.026   4.520
 7407SOL    HW223121   0.002   6.113   4.658
 7408SOL     OW23122   1.317   4.197   6.101
 7408SOL    HW123123   1.313   4.239   6.191
 7408SOL    HW223124   1.410   4.166   6.083
 7409SOL     OW23125   0.941   1.351   4.851
 7409SOL    HW123126   0.967   1.360   4.947
 7409SOL    HW223127   0.861   1.409   4.833
 7410SOL     OW23128   0.303   4.562   1.313
 7410SOL    HW123129   0.380   4.502   1.336
 7410SOL    HW223130   0.329   4.620   1.236
 7411SOL     OW23131   2.523   0.093   4.294
 7411SOL    HW123132   2.544   0.102   4.197
 7411SOL    HW223133   2.508   7.022   4.317
 7412SOL     OW23134   2.579   0.699   1.279
 7412SOL    HW123135   2.548   0.756   1.354
 7412SOL    HW223136   2.662   0.650   1.306
 7413SOL     OW23137   0.064   3.513   3.437
 7413SOL    HW123138   0.146   3.506   3.380
 7413SOL    HW223139   0.090   3.520   3.533
 7414SOL     OW23140   6.570   0.362   2.431
 7414SOL    HW123141   6.474   0.345   2.453
 7414SOL    HW223142   6.593   0.457   2.450
 7415SOL     OW23143   1.077   3.086   3.063
 7415SOL    HW123144   1.041   3.003   3.021
 7415SOL    HW223145   1.057   3.164   3.004
 7416SOL     OW23146   3.433   1.292   4.274
 7416SOL    HW123147   3.427   1.248   4.364
 7416SOL    HW223148   3.376   1.375   4.275
 7417SOL     OW23149   1.533   6.560   5.878
 7417SOL    HW123150   1.451   6.567   5.822
 7417SOL    HW223151   1.614   6.572   5.820
 7418SOL     OW23152   2.929   4.568   1.347
 7418SOL    HW123153   2.862   4.595   1.416
 7418SOL    HW223154   3.010   4.625   1.355
 7419SOL     OW23155   5.528   1.914   4.579
 7419SOL    HW123156   5.470   1.994   4.567
 7419SOL    HW223157   5.494   1.839   4.521
 7420SOL     OW23158   6.556   0.078   2.047
 7420SOL    HW123159   6.618   0.009   2.011
 7420SOL    HW223160   6.491   0.035   2.110
 7421SOL     OW23161   3.379   3.499   1.124
 7421SOL    HW123162   3.413   3.591   1.107
 7421SOL    HW223163   3.304   3.503   1.190
 7422SOL     OW23164   6.674   3.222   1.499
 7422SOL    HW123165   6.645   3.179   1.413
 7422SOL    HW223166   6.593   3.243   1.554
 7423SOL     OW23167   1.211   4.711   6.012
 7423SOL    HW123168   1.243   4.764   5.933
 7423SOL    HW223169   1.232   4.615   5.997
 7424SOL     OW23170   6.155   1.429   4.373
 7424SOL    HW123171   6.165   1.504   4.439
 7424SOL    HW223172   6.060   1.399   4.372
 7425SOL     OW23173   4.105   4.825   6.738
 7425SOL    HW123174   4.091   4.894   6.667
 7425SOL    HW223175   4.172   4.758   6.705
 7426SOL     OW23176   0.546   2.233   7.012
 7426SOL    HW123177   0.573   2.177   0.065
 7426SOL    HW223178   0.473   2.295   0.014
 7427SOL     OW23179   3.091   5.805   4.512
 7427SOL    HW123180   3.067   5.738   4.582
 7427SOL    HW223181   3.047   5.780   4.425
 7428SOL     OW23182   4.122   2.104   5.241
 7428SOL    HW123183   4.130   2.033   5.311
 7428SOL    HW223184   4.191   2.089   5.171
 7429SOL     OW23185   6.400   0.093   2.712
 7429SOL    HW123186   6.495   0.102   2.681
 7429SOL    HW223187   6.359   0.183   2.722
 7430SOL     OW23188   6.995   4.696   5.462
 7430SOL    HW123189   6.948   4.610   5.442
 7430SOL    HW223190   0.068   4.686   5.448
 7431SOL     OW23191   0.512   3.491   1.217
 7431SOL    HW123192   0.511   3.465   1.313
 7431SOL    HW223193   0.452   3.569   1.203
 7432SOL     OW23194   0.771   6.169   3.962
 7432SOL    HW123195   0.745   6.092   4.021
 7432SOL    HW223196   0.694   6.193   3.904
 7433SOL     OW23197   6.252   5.244   1.171
 7433SOL    HW123198   6.315   5.236   1.093
 7433SOL    HW223199   6.303   5.239   1.256
 7434SOL     OW23200   2.899   1.793   6.681
 7434SOL    HW123201   2.860   1.842   6.759
 7434SOL    HW223202   2.978   1.740   6.712
 7435SOL     OW23203   3.560   6.681   5.848
 7435SOL    HW123204   3.561   6.768   5.897
 7435SOL    HW223205   3.600   6.693   5.758
 7436SOL     OW23206   6.227   2.917   6.648
 7436SOL    HW123207   6.172   2.844   6.607
 7436SOL    HW223208   6.324   2.900   6.627
 7437SOL     OW23209   6.656   5.160   6.727
 7437SOL    HW123210   6.675   5.216   6.807
 7437SOL    HW223211   6.558   5.162   6.707
 7438SOL     OW23212   0.694   4.349   1.822
 7438SOL    HW123213   0.743   4.395   1.748
 7438SOL    HW223214   0.642   4.417   1.874
 7439SOL     OW23215   2.817   0.069   3.810
 7439SOL    HW123216   2.840   0.149   3.755
 7439SOL    HW223217   2.878   7.018   3.787
 7440SOL     OW23218   1.002   3.378   5.014
 7440SOL    HW123219   1.054   3.388   4.929
 7440SOL    HW223220   0.907   3.407   4.999
 7441SOL     OW23221   5.858   6.895   4.167
 7441SOL    HW123222   5.915   6.837   4.225
 7441SOL    HW223223   5.818   6.839   4.094
 7442SOL     OW23224   1.101   0.670   6.829
 7442SOL    HW123225   1.184   0.724   6.833
 7442SOL    HW223226   1.110   0.589   6.887
 7443SOL     OW23227   6.780   1.938   0.671
 7443SOL    HW123228   6.760   1.863   0.609
 7443SOL    HW223229   6.756   2.025   0.628
 7444SOL     OW23230   6.906   3.280   6.211
 7444SOL    HW123231   6.809   3.286   6.233
 7444SOL    HW223232   6.948   3.370   6.218
 7445SOL     OW23233   4.852   1.129   1.317
 7445SOL    HW123234   4.781   1.094   1.378
 7445SOL    HW223235   4.849   1.229   1.318
 7446SOL     OW23236   6.275   4.220   0.075
 7446SOL    HW123237   6.355   4.210   0.015
 7446SOL    HW223238   6.250   4.316   0.082
 7447SOL     OW23239   2.565   4.895   6.489
 7447SOL    HW123240   2.536   4.859   6.400
 7447SOL    HW223241   2.497   4.872   6.558
 7448SOL     OW23242   5.665   6.648   5.965
 7448SOL    HW123243   5.648   6.745   5.954
 7448SOL    HW223244   5.653   6.602   5.877
 7449SOL     OW23245   4.658   2.469   2.135
 7449SOL    HW123246   4.669   2.375   2.103
 7449SOL    HW223247   4.633   2.528   2.057
 7450SOL     OW23248   5.154   2.610   3.673
 7450SOL    HW123249   5.085   2.681   3.685
 7450SOL    HW223250   5.114   2.521   3.695
 7451SOL     OW23251   1.511   0.275   3.579
 7451SOL    HW123252   1.421   0.233   3.585
 7451SOL    HW223253   1.505   0.373   3.599
 7452SOL     OW23254   1.571   0.279   4.680
 7452SOL    HW123255   1.595   0.376   4.680
 7452SOL    HW223256   1.537   0.253   4.590
 7453SOL     OW23257   5.815   5.826   4.706
 7453SOL    HW123258   5.856   5.916   4.719
 7453SOL    HW223259   5.715   5.834   4.708
 7454SOL     OW23260   0.922   3.324   1.462
 7454SOL    HW123261   0.915   3.389   1.538
 7454SOL    HW223262   0.857   3.249   1.475
 7455SOL     OW23263   5.732   1.226   1.343
 7455SOL    HW123264   5.785   1.266   1.268
 7455SOL    HW223265   5.650   1.281   1.358
 7456SOL     OW23266   1.652   2.188   4.551
 7456SOL    HW123267   1.614   2.169   4.642
 7456SOL    HW223268   1.735   2.243   4.561
 7457SOL     OW23269   5.400   0.504   5.702
 7457SOL    HW123270   5.396   0.446   5.784
 7457SOL    HW223271   5.474   0.570   5.711
 7458SOL     OW23272   2.342   6.804   6.659
 7458SOL    HW123273   2.336   6.896   6.619
 7458SOL    HW223274   2.279   6.797   6.736
 7459SOL     OW23275   4.434   0.453   6.547
 7459SOL    HW123276   4.460   0.391   6.621
 7459SOL    HW223277   4.516   0.498   6.511
 7460SOL     OW23278   1.901   5.475   0.504
 7460SOL    HW123279   1.815   5.499   0.458
 7460SOL    HW223280   1.977   5.522   0.458
 7461SOL     OW23281   5.503   1.394   5.550
 7461SOL    HW123282   5.434   1.321   5.547
 7461SOL    HW223283   5.589   1.357   5.585
 7462SOL     OW23284   1.843   2.160   1.648
 7462SOL    HW123285   1.861   2.256   1.669
 7462SOL    HW223286   1.759   2.153   1.595
 7463SOL     OW23287   3.430   2.930   1.563
 7463SOL    HW123288   3.446   2.876   1.646
 7463SOL    HW223289   3.422   2.868   1.485
 7464SOL     OW23290   4.067   5.948   6.596
 7464SOL    HW123291   4.036   5.921   6.505
 7464SOL    HW223292   4.166   5.940   6.602
 7465SOL     OW23293   1.621   0.325   1.110
 7465SOL    HW123294   1.529   0.288   1.120
 7465SOL    HW223295   1.621   0.391   1.035
 7466SOL     OW23296   0.913   0.322   6.206
 7466SOL    HW123297   1.004   0.280   6.203
 7466SOL    HW223298   0.843   0.251   6.202
 7467SOL     OW23299   6.349   2.245   1.345
 7467SOL    HW123300   6.356   2.343   1.367
 7467SOL    HW223301   6.418   2.222   1.276
 7468SOL     OW23302   4.636   2.083   2.429
 7468SOL    HW123303   4.716   2.129   2.468
 7468SOL    HW223304   4.558   2.146   2.430
 7469SOL     OW23305   1.102   7.011   0.076
 7469SOL    HW123306   1.021   7.010   0.134
 7469SOL    HW223307   1.109   0.074   0.029
 7470SOL     OW23308   0.841   2.758   2.663
 7470SOL    HW123309   0.820   2.816   2.585
 7470SOL    HW223310   0.932   2.782   2.699
 7471SOL     OW23311   6.236   6.583   4.994
 7471SOL    HW123312   6.173   6.527   4.940
 7471SOL    HW223313   6.197   6.600   5.084
 7472SOL     OW23314   4.664   6.597   4.037
 7472SOL    HW123315   4.674   6.627   3.942
 7472SOL    HW223316   4.752   6.605   4.083
 7473SOL     OW23317   6.827   4.403   3.454
 7473SOL    HW123318   6.749   4.429   3.511
 7473SOL    HW223319   6.809   4.313   3.414
 7474SOL     OW23320   3.121   0.969   4.504
 7474SOL    HW123321   3.194   0.915   4.460
 7474SOL    HW223322   3.037   0.960   4.451
 7475SOL     OW23323   4.739   0.663   2.409
 7475SOL    HW123324   4.774   0.756   2.407
 7475SOL    HW223325   4.639   0.664   2.407
 7476SOL     OW23326   4.292   6.085   5.075
 7476SOL    HW123327   4.307   6.027   4.994
 7476SOL    HW223328   4.247   6.170   5.047
 7477SOL     OW23329   4.809   0.714   3.878
 7477SOL    HW123330   4.903   0.731   3.908
 7477SOL    HW223331   4.747   0.728   3.955
 7478SOL     OW23332   4.169   4.081   6.454
 7478SOL    HW123333   4.140   4.002   6.401
 7478SOL    HW223334   4.214   4.147   6.394
 7479SOL     OW23335   3.923   1.824   0.960
 7479SOL    HW123336   3.994   1.797   1.025
 7479SOL    HW223337   3.929   1.766   0.878
 7480SOL     OW23338   6.210   5.581   1.385
 7480SOL    HW123339   6.172   5.546   1.471
 7480SOL    HW223340   6.175   5.528   1.308
 7481SOL     OW23341   5.443   5.131   1.270
 7481SOL    HW123342   5.381   5.201   1.233
 7481SOL    HW223343   5.508   5.174   1.332
 7482SOL     OW23344   4.123   1.264   1.933
 7482SOL    HW123345   4.087   1.222   2.016
 7482SOL    HW223346   4.120   1.199   1.858
 7483SOL     OW23347   4.406   2.025   4.797
 7483SOL    HW123348   4.314   2.064   4.801
 7483SOL    HW223349   4.404   1.931   4.832
 7484SOL     OW23350   0.186   0.364   1.734
 7484SOL    HW123351   0.276   0.406   1.727
 7484SOL    HW223352   0.165   0.344   1.829
 7485SOL     OW23353   3.428   6.269   5.105
 7485SOL    HW123354   3.513   6.218   5.094
 7485SOL    HW223355   3.378   6.270   5.018
 7486SOL     OW23356   2.163   6.892   5.407
 7486SOL    HW123357   2.097   6.886   5.483
 7486SOL    HW223358   2.205   6.802   5.393
 7487SOL     OW23359   1.878   6.774   2.381
 7487SOL    HW123360   1.921   6.864   2.386
 7487SOL    HW223361   1.949   6.703   2.389
 7488SOL     OW23362   2.289   6.916   5.037
 7488SOL    HW123363   2.263   6.843   5.100
 7488SOL    HW223364   2.387   6.912   5.020
 7489SOL     OW23365   4.591   2.134   5.156
 7489SOL    HW123366   4.621   2.045   5.191
 7489SOL    HW223367   4.642   2.156   5.073
 7490SOL     OW23368   0.676   0.452   0.678
 7490SOL    HW123369   0.692   0.366   0.726
 7490SOL    HW223370   0.761   0.482   0.634
 7491SOL     OW23371   0.687   4.957   6.811
 7491SOL    HW123372   0.615   4.939   6.744
 7491SOL    HW223373   0.745   5.032   6.779
 7492SOL     OW23374   2.373   1.979   5.047
 7492SOL    HW123375   2.311   2.055   5.029
 7492SOL    HW223376   2.432   1.965   4.968
 7493SOL     OW23377   6.453   4.356   6.095
 7493SOL    HW123378   6.544   4.381   6.127
 7493SOL    HW223379   6.431   4.409   6.013
 7494SOL     OW23380   5.728   0.908   2.352
 7494SOL    HW123381   5.819   0.867   2.352
 7494SOL    HW223382   5.737   1.008   2.358
 7495SOL     OW23383   2.349   1.042   1.151
 7495SOL    HW123384   2.278   1.102   1.188
 7495SOL    HW223385   2.315   0.997   1.068
 7496SOL     OW23386   1.289   4.447   5.939
 7496SOL    HW123387   1.236   4.432   5.856
 7496SOL    HW223388   1.260   4.383   6.010
 7497SOL     OW23389   3.129   5.073   1.567
 7497SOL    HW123390   3.189   5.107   1.494
 7497SOL    HW223391   3.039   5.052   1.530
 7498SOL     OW23392   2.761   1.274   4.164
 7498SOL    HW123393   2.830   1.229   4.107
 7498SOL    HW223394   2.681   1.296   4.109
 7499SOL     OW23395   6.391   6.981   3.369
 7499SOL    HW123396   6.375   0.050   3.339
 7499SOL    HW223397   6.342   6.918   3.308
 7500SOL     OW23398   3.730   6.012   2.644
 7500SOL    HW123399   3.642   5.964   2.646
 7500SOL    HW223400   3.717   6.107   2.670
 7501SOL     OW23401   6.421   4.382   4.240
 7501SOL    HW123402   6.461   4.295   4.268
 7501SOL    HW223403   6.462   4.457   4.292
 7502SOL     OW23404   1.389   1.388   5.379
 7502SOL    HW123405   1.320   1.327   5.342
 7502SOL    HW223406   1.345   1.471   5.414
 7503SOL     OW23407   2.991   0.804   6.739
 7503SOL    HW123408   2.927   0.731   6.762
 7503SOL    HW223409   2.987   0.876   6.808
 7504SOL     OW23410   4.305   6.694   3.487
 7504SOL    HW123411   4.206   6.688   3.495
 7504SOL    HW223412   4.345   6.722   3.574
 7505SOL     OW23413   3.125   0.764   5.320
 7505SOL    HW123414   3.201   0.699   5.326
 7505SOL    HW223415   3.130   0.813   5.234
 7506SOL     OW23416   3.852   0.906   2.680
 7506SOL    HW123417   3.823   0.922   2.774
 7506SOL    HW223418   3.825   0.984   2.623
 7507SOL     OW23419   0.097   6.392   0.118
 7507SOL    HW123420   0.037   6.314   0.102
 7507SOL    HW223421   0.059   6.473   0.073
 7508SOL     OW23422   5.786   6.493   2.479
 7508SOL    HW123423   5.789   6.518   2.575
 7508SOL    HW223424   5.693   6.504   2.444
 7509SOL     OW23425   4.655   4.759   0.654
 7509SOL    HW123426   4.628   4.671   0.615
 7509SOL    HW223427   4.723   4.802   0.594
 7510SOL     OW23428   3.247   3.823   5.105
 7510SOL    HW123429   3.153   3.791   5.116
 7510SOL    HW223430   3.247   3.907   5.050
 7511SOL     OW23431   1.373   0.633   2.125
 7511SOL    HW123432   1.279   0.665   2.112
 7511SOL    HW223433   1.434   0.712   2.132
 7512SOL     OW23434   2.790   4.214   1.312
 7512SOL    HW123435   2.873   4.269   1.325
 7512SOL    HW223436   2.806   4.145   1.241
 7513SOL     OW23437   1.541   2.851   0.169
 7513SOL    HW123438   1.558   2.949   0.179
 7513SOL    HW223439   1.466   2.836   0.104
 7514SOL     OW23440   2.543   6.073   2.144
 7514SOL    HW123441   2.642   6.086   2.136
 7514SOL    HW223442   2.504   6.061   2.053
 7515SOL     OW23443   0.682   0.048   2.724
 7515SOL    HW123444   0.762   0.074   2.778
 7515SOL    HW223445   0.599   0.073   2.774
 7516SOL     OW23446   6.825   5.873   4.337
 7516SOL    HW123447   6.822   5.941   4.264
 7516SOL    HW223448   6.898   5.896   4.401
 7517SOL     OW23449   6.612   3.592   1.064
 7517SOL    HW123450   6.666   3.586   1.147
 7517SOL    HW223451   6.532   3.650   1.080
 7518SOL     OW23452   3.673   5.589   3.586
 7518SOL    HW123453   3.773   5.591   3.592
 7518SOL    HW223454   3.643   5.654   3.515
 7519SOL     OW23455   0.465   6.066   4.103
 7519SOL    HW123456   0.445   6.036   4.010
 7519SOL    HW223457   0.561   6.049   4.124
 7520SOL     OW23458   2.222   0.237   2.267
 7520SOL    HW123459   2.149   0.225   2.201
 7520SOL    HW223460   2.244   0.334   2.276
 7521SOL     OW23461   4.303   4.597   5.416
 7521SOL    HW123462   4.380   4.658   5.434
 7521SOL    HW223463   4.225   4.624   5.474
 7522SOL     OW23464   2.755   1.033   6.687
 7522SOL    HW123465   2.823   0.964   6.712
 7522SOL    HW223466   2.799   1.106   6.635
 7523SOL     OW23467   6.062   1.188   5.541
 7523SOL    HW123468   6.152   1.231   5.549
 7523SOL    HW223469   6.053   1.116   5.610
 7524SOL     OW23470   0.436   2.599   6.140
 7524SOL    HW123471   0.493   2.536   6.194
 7524SOL    HW223472   0.342   2.566   6.139
 7525SOL     OW23473   2.271   0.243   6.174
 7525SOL    HW123474   2.350   0.201   6.219
 7525SOL    HW223475   2.303   0.297   6.096
 7526SOL     OW23476   3.568   2.965   3.502
 7526SOL    HW123477   3.658   3.004   3.482
 7526SOL    HW223478   3.551   2.969   3.600
 7527SOL     OW23479   4.552   4.849   2.653
 7527SOL    HW123480   4.472   4.791   2.636
 7527SOL    HW223481   4.626   4.793   2.691
 7528SOL     OW23482   4.670   2.339   0.253
 7528SOL    HW123483   4.680   2.298   0.162
 7528SOL    HW223484   4.701   2.274   0.322
 7529SOL     OW23485   5.654   1.398   4.140
 7529SOL    HW123486   5.670   1.372   4.045
 7529SOL    HW223487   5.599   1.482   4.143
 7530SOL     OW23488   0.038   3.271   2.250
 7530SOL    HW123489   6.981   3.317   2.215
 7530SOL    HW223490   0.086   3.227   2.175
 7531SOL     OW23491   4.558   2.205   4.381
 7531SOL    HW123492   4.531   2.153   4.300
 7531SOL    HW223493   4.539   2.302   4.366
 7532SOL     OW23494   5.402   5.545   1.789
 7532SOL    HW123495   5.393   5.643   1.776
 7532SOL    HW223496   5.398   5.524   1.886
 7533SOL     OW23497   1.905   0.850   2.929
 7533SOL    HW123498   1.876   0.944   2.910
 7533SOL    HW223499   1.983   0.851   2.992
 7534SOL     OW23500   3.805   6.165   4.884
 7534SOL    HW123501   3.786   6.114   4.801
 7534SOL    HW223502   3.887   6.128   4.928
 7535SOL     OW23503   2.682   1.024   5.741
 7535SOL    HW123504   2.618   1.061   5.808
 7535SOL    HW223505   2.633   0.994   5.660
 7536SOL     OW23506   5.282   4.712   5.360
 7536SOL    HW123507   5.199   4.683   5.313
 7536SOL    HW223508   5.329   4.781   5.304
 7537SOL     OW23509   1.967   4.142   5.433
 7537SOL    HW123510   1.898   4.213   5.420
 7537SOL    HW223511   2.039   4.152   5.364
 7538SOL     OW23512   3.445   3.551   2.820
 7538SOL    HW123513   3.523   3.589   2.871
 7538SOL    HW223514   3.389   3.496   2.881
 7539SOL     OW23515   2.514   2.278   5.025
 7539SOL    HW123516   2.607   2.246   5.044
 7539SOL    HW223517   2.453   2.246   5.098
 7540SOL     OW23518   3.309   0.930   6.157
 7540SOL    HW123519   3.273   0.887   6.240
 7540SOL    HW223520   3.247   0.914   6.081
 7541SOL     OW23521   6.955   3.903   5.207
 7541SOL    HW123522   0.012   3.857   5.238
 7541SOL    HW223523   6.904   3.938   5.286
 7542SOL     OW23524   0.689   6.616   6.495
 7542SOL    HW123525   0.742   6.576   6.570
 7542SOL    HW223526   0.604   6.565   6.483
 7543SOL     OW23527   4.292   1.863   0.366
 7543SOL    HW123528   4.387   1.887   0.350
 7543SOL    HW223529   4.257   1.911   0.446
 7544SOL     OW23530   0.157   1.976   3.263
 7544SOL    HW123531   0.143   1.971   3.362
 7544SOL    HW223532   0.246   1.936   3.240
 7545SOL     OW23533   4.646   6.497   2.915
 7545SOL    HW123534   4.698   6.539   2.989
 7545SOL    HW223535   4.638   6.562   2.839
 7546SOL     OW23536   4.453   0.488   0.630
 7546SOL    HW123537   4.501   0.551   0.569
 7546SOL    HW223538   4.408   0.417   0.575
 7547SOL     OW23539   3.907   6.513   0.666
 7547SOL    HW123540   3.899   6.426   0.617
 7547SOL    HW223541   3.994   6.556   0.643
 7548SOL     OW23542   2.406   1.695   0.352
 7548SOL    HW123543   2.496   1.663   0.320
 7548SOL    HW223544   2.334   1.641   0.307
 7549SOL     OW23545   5.505   1.954   1.972
 7549SOL    HW123546   5.408   1.951   1.946
 7549SOL    HW223547   5.519   2.024   2.042
 7550SOL     OW23548   2.451   5.536   2.709
 7550SOL    HW123549   2.491   5.452   2.673
 7550SOL    HW223550   2.423   5.595   2.633
 7551SOL     OW23551   4.698   3.973   6.334
 7551SOL    HW123552   4.675   4.066   6.362
 7551SOL    HW223553   4.697   3.912   6.414
 7552SOL     OW23554   2.493   5.475   3.755
 7552SOL    HW123555   2.560   5.436   3.692
 7552SOL    HW223556   2.453   5.403   3.810
 7553SOL     OW23557   3.759   4.914   6.008
 7553SOL    HW123558   3.832   4.851   5.980
 7553SOL    HW223559   3.706   4.872   6.081
 7554SOL     OW23560   5.241   1.398   0.816
 7554SOL    HW123561   5.326   1.372   0.770
 7554SOL    HW223562   5.231   1.345   0.900
 7555SOL     OW23563   1.491   5.380   4.898
 7555SOL    HW123564   1.583   5.348   4.919
 7555SOL    HW223565   1.452   5.424   4.979
 7556SOL     OW23566   0.105   2.193   5.559
 7556SOL    HW123567   0.026   2.215   5.502
 7556SOL    HW223568   0.080   2.123   5.626
 7557SOL     OW23569   5.170   3.886   5.678
 7557SOL    HW123570   5.128   3.973   5.705
 7557SOL    HW223571   5.120   3.848   5.600
 7558SOL     OW23572   2.372   2.741   4.091
 7558SOL    HW123573   2.363   2.838   4.069
 7558SOL    HW223574   2.283   2.697   4.088
 7559SOL     OW23575   6.538   5.350   1.312
 7559SOL    HW123576   6.527   5.335   1.214
 7559SOL    HW223577   6.582   5.439   1.327
 7560SOL     OW23578   5.149   6.899   6.962
 7560SOL    HW123579   5.181   6.981   7.010
 7560SOL    HW223580   5.198   6.891   6.875
 7561SOL     OW23581   0.855   3.281   0.305
 7561SOL    HW123582   0.903   3.330   0.232
 7561SOL    HW223583   0.807   3.203   0.265
 7562SOL     OW23584   4.904   5.970   4.571
 7562SOL    HW123585   4.854   5.895   4.527
 7562SOL    HW223586   4.855   6.056   4.558
 7563SOL     OW23587   2.910   0.114   0.966
 7563SOL    HW123588   2.941   0.131   0.872
 7563SOL    HW223589   2.872   0.022   0.972
 7564SOL     OW23590   5.065   1.118   3.400
 7564SOL    HW123591   4.996   1.098   3.331
 7564SOL    HW223592   5.056   1.053   3.476
 7565SOL     OW23593   5.120   4.409   6.642
 7565SOL    HW123594   5.219   4.405   6.656
 7565SOL    HW223595   5.100   4.463   6.560
 7566SOL     OW23596   1.104   4.777   3.732
 7566SOL    HW123597   1.041   4.805   3.660
 7566SOL    HW223598   1.065   4.799   3.821
 7567SOL     OW23599   1.390   2.892   5.537
 7567SOL    HW123600   1.369   2.895   5.439
 7567SOL    HW223601   1.304   2.888   5.588
 7568SOL     OW23602   6.266   5.594   4.231
 7568SOL    HW123603   6.180   5.640   4.210
 7568SOL    HW223604   6.253   5.535   4.310
 7569SOL     OW23605   4.716   5.865   6.229
 7569SOL    HW123606   4.622   5.841   6.251
 7569SOL    HW223607   4.718   5.922   6.146
 7570SOL     OW23608   5.569   4.994   5.511
 7570SOL    HW123609   5.506   4.956   5.443
 7570SOL    HW223610   5.537   4.971   5.603
 7571SOL     OW23611   4.958   4.426   1.541
 7571SOL    HW123612   4.900   4.443   1.620
 7571SOL    HW223613   4.900   4.404   1.462
 7572SOL     OW23614   5.090   0.451   3.763
 7572SOL    HW123615   5.079   0.355   3.789
 7572SOL    HW223616   5.134   0.456   3.673
 7573SOL     OW23617   5.770   5.617   4.242
 7573SOL    HW123618   5.699   5.688   4.243
 7573SOL    HW223619   5.733   5.533   4.205
 7574SOL     OW23620   6.366   1.580   4.562
 7574SOL    HW123621   6.362   1.661   4.503
 7574SOL    HW223622   6.364   1.609   4.658
 7575SOL     OW23623   4.533   0.848   5.840
 7575SOL    HW123624   4.439   0.880   5.826
 7575SOL    HW223625   4.591   0.925   5.865
 7576SOL     OW23626   6.095   5.403   0.143
 7576SOL    HW123627   6.191   5.430   0.149
 7576SOL    HW223628   6.072   5.384   0.048
 7577SOL     OW23629   6.758   0.153   4.816
 7577SOL    HW123630   6.718   0.242   4.794
 7577SOL    HW223631   6.711   0.115   4.896
 7578SOL     OW23632   1.723   6.577   4.019
 7578SOL    HW123633   1.817   6.572   3.986
 7578SOL    HW223634   1.683   6.664   3.994
 7579SOL     OW23635   4.119   2.048   2.361
 7579SOL    HW123636   4.171   1.983   2.306
 7579SOL    HW223637   4.072   2.113   2.301
 7580SOL     OW23638   1.338   3.717   3.942
 7580SOL    HW123639   1.427   3.739   3.982
 7580SOL    HW223640   1.350   3.646   3.873
 7581SOL     OW23641   4.467   1.197   0.490
 7581SOL    HW123642   4.514   1.190   0.401
 7581SOL    HW223643   4.369   1.186   0.476
 7582SOL     OW23644   3.683   1.591   0.295
 7582SOL    HW123645   3.706   1.688   0.306
 7582SOL    HW223646   3.733   1.554   0.217
 7583SOL     OW23647   6.274   3.673   1.777
 7583SOL    HW123648   6.176   3.681   1.795
 7583SOL    HW223649   6.323   3.745   1.827
 7584SOL     OW23650   2.699   6.904   1.375
 7584SOL    HW123651   2.778   6.846   1.358
 7584SOL    HW223652   2.646   6.913   1.290
 7585SOL     OW23653   1.682   3.203   6.023
 7585SOL    HW123654   1.735   3.123   5.994
 7585SOL    HW223655   1.597   3.208   5.972
 7586SOL     OW23656   3.134   0.911   3.030
 7586SOL    HW123657   3.109   0.824   2.989
 7586SOL    HW223658   3.190   0.895   3.112
 7587SOL     OW23659   2.909   1.482   6.883
 7587SOL    HW123660   2.964   1.463   6.802
 7587SOL    HW223661   2.961   1.540   6.946
 7588SOL     OW23662   0.443   3.704   1.916
 7588SOL    HW123663   0.406   3.740   1.829
 7588SOL    HW223664   0.413   3.610   1.928
 7589SOL     OW23665   6.239   6.324   0.285
 7589SOL    HW123666   6.310   6.258   0.309
 7589SOL    HW223667   6.222   6.384   0.363
 7590SOL     OW23668   3.047   1.572   6.287
 7590SOL    HW123669   3.056   1.474   6.268
 7590SOL    HW223670   2.957   1.603   6.256
 7591SOL     OW23671   0.236   5.344   0.843
 7591SOL    HW123672   0.254   5.270   0.908
 7591SOL    HW223673   0.317   5.402   0.834
 7592SOL     OW23674   0.039   4.462   6.839
 7592SOL    HW123675   7.008   4.423   6.766
 7592SOL    HW223676   0.134   4.469   6.809
 7593SOL     OW23677   6.116   2.618   6.493
 7593SOL    HW123678   6.047   2.596   6.561
 7593SOL    HW223679   6.124   2.543   6.428
 7594SOL     OW23680   0.221   4.416   2.095
 7594SOL    HW123681   0.169   4.404   2.179
 7594SOL    HW223682   0.160   4.404   2.016
 7595SOL     OW23683   0.390   3.032   6.445
 7595SOL    HW123684   0.400   2.962   6.375
 7595SOL    HW223685   0.325   3.001   6.515
 7596SOL     OW23686   4.869   5.466   2.503
 7596SOL    HW123687   4.961   5.429   2.504
 7596SOL    HW223688   4.854   5.521   2.585
 7597SOL     OW23689   3.021   5.840   1.407
 7597SOL    HW123690   3.118   5.859   1.424
 7597SOL    HW223691   2.978   5.806   1.490
 7598SOL     OW23692   5.839   0.758   2.933
 7598SOL    HW123693   5.862   0.744   2.837
 7598SOL    HW223694   5.773   0.833   2.941
 7599SOL     OW23695   5.097   1.263   3.750
 7599SOL    HW123696   5.069   1.352   3.716
 7599SOL    HW223697   5.026   1.226   3.809
 7600SOL     OW23698   1.779   1.156   2.514
 7600SOL    HW123699   1.813   1.062   2.520
 7600SOL    HW223700   1.735   1.181   2.601
 7601SOL     OW23701   2.053   5.592   3.060
 7601SOL    HW123702   1.953   5.590   3.056
 7601SOL    HW223703   2.090   5.610   2.969
 7602SOL     OW23704   1.425   3.743   5.298
 7602SOL    HW123705   1.363   3.716   5.224
 7602SOL    HW223706   1.432   3.843   5.301
 7603SOL     OW23707   1.440   5.961   6.444
 7603SOL    HW123708   1.482   5.924   6.361
 7603SOL    HW223709   1.340   5.961   6.433
 7604SOL     OW23710   2.701   5.504   4.225
 7604SOL    HW123711   2.708   5.421   4.169
 7604SOL    HW223712   2.605   5.530   4.234
 7605SOL     OW23713   1.632   6.399   0.535
 7605SOL    HW123714   1.625   6.497   0.520
 7605SOL    HW223715   1.729   6.373   0.541
 7606SOL     OW23716   0.162   2.328   2.421
 7606SOL    HW123717   0.131   2.236   2.397
 7606SOL    HW223718   0.217   2.366   2.346
 7607SOL     OW23719   4.208   6.480   0.496
 7607SOL    HW123720   4.121   6.465   0.448
 7607SOL    HW223721   4.243   6.571   0.474
 7608SOL     OW23722   3.495   4.077   2.971
 7608SOL    HW123723   3.408   4.058   2.925
 7608SOL    HW223724   3.476   4.108   3.064
 7609SOL     OW23725   6.596   3.538   2.898
 7609SOL    HW123726   6.534   3.474   2.852
 7609SOL    HW223727   6.663   3.487   2.951
 7610SOL     OW23728   5.881   0.865   0.102
 7610SOL    HW123729   5.890   0.964   0.102
 7610SOL    HW223730   5.820   0.837   0.027
 7611SOL     OW23731   0.767   1.701   0.065
 7611SOL    HW123732   0.806   1.755   0.139
 7611SOL    HW223733   0.672   1.680   0.085
 7612SOL     OW23734   3.933   2.158   4.164
 7612SOL    HW123735   3.949   2.204   4.251
 7612SOL    HW223736   3.950   2.060   4.175
 7613SOL     OW23737   4.754   1.944   1.937
 7613SOL    HW123738   4.811   2.006   1.883
 7613SOL    HW223739   4.775   1.850   1.913
 7614SOL     OW23740   4.451   2.763   1.555
 7614SOL    HW123741   4.457   2.689   1.621
 7614SOL    HW223742   4.491   2.846   1.594
 7615SOL     OW23743   5.185   4.574   6.073
 7615SOL    HW123744   5.166   4.663   6.114
 7615SOL    HW223745   5.229   4.586   5.984
 7616SOL     OW23746   0.281   4.334   4.006
 7616SOL    HW123747   0.333   4.273   4.066
 7616SOL    HW223748   0.295   4.307   3.911
 7617SOL     OW23749   2.916   5.855   2.597
 7617SOL    HW123750   2.974   5.774   2.610
 7617SOL    HW223751   2.828   5.841   2.641
 7618SOL     OW23752   1.179   1.890   6.993
 7618SOL    HW123753   1.253   1.840   0.011
 7618SOL    HW223754   1.213   1.934   6.909
 7619SOL     OW23755   6.012   3.204   4.856
 7619SOL    HW123756   5.985   3.298   4.879
 7619SOL    HW223757   5.949   3.168   4.787
 7620SOL     OW23758   3.725   5.746   0.129
 7620SOL    HW123759   3.663   5.727   0.205
 7620SOL    HW223760   3.758   5.841   0.137
 7621SOL     OW23761   0.601   1.516   0.355
 7621SOL    HW123762   0.570   1.421   0.350
 7621SOL    HW223763   0.543   1.567   0.419
 7622SOL     OW23764   5.144   3.652   1.707
 7622SOL    HW123765   5.189   3.578   1.758
 7622SOL    HW223766   5.059   3.618   1.666
 7623SOL     OW23767   4.684   4.798   6.319
 7623SOL    HW123768   4.619   4.806   6.395
 7623SOL    HW223769   4.705   4.701   6.304
 7624SOL     OW23770   0.349   2.833   4.355
 7624SOL    HW123771   0.404   2.789   4.427
 7624SOL    HW223772   0.356   2.780   4.271
 7625SOL     OW23773   4.739   0.267   0.911
 7625SOL    HW123774   4.657   0.325   0.916
 7625SOL    HW223775   4.820   0.326   0.907
 7626SOL     OW23776   6.973   6.663   5.279
 7626SOL    HW123777   6.921   6.581   5.303
 7626SOL    HW223778   7.013   6.702   5.361
 7627SOL     OW23779   5.934   3.487   6.899
 7627SOL    HW123780   6.001   3.419   6.928
 7627SOL    HW223781   5.957   3.576   6.939
 7628SOL     OW23782   3.134   0.435   1.042
 7628SOL    HW123783   3.137   0.409   1.138
 7628SOL    HW223784   3.227   0.436   1.005
 7629SOL     OW23785   6.340   6.857   2.628
 7629SOL    HW123786   6.261   6.817   2.674
 7629SOL    HW223787   6.364   6.944   2.672
 7630SOL     OW23788   6.024   6.161   2.210
 7630SOL    HW123789   6.116   6.144   2.247
 7630SOL    HW223790   5.956   6.140   2.280
 7631SOL     OW23791   0.694   1.866   5.468
 7631SOL    HW123792   0.701   1.871   5.568
 7631SOL    HW223793   0.784   1.886   5.428
 7632SOL     OW23794   3.658   2.047   1.549
 7632SOL    HW123795   3.584   2.090   1.600
 7632SOL    HW223796   3.733   2.025   1.610
 7633SOL     OW23797   4.983   2.854   0.170
 7633SOL    HW123798   4.965   2.951   0.152
 7633SOL    HW223799   4.935   2.826   0.253
 7634SOL     OW23800   1.148   1.358   2.011
 7634SOL    HW123801   1.215   1.406   2.066
 7634SOL    HW223802   1.071   1.419   1.991
 7635SOL     OW23803   2.336   4.768   5.500
 7635SOL    HW123804   2.397   4.689   5.493
 7635SOL    HW223805   2.255   4.743   5.552
 7636SOL     OW23806   0.854   1.360   3.258
 7636SOL    HW123807   0.861   1.439   3.197
 7636SOL    HW223808   0.759   1.330   3.264
 7637SOL     OW23809   1.728   6.542   2.322
 7637SOL    HW123810   1.740   6.637   2.351
 7637SOL    HW223811   1.785   6.524   2.242
 7638SOL     OW23812   5.045   5.871   2.345
 7638SOL    HW123813   5.033   5.843   2.441
 7638SOL    HW223814   4.958   5.904   2.309
 7639SOL     OW23815   1.366   2.218   0.797
 7639SOL    HW123816   1.390   2.282   0.869
 7639SOL    HW223817   1.364   2.265   0.709
 7640SOL     OW23818   2.769   2.448   0.322
 7640SOL    HW123819   2.719   2.534   0.332
 7640SOL    HW223820   2.760   2.416   0.228
 7641SOL     OW23821   0.487   4.209   1.489
 7641SOL    HW123822   0.485   4.201   1.589
 7641SOL    HW223823   0.509   4.120   1.449
 7642SOL     OW23824   2.634   1.796   3.093
 7642SOL    HW123825   2.547   1.754   3.069
 7642SOL    HW223826   2.619   1.869   3.159
 7643SOL     OW23827   4.534   1.672   3.851
 7643SOL    HW123828   4.546   1.718   3.939
 7643SOL    HW223829   4.450   1.705   3.808
 7644SOL     OW23830   6.414   1.860   2.900
 7644SOL    HW123831   6.460   1.935   2.948
 7644SOL    HW223832   6.432   1.869   2.802
 7645SOL     OW23833   4.574   4.403   5.955
 7645SOL    HW123834   4.495   4.414   5.894
 7645SOL    HW223835   4.548   4.432   6.047
 7646SOL     OW23836   1.886   2.830   2.276
 7646SOL    HW123837   1.820   2.873   2.338
 7646SOL    HW223838   1.968   2.886   2.270
 7647SOL     OW23839   1.495   2.934   1.278
 7647SOL    HW123840   1.514   2.836   1.273
 7647SOL    HW223841   1.517   2.977   1.190
 7648SOL     OW23842   4.049   1.958   3.748
 7648SOL    HW123843   3.989   2.032   3.779
 7648SOL    HW223844   4.060   1.891   3.821
 7649SOL     OW23845   1.861   0.647   2.773
 7649SOL    HW123846   1.896   0.563   2.816
 7649SOL    HW223847   1.870   0.723   2.837
 7650SOL     OW23848   5.478   3.347   0.879
 7650SOL    HW123849   5.550   3.404   0.839
 7650SOL    HW223850   5.389   3.391   0.864
 7651SOL     OW23851   2.595   0.206   5.216
 7651SOL    HW123852   2.649   0.187   5.134
 7651SOL    HW223853   2.629   0.149   5.291
 7652SOL     OW23854   0.169   4.031   4.264
 7652SOL    HW123855   0.242   4.091   4.232
 7652SOL    HW223856   0.082   4.060   4.225
 7653SOL     OW23857   2.410   1.731   0.619
 7653SOL    HW123858   2.455   1.808   0.575
 7653SOL    HW223859   2.397   1.658   0.552
 7654SOL     OW23860   4.843   2.912   3.286
 7654SOL    HW123861   4.920   2.848   3.297
 7654SOL    HW223862   4.829   2.961   3.372
 7655SOL     OW23863   3.942   0.515   4.078
 7655SOL    HW123864   3.956   0.586   4.146
 7655SOL    HW223865   3.874   0.546   4.011
 7656SOL     OW23866   1.481   5.805   5.934
 7656SOL    HW123867   1.579   5.810   5.916
 7656SOL    HW223868   1.448   5.713   5.912
 7657SOL     OW23869   2.635   2.473   2.835
 7657SOL    HW123870   2.721   2.427   2.813
 7657SOL    HW223871   2.648   2.572   2.830
 7658SOL     OW23872   4.461   6.594   5.797
 7658SOL    HW123873   4.551   6.586   5.755
 7658SOL    HW223874   4.472   6.606   5.896
 7659SOL     OW23875   5.558   6.010   6.708
 7659SOL    HW123876   5.496   6.043   6.780
 7659SOL    HW223877   5.597   6.088   6.660
 7660SOL     OW23878   6.421   5.339   4.222
 7660SOL    HW123879   6.475   5.377   4.297
 7660SOL    HW223880   6.362   5.410   4.184
 7661SOL     OW23881   5.973   1.793   4.405
 7661SOL    HW123882   5.907   1.866   4.420
 7661SOL    HW223883   6.056   1.831   4.363
 7662SOL     OW23884   1.123   1.915   2.174
 7662SOL    HW123885   1.102   1.817   2.173
 7662SOL    HW223886   1.052   1.963   2.224
 7663SOL     OW23887   6.199   6.672   6.137
 7663SOL    HW123888   6.284   6.652   6.088
 7663SOL    HW223889   6.204   6.763   6.178
 7664SOL     OW23890   3.521   0.575   2.524
 7664SOL    HW123891   3.539   0.503   2.457
 7664SOL    HW223892   3.603   0.591   2.578
 7665SOL     OW23893   4.189   0.712   3.648
 7665SOL    HW123894   4.237   0.630   3.679
 7665SOL    HW223895   4.152   0.761   3.727
 7666SOL     OW23896   6.994   0.098   1.304
 7666SOL    HW123897   6.894   0.107   1.305
 7666SOL    HW223898   0.010   0.186   1.283
 7667SOL     OW23899   4.950   6.025   1.504
 7667SOL    HW123900   4.941   6.113   1.551
 7667SOL    HW223901   4.902   6.029   1.417
 7668SOL     OW23902   2.800   4.479   0.826
 7668SOL    HW123903   2.743   4.522   0.755
 7668SOL    HW223904   2.796   4.534   0.909
 7669SOL     OW23905   5.409   1.767   5.016
 7669SOL    HW123906   5.318   1.808   5.019
 7669SOL    HW223907   5.461   1.808   4.941
 7670SOL     OW23908   1.634   5.955   6.215
 7670SOL    HW123909   1.556   5.992   6.164
 7670SOL    HW223910   1.710   5.941   6.153
 7671SOL     OW23911   4.505   1.232   5.344
 7671SOL    HW123912   4.538   1.308   5.288
 7671SOL    HW223913   4.410   1.250   5.373
 7672SOL     OW23914   5.456   6.270   3.657
 7672SOL    HW123915   5.393   6.347   3.670
 7672SOL    HW223916   5.406   6.184   3.671
 7673SOL     OW23917   2.244   5.328   7.025
 7673SOL    HW123918   2.258   5.271   0.081
 7673SOL    HW223919   2.238   5.270   6.944
 7674SOL     OW23920   6.704   2.427   4.169
 7674SOL    HW123921   6.716   2.526   4.163
 7674SOL    HW223922   6.656   2.404   4.254
 7675SOL     OW23923   4.968   0.783   2.748
 7675SOL    HW123924   5.048   0.790   2.808
 7675SOL    HW223925   4.915   0.702   2.772
 7676SOL     OW23926   1.379   1.970   0.603
 7676SOL    HW123927   1.317   2.046   0.623
 7676SOL    HW223928   1.378   1.904   0.678
 7677SOL     OW23929   1.045   3.929   1.496
 7677SOL    HW123930   0.945   3.926   1.497
 7677SOL    HW223931   1.080   3.837   1.482
 7678SOL     OW23932   1.809   1.199   5.815
 7678SOL    HW123933   1.807   1.256   5.732
 7678SOL    HW223934   1.785   1.105   5.792
 7679SOL     OW23935   1.505   6.616   4.964
 7679SOL    HW123936   1.550   6.598   5.052
 7679SOL    HW223937   1.409   6.641   4.981
 7680SOL     OW23938   1.775   2.644   0.017
 7680SOL    HW123939   1.874   2.662   0.021
 7680SOL    HW223940   1.740   2.627   0.109
 7681SOL     OW23941   2.661   6.986   0.346
 7681SOL    HW123942   2.653   6.904   0.289
 7681SOL    HW223943   2.626   6.967   0.438
 7682SOL     OW23944   2.603   0.173   2.011
 7682SOL    HW123945   2.513   0.216   2.008
 7682SOL    HW223946   2.621   0.139   2.103
 7683SOL     OW23947   6.852   2.166   4.313
 7683SOL    HW123948   6.875   2.205   4.224
 7683SOL    HW223949   6.846   2.066   4.304
 7684SOL     OW23950   5.621   2.223   0.315
 7684SOL    HW123951   5.669   2.147   0.359
 7684SOL    HW223952   5.559   2.266   0.380
 7685SOL     OW23953   3.349   3.436   7.025
 7685SOL    HW123954   3.400   3.378   0.063
 7685SOL    HW223955   3.264   3.391   6.999
 7686SOL     OW23956   4.910   0.541   3.537
 7686SOL    HW123957   4.886   0.455   3.490
 7686SOL    HW223958   4.986   0.524   3.599
 7687SOL     OW23959   6.162   5.822   5.267
 7687SOL    HW123960   6.065   5.845   5.260
 7687SOL    HW223961   6.215   5.904   5.288
 7688SOL     OW23962   0.432   0.812   6.438
 7688SOL    HW123963   0.356   0.877   6.444
 7688SOL    HW223964   0.464   0.808   6.343
 7689SOL     OW23965   5.358   5.850   3.548
 7689SOL    HW123966   5.323   5.903   3.625
 7689SOL    HW223967   5.457   5.843   3.554
 7690SOL     OW23968   6.055   5.176   1.471
 7690SOL    HW123969   6.015   5.194   1.381
 7690SOL    HW223970   6.145   5.218   1.476
 7691SOL     OW23971   4.659   2.678   4.346
 7691SOL    HW123972   4.631   2.651   4.254
 7691SOL    HW223973   4.689   2.773   4.345
 7692SOL     OW23974   0.744   6.954   1.350
 7692SOL    HW123975   0.728   6.868   1.397
 7692SOL    HW223976   0.841   6.976   1.352
 7693SOL     OW23977   4.416   6.763   0.756
 7693SOL    HW123978   4.411   6.828   0.831
 7693SOL    HW223979   4.377   6.675   0.783
 7694SOL     OW23980   0.366   4.228   4.270
 7694SOL    HW123981   0.458   4.214   4.234
 7694SOL    HW223982   0.361   4.314   4.320
 7695SOL     OW23983   3.961   6.862   0.664
 7695SOL    HW123984   3.934   6.890   0.756
 7695SOL    HW223985   3.880   6.832   0.613
 7696SOL     OW23986   6.940   1.847   4.755
 7696SOL    HW123987   6.913   1.796   4.673
 7696SOL    HW223988   7.024   1.898   4.736
 7697SOL     OW23989   2.835   0.722   2.538
 7697SOL    HW123990   2.763   0.735   2.607
 7697SOL    HW223991   2.822   0.634   2.493
 7698SOL     OW23992   0.192   2.829   4.726
 7698SOL    HW123993   0.108   2.819   4.779
 7698SOL    HW223994   0.263   2.771   4.765
 7699SOL     OW23995   3.589   5.771   6.898
 7699SOL    HW123996   3.609   5.691   6.842
 7699SOL    HW223997   3.658   5.779   6.970
 7700SOL     OW23998   4.941   6.570   5.212
 7700SOL    HW123999   4.925   6.479   5.251
 7700SOL    HW224000   4.944   6.563   5.112
 7701SOL     OW24001   6.100   1.533   6.930
 7701SOL    HW124002   6.056   1.577   6.851
 7701SOL    HW224003   6.085   1.435   6.925
 7702SOL     OW24004   3.293   6.737   5.575
 7702SOL    HW124005   3.252   6.671   5.512
 7702SOL    HW224006   3.382   6.765   5.539
 7703SOL     OW24007   6.737   1.134   4.745
 7703SOL    HW124008   6.659   1.113   4.805
 7703SOL    HW224009   6.780   1.049   4.715
 7704SOL     OW24010   4.633   4.564   5.685
 7704SOL    HW124011   4.667   4.657   5.665
 7704SOL    HW224012   4.653   4.542   5.780
 7705SOL     OW24013   3.621   4.811   6.216
 7705SOL    HW124014   3.529   4.771   6.219
 7705SOL    HW224015   3.635   4.870   6.295
 7706SOL     OW24016   5.042   1.501   5.831
 7706SOL    HW124017   5.136   1.534   5.842
 7706SOL    HW224018   4.981   1.558   5.886
 7707SOL     OW24019   0.906   5.908   6.702
 7707SOL    HW124020   0.941   5.928   6.794
 7707SOL    HW224021   0.884   5.993   6.656
 7708SOL     OW24022   5.133   6.048   5.197
 7708SOL    HW124023   5.053   6.003   5.156
 7708SOL    HW224024   5.215   5.995   5.176
 7709SOL     OW24025   4.859   3.743   1.960
 7709SOL    HW124026   4.878   3.800   1.880
 7709SOL    HW224027   4.806   3.663   1.932
 7710SOL     OW24028   2.641   0.859   1.064
 7710SOL    HW124029   2.609   0.787   1.125
 7710SOL    HW224030   2.643   0.946   1.113
 7711SOL     OW24031   6.362   6.192   5.078
 7711SOL    HW124032   6.360   6.093   5.083
 7711SOL    HW224033   6.444   6.221   5.028
 7712SOL     OW24034   6.481   4.130   1.496
 7712SOL    HW124035   6.386   4.131   1.465
 7712SOL    HW224036   6.541   4.155   1.420
 7713SOL     OW24037   1.937   4.511   0.389
 7713SOL    HW124038   1.952   4.562   0.304
 7713SOL    HW224039   1.947   4.413   0.372
 7714SOL     OW24040   6.642   5.762   5.019
 7714SOL    HW124041   6.662   5.709   5.102
 7714SOL    HW224042   6.620   5.700   4.944
 7715SOL     OW24043   4.631   1.357   1.097
 7715SOL    HW124044   4.707   1.371   1.161
 7715SOL    HW224045   4.613   1.442   1.048
 7716SOL     OW24046   5.875   3.290   3.579
 7716SOL    HW124047   5.817   3.303   3.499
 7716SOL    HW224048   5.910   3.379   3.609
 7717SOL     OW24049   2.792   1.073   4.699
 7717SOL    HW124050   2.812   1.090   4.603
 7717SOL    HW224051   2.872   1.098   4.755
 7718SOL     OW24052   1.700   2.951   2.548
 7718SOL    HW124053   1.649   3.029   2.584
 7718SOL    HW224054   1.639   2.872   2.542
 7719SOL     OW24055   6.904   3.293   3.459
 7719SOL    HW124056   6.971   3.360   3.430
 7719SOL    HW224057   6.812   3.331   3.448
 7720SOL     OW24058   0.113   6.898   0.379
 7720SOL    HW124059   0.066   6.856   0.456
 7720SOL    HW224060   0.202   6.932   0.409
 7721SOL     OW24061   1.596   4.292   3.216
 7721SOL    HW124062   1.610   4.257   3.123
 7721SOL    HW224063   1.505   4.266   3.247
 7722SOL     OW24064   0.350   5.082   2.606
 7722SOL    HW124065   0.399   5.020   2.545
 7722SOL    HW224066   0.281   5.031   2.658
 7723SOL     OW24067   6.362   4.015   0.595
 7723SOL    HW124068   6.373   4.114   0.607
 7723SOL    HW224069   6.272   3.996   0.555
 7724SOL     OW24070   2.453   4.474   2.309
 7724SOL    HW124071   2.504   4.546   2.262
 7724SOL    HW224072   2.515   4.400   2.335
 7725SOL     OW24073   5.307   2.546   2.929
 7725SOL    HW124074   5.347   2.636   2.911
 7725SOL    HW224075   5.363   2.475   2.888
 7726SOL     OW24076   0.273   5.282   4.098
 7726SOL    HW124077   0.223   5.271   4.184
 7726SOL    HW224078   0.364   5.320   4.117
 7727SOL     OW24079   6.118   1.868   3.457
 7727SOL    HW124080   6.188   1.806   3.422
 7727SOL    HW224081   6.122   1.870   3.557
 7728SOL     OW24082   0.881   3.728   3.766
 7728SOL    HW124083   0.796   3.679   3.781
 7728SOL    HW224084   0.910   3.771   3.852
 7729SOL     OW24085   5.928   2.654   1.644
 7729SOL    HW124086   5.950   2.599   1.564
 7729SOL    HW224087   5.837   2.695   1.633
 7730SOL     OW24088   5.735   5.370   2.037
 7730SOL    HW124089   5.773   5.354   1.946
 7730SOL    HW224090   5.757   5.462   2.067
 7731SOL     OW24091   5.824   0.933   1.260
 7731SOL    HW124092   5.732   0.943   1.298
 7731SOL    HW224093   5.851   1.018   1.215
 7732SOL     OW24094   4.720   5.865   0.936
 7732SOL    HW124095   4.800   5.895   0.885
 7732SOL    HW224096   4.639   5.915   0.905
 7733SOL     OW24097   4.379   6.119   1.994
 7733SOL    HW124098   4.360   6.212   1.962
 7733SOL    HW224099   4.470   6.091   1.963
 7734SOL     OW24100   1.587   4.286   3.946
 7734SOL    HW124101   1.637   4.335   4.017
 7734SOL    HW224102   1.546   4.351   3.882
 7735SOL     OW24103   3.796   5.213   6.678
 7735SOL    HW124104   3.723   5.213   6.609
 7735SOL    HW224105   3.882   5.243   6.635
 7736SOL     OW24106   5.079   4.331   0.150
 7736SOL    HW124107   5.066   4.391   0.229
 7736SOL    HW224108   5.124   4.247   0.179
 7737SOL     OW24109   4.185   0.875   0.824
 7737SOL    HW124110   4.249   0.949   0.806
 7737SOL    HW224111   4.126   0.898   0.902
 7738SOL     OW24112   1.886   5.894   6.703
 7738SOL    HW124113   1.847   5.966   6.760
 7738SOL    HW224114   1.897   5.811   6.758
 7739SOL     OW24115   0.365   1.109   1.985
 7739SOL    HW124116   0.428   1.167   2.036
 7739SOL    HW224117   0.414   1.030   1.949
 7740SOL     OW24118   0.739   0.493   2.695
 7740SOL    HW124119   0.677   0.435   2.643
 7740SOL    HW224120   0.833   0.468   2.674
 7741SOL     OW24121   1.526   6.090   4.478
 7741SOL    HW124122   1.500   6.145   4.399
 7741SOL    HW224123   1.529   5.993   4.451
 7742SOL     OW24124   6.413   1.881   3.568
 7742SOL    HW124125   6.411   1.976   3.538
 7742SOL    HW224126   6.413   1.877   3.668
 7743SOL     OW24127   4.490   2.485   6.396
 7743SOL    HW124128   4.518   2.539   6.316
 7743SOL    HW224129   4.523   2.391   6.386
 7744SOL     OW24130   0.380   5.796   4.324
 7744SOL    HW124131   0.378   5.864   4.397
 7744SOL    HW224132   0.475   5.779   4.296
 7745SOL     OW24133   3.286   2.081   5.434
 7745SOL    HW124134   3.276   2.179   5.417
 7745SOL    HW224135   3.226   2.055   5.510
 7746SOL     OW24136   2.691   0.042   6.570
 7746SOL    HW124137   2.605   0.048   6.518
 7746SOL    HW224138   2.740   6.984   6.543
 7747SOL     OW24139   4.104   5.866   1.256
 7747SOL    HW124140   4.040   5.942   1.242
 7747SOL    HW224141   4.189   5.885   1.206
 7748SOL     OW24142   2.932   3.760   5.660
 7748SOL    HW124143   2.945   3.813   5.576
 7748SOL    HW224144   3.006   3.693   5.669
 7749SOL     OW24145   4.441   3.615   6.022
 7749SOL    HW124146   4.435   3.684   6.094
 7749SOL    HW224147   4.371   3.632   5.953
 7750SOL     OW24148   0.472   5.979   1.533
 7750SOL    HW124149   0.554   5.924   1.548
 7750SOL    HW224150   0.397   5.919   1.503
 7751SOL     OW24151   1.014   1.150   2.122
 7751SOL    HW124152   1.079   1.079   2.093
 7751SOL    HW224153   1.050   1.240   2.098
 7752SOL     OW24154   5.054   0.519   5.368
 7752SOL    HW124155   5.020   0.545   5.278
 7752SOL    HW224156   4.977   0.500   5.429
 7753SOL     OW24157   1.901   1.451   4.585
 7753SOL    HW124158   2.001   1.459   4.583
 7753SOL    HW224159   1.873   1.372   4.530
 7754SOL     OW24160   3.653   5.978   1.394
 7754SOL    HW124161   3.640   5.895   1.339
 7754SOL    HW224162   3.691   6.050   1.337
 7755SOL     OW24163   0.973   3.117   6.211
 7755SOL    HW124164   0.944   3.165   6.128
 7755SOL    HW224165   0.989   3.183   6.284
 7756SOL     OW24166   2.854   6.688   1.833
 7756SOL    HW124167   2.908   6.766   1.865
 7756SOL    HW224168   2.875   6.671   1.736
 7757SOL     OW24169   6.470   4.358   1.035
 7757SOL    HW124170   6.412   4.334   1.113
 7757SOL    HW224171   6.555   4.399   1.068
 7758SOL     OW24172   1.726   6.863   6.435
 7758SOL    HW124173   1.797   6.826   6.375
 7758SOL    HW224174   1.649   6.895   6.379
 7759SOL     OW24175   3.408   2.313   5.850
 7759SOL    HW124176   3.318   2.311   5.895
 7759SOL    HW224177   3.420   2.230   5.796
 7760SOL     OW24178   5.141   2.195   2.332
 7760SOL    HW124179   5.134   2.097   2.348
 7760SOL    HW224180   5.133   2.214   2.234
 7761SOL     OW24181   5.390   6.006   5.032
 7761SOL    HW124182   5.437   5.918   5.026
 7761SOL    HW224183   5.449   6.072   5.078
 7762SOL     OW24184   1.460   0.385   3.895
 7762SOL    HW124185   1.532   0.448   3.865
 7762SOL    HW224186   1.374   0.410   3.851
 7763SOL     OW24187   2.087   0.269   5.521
 7763SOL    HW124188   2.017   0.198   5.527
 7763SOL    HW224189   2.065   0.344   5.584
 7764SOL     OW24190   3.254   4.138   5.570
 7764SOL    HW124191   3.156   4.129   5.590
 7764SOL    HW224192   3.302   4.166   5.653
 7765SOL     OW24193   6.249   3.807   4.240
 7765SOL    HW124194   6.305   3.807   4.157
 7765SOL    HW224195   6.177   3.738   4.232
 7766SOL     OW24196   0.743   4.184   0.559
 7766SOL    HW124197   0.785   4.198   0.470
 7766SOL    HW224198   0.814   4.173   0.629
 7767SOL     OW24199   4.120   6.698   2.569
 7767SOL    HW124200   4.170   6.662   2.647
 7767SOL    HW224201   4.182   6.754   2.513
 7768SOL     OW24202   5.098   4.659   3.493
 7768SOL    HW124203   5.019   4.601   3.510
 7768SOL    HW224204   5.080   4.716   3.412
 7769SOL     OW24205   3.812   1.880   5.157
 7769SOL    HW124206   3.757   1.955   5.121
 7769SOL    HW224207   3.901   1.878   5.112
 7770SOL     OW24208   0.258   3.532   4.800
 7770SOL    HW124209   0.183   3.537   4.867
 7770SOL    HW224210   0.313   3.616   4.805
 7771SOL     OW24211   2.826   1.736   6.178
 7771SOL    HW124212   2.876   1.804   6.124
 7771SOL    HW224213   2.729   1.759   6.180
 7772SOL     OW24214   5.015   0.594   0.775
 7772SOL    HW124215   4.938   0.628   0.720
 7772SOL    HW224216   5.019   0.494   0.768
 7773SOL     OW24217   2.607   5.780   6.928
 7773SOL    HW124218   2.568   5.861   6.885
 7773SOL    HW224219   2.683   5.746   6.872
 7774SOL     OW24220   4.639   2.318   3.913
 7774SOL    HW124221   4.722   2.370   3.933
 7774SOL    HW224222   4.661   2.244   3.848
 7775SOL     OW24223   3.847   0.475   6.847
 7775SOL    HW124224   3.812   0.434   6.931
 7775SOL    HW224225   3.879   0.402   6.785
 7776SOL     OW24226   0.222   6.782   6.231
 7776SOL    HW124227   0.159   6.856   6.254
 7776SOL    HW224228   0.316   6.814   6.241
 7777SOL     OW24229   6.215   5.451   4.446
 7777SOL    HW124230   6.240   5.355   4.455
 7777SOL    HW224231   6.207   5.492   4.537
 7778SOL     OW24232   6.139   4.009   2.660
 7778SOL    HW124233   6.079   3.947   2.709
 7778SOL    HW224234   6.103   4.026   2.569
 7779SOL     OW24235   3.616   0.126   2.780
 7779SOL    HW124236   3.617   0.226   2.780
 7779SOL    HW224237   3.524   0.093   2.760
 7780SOL     OW24238   0.224   6.347   6.365
 7780SOL    HW124239   0.282   6.283   6.315
 7780SOL    HW224240   0.167   6.398   6.300
 7781SOL     OW24241   1.813   3.983   0.407
 7781SOL    HW124242   1.888   3.937   0.359
 7781SOL    HW224243   1.734   3.991   0.347
 7782SOL     OW24244   5.945   5.130   3.307
 7782SOL    HW124245   5.993   5.157   3.224
 7782SOL    HW224246   5.909   5.212   3.353
 7783SOL     OW24247   0.502   0.060   5.637
 7783SOL    HW124248   0.493   6.986   5.646
 7783SOL    HW224249   0.579   0.092   5.692
 7784SOL     OW24250   2.703   2.562   1.749
 7784SOL    HW124251   2.783   2.549   1.808
 7784SOL    HW224252   2.629   2.601   1.803
 7785SOL     OW24253   1.233   6.325   3.360
 7785SOL    HW124254   1.221   6.352   3.265
 7785SOL    HW224255   1.158   6.362   3.415
 7786SOL     OW24256   4.392   0.965   6.794
 7786SOL    HW124257   4.460   0.949   6.866
 7786SOL    HW224258   4.375   1.063   6.785
 7787SOL     OW24259   2.426   3.568   1.194
 7787SOL    HW124260   2.432   3.667   1.206
 7787SOL    HW224261   2.462   3.522   1.275
 7788SOL     OW24262   1.542   6.243   1.614
 7788SOL    HW124263   1.503   6.150   1.618
 7788SOL    HW224264   1.642   6.237   1.610
 7789SOL     OW24265   3.319   6.849   6.160
 7789SOL    HW124266   3.249   6.812   6.221
 7789SOL    HW224267   3.324   6.948   6.171
 7790SOL     OW24268   6.540   5.102   2.418
 7790SOL    HW124269   6.472   5.173   2.400
 7790SOL    HW224270   6.565   5.103   2.515
 7791SOL     OW24271   2.128   5.454   1.785
 7791SOL    HW124272   2.109   5.360   1.813
 7791SOL    HW224273   2.163   5.505   1.864
 7792SOL     OW24274   0.288   1.061   2.870
 7792SOL    HW124275   0.273   0.984   2.933
 7792SOL    HW224276   0.375   1.105   2.893
 7793SOL     OW24277   4.470   1.824   6.626
 7793SOL    HW124278   4.447   1.731   6.655
 7793SOL    HW224279   4.569   1.833   6.617
 7794SOL     OW24280   0.555   5.418   2.408
 7794SOL    HW124281   0.582   5.332   2.365
 7794SOL    HW224282   0.472   5.405   2.462
 7795SOL     OW24283   3.375   5.246   5.512
 7795SOL    HW124284   3.429   5.162   5.506
 7795SOL    HW224285   3.328   5.250   5.600
 7796SOL     OW24286   3.581   3.496   5.419
 7796SOL    HW124287   3.558   3.577   5.365
 7796SOL    HW224288   3.674   3.467   5.398
 7797SOL     OW24289   1.469   5.415   2.201
 7797SOL    HW124290   1.504   5.343   2.141
 7797SOL    HW224291   1.465   5.381   2.295
 7798SOL     OW24292   0.702   1.211   1.515
 7798SOL    HW124293   0.666   1.176   1.601
 7798SOL    HW224294   0.788   1.259   1.532
 7799SOL     OW24295   2.808   5.798   2.953
 7799SOL    HW124296   2.828   5.888   2.992
 7799SOL    HW224297   2.837   5.726   3.017
 7800SOL     OW24298   0.918   5.639   1.319
 7800SOL    HW124299   0.877   5.592   1.397
 7800SOL    HW224300   0.904   5.584   1.236
 7801SOL     OW24301   1.773   2.195   2.530
 7801SOL    HW124302   1.776   2.279   2.585
 7801SOL    HW224303   1.697   2.138   2.561
 7802SOL     OW24304   6.998   4.409   6.337
 7802SOL    HW124305   0.027   4.352   6.275
 7802SOL    HW224306   6.952   4.351   6.404
 7803SOL     OW24307   5.442   2.324   6.605
 7803SOL    HW124308   5.372   2.394   6.593
 7803SOL    HW224309   5.533   2.365   6.595
 7804SOL     OW24310   2.954   1.990   3.893
 7804SOL    HW124311   3.024   1.943   3.947
 7804SOL    HW224312   2.904   2.054   3.953
 7805SOL     OW24313   5.034   2.997   1.963
 7805SOL    HW124314   4.936   3.004   1.944
 7805SOL    HW224315   5.050   3.013   2.060
 7806SOL     OW24316   6.393   2.817   5.927
 7806SOL    HW124317   6.318   2.752   5.919
 7806SOL    HW224318   6.457   2.804   5.851
 7807SOL     OW24319   1.762   4.534   6.115
 7807SOL    HW124320   1.695   4.482   6.062
 7807SOL    HW224321   1.823   4.582   6.052
 7808SOL     OW24322   4.606   4.512   2.504
 7808SOL    HW124323   4.623   4.477   2.412
 7808SOL    HW224324   4.524   4.569   2.504
 7809SOL     OW24325   4.993   4.848   4.445
 7809SOL    HW124326   5.035   4.937   4.427
 7809SOL    HW224327   5.024   4.814   4.533
 7810SOL     OW24328   4.011   6.409   4.886
 7810SOL    HW124329   3.944   6.340   4.861
 7810SOL    HW224330   4.102   6.368   4.889
 7811SOL     OW24331   1.068   5.792   2.860
 7811SOL    HW124332   1.146   5.742   2.898
 7811SOL    HW224333   0.995   5.798   2.928
 7812SOL     OW24334   2.463   3.211   5.421
 7812SOL    HW124335   2.548   3.216   5.472
 7812SOL    HW224336   2.482   3.180   5.327
 7813SOL     OW24337   4.489   2.567   1.366
 7813SOL    HW124338   4.470   2.643   1.428
 7813SOL    HW224339   4.428   2.574   1.286
 7814SOL     OW24340   6.625   3.205   2.491
 7814SOL    HW124341   6.658   3.164   2.577
 7814SOL    HW224342   6.591   3.133   2.431
 7815SOL     OW24343   6.271   2.420   4.738
 7815SOL    HW124344   6.290   2.370   4.654
 7815SOL    HW224345   6.175   2.449   4.738
 7816SOL     OW24346   0.130   1.672   5.926
 7816SOL    HW124347   0.177   1.595   5.969
 7816SOL    HW224348   0.074   1.640   5.850
 7817SOL     OW24349   3.821   4.257   5.963
 7817SOL    HW124350   3.722   4.249   5.966
 7817SOL    HW224351   3.854   4.232   5.872
 7818SOL     OW24352   4.350   0.884   2.257
 7818SOL    HW124353   4.386   0.819   2.325
 7818SOL    HW224354   4.269   0.845   2.215
 7819SOL     OW24355   0.411   3.676   3.897
 7819SOL    HW124356   0.338   3.641   3.838
 7819SOL    HW224357   0.402   3.775   3.906
 7820SOL     OW24358   1.915   0.817   5.226
 7820SOL    HW124359   1.958   0.736   5.265
 7820SOL    HW224360   1.980   0.892   5.225
 7821SOL     OW24361   6.270   5.633   6.732
 7821SOL    HW124362   6.192   5.677   6.778
 7821SOL    HW224363   6.326   5.585   6.800
 7822SOL     OW24364   1.076   1.398   5.526
 7822SOL    HW124365   1.076   1.330   5.453
 7822SOL    HW224366   1.019   1.476   5.500
 7823SOL     OW24367   1.454   4.309   6.526
 7823SOL    HW124368   1.402   4.225   6.540
 7823SOL    HW224369   1.551   4.286   6.514
 7824SOL     OW24370   5.541   1.069   3.954
 7824SOL    HW124371   5.477   1.146   3.963
 7824SOL    HW224372   5.632   1.105   3.930
 7825SOL     OW24373   2.373   3.188   1.442
 7825SOL    HW124374   2.339   3.264   1.499
 7825SOL    HW224375   2.324   3.104   1.466
 7826SOL     OW24376   5.633   1.277   0.194
 7826SOL    HW124377   5.638   1.358   0.135
 7826SOL    HW224378   5.655   1.303   0.288
 7827SOL     OW24379   3.859   4.523   1.338
 7827SOL    HW124380   3.862   4.586   1.415
 7827SOL    HW224381   3.927   4.452   1.350
 7828SOL     OW24382   0.841   6.059   1.225
 7828SOL    HW124383   0.755   6.008   1.219
 7828SOL    HW224384   0.918   5.996   1.225
 7829SOL     OW24385   2.564   3.464   1.403
 7829SOL    HW124386   2.539   3.482   1.498
 7829SOL    HW224387   2.644   3.404   1.401
 7830SOL     OW24388   5.521   3.859   6.165
 7830SOL    HW124389   5.488   3.783   6.110
 7830SOL    HW224390   5.568   3.824   6.246
 7831SOL     OW24391   1.566   4.039   0.222
 7831SOL    HW124392   1.532   4.120   0.176
 7831SOL    HW224393   1.495   4.002   0.281
 7832SOL     OW24394   3.429   1.656   4.998
 7832SOL    HW124395   3.417   1.753   4.978
 7832SOL    HW224396   3.435   1.644   5.097
 7833SOL     OW24397   1.069   0.596   0.632
 7833SOL    HW124398   1.022   0.670   0.680
 7833SOL    HW224399   1.014   0.566   0.554
 7834SOL     OW24400   0.365   1.244   2.382
 7834SOL    HW124401   0.423   1.269   2.304
 7834SOL    HW224402   0.277   1.212   2.349
 7835SOL     OW24403   2.223   2.870   4.705
 7835SOL    HW124404   2.255   2.793   4.759
 7835SOL    HW224405   2.203   2.947   4.767
 7836SOL     OW24406   3.123   6.818   6.364
 7836SOL    HW124407   3.110   6.916   6.375
 7836SOL    HW224408   3.146   6.777   6.452
 7837SOL     OW24409   6.045   6.585   2.062
 7837SOL    HW124410   6.004   6.526   1.993
 7837SOL    HW224411   6.032   6.545   2.153
 7838SOL     OW24412   5.114   6.441   5.488
 7838SOL    HW124413   5.179   6.517   5.496
 7838SOL    HW224414   5.025   6.470   5.523
 7839SOL     OW24415   6.301   3.744   4.511
 7839SOL    HW124416   6.232   3.692   4.561
 7839SOL    HW224417   6.271   3.758   4.417
 7840SOL     OW24418   5.131   2.165   4.236
 7840SOL    HW124419   5.073   2.244   4.255
 7840SOL    HW224420   5.224   2.197   4.214
 7841SOL     OW24421   5.341   2.597   6.527
 7841SOL    HW124422   5.392   2.682   6.512
 7841SOL    HW224423   5.252   2.618   6.568
 7842SOL     OW24424   1.422   1.359   3.373
 7842SOL    HW124425   1.340   1.408   3.401
 7842SOL    HW224426   1.458   1.399   3.288
 7843SOL     OW24427   5.547   3.812   1.060
 7843SOL    HW124428   5.595   3.839   0.977
 7843SOL    HW224429   5.559   3.714   1.076
 7844SOL     OW24430   4.546   0.852   3.646
 7844SOL    HW124431   4.461   0.872   3.694
 7844SOL    HW224432   4.616   0.918   3.673
 7845SOL     OW24433   1.144   1.065   3.923
 7845SOL    HW124434   1.127   1.013   3.840
 7845SOL    HW224435   1.061   1.068   3.979
 7846SOL     OW24436   2.519   1.163   1.319
 7846SOL    HW124437   2.457   1.140   1.244
 7846SOL    HW224438   2.609   1.184   1.283
 7847SOL     OW24439   0.324   1.043   0.852
 7847SOL    HW124440   0.340   0.945   0.856
 7847SOL    HW224441   0.412   1.091   0.852
 7848SOL     OW24442   3.508   4.143   1.040
 7848SOL    HW124443   3.418   4.142   1.085
 7848SOL    HW224444   3.535   4.237   1.020
 7849SOL     OW24445   5.140   3.702   3.549
 7849SOL    HW124446   5.189   3.631   3.497
 7849SOL    HW224447   5.163   3.792   3.512
 7850SOL     OW24448   6.853   0.640   3.656
 7850SOL    HW124449   6.873   0.554   3.609
 7850SOL    HW224450   6.937   0.694   3.665
 7851SOL     OW24451   5.912   6.223   0.197
 7851SOL    HW124452   5.898   6.212   0.295
 7851SOL    HW224453   5.988   6.165   0.167
 7852SOL     OW24454   2.559   6.366   6.637
 7852SOL    HW124455   2.647   6.320   6.639
 7852SOL    HW224456   2.549   6.417   6.552
 7853SOL     OW24457   3.027   1.180   0.309
 7853SOL    HW124458   2.941   1.185   0.259
 7853SOL    HW224459   3.064   1.272   0.321
 7854SOL     OW24460   3.854   3.741   1.172
 7854SOL    HW124461   3.921   3.667   1.181
 7854SOL    HW224462   3.900   3.823   1.139
 7855SOL     OW24463   4.052   6.004   6.279
 7855SOL    HW124464   4.129   5.962   6.231
 7855SOL    HW224465   4.087   6.069   6.347
 7856SOL     OW24466   6.371   4.573   4.890
 7856SOL    HW124467   6.383   4.521   4.975
 7856SOL    HW224468   6.459   4.612   4.863
 7857SOL     OW24469   6.424   2.522   5.674
 7857SOL    HW124470   6.385   2.528   5.766
 7857SOL    HW224471   6.516   2.482   5.679
 7858SOL     OW24472   5.666   4.569   3.221
 7858SOL    HW124473   5.640   4.481   3.260
 7858SOL    HW224474   5.674   4.637   3.294
 7859SOL     OW24475   0.713   4.029   6.552
 7859SOL    HW124476   0.723   4.035   6.452
 7859SOL    HW224477   0.797   3.994   6.592
 7860SOL     OW24478   3.634   6.254   2.702
 7860SOL    HW124479   3.563   6.253   2.772
 7860SOL    HW224480   3.615   6.328   2.637
 7861SOL     OW24481   4.100   5.245   1.790
 7861SOL    HW124482   4.098   5.328   1.845
 7861SOL    HW224483   4.170   5.253   1.719
 7862SOL     OW24484   2.924   4.273   1.684
 7862SOL    HW124485   2.920   4.339   1.759
 7862SOL    HW224486   2.833   4.235   1.667
 7863SOL     OW24487   6.509   6.249   3.173
 7863SOL    HW124488   6.563   6.251   3.257
 7863SOL    HW224489   6.556   6.195   3.104
 7864SOL     OW24490   0.064   6.287   5.502
 7864SOL    HW124491   0.135   6.219   5.481
 7864SOL    HW224492   0.012   6.307   5.419
 7865SOL     OW24493   4.082   6.396   3.949
 7865SOL    HW124494   3.993   6.383   3.904
 7865SOL    HW224495   4.121   6.307   3.971
 7866SOL     OW24496   2.836   1.412   2.229
 7866SOL    HW124497   2.850   1.382   2.323
 7866SOL    HW224498   2.824   1.333   2.169
 7867SOL     OW24499   5.589   5.671   2.411
 7867SOL    HW124500   5.627   5.619   2.335
 7867SOL    HW224501   5.661   5.687   2.479
 7868SOL     OW24502   5.029   6.395   1.887
 7868SOL    HW124503   4.988   6.343   1.962
 7868SOL    HW224504   5.128   6.386   1.890
 7869SOL     OW24505   6.418   3.765   1.143
 7869SOL    HW124506   6.320   3.755   1.160
 7869SOL    HW224507   6.436   3.855   1.104
 7870SOL     OW24508   6.036   5.251   3.690
 7870SOL    HW124509   5.996   5.280   3.777
 7870SOL    HW224510   6.126   5.212   3.706
 7871SOL     OW24511   5.689   3.336   3.387
 7871SOL    HW124512   5.736   3.393   3.319
 7871SOL    HW224513   5.591   3.338   3.371
 7872SOL     OW24514   1.176   4.289   2.444
 7872SOL    HW124515   1.253   4.228   2.423
 7872SOL    HW224516   1.102   4.273   2.378
 7873SOL     OW24517   6.618   0.687   5.407
 7873SOL    HW124518   6.541   0.685   5.472
 7873SOL    HW224519   6.700   0.652   5.452
 7874SOL     OW24520   6.687   1.467   6.668
 7874SOL    HW124521   6.639   1.386   6.703
 7874SOL    HW224522   6.739   1.442   6.587
 7875SOL     OW24523   4.743   4.481   6.856
 7875SOL    HW124524   4.760   4.405   6.793
 7875SOL    HW224525   4.831   4.521   6.884
 7876SOL     OW24526   6.550   0.637   4.605
 7876SOL    HW124527   6.569   0.693   4.686
 7876SOL    HW224528   6.456   0.603   4.609
 7877SOL     OW24529   0.045   1.978   3.027
 7877SOL    HW124530   0.020   2.072   3.001
 7877SOL    HW224531   0.085   1.978   3.118
 7878SOL     OW24532   4.999   4.593   2.657
 7878SOL    HW124533   5.008   4.603   2.756
 7878SOL    HW224534   4.917   4.641   2.626
 7879SOL     OW24535   4.835   5.726   3.177
 7879SOL    HW124536   4.891   5.804   3.205
 7879SOL    HW224537   4.853   5.649   3.237
 7880SOL     OW24538   0.600   6.268   0.643
 7880SOL    HW124539   0.552   6.185   0.670
 7880SOL    HW224540   0.562   6.346   0.692
 7881SOL     OW24541   6.973   4.123   4.499
 7881SOL    HW124542   6.930   4.054   4.557
 7881SOL    HW224543   0.031   4.157   4.543
 7882SOL     OW24544   1.537   2.752   2.480
 7882SOL    HW124545   1.562   2.737   2.385
 7882SOL    HW224546   1.455   2.810   2.484
 7883SOL     OW24547   2.004   0.817   1.671
 7883SOL    HW124548   2.010   0.915   1.691
 7883SOL    HW224549   2.031   0.764   1.752
 7884SOL     OW24550   1.389   4.403   3.737
 7884SOL    HW124551   1.317   4.369   3.676
 7884SOL    HW224552   1.383   4.503   3.741
 7885SOL     OW24553   5.974   5.474   2.895
 7885SOL    HW124554   5.911   5.410   2.852
 7885SOL    HW224555   5.951   5.567   2.867
 7886SOL     OW24556   5.201   3.689   1.218
 7886SOL    HW124557   5.261   3.611   1.201
 7886SOL    HW224558   5.174   3.730   1.132
 7887SOL     OW24559   3.202   2.964   5.421
 7887SOL    HW124560   3.226   3.032   5.351
 7887SOL    HW224561   3.284   2.915   5.450
 7888SOL     OW24562   6.979   1.800   4.075
 7888SOL    HW124563   6.972   1.707   4.039
 7888SOL    HW224564   6.898   1.853   4.048
 7889SOL     OW24565   6.938   5.326   0.171
 7889SOL    HW124566   6.931   5.228   0.152
 7889SOL    HW224567   7.017   5.342   0.231
 7890SOL     OW24568   1.448   2.768   4.135
 7890SOL    HW124569   1.413   2.796   4.045
 7890SOL    HW224570   1.522   2.830   4.162
 7891SOL     OW24571   0.669   3.042   4.092
 7891SOL    HW124572   0.639   2.949   4.068
 7891SOL    HW224573   0.637   3.064   4.184
 7892SOL     OW24574   1.602   2.042   4.297
 7892SOL    HW124575   1.520   1.984   4.291
 7892SOL    HW224576   1.580   2.125   4.349
 7893SOL     OW24577   6.275   6.376   1.809
 7893SOL    HW124578   6.324   6.290   1.797
 7893SOL    HW224579   6.212   6.369   1.886
 7894SOL     OW24580   2.408   1.785   0.011
 7894SOL    HW124581   2.461   1.704   7.014
 7894SOL    HW224582   2.411   1.849   6.960
 7895SOL     OW24583   3.889   5.794   4.328
 7895SOL    HW124584   3.822   5.768   4.397
 7895SOL    HW224585   3.843   5.813   4.241
 7896SOL     OW24586   4.457   3.298   1.397
 7896SOL    HW124587   4.526   3.306   1.469
 7896SOL    HW224588   4.392   3.226   1.420
 7897SOL     OW24589   3.329   4.278   6.537
 7897SOL    HW124590   3.269   4.252   6.612
 7897SOL    HW224591   3.395   4.346   6.569
 7898SOL     OW24592   4.958   0.092   4.412
 7898SOL    HW124593   4.879   0.110   4.354
 7898SOL    HW224594   5.000   0.006   4.385
 7899SOL     OW24595   5.642   5.676   1.584
 7899SOL    HW124596   5.566   5.614   1.566
 7899SOL    HW224597   5.641   5.704   1.680
 7900SOL     OW24598   0.231   3.895   0.509
 7900SOL    HW124599   0.290   3.973   0.489
 7900SOL    HW224600   0.192   3.906   0.601
 7901SOL     OW24601   5.189   1.250   5.802
 7901SOL    HW124602   5.220   1.344   5.789
 7901SOL    HW224603   5.124   1.246   5.877
 7902SOL     OW24604   0.212   6.212   3.340
 7902SOL    HW124605   0.130   6.201   3.395
 7902SOL    HW224606   0.245   6.307   3.348
 7903SOL     OW24607   3.902   1.771   3.987
 7903SOL    HW124608   3.947   1.707   3.925
 7903SOL    HW224609   3.805   1.777   3.962
 7904SOL     OW24610   5.924   0.479   2.959
 7904SOL    HW124611   5.857   0.425   2.908
 7904SOL    HW224612   5.907   0.577   2.942
 7905SOL     OW24613   5.293   0.721   0.517
 7905SOL    HW124614   5.254   0.720   0.609
 7905SOL    HW224615   5.223   0.748   0.451
 7906SOL     OW24616   1.479   4.691   1.207
 7906SOL    HW124617   1.451   4.633   1.131
 7906SOL    HW224618   1.546   4.643   1.263
 7907SOL     OW24619   5.845   0.503   3.249
 7907SOL    HW124620   5.883   0.522   3.158
 7907SOL    HW224621   5.866   0.409   3.275
 7908SOL     OW24622   0.765   2.214   6.552
 7908SOL    HW124623   0.761   2.184   6.647
 7908SOL    HW224624   0.735   2.139   6.493
 7909SOL     OW24625   5.110   4.376   3.107
 7909SOL    HW124626   5.164   4.343   3.029
 7909SOL    HW224627   5.085   4.298   3.164
 7910SOL     OW24628   1.406   3.264   1.160
 7910SOL    HW124629   1.482   3.210   1.124
 7910SOL    HW224630   1.329   3.260   1.097
 7911SOL     OW24631   0.858   4.010   1.198
 7911SOL    HW124632   0.841   3.955   1.280
 7911SOL    HW224633   0.948   3.988   1.160
 7912SOL     OW24634   5.450   5.331   0.601
 7912SOL    HW124635   5.397   5.302   0.681
 7912SOL    HW224636   5.462   5.430   0.603
 7913SOL     OW24637   2.136   4.191   0.895
 7913SOL    HW124638   2.112   4.261   0.828
 7913SOL    HW224639   2.126   4.100   0.855
 7914SOL     OW24640   0.069   5.467   6.545
 7914SOL    HW124641   0.116   5.435   6.627
 7914SOL    HW224642   0.106   5.555   6.517
 7915SOL     OW24643   3.857   1.395   3.018
 7915SOL    HW124644   3.758   1.379   3.014
 7915SOL    HW224645   3.897   1.339   3.090
 7916SOL     OW24646   0.276   0.632   4.334
 7916SOL    HW124647   0.305   0.566   4.402
 7916SOL    HW224648   0.258   0.586   4.247
 7917SOL     OW24649   4.194   2.503   6.260
 7917SOL    HW124650   4.191   2.424   6.321
 7917SOL    HW224651   4.209   2.586   6.314
 7918SOL     OW24652   1.252   1.161   4.999
 7918SOL    HW124653   1.306   1.220   4.939
 7918SOL    HW224654   1.192   1.103   4.944
 7919SOL     OW24655   1.190   5.153   2.832
 7919SOL    HW124656   1.196   5.248   2.861
 7919SOL    HW224657   1.097   5.119   2.847
 7920SOL     OW24658   4.744   0.988   1.550
 7920SOL    HW124659   4.812   0.914   1.551
 7920SOL    HW224660   4.738   1.029   1.641
 7921SOL     OW24661   5.674   1.632   1.229
 7921SOL    HW124662   5.629   1.672   1.309
 7921SOL    HW224663   5.770   1.660   1.228
 7922SOL     OW24664   0.536   6.618   6.899
 7922SOL    HW124665   0.508   6.709   6.928
 7922SOL    HW224666   0.461   6.553   6.916
 7923SOL     OW24667   2.698   2.241   6.446
 7923SOL    HW124668   2.753   2.318   6.481
 7923SOL    HW224669   2.708   2.163   6.508
 7924SOL     OW24670   5.643   6.767   1.219
 7924SOL    HW124671   5.619   6.834   1.150
 7924SOL    HW224672   5.561   6.739   1.269
 7925SOL     OW24673   2.591   6.594   0.773
 7925SOL    HW124674   2.630   6.570   0.862
 7925SOL    HW224675   2.498   6.557   0.767
 7926SOL     OW24676   5.430   1.162   6.518
 7926SOL    HW124677   5.474   1.084   6.475
 7926SOL    HW224678   5.479   1.246   6.493
 7927SOL     OW24679   5.161   6.982   2.483
 7927SOL    HW124680   5.152   7.012   2.388
 7927SOL    HW224681   5.093   0.003   2.540
 7928SOL     OW24682   6.857   1.189   3.197
 7928SOL    HW124683   6.892   1.194   3.104
 7928SOL    HW224684   6.776   1.131   3.199
 7929SOL     OW24685   4.332   4.013   6.838
 7929SOL    HW124686   4.235   3.990   6.827
 7929SOL    HW224687   4.366   4.057   6.754
 7930SOL     OW24688   3.516   5.322   5.941
 7930SOL    HW124689   3.557   5.336   5.851
 7930SOL    HW224690   3.586   5.288   6.004
 7931SOL     OW24691   3.061   2.803   0.771
 7931SOL    HW124692   3.033   2.895   0.800
 7931SOL    HW224693   3.011   2.778   0.688
 7932SOL     OW24694   6.997   5.079   0.903
 7932SOL    HW124695   0.066   5.044   0.906
 7932SOL    HW224696   6.994   5.163   0.849
 7933SOL     OW24697   6.579   0.824   5.835
 7933SOL    HW124698   6.592   0.764   5.914
 7933SOL    HW224699   6.667   0.864   5.810
 7934SOL     OW24700   1.632   4.900   0.563
 7934SOL    HW124701   1.565   4.932   0.630
 7934SOL    HW224702   1.584   4.864   0.483
 7935SOL     OW24703   5.211   4.369   2.464
 7935SOL    HW124704   5.123   4.332   2.493
 7935SOL    HW224705   5.274   4.372   2.541
 7936SOL     OW24706   2.634   6.021   3.805
 7936SOL    HW124707   2.556   6.063   3.758
 7936SOL    HW224708   2.712   6.083   3.801
 7937SOL     OW24709   1.569   5.651   4.595
 7937SOL    HW124710   1.552   5.706   4.513
 7937SOL    HW224711   1.531   5.560   4.582
 7938SOL     OW24712   5.396   7.023   5.800
 7938SOL    HW124713   5.480   7.022   5.854
 7938SOL    HW224714   5.360   6.930   5.794
 7939SOL     OW24715   0.471   1.877   5.336
 7939SOL    HW124716   0.391   1.824   5.364
 7939SOL    HW224717   0.552   1.841   5.383
 7940SOL     OW24718   3.540   1.877   2.126
 7940SOL    HW124719   3.578   1.943   2.190
 7940SOL    HW224720   3.527   1.921   2.037
 7941SOL     OW24721   4.423   6.527   3.084
 7941SOL    HW124722   4.508   6.556   3.039
 7941SOL    HW224723   4.439   6.518   3.183
 7942SOL     OW24724   0.851   2.481   2.269
 7942SOL    HW124725   0.906   2.428   2.333
 7942SOL    HW224726   0.908   2.550   2.224
 7943SOL     OW24727   1.304   4.747   5.673
 7943SOL    HW124728   1.258   4.810   5.609
 7943SOL    HW224729   1.354   4.801   5.742
 7944SOL     OW24730   0.812   2.232   1.991
 7944SOL    HW124731   0.909   2.222   2.011
 7944SOL    HW224732   0.797   2.315   1.937
 7945SOL     OW24733   6.375   5.066   2.787
 7945SOL    HW124734   6.380   5.164   2.806
 7945SOL    HW224735   6.468   5.030   2.777
 7946SOL     OW24736   3.952   0.262   5.581
 7946SOL    HW124737   3.933   0.356   5.554
 7946SOL    HW224738   3.974   0.207   5.501
 7947SOL     OW24739   2.092   2.393   4.946
 7947SOL    HW124740   2.060   2.480   4.911
 7947SOL    HW224741   2.184   2.374   4.911
 7948SOL     OW24742   1.167   4.881   1.645
 7948SOL    HW124743   1.220   4.961   1.675
 7948SOL    HW224744   1.214   4.838   1.567
 7949SOL     OW24745   4.272   4.454   5.870
 7949SOL    HW124746   4.290   4.550   5.852
 7949SOL    HW224747   4.186   4.444   5.921
 7950SOL     OW24748   5.847   6.051   5.520
 7950SOL    HW124749   5.901   6.128   5.555
 7950SOL    HW224750   5.750   6.067   5.541
 7951SOL     OW24751   2.128   4.789   3.023
 7951SOL    HW124752   2.039   4.834   3.009
 7951SOL    HW224753   2.201   4.856   3.011
 7952SOL     OW24754   6.413   3.254   6.716
 7952SOL    HW124755   6.488   3.270   6.780
 7952SOL    HW224756   6.369   3.341   6.693
 7953SOL     OW24757   4.398   1.910   1.043
 7953SOL    HW124758   4.382   1.816   1.073
 7953SOL    HW224759   4.360   1.923   0.952
 7954SOL     OW24760   4.345   3.732   6.315
 7954SOL    HW124761   4.418   3.796   6.290
 7954SOL    HW224762   4.258   3.780   6.318
 7955SOL     OW24763   2.180   1.559   6.058
 7955SOL    HW124764   2.202   1.621   6.133
 7955SOL    HW224765   2.099   1.593   6.009
 7956SOL     OW24766   5.787   1.632   1.660
 7956SOL    HW124767   5.886   1.619   1.653
 7956SOL    HW224768   5.742   1.543   1.650
 7957SOL     OW24769   3.612   0.572   6.019
 7957SOL    HW124770   3.594   0.590   6.115
 7957SOL    HW224771   3.552   0.629   5.963
 7958SOL     OW24772   5.735   4.584   6.467
 7958SOL    HW124773   5.700   4.493   6.448
 7958SOL    HW224774   5.669   4.635   6.522
 7959SOL     OW24775   4.968   0.601   6.492
 7959SOL    HW124776   5.025   0.678   6.464
 7959SOL    HW224777   4.873   0.621   6.471
 7960SOL     OW24778   0.545   1.546   6.464
 7960SOL    HW124779   0.580   1.629   6.507
 7960SOL    HW224780   0.556   1.553   6.365
 7961SOL     OW24781   6.791   6.963   0.778
 7961SOL    HW124782   6.786   6.868   0.807
 7961SOL    HW224783   6.757   6.971   0.684
 7962SOL     OW24784   6.894   1.722   6.207
 7962SOL    HW124785   6.950   1.648   6.169
 7962SOL    HW224786   6.947   1.773   6.275
 7963SOL     OW24787   6.275   4.811   4.053
 7963SOL    HW124788   6.349   4.774   3.997
 7963SOL    HW224789   6.271   4.910   4.043
 7964SOL     OW24790   6.886   2.726   1.804
 7964SOL    HW124791   6.850   2.636   1.778
 7964SOL    HW224792   6.812   2.782   1.841
 7965SOL     OW24793   4.600   2.830   0.177
 7965SOL    HW124794   4.530   2.793   0.238
 7965SOL    HW224795   4.657   2.755   0.142
 7966SOL     OW24796   4.255   3.783   5.927
 7966SOL    HW124797   4.305   3.869   5.941
 7966SOL    HW224798   4.187   3.771   6.000
 7967SOL     OW24799   2.030   5.212   2.399
 7967SOL    HW124800   2.061   5.170   2.314
 7967SOL    HW224801   1.950   5.163   2.433
 7968SOL     OW24802   6.339   2.135   5.007
 7968SOL    HW124803   6.429   2.168   5.034
 7968SOL    HW224804   6.293   2.204   4.951
 7969SOL     OW24805   4.802   6.074   0.370
 7969SOL    HW124806   4.726   6.066   0.435
 7969SOL    HW224807   4.881   6.114   0.416
 7970SOL     OW24808   5.804   2.588   2.655
 7970SOL    HW124809   5.902   2.576   2.642
 7970SOL    HW224810   5.757   2.503   2.631
 7971SOL     OW24811   2.985   1.472   1.557
 7971SOL    HW124812   3.084   1.479   1.571
 7971SOL    HW224813   2.954   1.380   1.582
 7972SOL     OW24814   3.223   3.095   1.720
 7972SOL    HW124815   3.241   3.034   1.643
 7972SOL    HW224816   3.153   3.161   1.695
 7973SOL     OW24817   5.416   4.070   4.119
 7973SOL    HW124818   5.364   4.134   4.063
 7973SOL    HW224819   5.448   3.994   4.062
 7974SOL     OW24820   6.276   1.205   4.893
 7974SOL    HW124821   6.312   1.292   4.927
 7974SOL    HW224822   6.265   1.210   4.794
 7975SOL     OW24823   4.403   0.297   0.460
 7975SOL    HW124824   4.383   0.200   0.476
 7975SOL    HW224825   4.423   0.311   0.363
 7976SOL     OW24826   0.827   0.046   5.950
 7976SOL    HW124827   0.842   6.988   5.897
 7976SOL    HW224828   0.914   0.094   5.960
 7977SOL     OW24829   6.051   6.004   2.496
 7977SOL    HW124830   6.040   5.992   2.594
 7977SOL    HW224831   5.982   6.067   2.461
 7978SOL     OW24832   0.527   3.520   6.818
 7978SOL    HW124833   0.624   3.526   6.795
 7978SOL    HW224834   0.512   3.442   6.878
 7979SOL     OW24835   2.035   4.378   5.860
 7979SOL    HW124836   2.026   4.352   5.956
 7979SOL    HW224837   2.102   4.319   5.815
 7980SOL     OW24838   3.330   5.570   6.228
 7980SOL    HW124839   3.408   5.550   6.168
 7980SOL    HW224840   3.295   5.484   6.265
 7981SOL     OW24841   1.061   4.952   1.966
 7981SOL    HW124842   1.063   4.866   2.018
 7981SOL    HW224843   1.017   4.937   1.878
 7982SOL     OW24844   1.626   1.619   5.947
 7982SOL    HW124845   1.606   1.590   5.853
 7982SOL    HW224846   1.615   1.718   5.954
 7983SOL     OW24847   5.533   1.421   1.358
 7983SOL    HW124848   5.448   1.440   1.408
 7983SOL    HW224849   5.551   1.495   1.294
 7984SOL     OW24850   0.819   1.529   0.722
 7984SOL    HW124851   0.854   1.612   0.763
 7984SOL    HW224852   0.831   1.452   0.785
 7985SOL     OW24853   2.719   2.071   4.584
 7985SOL    HW124854   2.723   1.985   4.532
 7985SOL    HW224855   2.772   2.141   4.537
 7986SOL     OW24856   4.063   1.520   5.648
 7986SOL    HW124857   4.023   1.597   5.599
 7986SOL    HW224858   3.997   1.445   5.652
 7987SOL     OW24859   2.492   3.927   0.927
 7987SOL    HW124860   2.585   3.965   0.916
 7987SOL    HW224861   2.472   3.916   1.024
 7988SOL     OW24862   0.619   0.568   1.395
 7988SOL    HW124863   0.533   0.530   1.426
 7988SOL    HW224864   0.611   0.596   1.299
 7989SOL     OW24865   1.791   4.091   6.985
 7989SOL    HW124866   1.877   4.142   6.976
 7989SOL    HW224867   1.811   3.994   6.999
 7990SOL     OW24868   2.619   6.057   4.399
 7990SOL    HW124869   2.558   6.065   4.321
 7990SOL    HW224870   2.637   5.961   4.418
 7991SOL     OW24871   5.294   1.854   4.407
 7991SOL    HW124872   5.252   1.766   4.385
 7991SOL    HW224873   5.224   1.925   4.407
 7992SOL     OW24874   2.426   0.342   0.364
 7992SOL    HW124875   2.457   0.437   0.365
 7992SOL    HW224876   2.346   0.334   0.304
 7993SOL     OW24877   0.241   6.857   2.072
 7993SOL    HW124878   0.142   6.849   2.084
 7993SOL    HW224879   0.263   6.944   2.029
 7994SOL     OW24880   4.831   0.567   2.852
 7994SOL    HW124881   4.908   0.526   2.899
 7994SOL    HW224882   4.793   0.640   2.909
 7995SOL     OW24883   5.719   4.319   2.845
 7995SOL    HW124884   5.665   4.317   2.929
 7995SOL    HW224885   5.659   4.306   2.767
 7996SOL     OW24886   4.324   0.139   3.920
 7996SOL    HW124887   4.264   0.203   3.969
 7996SOL    HW224888   4.347   0.177   3.831
 7997SOL     OW24889   0.264   1.974   0.201
 7997SOL    HW124890   0.264   2.074   0.196
 7997SOL    HW224891   0.195   1.943   0.266
 7998SOL     OW24892   2.545   6.790   0.136
 7998SOL    HW124893   2.461   6.736   0.144
 7998SOL    HW224894   2.615   6.737   0.088
 7999SOL     OW24895   1.301   1.598   5.946
 7999SOL    HW124896   1.367   1.528   5.922
 7999SOL    HW224897   1.342   1.664   6.008
 8000SOL     OW24898   6.072   0.196   6.418
 8000SOL    HW124899   6.018   0.268   6.461
 8000SOL    HW224900   6.082   0.215   6.320
 8001SOL     OW24901   4.321   6.348   1.671
 8001SOL    HW124902   4.378   6.275   1.633
 8001SOL    HW224903   4.301   6.415   1.599
 8002SOL     OW24904   0.498   1.664   5.714
 8002SOL    HW124905   0.519   1.598   5.787
 8002SOL    HW224906   0.539   1.633   5.628
 8003SOL     OW24907   1.872   6.467   2.088
 8003SOL    HW124908   1.814   6.496   2.011
 8003SOL    HW224909   1.963   6.508   2.078
 8004SOL     OW24910   2.016   3.053   3.604
 8004SOL    HW124911   2.015   2.988   3.528
 8004SOL    HW224912   1.982   3.142   3.573
 8005SOL     OW24913   2.739   0.415   3.644
 8005SOL    HW124914   2.706   0.322   3.630
 8005SOL    HW224915   2.836   0.412   3.669
 8006SOL     OW24916   3.209   5.676   5.633
 8006SOL    HW124917   3.255   5.654   5.719
 8006SOL    HW224918   3.175   5.592   5.591
 8007SOL     OW24919   5.430   1.776   6.425
 8007SOL    HW124920   5.468   1.701   6.479
 8007SOL    HW224921   5.490   1.856   6.431
 8008SOL     OW24922   3.259   5.948   0.107
 8008SOL    HW124923   3.303   5.980   0.023
 8008SOL    HW224924   3.182   6.008   0.129
 8009SOL     OW24925   4.500   1.100   1.201
 8009SOL    HW124926   4.440   1.155   1.258
 8009SOL    HW224927   4.563   1.160   1.151
 8010SOL     OW24928   3.021   2.559   5.362
 8010SOL    HW124929   3.109   2.535   5.322
 8010SOL    HW224930   3.011   2.659   5.363
 8011SOL     OW24931   3.817   1.922   1.898
 8011SOL    HW124932   3.788   2.014   1.874
 8011SOL    HW224933   3.909   1.924   1.937
 8012SOL     OW24934   0.690   2.901   6.555
 8012SOL    HW124935   0.785   2.879   6.580
 8012SOL    HW224936   0.689   2.980   6.494
 8013SOL     OW24937   0.696   2.883   3.418
 8013SOL    HW124938   0.685   2.888   3.517
 8013SOL    HW224939   0.738   2.967   3.384
 8014SOL     OW24940   1.804   0.626   3.990
 8014SOL    HW124941   1.836   0.540   4.030
 8014SOL    HW224942   1.771   0.686   4.064
 8015SOL     OW24943   2.139   0.017   6.058
 8015SOL    HW124944   2.196   0.096   6.079
 8015SOL    HW224945   2.195   6.972   6.014
 8016SOL     OW24946   3.994   1.283   4.955
 8016SOL    HW124947   3.902   1.246   4.942
 8016SOL    HW224948   4.056   1.210   4.984
 8017SOL     OW24949   6.669   6.957   6.874
 8017SOL    HW124950   6.664   0.010   6.812
 8017SOL    HW224951   6.636   6.985   6.964
 8018SOL     OW24952   3.576   2.699   0.035
 8018SOL    HW124953   3.656   2.654   0.074
 8018SOL    HW224954   3.528   2.751   0.105
 8019SOL     OW24955   2.400   3.691   0.783
 8019SOL    HW124956   2.394   3.772   0.841
 8019SOL    HW224957   2.396   3.609   0.840
 8020SOL     OW24958   5.934   0.545   6.217
 8020SOL    HW124959   6.023   0.567   6.257
 8020SOL    HW224960   5.931   0.449   6.190
 8021SOL     OW24961   2.098   2.517   1.277
 8021SOL    HW124962   2.089   2.436   1.336
 8021SOL    HW224963   2.095   2.489   1.181
 8022SOL     OW24964   6.058   0.453   1.971
 8022SOL    HW124965   5.958   0.444   1.965
 8022SOL    HW224966   6.096   0.374   2.019
 8023SOL     OW24967   5.846   5.277   2.754
 8023SOL    HW124968   5.831   5.287   2.655
 8023SOL    HW224969   5.853   5.180   2.777
 8024SOL     OW24970   1.369   5.933   6.171
 8024SOL    HW124971   1.386   5.896   6.079
 8024SOL    HW224972   1.308   6.012   6.164
 8025SOL     OW24973   1.500   4.983   1.097
 8025SOL    HW124974   1.506   4.884   1.114
 8025SOL    HW224975   1.592   5.020   1.089
 8026SOL     OW24976   6.810   4.638   0.641
 8026SOL    HW124977   6.904   4.672   0.640
 8026SOL    HW224978   6.809   4.539   0.627
 8027SOL     OW24979   3.487   6.674   5.145
 8027SOL    HW124980   3.387   6.677   5.141
 8027SOL    HW224981   3.521   6.604   5.083
 8028SOL     OW24982   2.444   6.068   4.180
 8028SOL    HW124983   2.390   5.999   4.227
 8028SOL    HW224984   2.383   6.135   4.137
 8029SOL     OW24985   4.990   2.184   1.671
 8029SOL    HW124986   5.082   2.219   1.655
 8029SOL    HW224987   4.940   2.246   1.732
 8030SOL     OW24988   5.918   5.300   0.599
 8030SOL    HW124989   5.925   5.395   0.568
 8030SOL    HW224990   5.884   5.299   0.693
 8031SOL     OW24991   6.198   6.713   3.250
 8031SOL    HW124992   6.180   6.690   3.154
 8031SOL    HW224993   6.212   6.628   3.302
 8032SOL     OW24994   4.849   3.378   1.507
 8032SOL    HW124995   4.944   3.406   1.495
 8032SOL    HW224996   4.823   3.388   1.603
 8033SOL     OW24997   4.390   3.641   6.979
 8033SOL    HW124998   4.298   3.643   6.941
 8033SOL    HW224999   4.387   3.670   0.049
 8034SOL     OW25000   5.349   0.286   5.874
 8034SOL    HW125001   5.354   0.214   5.944
 8034SOL    HW225002   5.268   0.272   5.817
 8035SOL     OW25003   4.592   0.851   2.087
 8035SOL    HW125004   4.675   0.905   2.102
 8035SOL    HW225005   4.518   0.888   2.143
 8036SOL     OW25006   6.987   3.040   3.508
 8036SOL    HW125007   0.056   3.042   3.474
 8036SOL    HW225008   6.942   3.127   3.487
 8037SOL     OW25009   1.263   3.219   0.035
 8037SOL    HW125010   1.253   3.123   0.061
 8037SOL    HW225011   1.245   3.229   6.962
 8038SOL     OW25012   5.379   6.174   2.156
 8038SOL    HW125013   5.286   6.152   2.183
 8038SOL    HW225014   5.389   6.274   2.149
 8039SOL     OW25015   0.388   2.412   5.030
 8039SOL    HW125016   0.317   2.387   5.096
 8039SOL    HW225017   0.461   2.343   5.033
 8040SOL     OW25018   1.857   6.177   6.989
 8040SOL    HW125019   1.802   6.218   0.037
 8040SOL    HW225020   1.887   6.249   6.926
 8041SOL     OW25021   3.214   1.337   2.597
 8041SOL    HW125022   3.128   1.369   2.637
 8041SOL    HW225023   3.218   1.363   2.501
 8042SOL     OW25024   4.321   4.197   5.342
 8042SOL    HW125025   4.247   4.204   5.275
 8042SOL    HW225026   4.383   4.123   5.316
 8043SOL     OW25027   4.004   4.840   0.418
 8043SOL    HW125028   3.974   4.851   0.513
 8043SOL    HW225029   3.943   4.778   0.370
 8044SOL     OW25030   3.085   3.115   0.826
 8044SOL    HW125031   3.047   3.130   0.917
 8044SOL    HW225032   3.184   3.131   0.828
 8045SOL     OW25033   6.930   1.982   2.661
 8045SOL    HW125034   6.898   1.888   2.665
 8045SOL    HW225035   0.003   1.984   2.683
 8046SOL     OW25036   0.666   5.147   2.293
 8046SOL    HW125037   0.745   5.147   2.231
 8046SOL    HW225038   0.688   5.095   2.376
 8047SOL     OW25039   3.782   6.988   6.878
 8047SOL    HW125040   3.706   6.961   6.938
 8047SOL    HW225041   3.859   7.020   6.934
 8048SOL     OW25042   3.710   3.173   6.656
 8048SOL    HW125043   3.627   3.228   6.646
 8048SOL    HW225044   3.790   3.230   6.640
 8049SOL     OW25045   1.196   6.651   0.168
 8049SOL    HW125046   1.270   6.710   0.133
 8049SOL    HW225047   1.205   6.642   0.267
 8050SOL     OW25048   2.106   3.560   4.740
 8050SOL    HW125049   2.082   3.584   4.646
 8050SOL    HW225050   2.030   3.509   4.781
 8051SOL     OW25051   4.684   5.535   4.167
 8051SOL    HW125052   4.669   5.504   4.261
 8051SOL    HW225053   4.741   5.617   4.169
 8052SOL     OW25054   2.350   2.100   2.169
 8052SOL    HW125055   2.441   2.083   2.130
 8052SOL    HW225056   2.281   2.060   2.109
 8053SOL     OW25057   2.987   2.826   5.353
 8053SOL    HW125058   3.070   2.856   5.400
 8053SOL    HW225059   2.931   2.906   5.331
 8054SOL     OW25060   5.695   3.798   5.018
 8054SOL    HW125061   5.749   3.762   4.941
 8054SOL    HW225062   5.683   3.896   5.007
 8055SOL     OW25063   0.317   1.309   5.371
 8055SOL    HW125064   0.230   1.268   5.341
 8055SOL    HW225065   0.367   1.244   5.427
 8056SOL     OW25066   3.375   6.667   3.652
 8056SOL    HW125067   3.308   6.672   3.577
 8056SOL    HW225068   3.459   6.625   3.618
 8057SOL     OW25069   2.613   2.095   2.095
 8057SOL    HW125070   2.607   2.046   2.008
 8057SOL    HW225071   2.661   2.182   2.080
 8058SOL     OW25072   3.211   6.419   2.931
 8058SOL    HW125073   3.223   6.514   2.961
 8058SOL    HW225074   3.121   6.409   2.889
 8059SOL     OW25075   2.869   0.838   5.779
 8059SOL    HW125076   2.892   0.779   5.702
 8059SOL    HW225077   2.813   0.915   5.746
 8060SOL     OW25078   0.177   1.674   6.369
 8060SOL    HW125079   0.261   1.727   6.352
 8060SOL    HW225080   0.098   1.734   6.356
 8061SOL     OW25081   0.211   0.821   2.979
 8061SOL    HW125082   0.241   0.759   2.907
 8061SOL    HW225083   0.119   0.796   3.010
 8062SOL     OW25084   4.258   5.318   4.795
 8062SOL    HW125085   4.352   5.319   4.827
 8062SOL    HW225086   4.196   5.319   4.874
 8063SOL     OW25087   2.779   1.494   2.841
 8063SOL    HW125088   2.742   1.571   2.789
 8063SOL    HW225089   2.729   1.485   2.928
 8064SOL     OW25090   6.339   3.163   7.021
 8064SOL    HW125091   6.391   3.091   6.976
 8064SOL    HW225092   6.401   3.230   0.036
 8065SOL     OW25093   3.721   6.964   4.542
 8065SOL    HW125094   3.729   6.872   4.580
 8065SOL    HW225095   3.796   7.021   4.576
 8066SOL     OW25096   6.478   0.248   4.338
 8066SOL    HW125097   6.520   0.297   4.262
 8066SOL    HW225098   6.437   0.163   4.305
 8067SOL     OW25099   5.056   2.364   3.756
 8067SOL    HW125100   5.092   2.349   3.849
 8067SOL    HW225101   5.073   2.283   3.701
 8068SOL     OW25102   0.604   4.830   0.899
 8068SOL    HW125103   0.585   4.885   0.817
 8068SOL    HW225104   0.597   4.888   0.980
 8069SOL     OW25105   2.617   5.040   1.960
 8069SOL    HW125106   2.677   4.963   1.939
 8069SOL    HW225107   2.648   5.121   1.910
 8070SOL     OW25108   4.078   3.404   0.970
 8070SOL    HW125109   4.084   3.459   1.054
 8070SOL    HW225110   4.169   3.383   0.937
 8071SOL     OW25111   3.832   6.696   4.869
 8071SOL    HW125112   3.745   6.726   4.828
 8071SOL    HW225113   3.904   6.760   4.843
 8072SOL     OW25114   2.957   2.210   0.781
 8072SOL    HW125115   2.967   2.166   0.871
 8072SOL    HW225116   2.943   2.308   0.793
 8073SOL     OW25117   3.042   6.429   5.079
 8073SOL    HW125118   2.966   6.479   5.038
 8073SOL    HW225119   3.037   6.332   5.053
 8074SOL     OW25120   2.720   1.152   1.115
 8074SOL    HW125121   2.780   1.228   1.143
 8074SOL    HW225122   2.738   1.130   1.019
 8075SOL     OW25123   0.382   6.860   0.701
 8075SOL    HW125124   0.452   6.798   0.664
 8075SOL    HW225125   0.425   6.927   0.762
 8076SOL     OW25126   0.065   0.504   5.877
 8076SOL    HW125127   7.005   0.486   5.925
 8076SOL    HW225128   0.070   0.448   5.794
 8077SOL     OW25129   3.849   6.068   2.339
 8077SOL    HW125130   3.772   6.079   2.401
 8077SOL    HW225131   3.923   6.130   2.366
 8078SOL     OW25132   0.999   1.750   0.994
 8078SOL    HW125133   0.977   1.755   0.897
 8078SOL    HW225134   1.011   1.843   1.030
 8079SOL     OW25135   6.516   1.384   3.954
 8079SOL    HW125136   6.523   1.423   3.862
 8079SOL    HW225137   6.423   1.397   3.989
 8080SOL     OW25138   1.443   2.815   1.949
 8080SOL    HW125139   1.483   2.878   1.882
 8080SOL    HW225140   1.398   2.740   1.901
 8081SOL     OW25141   6.323   4.999   5.790
 8081SOL    HW125142   6.352   4.972   5.881
 8081SOL    HW225143   6.383   4.957   5.721
 8082SOL     OW25144   3.588   0.509   2.058
 8082SOL    HW125145   3.517   0.572   2.026
 8082SOL    HW225146   3.640   0.474   1.980
 8083SOL     OW25147   5.282   2.968   4.452
 8083SOL    HW125148   5.332   2.969   4.365
 8083SOL    HW225149   5.311   2.889   4.506
 8084SOL     OW25150   2.849   0.854   6.261
 8084SOL    HW125151   2.844   0.754   6.265
 8084SOL    HW225152   2.871   0.889   6.352
 8085SOL     OW25153   6.539   6.535   2.747
 8085SOL    HW125154   6.448   6.524   2.706
 8085SOL    HW225155   6.529   6.555   2.844
 8086SOL     OW25156   0.133   1.230   0.841
 8086SOL    HW125157   0.082   1.223   0.927
 8086SOL    HW225158   0.200   1.155   0.836
 8087SOL     OW25159   1.929   0.499   6.206
 8087SOL    HW125160   1.926   0.400   6.217
 8087SOL    HW225161   1.851   0.540   6.254
 8088SOL     OW25162   5.769   0.357   0.039
 8088SOL    HW125163   5.795   0.383   6.971
 8088SOL    HW225164   5.843   0.302   0.080
 8089SOL     OW25165   5.820   2.948   6.462
 8089SOL    HW125166   5.773   2.871   6.503
 8089SOL    HW225167   5.848   3.013   6.533
 8090SOL     OW25168   4.365   1.407   6.265
 8090SOL    HW125169   4.400   1.441   6.178
 8090SOL    HW225170   4.355   1.307   6.260
 8091SOL     OW25171   1.490   4.588   5.008
 8091SOL    HW125172   1.440   4.589   5.094
 8091SOL    HW225173   1.574   4.642   5.018
 8092SOL     OW25174   4.995   2.005   5.498
 8092SOL    HW125175   5.001   2.060   5.415
 8092SOL    HW225176   5.027   1.912   5.479
 8093SOL     OW25177   2.891   5.222   3.270
 8093SOL    HW125178   2.984   5.254   3.250
 8093SOL    HW225179   2.831   5.300   3.282
 8094SOL     OW25180   0.661   3.090   5.639
 8094SOL    HW125181   0.606   3.136   5.568
 8094SOL    HW225182   0.616   3.100   5.727
 8095SOL     OW25183   0.588   4.782   4.592
 8095SOL    HW125184   0.647   4.859   4.616
 8095SOL    HW225185   0.637   4.696   4.607
 8096SOL     OW25186   2.004   0.421   2.881
 8096SOL    HW125187   2.075   0.441   2.948
 8096SOL    HW225188   1.932   0.367   2.923
 8097SOL     OW25189   4.297   0.244   4.295
 8097SOL    HW125190   4.217   0.295   4.326
 8097SOL    HW225191   4.268   0.152   4.266
 8098SOL     OW25192   2.541   6.476   3.692
 8098SOL    HW125193   2.555   6.563   3.738
 8098SOL    HW225194   2.611   6.463   3.622
 8099SOL     OW25195   4.575   6.260   4.659
 8099SOL    HW125196   4.488   6.309   4.658
 8099SOL    HW225197   4.560   6.164   4.633
 8100SOL     OW25198   6.716   1.568   6.950
 8100SOL    HW125199   6.797   1.522   6.984
 8100SOL    HW225200   6.696   1.538   6.856
 8101SOL     OW25201   1.642   5.294   0.581
 8101SOL    HW125202   1.677   5.259   0.668
 8101SOL    HW225203   1.550   5.260   0.566
 8102SOL     OW25204   0.597   3.805   3.407
 8102SOL    HW125205   0.681   3.800   3.354
 8102SOL    HW225206   0.535   3.732   3.379
 8103SOL     OW25207   3.484   0.175   2.055
 8103SOL    HW125208   3.531   0.253   2.097
 8103SOL    HW225209   3.388   0.198   2.040
 8104SOL     OW25210   1.717   0.169   5.264
 8104SOL    HW125211   1.644   0.101   5.254
 8104SOL    HW225212   1.806   0.124   5.258
 8105SOL     OW25213   0.251   2.622   2.485
 8105SOL    HW125214   0.297   2.648   2.400
 8105SOL    HW225215   0.317   2.579   2.547
 8106SOL     OW25216   2.899   6.360   3.080
 8106SOL    HW125217   2.804   6.341   3.055
 8106SOL    HW225218   2.952   6.380   2.998
 8107SOL     OW25219   1.417   5.814   4.145
 8107SOL    HW125220   1.358   5.866   4.083
 8107SOL    HW225221   1.419   5.718   4.117
 8108SOL     OW25222   6.505   2.031   0.066
 8108SOL    HW125223   6.482   2.105   0.003
 8108SOL    HW225224   6.545   1.955   0.015
 8109SOL     OW25225   0.321   3.677   6.922
 8109SOL    HW125226   0.383   3.607   6.888
 8109SOL    HW225227   0.319   3.754   6.858
 8110SOL     OW25228   3.993   5.067   2.025
 8110SOL    HW125229   3.958   5.056   2.118
 8110SOL    HW225230   4.091   5.045   2.024
 8111SOL     OW25231   4.880   1.009   4.544
 8111SOL    HW125232   4.923   1.096   4.570
 8111SOL    HW225233   4.933   0.966   4.471
 8112SOL     OW25234   2.294   2.603   4.566
 8112SOL    HW125235   2.378   2.605   4.620
 8112SOL    HW225236   2.307   2.543   4.487
 8113SOL     OW25237   6.841   3.723   0.903
 8113SOL    HW125238   6.758   3.719   0.958
 8113SOL    HW225239   6.819   3.759   0.812
 8114SOL     OW25240   1.608   3.613   1.899
 8114SOL    HW125241   1.591   3.703   1.939
 8114SOL    HW225242   1.646   3.552   1.968
 8115SOL     OW25243   3.093   6.415   5.686
 8115SOL    HW125244   3.104   6.316   5.673
 8115SOL    HW225245   3.090   6.435   5.784
 8116SOL     OW25246   4.043   4.777   0.057
 8116SOL    HW125247   4.087   4.689   0.074
 8116SOL    HW225248   4.087   4.848   0.111
 8117SOL     OW25249   2.292   0.245   3.560
 8117SOL    HW125250   2.379   0.238   3.510
 8117SOL    HW225251   2.245   0.329   3.532
 8118SOL     OW25252   5.368   4.212   6.371
 8118SOL    HW125253   5.446   4.275   6.364
 8118SOL    HW225254   5.295   4.242   6.311
 8119SOL     OW25255   5.275   6.606   6.335
 8119SOL    HW125256   5.337   6.608   6.414
 8119SOL    HW225257   5.328   6.583   6.253
 8120SOL     OW25258   2.958   4.960   0.766
 8120SOL    HW125259   2.977   5.026   0.838
 8120SOL    HW225260   3.039   4.949   0.709
 8121SOL     OW25261   0.608   4.942   1.160
 8121SOL    HW125262   0.680   5.009   1.176
 8121SOL    HW225263   0.596   4.885   1.242
 8122SOL     OW25264   0.430   4.261   3.069
 8122SOL    HW125265   0.492   4.265   2.991
 8122SOL    HW225266   0.378   4.346   3.075
 8123SOL     OW25267   0.071   2.034   6.873
 8123SOL    HW125268   0.147   1.985   6.915
 8123SOL    HW225269   0.011   2.069   6.945
 8124SOL     OW25270   5.302   6.214   3.378
 8124SOL    HW125271   5.209   6.176   3.374
 8124SOL    HW225272   5.339   6.221   3.286
 8125SOL     OW25273   0.936   1.008   2.783
 8125SOL    HW125274   0.894   1.046   2.866
 8125SOL    HW225275   0.918   1.070   2.706
 8126SOL     OW25276   4.990   4.750   3.255
 8126SOL    HW125277   4.906   4.803   3.251
 8126SOL    HW225278   4.996   4.692   3.173
 8127SOL     OW25279   2.752   3.296   6.431
 8127SOL    HW125280   2.710   3.224   6.487
 8127SOL    HW225281   2.727   3.283   6.335
 8128SOL     OW25282   3.003   2.119   2.151
 8128SOL    HW125283   2.941   2.102   2.227
 8128SOL    HW225284   2.973   2.200   2.100
 8129SOL     OW25285   3.805   1.714   6.340
 8129SOL    HW125286   3.855   1.653   6.402
 8129SOL    HW225287   3.847   1.805   6.342
 8130SOL     OW25288   0.553   6.237   6.699
 8130SOL    HW125289   0.471   6.293   6.694
 8130SOL    HW225290   0.530   6.146   6.732
 8131SOL     OW25291   2.960   1.501   1.960
 8131SOL    HW125292   2.997   1.457   2.041
 8131SOL    HW225293   3.017   1.578   1.934
 8132SOL     OW25294   5.638   6.330   4.934
 8132SOL    HW125295   5.540   6.343   4.945
 8132SOL    HW225296   5.681   6.316   5.023
 8133SOL     OW25297   3.573   5.286   2.412
 8133SOL    HW125298   3.546   5.354   2.345
 8133SOL    HW225299   3.565   5.195   2.373
 8134SOL     OW25300   7.009   1.896   6.395
 8134SOL    HW125301   6.967   1.951   6.467
 8134SOL    HW225302   0.009   1.954   6.318
 8135SOL     OW25303   1.738   1.230   1.481
 8135SOL    HW125304   1.748   1.330   1.483
 8135SOL    HW225305   1.797   1.192   1.410
 8136SOL     OW25306   5.269   4.959   2.158
 8136SOL    HW125307   5.348   4.937   2.101
 8136SOL    HW225308   5.299   4.983   2.250
 8137SOL     OW25309   3.128   1.574   5.182
 8137SOL    HW125310   3.035   1.539   5.196
 8137SOL    HW225311   3.124   1.666   5.143
 8138SOL     OW25312   5.552   1.102   1.566
 8138SOL    HW125313   5.620   1.109   1.639
 8138SOL    HW225314   5.476   1.164   1.586
 8139SOL     OW25315   0.126   1.170   2.112
 8139SOL    HW125316   0.077   1.083   2.109
 8139SOL    HW225317   0.215   1.159   2.068
 8140SOL     OW25318   5.293   0.768   5.261
 8140SOL    HW125319   5.257   0.723   5.342
 8140SOL    HW225320   5.301   0.701   5.187
 8141SOL     OW25321   4.984   5.196   5.722
 8141SOL    HW125322   4.991   5.288   5.684
 8141SOL    HW225323   5.074   5.154   5.726
 8142SOL     OW25324   6.574   5.331   0.425
 8142SOL    HW125325   6.624   5.272   0.488
 8142SOL    HW225326   6.500   5.377   0.475
 8143SOL     OW25327   6.175   4.759   0.586
 8143SOL    HW125328   6.098   4.776   0.525
 8143SOL    HW225329   6.247   4.826   0.567
 8144SOL     OW25330   5.698   6.688   0.006
 8144SOL    HW125331   5.634   6.764   0.015
 8144SOL    HW225332   5.710   6.665   6.934
 8145SOL     OW25333   5.664   5.741   1.834
 8145SOL    HW125334   5.674   5.839   1.854
 8145SOL    HW225335   5.617   5.696   1.910
 8146SOL     OW25336   3.603   1.449   5.016
 8146SOL    HW125337   3.562   1.521   4.959
 8146SOL    HW225338   3.649   1.492   5.094
 8147SOL     OW25339   5.805   2.350   3.470
 8147SOL    HW125340   5.773   2.302   3.388
 8147SOL    HW225341   5.793   2.448   3.458
 8148SOL     OW25342   5.205   3.833   2.126
 8148SOL    HW125343   5.113   3.792   2.125
 8148SOL    HW225344   5.270   3.769   2.166
 8149SOL     OW25345   2.664   5.376   2.101
 8149SOL    HW125346   2.752   5.334   2.079
 8149SOL    HW225347   2.632   5.341   2.189
 8150SOL     OW25348   6.981   5.140   0.403
 8150SOL    HW125349   6.925   5.147   0.485
 8150SOL    HW225350   0.026   5.211   0.403
 8151SOL     OW25351   0.311   2.416   3.092
 8151SOL    HW125352   0.342   2.322   3.079
 8151SOL    HW225353   0.343   2.449   3.181
 8152SOL     OW25354   0.394   2.300   2.601
 8152SOL    HW125355   0.470   2.332   2.545
 8152SOL    HW225356   0.307   2.325   2.558
 8153SOL     OW25357   3.678   7.000   3.501
 8153SOL    HW125358   3.736   0.040   3.550
 8153SOL    HW225359   3.731   6.956   3.428
 8154SOL     OW25360   1.962   5.825   3.721
 8154SOL    HW125361   1.962   5.826   3.821
 8154SOL    HW225362   1.990   5.735   3.688
 8155SOL     OW25363   2.913   3.583   2.046
 8155SOL    HW125364   2.960   3.505   2.003
 8155SOL    HW225365   2.929   3.580   2.145
 8156SOL     OW25366   5.647   6.932   5.961
 8156SOL    HW125367   5.629   6.942   6.059
 8156SOL    HW225368   5.726   6.988   5.936
 8157SOL     OW25369   5.876   5.632   6.103
 8157SOL    HW125370   5.844   5.691   6.028
 8157SOL    HW225371   5.856   5.676   6.191
 8158SOL     OW25372   0.905   5.622   0.652
 8158SOL    HW125373   0.811   5.623   0.688
 8158SOL    HW225374   0.962   5.683   0.707
 8159SOL     OW25375   2.338   5.785   2.214
 8159SOL    HW125376   2.345   5.869   2.269
 8159SOL    HW225377   2.426   5.768   2.170
 8160SOL     OW25378   4.481   1.494   1.752
 8160SOL    HW125379   4.463   1.530   1.661
 8160SOL    HW225380   4.401   1.509   1.810
 8161SOL     OW25381   5.020   0.446   1.082
 8161SOL    HW125382   4.996   0.442   0.985
 8161SOL    HW225383   5.001   0.358   1.125
 8162SOL     OW25384   6.407   6.894   6.300
 8162SOL    HW125385   6.406   6.991   6.326
 8162SOL    HW225386   6.355   6.842   6.368
 8163SOL     OW25387   2.507   4.285   5.610
 8163SOL    HW125388   2.500   4.260   5.707
 8163SOL    HW225389   2.457   4.218   5.554
 8164SOL     OW25390   5.553   3.558   0.566
 8164SOL    HW125391   5.609   3.515   0.636
 8164SOL    HW225392   5.611   3.611   0.505
 8165SOL     OW25393   1.514   4.459   0.275
 8165SOL    HW125394   1.542   4.471   0.370
 8165SOL    HW225395   1.593   4.469   0.215
 8166SOL     OW25396   1.943   1.067   1.811
 8166SOL    HW125397   1.873   1.094   1.745
 8166SOL    HW225398   2.032   1.103   1.781
 8167SOL     OW25399   5.516   1.630   4.207
 8167SOL    HW125400   5.531   1.660   4.301
 8167SOL    HW225401   5.419   1.638   4.184
 8168SOL     OW25402   3.275   1.999   2.624
 8168SOL    HW125403   3.370   1.989   2.593
 8168SOL    HW225404   3.221   1.921   2.592
 8169SOL     OW25405   4.746   3.173   1.113
 8169SOL    HW125406   4.663   3.158   1.167
 8169SOL    HW225407   4.826   3.150   1.168
 8170SOL     OW25408   1.822   5.816   3.417
 8170SOL    HW125409   1.730   5.786   3.441
 8170SOL    HW225410   1.874   5.833   3.501
 8171SOL     OW25411   0.721   1.763   6.595
 8171SOL    HW125412   0.752   1.764   6.690
 8171SOL    HW225413   0.698   1.856   6.567
 8172SOL     OW25414   0.102   0.932   1.106
 8172SOL    HW125415   0.190   0.980   1.100
 8172SOL    HW225416   0.107   0.847   1.053
 8173SOL     OW25417   3.021   2.148   0.225
 8173SOL    HW125418   2.974   2.066   0.193
 8173SOL    HW225419   3.113   2.151   0.187
 8174SOL     OW25420   5.430   1.761   1.171
 8174SOL    HW125421   5.347   1.736   1.121
 8174SOL    HW225422   5.508   1.712   1.133
 8175SOL     OW25423   0.165   2.971   6.563
 8175SOL    HW125424   0.072   2.947   6.591
 8175SOL    HW225425   0.161   3.049   6.500
 8176SOL     OW25426   2.573   5.686   2.105
 8176SOL    HW125427   2.593   5.589   2.119
 8176SOL    HW225428   2.542   5.700   2.011
 8177SOL     OW25429   1.718   6.067   3.663
 8177SOL    HW125430   1.636   6.118   3.691
 8177SOL    HW225431   1.748   6.099   3.573
 8178SOL     OW25432   1.570   0.150   5.950
 8178SOL    HW125433   1.480   0.108   5.963
 8178SOL    HW225434   1.640   0.089   5.985
 8179SOL     OW25435   3.759   3.483   0.384
 8179SOL    HW125436   3.839   3.425   0.370
 8179SOL    HW225437   3.778   3.575   0.350
 8180SOL     OW25438   6.293   6.804   3.878
 8180SOL    HW125439   6.231   6.867   3.832
 8180SOL    HW225440   6.387   6.829   3.858
 8181SOL     OW25441   2.414   1.883   2.867
 8181SOL    HW125442   2.362   1.924   2.943
 8181SOL    HW225443   2.504   1.925   2.862
 8182SOL     OW25444   3.405   1.789   6.475
 8182SOL    HW125445   3.500   1.761   6.462
 8182SOL    HW225446   3.344   1.720   6.436
 8183SOL     OW25447   0.599   3.098   5.187
 8183SOL    HW125448   0.679   3.053   5.225
 8183SOL    HW225449   0.517   3.063   5.232
 8184SOL     OW25450   6.166   1.340   5.968
 8184SOL    HW125451   6.250   1.380   5.931
 8184SOL    HW225452   6.151   1.375   6.060
 8185SOL     OW25453   2.678   0.385   0.515
 8185SOL    HW125454   2.759   0.360   0.567
 8185SOL    HW225455   2.671   0.327   0.433
 8186SOL     OW25456   3.311   6.307   5.925
 8186SOL    HW125457   3.349   6.225   5.968
 8186SOL    HW225458   3.331   6.387   5.982
 8187SOL     OW25459   1.374   1.689   5.282
 8187SOL    HW125460   1.439   1.707   5.209
 8187SOL    HW225461   1.281   1.696   5.246
 8188SOL     OW25462   4.913   1.906   2.650
 8188SOL    HW125463   4.923   2.001   2.621
 8188SOL    HW225464   4.820   1.891   2.684
 8189SOL     OW25465   4.956   4.317   2.624
 8189SOL    HW125466   4.874   4.282   2.577
 8189SOL    HW225467   4.959   4.416   2.614
 8190SOL     OW25468   5.708   4.371   4.088
 8190SOL    HW125469   5.803   4.351   4.113
 8190SOL    HW225470   5.704   4.461   4.044
 8191SOL     OW25471   2.097   5.400   3.939
 8191SOL    HW125472   2.136   5.487   3.968
 8191SOL    HW225473   2.066   5.348   4.019
 8192SOL     OW25474   3.014   5.487   0.562
 8192SOL    HW125475   2.915   5.480   0.567
 8192SOL    HW225476   3.056   5.409   0.608
 8193SOL     OW25477   6.190   6.305   5.237
 8193SOL    HW125478   6.267   6.271   5.182
 8193SOL    HW225479   6.199   6.403   5.250
 8194SOL     OW25480   6.414   2.674   6.867
 8194SOL    HW125481   6.362   2.626   6.796
 8194SOL    HW225482   6.353   2.733   6.918
 8195SOL     OW25483   0.413   0.427   0.772
 8195SOL    HW125484   0.512   0.435   0.754
 8195SOL    HW225485   0.380   0.513   0.811
 8196SOL     OW25486   4.054   6.508   5.683
 8196SOL    HW125487   3.984   6.448   5.645
 8196SOL    HW225488   4.011   6.591   5.719
 8197SOL     OW25489   6.063   1.235   6.357
 8197SOL    HW125490   6.122   1.155   6.348
 8197SOL    HW225491   6.099   1.309   6.301
 8198SOL     OW25492   2.736   6.605   2.663
 8198SOL    HW125493   2.694   6.684   2.620
 8198SOL    HW225494   2.764   6.628   2.756
 8199SOL     OW25495   0.100   3.766   0.009
 8199SOL    HW125496   0.181   3.722   6.998
 8199SOL    HW225497   0.122   3.860   0.037
 8200SOL     OW25498   4.318   5.024   1.149
 8200SOL    HW125499   4.410   5.036   1.112
 8200SOL    HW225500   4.320   5.034   1.248
 8201SOL     OW25501   4.940   1.241   4.662
 8201SOL    HW125502   5.036   1.221   4.682
 8201SOL    HW225503   4.933   1.334   4.626
 8202SOL     OW25504   1.881   5.178   4.357
 8202SOL    HW125505   1.962   5.153   4.304
 8202SOL    HW225506   1.799   5.168   4.299
 8203SOL     OW25507   4.593   3.641   0.659
 8203SOL    HW125508   4.568   3.569   0.723
 8203SOL    HW225509   4.602   3.728   0.708
 8204SOL     OW25510   3.483   6.506   1.405
 8204SOL    HW125511   3.565   6.529   1.458
 8204SOL    HW225512   3.496   6.420   1.358
 8205SOL     OW25513   5.631   5.143   1.726
 8205SOL    HW125514   5.698   5.184   1.788
 8205SOL    HW225515   5.566   5.214   1.697
 8206SOL     OW25516   3.449   2.625   6.212
 8206SOL    HW125517   3.448   2.575   6.299
 8206SOL    HW225518   3.537   2.672   6.202
 8207SOL     OW25519   2.952   4.747   5.531
 8207SOL    HW125520   2.976   4.771   5.437
 8207SOL    HW225521   2.858   4.712   5.533
 8208SOL     OW25522   2.510   5.800   1.858
 8208SOL    HW125523   2.421   5.834   1.829
 8208SOL    HW225524   2.569   5.877   1.882
 8209SOL     OW25525   1.321   0.830   5.653
 8209SOL    HW125526   1.364   0.912   5.689
 8209SOL    HW225527   1.362   0.807   5.564
 8210SOL     OW25528   2.767   0.642   0.467
 8210SOL    HW125529   2.726   0.730   0.445
 8210SOL    HW225530   2.706   0.568   0.439
 8211SOL     OW25531   3.653   4.127   4.534
 8211SOL    HW125532   3.742   4.085   4.513
 8211SOL    HW225533   3.652   4.160   4.628
 8212SOL     OW25534   2.501   0.385   0.836
 8212SOL    HW125535   2.415   0.389   0.888
 8212SOL    HW225536   2.575   0.358   0.897
 8213SOL     OW25537   4.356   5.569   3.030
 8213SOL    HW125538   4.338   5.639   3.099
 8213SOL    HW225539   4.370   5.480   3.075
 8214SOL     OW25540   2.457   5.620   4.245
 8214SOL    HW125541   2.433   5.697   4.304
 8214SOL    HW225542   2.397   5.620   4.164
 8215SOL     OW25543   4.182   6.484   6.637
 8215SOL    HW125544   4.265   6.532   6.611
 8215SOL    HW225545   4.117   6.549   6.677
 8216SOL     OW25546   4.906   6.178   3.033
 8216SOL    HW125547   4.899   6.258   2.974
 8216SOL    HW225548   4.854   6.103   2.992
 8217SOL     OW25549   2.294   4.213   3.009
 8217SOL    HW125550   2.238   4.296   3.008
 8217SOL    HW225551   2.261   4.149   2.939
 8218SOL     OW25552   2.012   0.498   4.668
 8218SOL    HW125553   2.086   0.431   4.672
 8218SOL    HW225554   2.042   0.578   4.617
 8219SOL     OW25555   3.434   4.042   1.741
 8219SOL    HW125556   3.461   3.985   1.664
 8219SOL    HW225557   3.337   4.067   1.732
 8220SOL     OW25558   3.360   4.239   5.337
 8220SOL    HW125559   3.288   4.307   5.326
 8220SOL    HW225560   3.343   4.185   5.419
 8221SOL     OW25561   5.911   4.141   3.224
 8221SOL    HW125562   5.954   4.220   3.267
 8221SOL    HW225563   5.966   4.060   3.241
 8222SOL     OW25564   6.187   3.039   1.406
 8222SOL    HW125565   6.204   2.963   1.344
 8222SOL    HW225566   6.104   3.021   1.459
 8223SOL     OW25567   0.070   5.717   5.052
 8223SOL    HW125568   0.009   5.637   5.053
 8223SOL    HW225569   0.033   5.787   5.114
 8224SOL     OW25570   5.089   1.801   0.658
 8224SOL    HW125571   5.142   1.808   0.573
 8224SOL    HW225572   5.056   1.707   0.669
 8225SOL     OW25573   4.167   0.223   0.223
 8225SOL    HW125574   4.087   0.281   0.235
 8225SOL    HW225575   4.154   0.137   0.271
 8226SOL     OW25576   3.591   0.701   7.022
 8226SOL    HW125577   3.655   0.692   0.072
 8226SOL    HW225578   3.598   0.794   6.984
 8227SOL     OW25579   5.317   1.614   2.955
 8227SOL    HW125580   5.243   1.678   2.933
 8227SOL    HW225581   5.294   1.523   2.921
 8228SOL     OW25582   0.527   1.344   5.014
 8228SOL    HW125583   0.433   1.312   5.008
 8228SOL    HW225584   0.574   1.328   4.927
 8229SOL     OW25585   3.581   4.582   1.226
 8229SOL    HW125586   3.663   4.528   1.246
 8229SOL    HW225587   3.607   4.678   1.216
 8230SOL     OW25588   4.477   0.471   5.760
 8230SOL    HW125589   4.522   0.491   5.847
 8230SOL    HW225590   4.523   0.521   5.686
 8231SOL     OW25591   3.419   1.142   2.198
 8231SOL    HW125592   3.451   1.233   2.170
 8231SOL    HW225593   3.341   1.152   2.260
 8232SOL     OW25594   4.146   0.836   2.070
 8232SOL    HW125595   4.093   0.919   2.084
 8232SOL    HW225596   4.220   0.854   2.005
 8233SOL     OW25597   0.584   0.912   5.327
 8233SOL    HW125598   0.663   0.850   5.329
 8233SOL    HW225599   0.589   0.968   5.244
 8234SOL     OW25600   2.696   3.805   6.862
 8234SOL    HW125601   2.777   3.831   6.913
 8234SOL    HW225602   2.616   3.854   6.899
 8235SOL     OW25603   6.849   5.202   6.545
 8235SOL    HW125604   6.884   5.295   6.556
 8235SOL    HW225605   6.792   5.179   6.624
 8236SOL     OW25606   0.286   6.076   6.016
 8236SOL    HW125607   0.227   6.033   5.947
 8236SOL    HW225608   0.380   6.045   6.003
 8237SOL     OW25609   4.759   5.635   6.353
 8237SOL    HW125610   4.729   5.715   6.301
 8237SOL    HW225611   4.859   5.636   6.361
 8238SOL     OW25612   2.355   5.477   0.332
 8238SOL    HW125613   2.404   5.496   0.417
 8238SOL    HW225614   2.410   5.505   0.254
 8239SOL     OW25615   0.715   1.794   4.591
 8239SOL    HW125616   0.787   1.725   4.583
 8239SOL    HW225617   0.664   1.779   4.676
 8240SOL     OW25618   3.746   3.234   4.027
 8240SOL    HW125619   3.707   3.229   3.935
 8240SOL    HW225620   3.676   3.267   4.091
 8241SOL     OW25621   1.496   3.032   6.669
 8241SOL    HW125622   1.578   3.069   6.623
 8241SOL    HW225623   1.488   2.935   6.650
 8242SOL     OW25624   1.110   3.654   4.743
 8242SOL    HW125625   1.061   3.691   4.822
 8242SOL    HW225626   1.048   3.597   4.689
 8243SOL     OW25627   0.689   5.001   6.214
 8243SOL    HW125628   0.781   4.984   6.177
 8243SOL    HW225629   0.696   5.030   6.309
 8244SOL     OW25630   0.832   0.556   3.636
 8244SOL    HW125631   0.795   0.488   3.573
 8244SOL    HW225632   0.765   0.629   3.649
 8245SOL     OW25633   5.130   1.273   4.145
 8245SOL    HW125634   5.195   1.202   4.170
 8245SOL    HW225635   5.180   1.353   4.111
 8246SOL     OW25636   1.348   4.081   6.646
 8246SOL    HW125637   1.311   3.992   6.673
 8246SOL    HW225638   1.444   4.087   6.673
 8247SOL     OW25639   2.870   5.086   3.501
 8247SOL    HW125640   2.878   5.135   3.414
 8247SOL    HW225641   2.877   4.988   3.484
 8248SOL     OW25642   0.321   5.365   3.153
 8248SOL    HW125643   0.391   5.426   3.189
 8248SOL    HW225644   0.364   5.295   3.097
 8249SOL     OW25645   2.175   2.004   5.670
 8249SOL    HW125646   2.272   2.014   5.646
 8249SOL    HW225647   2.119   2.058   5.606
 8250SOL     OW25648   2.254   1.611   0.157
 8250SOL    HW125649   2.281   1.697   0.115
 8250SOL    HW225650   2.163   1.621   0.198
 8251SOL     OW25651   0.061   2.940   5.114
 8251SOL    HW125652   0.132   3.002   5.145
 8251SOL    HW225653   0.089   2.845   5.131
 8252SOL     OW25654   2.200   2.353   6.642
 8252SOL    HW125655   2.143   2.275   6.617
 8252SOL    HW225656   2.147   2.437   6.631
 8253SOL     OW25657   3.649   5.824   6.505
 8253SOL    HW125658   3.703   5.872   6.436
 8253SOL    HW225659   3.562   5.794   6.465
 8254SOL     OW25660   6.017   5.067   0.594
 8254SOL    HW125661   5.973   5.157   0.590
 8254SOL    HW225662   6.082   5.065   0.670
 8255SOL     OW25663   0.468   0.292   5.991
 8255SOL    HW125664   0.526   0.280   5.911
 8255SOL    HW225665   0.391   0.228   5.987
 8256SOL     OW25666   1.328   6.250   2.427
 8256SOL    HW125667   1.251   6.232   2.489
 8256SOL    HW225668   1.392   6.173   2.432
 8257SOL     OW25669   5.548   4.265   4.271
 8257SOL    HW125670   5.577   4.322   4.194
 8257SOL    HW225671   5.520   4.175   4.237
 8258SOL     OW25672   5.672   2.753   1.577
 8258SOL    HW125673   5.593   2.813   1.569
 8258SOL    HW225674   5.641   2.658   1.589
 8259SOL     OW25675   4.294   2.290   4.566
 8259SOL    HW125676   4.320   2.386   4.562
 8259SOL    HW225677   4.339   2.240   4.492
 8260SOL     OW25678   2.512   6.958   0.582
 8260SOL    HW125679   2.455   6.906   0.645
 8260SOL    HW225680   2.478   0.027   0.577
 8261SOL     OW25681   5.696   6.344   2.873
 8261SOL    HW125682   5.736   6.352   2.964
 8261SOL    HW225683   5.707   6.251   2.840
 8262SOL     OW25684   0.542   4.534   0.891
 8262SOL    HW125685   0.575   4.628   0.883
 8262SOL    HW225686   0.619   4.471   0.895
 8263SOL     OW25687   6.790   2.264   6.646
 8263SOL    HW125688   6.784   2.293   6.741
 8263SOL    HW225689   6.736   2.181   6.632
 8264SOL     OW25690   1.917   0.160   2.161
 8264SOL    HW125691   1.944   0.092   2.229
 8264SOL    HW225692   1.818   0.154   2.146
 8265SOL     OW25693   4.738   0.120   1.256
 8265SOL    HW125694   4.706   0.044   1.200
 8265SOL    HW225695   4.700   0.113   1.348
 8266SOL     OW25696   2.598   7.021   3.629
 8266SOL    HW125697   2.634   0.055   3.700
 8266SOL    HW225698   2.673   6.977   3.580
 8267SOL     OW25699   1.172   4.545   2.765
 8267SOL    HW125700   1.247   4.607   2.791
 8267SOL    HW225701   1.209   4.452   2.754
 8268SOL     OW25702   3.389   3.566   6.502
 8268SOL    HW125703   3.375   3.565   6.601
 8268SOL    HW225704   3.439   3.649   6.477
 8269SOL     OW25705   4.397   2.329   3.262
 8269SOL    HW125706   4.479   2.368   3.303
 8269SOL    HW225707   4.346   2.278   3.331
 8270SOL     OW25708   4.047   6.968   5.643
 8270SOL    HW125709   4.029   6.889   5.701
 8270SOL    HW225710   3.961   7.002   5.605
 8271SOL     OW25711   5.067   6.064   4.357
 8271SOL    HW125712   5.075   6.156   4.397
 8271SOL    HW225713   5.015   6.005   4.418
 8272SOL     OW25714   0.627   0.566   1.980
 8272SOL    HW125715   0.662   0.660   1.981
 8272SOL    HW225716   0.598   0.541   2.073
 8273SOL     OW25717   2.180   6.442   0.032
 8273SOL    HW125718   2.106   6.433   6.990
 8273SOL    HW225719   2.223   6.532   0.024
 8274SOL     OW25720   5.076   5.221   0.082
 8274SOL    HW125721   5.153   5.162   0.107
 8274SOL    HW225722   5.014   5.229   0.160
 8275SOL     OW25723   6.835   0.525   3.993
 8275SOL    HW125724   6.889   0.579   4.057
 8275SOL    HW225725   6.797   0.585   3.923
 8276SOL     OW25726   0.040   2.795   6.000
 8276SOL    HW125727   0.074   2.851   6.075
 8276SOL    HW225728   6.968   2.814   5.987
 8277SOL     OW25729   1.426   6.269   5.938
 8277SOL    HW125730   1.467   6.356   5.911
 8277SOL    HW225731   1.497   6.198   5.940
 8278SOL     OW25732   3.798   2.440   6.674
 8278SOL    HW125733   3.763   2.454   6.581
 8278SOL    HW225734   3.804   2.529   6.721
 8279SOL     OW25735   4.530   6.105   6.407
 8279SOL    HW125736   4.567   6.155   6.329
 8279SOL    HW225737   4.500   6.014   6.376
 8280SOL     OW25738   5.227   2.508   0.820
 8280SOL    HW125739   5.200   2.568   0.895
 8280SOL    HW225740   5.281   2.561   0.754
 8281SOL     OW25741   1.376   5.131   0.551
 8281SOL    HW125742   1.377   5.106   0.648
 8281SOL    HW225743   1.315   5.068   0.501
 8282SOL     OW25744   2.725   2.574   1.218
 8282SOL    HW125745   2.717   2.604   1.313
 8282SOL    HW225746   2.788   2.497   1.213
 8283SOL     OW25747   0.576   4.645   4.046
 8283SOL    HW125748   0.585   4.656   4.145
 8283SOL    HW225749   0.480   4.653   4.020
 8284SOL     OW25750   2.604   2.309   2.398
 8284SOL    HW125751   2.640   2.341   2.310
 8284SOL    HW225752   2.510   2.276   2.385
 8285SOL     OW25753   3.023   4.171   5.919
 8285SOL    HW125754   3.109   4.123   5.937
 8285SOL    HW225755   3.020   4.199   5.823
 8286SOL     OW25756   5.264   0.867   4.886
 8286SOL    HW125757   5.291   0.953   4.930
 8286SOL    HW225758   5.345   0.816   4.859
 8287SOL     OW25759   1.226   0.261   3.557
 8287SOL    HW125760   1.222   0.337   3.621
 8287SOL    HW225761   1.226   0.296   3.463
 8288SOL     OW25762   1.934   1.996   2.526
 8288SOL    HW125763   1.875   2.075   2.508
 8288SOL    HW225764   1.994   2.016   2.604
 8289SOL     OW25765   6.159   2.020   5.159
 8289SOL    HW125766   6.219   2.058   5.089
 8289SOL    HW225767   6.205   1.943   5.204
 8290SOL     OW25768   3.659   2.575   1.726
 8290SOL    HW125769   3.672   2.499   1.790
 8290SOL    HW225770   3.615   2.541   1.643
 8291SOL     OW25771   5.789   6.799   6.419
 8291SOL    HW125772   5.800   6.733   6.345
 8291SOL    HW225773   5.871   6.856   6.427
 8292SOL     OW25774   0.912   5.014   5.822
 8292SOL    HW125775   0.881   4.989   5.914
 8292SOL    HW225776   0.895   4.937   5.760
 8293SOL     OW25777   2.889   5.237   2.162
 8293SOL    HW125778   2.890   5.177   2.081
 8293SOL    HW225779   2.936   5.191   2.237
 8294SOL     OW25780   6.998   4.082   6.135
 8294SOL    HW125781   0.030   4.164   6.132
 8294SOL    HW225782   0.002   4.019   6.063
 8295SOL     OW25783   5.201   4.000   2.986
 8295SOL    HW125784   5.159   4.047   2.908
 8295SOL    HW225785   5.136   3.935   3.024
 8296SOL     OW25786   3.131   5.674   0.410
 8296SOL    HW125787   3.084   5.598   0.455
 8296SOL    HW225788   3.065   5.740   0.377
 8297SOL     OW25789   6.817   4.300   2.472
 8297SOL    HW125790   6.771   4.298   2.383
 8297SOL    HW225791   6.831   4.394   2.500
 8298SOL     OW25792   0.931   0.836   0.050
 8298SOL    HW125793   0.930   0.921   0.103
 8298SOL    HW225794   1.011   0.836   7.014
 8299SOL     OW25795   0.122   3.692   2.067
 8299SOL    HW125796   0.041   3.735   2.028
 8299SOL    HW225797   0.196   3.759   2.073
 8300SOL     OW25798   6.489   4.996   3.924
 8300SOL    HW125799   6.520   4.909   3.964
 8300SOL    HW225800   6.484   4.987   3.825
 8301SOL     OW25801   3.439   6.864   0.255
 8301SOL    HW125802   3.402   6.866   0.348
 8301SOL    HW225803   3.475   6.772   0.236
 8302SOL     OW25804   3.638   6.553   4.318
 8302SOL    HW125805   3.603   6.635   4.273
 8302SOL    HW225806   3.697   6.503   4.254
 8303SOL     OW25807   6.216   0.230   2.159
 8303SOL    HW125808   6.251   0.223   2.252
 8303SOL    HW225809   6.216   0.139   2.117
 8304SOL     OW25810   6.174   3.127   3.626
 8304SOL    HW125811   6.107   3.194   3.658
 8304SOL    HW225812   6.237   3.105   3.701
 8305SOL     OW25813   4.603   5.262   4.175
 8305SOL    HW125814   4.699   5.241   4.158
 8305SOL    HW225815   4.585   5.358   4.151
 8306SOL     OW25816   6.397   1.148   2.147
 8306SOL    HW125817   6.348   1.065   2.175
 8306SOL    HW225818   6.392   1.216   2.220
 8307SOL     OW25819   1.750   4.998   2.212
 8307SOL    HW125820   1.679   5.049   2.163
 8307SOL    HW225821   1.755   4.905   2.176
 8308SOL     OW25822   0.976   4.745   0.122
 8308SOL    HW125823   0.970   4.781   0.215
 8308SOL    HW225824   0.955   4.648   0.122
 8309SOL     OW25825   6.664   4.581   4.792
 8309SOL    HW125826   6.698   4.491   4.764
 8309SOL    HW225827   6.724   4.619   4.862
 8310SOL     OW25828   0.547   7.012   0.851
 8310SOL    HW125829   0.569   6.985   0.945
 8310SOL    HW225830   0.539   0.086   0.846
 8311SOL     OW25831   5.614   6.346   4.084
 8311SOL    HW125832   5.585   6.267   4.139
 8311SOL    HW225833   5.673   6.315   4.010
 8312SOL     OW25834   4.889   0.149   0.176
 8312SOL    HW125835   4.883   0.199   0.090
 8312SOL    HW225836   4.799   0.144   0.218
 8313SOL     OW25837   4.550   0.377   5.158
 8313SOL    HW125838   4.548   0.336   5.249
 8313SOL    HW225839   4.493   0.323   5.096
 8314SOL     OW25840   5.391   6.295   5.932
 8314SOL    HW125841   5.355   6.217   5.983
 8314SOL    HW225842   5.336   6.308   5.849
 8315SOL     OW25843   3.765   3.014   4.747
 8315SOL    HW125844   3.712   2.957   4.684
 8315SOL    HW225845   3.771   2.968   4.836
 8316SOL     OW25846   0.755   2.802   0.491
 8316SOL    HW125847   0.815   2.737   0.538
 8316SOL    HW225848   0.795   2.829   0.404
 8317SOL     OW25849   2.075   1.800   4.661
 8317SOL    HW125850   2.072   1.898   4.678
 8317SOL    HW225851   2.114   1.782   4.571
 8318SOL     OW25852   3.741   0.115   6.544
 8318SOL    HW125853   3.699   0.189   6.595
 8318SOL    HW225854   3.703   0.112   6.451
 8319SOL     OW25855   1.415   0.159   6.313
 8319SOL    HW125856   1.484   0.214   6.360
 8319SOL    HW225857   1.460   0.091   6.256
 8320SOL     OW25858   3.566   3.869   4.514
 8320SOL    HW125859   3.499   3.865   4.588
 8320SOL    HW225860   3.590   3.964   4.495
 8321SOL     OW25861   0.262   0.336   0.163
 8321SOL    HW125862   0.293   0.408   0.101
 8321SOL    HW225863   0.163   0.336   0.168
 8322SOL     OW25864   6.593   1.187   0.360
 8322SOL    HW125865   6.563   1.185   0.264
 8322SOL    HW225866   6.523   1.145   0.417
 8323SOL     OW25867   4.777   4.703   1.110
 8323SOL    HW125868   4.786   4.784   1.052
 8323SOL    HW225869   4.686   4.664   1.098
 8324SOL     OW25870   6.340   0.147   6.366
 8324SOL    HW125871   6.388   0.212   6.308
 8324SOL    HW225872   6.248   0.180   6.386
 8325SOL     OW25873   1.608   5.770   4.860
 8325SOL    HW125874   1.578   5.734   4.771
 8325SOL    HW225875   1.673   5.707   4.902
 8326SOL     OW25876   2.500   3.899   0.570
 8326SOL    HW125877   2.445   3.888   0.653
 8326SOL    HW225878   2.506   3.811   0.523
 8327SOL     OW25879   0.427   0.681   5.246
 8327SOL    HW125880   0.468   0.762   5.288
 8327SOL    HW225881   0.497   0.612   5.230
 8328SOL     OW25882   0.798   6.526   5.863
 8328SOL    HW125883   0.841   6.547   5.951
 8328SOL    HW225884   0.701   6.549   5.867
 8329SOL     OW25885   0.610   2.790   4.957
 8329SOL    HW125886   0.686   2.725   4.959
 8329SOL    HW225887   0.601   2.833   5.047
 8330SOL     OW25888   3.871   0.947   6.535
 8330SOL    HW125889   3.929   1.027   6.520
 8330SOL    HW225890   3.853   0.937   6.633
 8331SOL     OW25891   1.886   2.043   0.364
 8331SOL    HW125892   1.922   1.959   0.325
 8331SOL    HW225893   1.807   2.022   0.422
 8332SOL     OW25894   5.476   4.630   1.867
 8332SOL    HW125895   5.455   4.554   1.806
 8332SOL    HW225896   5.447   4.716   1.825
 8333SOL     OW25897   2.178   4.979   0.860
 8333SOL    HW125898   2.166   5.035   0.777
 8333SOL    HW225899   2.106   5.002   0.926
 8334SOL     OW25900   2.885   2.402   6.579
 8334SOL    HW125901   2.885   2.344   6.660
 8334SOL    HW225902   2.867   2.497   6.605
 8335SOL     OW25903   5.027   3.231   6.549
 8335SOL    HW125904   4.955   3.166   6.528
 8335SOL    HW225905   5.067   3.266   6.464
 8336SOL     OW25906   1.423   3.544   2.736
 8336SOL    HW125907   1.384   3.626   2.695
 8336SOL    HW225908   1.459   3.567   2.827
 8337SOL     OW25909   0.967   1.661   4.545
 8337SOL    HW125910   1.062   1.628   4.547
 8337SOL    HW225911   0.960   1.740   4.486
 8338SOL     OW25912   3.666   4.965   2.210
 8338SOL    HW125913   3.573   4.970   2.247
 8338SOL    HW225914   3.663   4.924   2.119
 8339SOL     OW25915   0.293   0.694   0.738
 8339SOL    HW125916   0.224   0.767   0.740
 8339SOL    HW225917   0.259   0.618   0.684
 8340SOL     OW25918   5.192   2.063   0.606
 8340SOL    HW125919   5.278   2.035   0.563
 8340SOL    HW225920   5.139   1.982   0.631
 8341SOL     OW25921   3.404   0.239   0.160
 8341SOL    HW125922   3.416   0.144   0.129
 8341SOL    HW225923   3.459   0.300   0.102
 8342SOL     OW25924   3.732   6.499   6.739
 8342SOL    HW125925   3.668   6.533   6.671
 8342SOL    HW225926   3.701   6.409   6.772
 8343SOL     OW25927   6.744   4.251   3.848
 8343SOL    HW125928   6.728   4.188   3.772
 8343SOL    HW225929   6.841   4.276   3.851
 8344SOL     OW25930   0.907   5.397   4.402
 8344SOL    HW125931   0.909   5.344   4.317
 8344SOL    HW225932   0.978   5.468   4.398
 8345SOL     OW25933   5.181   0.889   2.874
 8345SOL    HW125934   5.250   0.864   2.942
 8345SOL    HW225935   5.225   0.939   2.799
 8346SOL     OW25936   4.689   3.185   5.782
 8346SOL    HW125937   4.620   3.245   5.823
 8346SOL    HW225938   4.662   3.163   5.688
 8347SOL     OW25939   2.369   6.968   5.875
 8347SOL    HW125940   2.437   6.914   5.826
 8347SOL    HW225941   2.369   0.037   5.840
 8348SOL     OW25942   3.934   6.519   1.130
 8348SOL    HW125943   3.953   6.468   1.214
 8348SOL    HW225944   3.949   6.460   1.051
 8349SOL     OW25945   0.643   6.465   2.261
 8349SOL    HW125946   0.590   6.510   2.332
 8349SOL    HW225947   0.707   6.400   2.303
 8350SOL     OW25948   2.674   0.044   5.926
 8350SOL    HW125949   2.629   7.022   6.002
 8350SOL    HW225950   2.609   0.108   5.884
 8351SOL     OW25951   6.501   4.895   4.603
 8351SOL    HW125952   6.528   4.871   4.510
 8351SOL    HW225953   6.401   4.905   4.608
 8352SOL     OW25954   2.700   6.318   1.885
 8352SOL    HW125955   2.753   6.314   1.801
 8352SOL    HW225956   2.740   6.257   1.953
 8353SOL     OW25957   0.907   3.941   1.931
 8353SOL    HW125958   0.958   3.880   1.992
 8353SOL    HW225959   0.939   3.927   1.837
 8354SOL     OW25960   3.590   6.587   3.926
 8354SOL    HW125961   3.534   6.641   3.989
 8354SOL    HW225962   3.687   6.604   3.945
 8355SOL     OW25963   1.137   6.785   6.005
 8355SOL    HW125964   1.107   6.855   6.069
 8355SOL    HW225965   1.076   6.784   5.925
 8356SOL     OW25966   1.861   5.544   1.685
 8356SOL    HW125967   1.818   5.634   1.694
 8356SOL    HW225968   1.927   5.531   1.759
 8357SOL     OW25969   4.099   5.378   5.972
 8357SOL    HW125970   4.061   5.386   5.880
 8357SOL    HW225971   4.197   5.395   5.970
 8358SOL     OW25972   1.299   2.256   5.253
 8358SOL    HW125973   1.333   2.168   5.285
 8358SOL    HW225974   1.371   2.325   5.260
 8359SOL     OW25975   3.114   0.893   4.899
 8359SOL    HW125976   3.136   0.915   4.804
 8359SOL    HW225977   3.162   0.956   4.960
 8360SOL     OW25978   4.772   6.479   1.002
 8360SOL    HW125979   4.789   6.543   1.077
 8360SOL    HW225980   4.714   6.522   0.933
 8361SOL     OW25981   2.123   6.866   6.806
 8361SOL    HW125982   2.149   6.952   6.851
 8361SOL    HW225983   2.049   6.883   6.741
 8362SOL     OW25984   6.524   2.972   0.597
 8362SOL    HW125985   6.441   3.024   0.621
 8362SOL    HW225986   6.603   3.013   0.643
 8363SOL     OW25987   4.236   2.333   0.654
 8363SOL    HW125988   4.147   2.315   0.697
 8363SOL    HW225989   4.259   2.430   0.665
 8364SOL     OW25990   0.708   2.602   3.375
 8364SOL    HW125991   0.672   2.695   3.370
 8364SOL    HW225992   0.726   2.579   3.471
 8365SOL     OW25993   1.821   2.675   1.931
 8365SOL    HW125994   1.894   2.656   1.997
 8365SOL    HW225995   1.763   2.594   1.921
 8366SOL     OW25996   4.217   5.635   0.967
 8366SOL    HW125997   4.241   5.552   1.017
 8366SOL    HW225998   4.237   5.624   0.870
 8367SOL     OW25999   3.684   5.310   4.850
 8367SOL    HW126000   3.613   5.264   4.796
 8367SOL    HW226001   3.774   5.288   4.813
 8368SOL     OW26002   0.970   6.436   0.420
 8368SOL    HW126003   0.937   6.407   0.330
 8368SOL    HW226004   0.926   6.522   0.446
 8369SOL     OW26005   1.145   1.750   0.750
 8369SOL    HW126006   1.157   1.826   0.814
 8369SOL    HW226007   1.050   1.748   0.717
 8370SOL     OW26008   2.813   1.991   6.869
 8370SOL    HW126009   2.900   1.994   6.918
 8370SOL    HW226010   2.806   2.070   6.808
 8371SOL     OW26011   1.412   2.882   5.265
 8371SOL    HW126012   1.320   2.847   5.248
 8371SOL    HW226013   1.473   2.853   5.192
 8372SOL     OW26014   2.460   6.606   2.381
 8372SOL    HW126015   2.546   6.658   2.385
 8372SOL    HW226016   2.423   6.595   2.473
 8373SOL     OW26017   1.021   1.902   4.388
 8373SOL    HW126018   1.099   1.911   4.451
 8373SOL    HW226019   1.050   1.853   4.306
 8374SOL     OW26020   1.123   1.147   4.325
 8374SOL    HW126021   1.158   1.105   4.241
 8374SOL    HW226022   1.024   1.156   4.319
 8375SOL     OW26023   4.288   0.978   5.787
 8375SOL    HW126024   4.193   0.981   5.756
 8375SOL    HW226025   4.348   1.017   5.717
 8376SOL     OW26026   1.466   0.987   3.657
 8376SOL    HW126027   1.542   0.973   3.594
 8376SOL    HW226028   1.405   1.058   3.622
 8377SOL     OW26029   5.757   5.174   6.957
 8377SOL    HW126030   5.781   5.236   6.883
 8377SOL    HW226031   5.828   5.104   6.967
 8378SOL     OW26032   5.328   5.594   3.388
 8378SOL    HW126033   5.332   5.685   3.348
 8378SOL    HW226034   5.372   5.528   3.326
 8379SOL     OW26035   5.116   1.761   1.851
 8379SOL    HW126036   5.102   1.728   1.758
 8379SOL    HW226037   5.068   1.701   1.915
 8380SOL     OW26038   0.164   6.028   6.461
 8380SOL    HW126039   0.184   6.122   6.433
 8380SOL    HW226040   0.249   5.976   6.468
 8381SOL     OW26041   0.005   2.240   2.972
 8381SOL    HW126042   0.014   2.322   2.915
 8381SOL    HW226043   0.031   2.261   3.066
 8382SOL     OW26044   2.472   0.294   6.676
 8382SOL    HW126045   2.507   0.379   6.635
 8382SOL    HW226046   2.495   0.293   6.773
 8383SOL     OW26047   2.753   0.215   4.430
 8383SOL    HW126048   2.674   0.202   4.370
 8383SOL    HW226049   2.827   0.261   4.379
 8384SOL     OW26050   6.765   1.939   1.245
 8384SOL    HW126051   6.670   1.971   1.232
 8384SOL    HW226052   6.765   1.857   1.301
 8385SOL     OW26053   4.649   3.179   0.850
 8385SOL    HW126054   4.667   3.187   0.949
 8385SOL    HW226055   4.613   3.266   0.817
 8386SOL     OW26056   2.169   6.689   1.541
 8386SOL    HW126057   2.105   6.758   1.509
 8386SOL    HW226058   2.141   6.655   1.630
 8387SOL     OW26059   2.491   1.494   1.193
 8387SOL    HW126060   2.397   1.528   1.187
 8387SOL    HW226061   2.527   1.510   1.285
 8388SOL     OW26062   1.644   0.010   0.557
 8388SOL    HW126063   1.614   0.049   0.644
 8388SOL    HW226064   1.720   6.972   0.573
 8389SOL     OW26065   1.489   3.391   4.433
 8389SOL    HW126066   1.422   3.316   4.438
 8389SOL    HW226067   1.494   3.425   4.339
 8390SOL     OW26068   2.466   0.651   5.885
 8390SOL    HW126069   2.517   0.722   5.932
 8390SOL    HW226070   2.371   0.652   5.914
 8391SOL     OW26071   5.055   5.584   2.024
 8391SOL    HW126072   4.988   5.559   2.094
 8391SOL    HW226073   5.135   5.626   2.068
 8392SOL     OW26074   6.120   5.887   4.616
 8392SOL    HW126075   6.061   5.810   4.593
 8392SOL    HW226076   6.141   5.885   4.714
 8393SOL     OW26077   6.563   6.895   3.816
 8393SOL    HW126078   6.612   6.929   3.735
 8393SOL    HW226079   6.602   6.937   3.898
 8394SOL     OW26080   0.763   1.542   2.851
 8394SOL    HW126081   0.774   1.506   2.759
 8394SOL    HW226082   0.668   1.531   2.881
 8395SOL     OW26083   0.472   6.290   4.258
 8395SOL    HW126084   0.464   6.201   4.214
 8395SOL    HW226085   0.401   6.351   4.223
 8396SOL     OW26086   4.360   4.662   2.514
 8396SOL    HW126087   4.392   4.672   2.420
 8396SOL    HW226088   4.262   4.680   2.518
 8397SOL     OW26089   2.046   6.764   2.853
 8397SOL    HW126090   2.089   6.767   2.943
 8397SOL    HW226091   1.962   6.817   2.854
 8398SOL     OW26092   4.034   1.771   0.218
 8398SOL    HW126093   4.069   1.824   0.141
 8398SOL    HW226094   4.108   1.750   0.281
 8399SOL     OW26095   5.787   5.963   0.840
 8399SOL    HW126096   5.689   5.956   0.824
 8399SOL    HW226097   5.803   6.005   0.930
 8400SOL     OW26098   0.088   0.324   2.795
 8400SOL    HW126099   0.052   0.239   2.834
 8400SOL    HW226100   0.036   0.349   2.714
 8401SOL     OW26101   4.618   2.795   6.074
 8401SOL    HW126102   4.519   2.805   6.075
 8401SOL    HW226103   4.649   2.773   5.981
 8402SOL     OW26104   3.695   2.151   5.851
 8402SOL    HW126105   3.622   2.124   5.788
 8402SOL    HW226106   3.782   2.112   5.820
 8403SOL     OW26107   0.423   1.429   3.459
 8403SOL    HW126108   0.343   1.457   3.406
 8403SOL    HW226109   0.488   1.505   3.463
 8404SOL     OW26110   5.496   6.668   6.547
 8404SOL    HW126111   5.540   6.647   6.634
 8404SOL    HW226112   5.460   6.761   6.549
 8405SOL     OW26113   1.717   2.211   6.552
 8405SOL    HW126114   1.658   2.210   6.471
 8405SOL    HW226115   1.664   2.184   6.632
 8406SOL     OW26116   4.534   1.967   0.588
 8406SOL    HW126117   4.549   1.928   0.497
 8406SOL    HW226118   4.509   2.063   0.579
 8407SOL     OW26119   5.738   4.722   4.873
 8407SOL    HW126120   5.770   4.629   4.852
 8407SOL    HW226121   5.814   4.786   4.863
 8408SOL     OW26122   5.438   0.331   4.200
 8408SOL    HW126123   5.425   0.263   4.272
 8408SOL    HW226124   5.422   0.290   4.111
 8409SOL     OW26125   0.838   2.032   3.783
 8409SOL    HW126126   0.779   2.070   3.712
 8409SOL    HW226127   0.785   2.020   3.867
 8410SOL     OW26128   4.926   0.751   2.129
 8410SOL    HW126129   4.961   0.700   2.051
 8410SOL    HW226130   4.896   0.687   2.200
 8411SOL     OW26131   1.230   5.034   3.960
 8411SOL    HW126132   1.215   5.084   3.874
 8411SOL    HW226133   1.192   5.087   4.036
 8412SOL     OW26134   4.503   2.297   0.826
 8412SOL    HW126135   4.463   2.307   0.735
 8412SOL    HW226136   4.595   2.336   0.827
 8413SOL     OW26137   4.011   4.831   0.729
 8413SOL    HW126138   3.939   4.763   0.717
 8413SOL    HW226139   3.982   4.899   0.796
 8414SOL     OW26140   3.824   6.902   2.190
 8414SOL    HW126141   3.759   6.912   2.115
 8414SOL    HW226142   3.779   6.926   2.276
 8415SOL     OW26143   6.836   4.755   3.896
 8415SOL    HW126144   6.772   4.769   3.972
 8415SOL    HW226145   6.914   4.818   3.907
 8416SOL     OW26146   5.090   4.122   2.782
 8416SOL    HW126147   5.106   4.056   2.708
 8416SOL    HW226148   5.075   4.212   2.743
 8417SOL     OW26149   3.227   6.334   5.263
 8417SOL    HW126150   3.172   6.371   5.187
 8417SOL    HW226151   3.306   6.285   5.226
 8418SOL     OW26152   5.407   5.491   2.085
 8418SOL    HW126153   5.455   5.406   2.063
 8418SOL    HW226154   5.372   5.486   2.178
 8419SOL     OW26155   4.864   0.989   2.059
 8419SOL    HW126156   4.906   0.904   2.091
 8419SOL    HW226157   4.932   1.063   2.061
 8420SOL     OW26158   3.766   0.011   0.360
 8420SOL    HW126159   3.693   6.981   0.320
 8420SOL    HW226160   3.745   0.030   0.456
 8421SOL     OW26161   2.392   6.738   1.391
 8421SOL    HW126162   2.321   6.735   1.461
 8421SOL    HW226163   2.364   6.801   1.318
 8422SOL     OW26164   5.505   5.942   0.844
 8422SOL    HW126165   5.445   5.894   0.907
 8422SOL    HW226166   5.470   5.933   0.750
 8423SOL     OW26167   4.199   5.141   0.079
 8423SOL    HW126168   4.238   5.094   0.000
 8423SOL    HW226169   4.173   5.074   0.149
 8424SOL     OW26170   3.376   2.099   2.318
 8424SOL    HW126171   3.298   2.127   2.374
 8424SOL    HW226172   3.350   2.102   2.221
 8425SOL     OW26173   6.975   5.356   1.224
 8425SOL    HW126174   0.034   5.399   1.258
 8425SOL    HW226175   6.904   5.425   1.212
 8426SOL     OW26176   3.817   3.104   3.511
 8426SOL    HW126177   3.877   3.078   3.436
 8426SOL    HW226178   3.767   3.187   3.486
 8427SOL     OW26179   1.589   4.317   5.684
 8427SOL    HW126180   1.685   4.290   5.670
 8427SOL    HW226181   1.575   4.339   5.780
 8428SOL     OW26182   6.595   4.622   2.021
 8428SOL    HW126183   6.689   4.655   2.030
 8428SOL    HW226184   6.558   4.603   2.112
 8429SOL     OW26185   2.929   4.987   4.639
 8429SOL    HW126186   2.895   4.965   4.548
 8429SOL    HW226187   2.923   4.906   4.697
 8430SOL     OW26188   4.333   5.374   2.781
 8430SOL    HW126189   4.390   5.435   2.726
 8430SOL    HW226190   4.379   5.355   2.868
 8431SOL     OW26191   2.700   5.204   1.394
 8431SOL    HW126192   2.665   5.181   1.304
 8431SOL    HW226193   2.629   5.187   1.463
 8432SOL     OW26194   4.359   5.465   5.947
 8432SOL    HW126195   4.425   5.539   5.931
 8432SOL    HW226196   4.388   5.411   6.026
 8433SOL     OW26197   0.766   2.743   6.929
 8433SOL    HW126198   0.684   2.779   6.885
 8433SOL    HW226199   0.815   2.683   6.866
 8434SOL     OW26200   4.094   6.807   5.015
 8434SOL    HW126201   4.137   6.827   4.927
 8434SOL    HW226202   4.150   6.842   5.089
 8435SOL     OW26203   4.787   1.561   1.517
 8435SOL    HW126204   4.883   1.537   1.530
 8435SOL    HW226205   4.758   1.623   1.590
 8436SOL     OW26206   3.640   5.963   3.504
 8436SOL    HW126207   3.582   5.939   3.581
 8436SOL    HW226208   3.604   6.046   3.461
 8437SOL     OW26209   0.660   0.317   1.608
 8437SOL    HW126210   0.646   0.219   1.595
 8437SOL    HW226211   0.740   0.332   1.667
 8438SOL     OW26212   2.997   4.824   2.724
 8438SOL    HW126213   2.948   4.792   2.643
 8438SOL    HW226214   2.958   4.780   2.805
 8439SOL     OW26215   6.766   5.792   1.851
 8439SOL    HW126216   6.678   5.750   1.874
 8439SOL    HW226217   6.764   5.824   1.757
 8440SOL     OW26218   6.577   1.164   2.451
 8440SOL    HW126219   6.566   1.263   2.450
 8440SOL    HW226220   6.673   1.140   2.441
 8441SOL     OW26221   5.863   6.131   0.497
 8441SOL    HW126222   5.958   6.124   0.528
 8441SOL    HW226223   5.801   6.119   0.575
 8442SOL     OW26224   3.452   3.536   6.784
 8442SOL    HW126225   3.425   3.532   6.880
 8442SOL    HW226226   3.477   3.444   6.753
 8443SOL     OW26227   1.025   0.274   2.967
 8443SOL    HW126228   1.083   0.199   3.000
 8443SOL    HW226229   1.010   0.264   2.869
 8444SOL     OW26230   3.328   6.169   3.531
 8444SOL    HW126231   3.260   6.238   3.555
 8444SOL    HW226232   3.303   6.127   3.443
 8445SOL     OW26233   3.149   4.907   2.462
 8445SOL    HW126234   3.248   4.894   2.468
 8445SOL    HW226235   3.102   4.832   2.509
 8446SOL     OW26236   5.220   5.934   2.723
 8446SOL    HW126237   5.135   5.957   2.675
 8446SOL    HW226238   5.253   6.014   2.773
 8447SOL     OW26239   5.712   2.348   2.596
 8447SOL    HW126240   5.737   2.303   2.511
 8447SOL    HW226241   5.614   2.337   2.612
 8448SOL     OW26242   0.387   4.244   5.958
 8448SOL    HW126243   0.399   4.334   6.000
 8448SOL    HW226244   0.416   4.173   6.022
 8449SOL     OW26245   0.615   3.376   4.682
 8449SOL    HW126246   0.591   3.355   4.777
 8449SOL    HW226247   0.635   3.291   4.633
 8450SOL     OW26248   1.856   5.982   2.634
 8450SOL    HW126249   1.918   5.998   2.711
 8450SOL    HW226250   1.764   5.961   2.669
 8451SOL     OW26251   3.464   2.256   1.170
 8451SOL    HW126252   3.438   2.333   1.228
 8451SOL    HW226253   3.549   2.215   1.203
 8452SOL     OW26254   6.724   0.100   1.348
 8452SOL    HW126255   6.638   0.051   1.331
 8452SOL    HW226256   6.709   0.169   1.419
 8453SOL     OW26257   0.218   4.754   6.336
 8453SOL    HW126258   0.152   4.795   6.399
 8453SOL    HW226259   0.308   4.797   6.348
 8454SOL     OW26260   1.946   6.190   1.971
 8454SOL    HW126261   1.985   6.114   2.023
 8454SOL    HW226262   1.968   6.277   2.017
 8455SOL     OW26263   4.836   1.411   1.268
 8455SOL    HW126264   4.920   1.455   1.236
 8455SOL    HW226265   4.802   1.461   1.348
 8456SOL     OW26266   5.962   5.548   3.700
 8456SOL    HW126267   5.987   5.487   3.626
 8456SOL    HW226268   5.955   5.642   3.665
 8457SOL     OW26269   6.783   6.940   5.917
 8457SOL    HW126270   6.870   6.894   5.931
 8457SOL    HW226271   6.708   6.876   5.931
 8458SOL     OW26272   1.820   1.027   6.515
 8458SOL    HW126273   1.767   1.056   6.595
 8458SOL    HW226274   1.889   0.960   6.543
 8459SOL     OW26275   3.796   6.743   1.620
 8459SOL    HW126276   3.769   6.793   1.702
 8459SOL    HW226277   3.893   6.719   1.626
 8460SOL     OW26278   3.870   2.955   6.824
 8460SOL    HW126279   3.969   2.941   6.813
 8460SOL    HW226280   3.843   3.040   6.780
 8461SOL     OW26281   0.612   3.328   1.714
 8461SOL    HW126282   0.639   3.239   1.678
 8461SOL    HW226283   0.546   3.316   1.788
 8462SOL     OW26284   3.942   3.280   0.273
 8462SOL    HW126285   3.964   3.229   0.355
 8462SOL    HW226286   3.913   3.217   0.201
 8463SOL     OW26287   0.560   2.135   0.244
 8463SOL    HW126288   0.572   2.046   0.288
 8463SOL    HW226289   0.477   2.179   0.278
 8464SOL     OW26290   6.966   4.039   5.551
 8464SOL    HW126291   0.038   4.033   5.529
 8464SOL    HW226292   6.952   4.109   5.621
 8465SOL     OW26293   2.666   2.094   1.004
 8465SOL    HW126294   2.623   2.172   0.958
 8465SOL    HW226295   2.662   2.013   0.945
 8466SOL     OW26296   6.441   0.690   5.622
 8466SOL    HW126297   6.487   0.774   5.651
 8466SOL    HW226298   6.368   0.712   5.558
 8467SOL     OW26299   3.821   0.767   0.751
 8467SOL    HW126300   3.849   0.812   0.667
 8467SOL    HW226301   3.862   0.813   0.829
 8468SOL     OW26302   5.993   3.979   6.299
 8468SOL    HW126303   5.898   3.996   6.324
 8468SOL    HW226304   6.044   4.065   6.304
 8469SOL     OW26305   3.061   2.685   5.714
 8469SOL    HW126306   3.043   2.588   5.730
 8469SOL    HW226307   3.146   2.696   5.663
 8470SOL     OW26308   1.162   4.824   0.871
 8470SOL    HW126309   1.202   4.756   0.810
 8470SOL    HW226310   1.063   4.811   0.876
 8471SOL     OW26311   3.980   6.922   5.316
 8471SOL    HW126312   4.077   6.927   5.289
 8471SOL    HW226313   3.929   6.993   5.268
 8472SOL     OW26314   5.801   1.757   5.583
 8472SOL    HW126315   5.720   1.727   5.632
 8472SOL    HW226316   5.841   1.836   5.630
 8473SOL     OW26317   4.327   4.471   0.610
 8473SOL    HW126318   4.304   4.416   0.690
 8473SOL    HW226319   4.283   4.432   0.529
 8474SOL     OW26320   2.952   3.798   2.355
 8474SOL    HW126321   2.874   3.846   2.313
 8474SOL    HW226322   2.921   3.711   2.392
 8475SOL     OW26323   0.391   3.109   1.738
 8475SOL    HW126324   0.459   3.036   1.745
 8475SOL    HW226325   0.399   3.169   1.818
 8476SOL     OW26326   0.100   0.946   1.650
 8476SOL    HW126327   0.025   0.881   1.636
 8476SOL    HW226328   0.154   0.952   1.566
 8477SOL     OW26329   5.355   5.936   2.020
 8477SOL    HW126330   5.426   5.872   2.050
 8477SOL    HW226331   5.378   6.028   2.050
 8478SOL     OW26332   1.135   1.304   5.864
 8478SOL    HW126333   1.055   1.329   5.919
 8478SOL    HW226334   1.109   1.233   5.798
 8479SOL     OW26335   1.254   2.575   1.594
 8479SOL    HW126336   1.328   2.511   1.575
 8479SOL    HW226337   1.166   2.528   1.584
 8480SOL     OW26338   5.078   2.592   6.633
 8480SOL    HW126339   5.072   2.495   6.608
 8480SOL    HW226340   5.040   2.647   6.559
 8481SOL     OW26341   4.025   2.204   4.924
 8481SOL    HW126342   3.991   2.133   4.985
 8481SOL    HW226343   4.043   2.287   4.976
 8482SOL     OW26344   4.508   0.445   0.899
 8482SOL    HW126345   4.522   0.533   0.945
 8482SOL    HW226346   4.486   0.460   0.803
 8483SOL     OW26347   2.652   5.653   3.509
 8483SOL    HW126348   2.654   5.653   3.609
 8483SOL    HW226349   2.689   5.740   3.475
 8484SOL     OW26350   6.830   5.861   4.727
 8484SOL    HW126351   6.870   5.854   4.818
 8484SOL    HW226352   6.864   5.943   4.682
 8485SOL     OW26353   3.993   2.445   0.331
 8485SOL    HW126354   4.002   2.349   0.355
 8485SOL    HW226355   4.075   2.475   0.281
 8486SOL     OW26356   1.519   1.363   2.513
 8486SOL    HW126357   1.443   1.300   2.496
 8486SOL    HW226358   1.592   1.345   2.447
 8487SOL     OW26359   5.574   1.452   6.358
 8487SOL    HW126360   5.613   1.520   6.296
 8487SOL    HW226361   5.476   1.445   6.342
 8488SOL     OW26362   5.344   5.383   3.175
 8488SOL    HW126363   5.340   5.299   3.230
 8488SOL    HW226364   5.252   5.414   3.155
 8489SOL     OW26365   6.592   0.555   1.430
 8489SOL    HW126366   6.532   0.539   1.351
 8489SOL    HW226367   6.560   0.500   1.507
 8490SOL     OW26368   3.506   6.803   5.425
 8490SOL    HW126369   3.478   6.728   5.365
 8490SOL    HW226370   3.541   6.879   5.370
 8491SOL     OW26371   2.178   5.629   2.819
 8491SOL    HW126372   2.230   5.544   2.831
 8491SOL    HW226373   2.110   5.617   2.747
 8492SOL     OW26374   6.207   4.913   3.754
 8492SOL    HW126375   6.175   4.876   3.667
 8492SOL    HW226376   6.128   4.929   3.814
 8493SOL     OW26377   2.760   1.229   0.233
 8493SOL    HW126378   2.667   1.200   0.256
 8493SOL    HW226379   2.774   1.323   0.265
 8494SOL     OW26380   4.900   5.084   1.969
 8494SOL    HW126381   4.972   5.142   2.007
 8494SOL    HW226382   4.896   5.098   1.870
 8495SOL     OW26383   0.025   5.845   0.595
 8495SOL    HW126384   0.053   5.935   0.630
 8495SOL    HW226385   0.004   5.785   0.672
 8496SOL     OW26386   5.023   1.234   2.002
 8496SOL    HW126387   4.941   1.261   2.051
 8496SOL    HW226388   5.082   1.313   1.989
 8497SOL     OW26389   0.451   6.837   4.021
 8497SOL    HW126390   0.499   6.908   3.969
 8497SOL    HW226391   0.503   6.751   4.014
 8498SOL     OW26392   5.832   6.767   3.540
 8498SOL    HW126393   5.931   6.773   3.528
 8498SOL    HW226394   5.793   6.858   3.535
 8499SOL     OW26395   0.827   4.881   0.323
 8499SOL    HW126396   0.784   4.858   0.236
 8499SOL    HW226397   0.807   4.976   0.345
 8500SOL     OW26398   2.074   6.548   6.369
 8500SOL    HW126399   2.051   6.502   6.455
 8500SOL    HW226400   2.120   6.483   6.308
 8501SOL     OW26401   0.807   2.508   0.330
 8501SOL    HW126402   0.841   2.433   0.272
 8501SOL    HW226403   0.731   2.475   0.386
 8502SOL     OW26404   0.554   2.715   0.756
 8502SOL    HW126405   0.644   2.675   0.776
 8502SOL    HW226406   0.566   2.809   0.723
 8503SOL     OW26407   6.414   5.899   5.068
 8503SOL    HW126408   6.510   5.876   5.057
 8503SOL    HW226409   6.370   5.832   5.127
 8504SOL     OW26410   1.951   5.575   2.128
 8504SOL    HW126411   1.952   5.476   2.112
 8504SOL    HW226412   1.935   5.593   2.224
 8505SOL     OW26413   5.515   3.782   2.720
 8505SOL    HW126414   5.489   3.750   2.811
 8505SOL    HW226415   5.469   3.725   2.651
 8506SOL     OW26416   1.321   0.818   6.960
 8506SOL    HW126417   1.293   0.767   0.017
 8506SOL    HW226418   1.345   0.912   6.985
 8507SOL     OW26419   4.631   0.136   4.601
 8507SOL    HW126420   4.643   0.139   4.700
 8507SOL    HW226421   4.648   0.226   4.562
 8508SOL     OW26422   3.770   1.695   5.795
 8508SOL    HW126423   3.842   1.715   5.728
 8508SOL    HW226424   3.682   1.686   5.748
 8509SOL     OW26425   5.766   6.570   4.223
 8509SOL    HW126426   5.730   6.504   4.157
 8509SOL    HW226427   5.813   6.643   4.174
 8510SOL     OW26428   5.227   3.109   3.734
 8510SOL    HW126429   5.245   3.194   3.684
 8510SOL    HW226430   5.226   3.032   3.671
 8511SOL     OW26431   6.124   3.060   2.324
 8511SOL    HW126432   6.212   3.043   2.280
 8511SOL    HW226433   6.098   2.981   2.378
 8512SOL     OW26434   2.392   0.014   2.863
 8512SOL    HW126435   2.460   6.985   2.814
 8512SOL    HW226436   2.330   0.057   2.797
 8513SOL     OW26437   6.910   6.126   0.564
 8513SOL    HW126438   6.892   6.062   0.490
 8513SOL    HW226439   6.912   6.219   0.528
 8514SOL     OW26440   3.502   0.005   3.179
 8514SOL    HW126441   3.581   7.004   3.124
 8514SOL    HW226442   3.517   7.006   3.274
 8515SOL     OW26443   4.730   2.451   0.785
 8515SOL    HW126444   4.746   2.435   0.883
 8515SOL    HW226445   4.813   2.490   0.744
 8516SOL     OW26446   6.454   1.569   2.820
 8516SOL    HW126447   6.385   1.499   2.803
 8516SOL    HW226448   6.411   1.649   2.862
 8517SOL     OW26449   1.000   2.790   6.677
 8517SOL    HW126450   1.019   2.807   6.773
 8517SOL    HW226451   0.927   2.722   6.668
 8518SOL     OW26452   4.550   5.072   0.372
 8518SOL    HW126453   4.581   4.982   0.343
 8518SOL    HW226454   4.461   5.064   0.417
 8519SOL     OW26455   2.031   5.856   2.066
 8519SOL    HW126456   1.989   5.886   2.152
 8519SOL    HW226457   2.028   5.756   2.062
 8520SOL     OW26458   3.738   1.387   0.439
 8520SOL    HW126459   3.721   1.479   0.403
 8520SOL    HW226460   3.701   1.319   0.375
 8521SOL     OW26461   1.172   6.323   5.900
 8521SOL    HW126462   1.262   6.309   5.941
 8521SOL    HW226463   1.137   6.237   5.864
 8522SOL     OW26464   1.570   6.115   2.321
 8522SOL    HW126465   1.577   6.204   2.274
 8522SOL    HW226466   1.550   6.044   2.254
 8523SOL     OW26467   2.042   0.485   5.654
 8523SOL    HW126468   1.954   0.501   5.609
 8523SOL    HW226469   2.028   0.465   5.751
 8524SOL     OW26470   1.213   3.394   4.817
 8524SOL    HW126471   1.222   3.485   4.776
 8524SOL    HW226472   1.303   3.361   4.844
 8525SOL     OW26473   6.137   3.636   2.883
 8525SOL    HW126474   6.134   3.550   2.831
 8525SOL    HW226475   6.216   3.636   2.944
 8526SOL     OW26476   2.801   3.214   1.674
 8526SOL    HW126477   2.702   3.231   1.676
 8526SOL    HW226478   2.826   3.179   1.584
 8527SOL     OW26479   3.825   0.953   4.035
 8527SOL    HW126480   3.845   0.965   4.133
 8527SOL    HW226481   3.863   1.030   3.984
 8528SOL     OW26482   5.008   4.099   6.406
 8528SOL    HW126483   4.976   4.125   6.497
 8528SOL    HW226484   5.060   4.013   6.413
 8529SOL     OW26485   1.354   5.665   0.075
 8529SOL    HW126486   1.406   5.589   0.038
 8529SOL    HW226487   1.417   5.735   0.110
 8530SOL     OW26488   1.429   5.114   5.045
 8530SOL    HW126489   1.380   5.043   5.095
 8530SOL    HW226490   1.442   5.194   5.104
 8531SOL     OW26491   5.727   3.891   2.941
 8531SOL    HW126492   5.705   3.959   3.012
 8531SOL    HW226493   5.643   3.865   2.893
 8532SOL     OW26494   4.113   4.847   4.759
 8532SOL    HW126495   4.072   4.849   4.850
 8532SOL    HW226496   4.164   4.932   4.743
 8533SOL     OW26497   2.165   1.027   5.202
 8533SOL    HW126498   2.159   1.096   5.274
 8533SOL    HW226499   2.202   1.068   5.119
 8534SOL     OW26500   0.675   4.231   2.878
 8534SOL    HW126501   0.630   4.167   2.816
 8534SOL    HW226502   0.769   4.246   2.848
 8535SOL     OW26503   1.235   2.202   4.360
 8535SOL    HW126504   1.320   2.243   4.327
 8535SOL    HW226505   1.168   2.201   4.286
 8536SOL     OW26506   6.746   2.664   5.070
 8536SOL    HW126507   6.668   2.605   5.092
 8536SOL    HW226508   6.830   2.625   5.109
 8537SOL     OW26509   5.966   1.148   0.817
 8537SOL    HW126510   5.973   1.098   0.903
 8537SOL    HW226511   5.995   1.243   0.830
 8538SOL     OW26512   0.110   0.644   4.967
 8538SOL    HW126513   0.156   0.607   4.886
 8538SOL    HW226514   0.143   0.598   5.049
 8539SOL     OW26515   6.614   2.435   2.648
 8539SOL    HW126516   6.609   2.449   2.747
 8539SOL    HW226517   6.680   2.499   2.609
 8540SOL     OW26518   3.283   0.972   0.816
 8540SOL    HW126519   3.186   0.978   0.840
 8540SOL    HW226520   3.331   0.919   0.886
 8541SOL     OW26521   2.881   1.328   5.365
 8541SOL    HW126522   2.867   1.309   5.462
 8541SOL    HW226523   2.948   1.263   5.328
 8542SOL     OW26524   2.644   4.481   6.734
 8542SOL    HW126525   2.725   4.520   6.778
 8542SOL    HW226526   2.671   4.427   6.655
 8543SOL     OW26527   2.558   1.937   5.760
 8543SOL    HW126528   2.478   1.900   5.807
 8543SOL    HW226529   2.529   1.984   5.677
 8544SOL     OW26530   4.903   3.627   5.299
 8544SOL    HW126531   4.955   3.545   5.321
 8544SOL    HW226532   4.819   3.602   5.252
 8545SOL     OW26533   3.704   6.617   4.578
 8545SOL    HW126534   3.614   6.648   4.609
 8545SOL    HW226535   3.698   6.590   4.482
 8546SOL     OW26536   5.515   0.419   1.315
 8546SOL    HW126537   5.502   0.518   1.322
 8546SOL    HW226538   5.510   0.378   1.406
 8547SOL     OW26539   6.936   0.491   5.569
 8547SOL    HW126540   6.856   0.468   5.625
 8547SOL    HW226541   7.006   0.419   5.580
 8548SOL     OW26542   0.586   2.720   5.810
 8548SOL    HW126543   0.525   2.770   5.872
 8548SOL    HW226544   0.645   2.659   5.863
 8549SOL     OW26545   1.436   1.806   3.629
 8549SOL    HW126546   1.533   1.831   3.622
 8549SOL    HW226547   1.389   1.833   3.545
 8550SOL     OW26548   0.756   4.334   6.749
 8550SOL    HW126549   0.837   4.391   6.764
 8550SOL    HW226550   0.756   4.258   6.814
 8551SOL     OW26551   1.841   2.448   6.573
 8551SOL    HW126552   1.905   2.449   6.496
 8551SOL    HW226553   1.804   2.356   6.583
 8552SOL     OW26554   3.146   0.563   1.928
 8552SOL    HW126555   3.209   0.608   1.865
 8552SOL    HW226556   3.149   0.611   2.017
 8553SOL     OW26557   3.817   3.276   0.989
 8553SOL    HW126558   3.827   3.205   1.058
 8553SOL    HW226559   3.908   3.313   0.967
 8554SOL     OW26560   1.065   6.929   1.347
 8554SOL    HW126561   1.115   6.918   1.433
 8554SOL    HW226562   1.101   6.865   1.279
 8555SOL     OW26563   4.047   1.611   3.834
 8555SOL    HW126564   4.134   1.621   3.883
 8555SOL    HW226565   4.064   1.582   3.740
 8556SOL     OW26566   2.123   6.384   6.132
 8556SOL    HW126567   2.037   6.429   6.109
 8556SOL    HW226568   2.169   6.356   6.048
 8557SOL     OW26569   6.348   1.038   0.452
 8557SOL    HW126570   6.275   1.103   0.431
 8557SOL    HW226571   6.349   0.965   0.383
 8558SOL     OW26572   2.114   4.513   3.062
 8558SOL    HW126573   2.106   4.612   3.058
 8558SOL    HW226574   2.127   4.485   3.157
 8559SOL     OW26575   0.360   6.308   2.370
 8559SOL    HW126576   0.403   6.389   2.411
 8559SOL    HW226577   0.265   6.328   2.349
 8560SOL     OW26578   1.573   5.208   1.302
 8560SOL    HW126579   1.511   5.226   1.378
 8560SOL    HW226580   1.526   5.155   1.232
 8561SOL     OW26581   3.714   0.359   2.959
 8561SOL    HW126582   3.674   0.386   2.872
 8561SOL    HW226583   3.643   0.355   3.029
 8562SOL     OW26584   3.888   1.518   0.109
 8562SOL    HW126585   3.909   1.608   0.070
 8562SOL    HW226586   3.825   1.470   0.048
 8563SOL     OW26587   1.665   5.648   2.616
 8563SOL    HW126588   1.614   5.729   2.586
 8563SOL    HW226589   1.707   5.604   2.536
 8564SOL     OW26590   3.899   6.296   7.004
 8564SOL    HW126591   3.979   6.247   6.969
 8564SOL    HW226592   3.890   6.281   0.077
 8565SOL     OW26593   3.590   5.466   1.448
 8565SOL    HW126594   3.675   5.420   1.472
 8565SOL    HW226595   3.573   5.541   1.512
 8566SOL     OW26596   2.513   1.071   2.530
 8566SOL    HW126597   2.463   1.073   2.443
 8566SOL    HW226598   2.559   0.983   2.540
 8567SOL     OW26599   1.092   1.982   1.429
 8567SOL    HW126600   1.153   1.905   1.410
 8567SOL    HW226601   1.082   2.038   1.347
 8568SOL     OW26602   0.063   1.455   0.399
 8568SOL    HW126603   0.037   1.440   0.494
 8568SOL    HW226604   7.007   1.451   0.341
 8569SOL     OW26605   5.560   2.439   6.046
 8569SOL    HW126606   5.518   2.375   5.982
 8569SOL    HW226607   5.568   2.529   6.003
 8570SOL     OW26608   1.691   1.869   4.510
 8570SOL    HW126609   1.625   1.793   4.507
 8570SOL    HW226610   1.674   1.930   4.433
 8571SOL     OW26611   1.686   1.334   4.190
 8571SOL    HW126612   1.650   1.427   4.188
 8571SOL    HW226613   1.703   1.307   4.285
 8572SOL     OW26614   2.818   4.105   5.314
 8572SOL    HW126615   2.740   4.072   5.261
 8572SOL    HW226616   2.805   4.202   5.335
 8573SOL     OW26617   2.960   6.149   6.895
 8573SOL    HW126618   2.946   6.197   6.808
 8573SOL    HW226619   3.002   6.060   6.877
 8574SOL     OW26620   0.091   7.005   6.339
 8574SOL    HW126621   0.135   0.004   6.425
 8574SOL    HW226622   7.020   0.009   6.341
 8575SOL     OW26623   3.581   0.392   2.321
 8575SOL    HW126624   3.570   0.425   2.227
 8575SOL    HW226625   3.657   0.327   2.325
 8576SOL     OW26626   0.544   3.715   4.369
 8576SOL    HW126627   0.507   3.806   4.386
 8576SOL    HW226628   0.625   3.722   4.311
 8577SOL     OW26629   1.916   0.781   6.039
 8577SOL    HW126630   1.868   0.698   6.068
 8577SOL    HW226631   1.926   0.842   6.118
 8578SOL     OW26632   6.570   6.307   5.876
 8578SOL    HW126633   6.502   6.243   5.911
 8578SOL    HW226634   6.531   6.357   5.798
 8579SOL     OW26635   2.239   6.378   2.209
 8579SOL    HW126636   2.334   6.386   2.238
 8579SOL    HW226637   2.193   6.310   2.266
 8580SOL     OW26638   1.222   6.367   1.432
 8580SOL    HW126639   1.168   6.392   1.352
 8580SOL    HW226640   1.318   6.392   1.417
 8581SOL     OW26641   3.562   5.322   1.720
 8581SOL    HW126642   3.526   5.327   1.627
 8581SOL    HW226643   3.658   5.293   1.717
 8582SOL     OW26644   4.104   4.681   5.590
 8582SOL    HW126645   4.005   4.683   5.606
 8582SOL    HW226646   4.153   4.687   5.677
 8583SOL     OW26647   4.073   0.583   3.118
 8583SOL    HW126648   3.984   0.608   3.078
 8583SOL    HW226649   4.146   0.603   3.053
 8584SOL     OW26650   6.562   1.077   4.932
 8584SOL    HW126651   6.603   1.082   5.023
 8584SOL    HW226652   6.482   1.137   4.928
 8585SOL     OW26653   5.874   2.089   0.976
 8585SOL    HW126654   5.827   2.138   0.902
 8585SOL    HW226655   5.836   1.998   0.985
 8586SOL     OW26656   5.637   6.511   1.372
 8586SOL    HW126657   5.724   6.561   1.378
 8586SOL    HW226658   5.580   6.535   1.451
 8587SOL     OW26659   0.780   2.081   4.621
 8587SOL    HW126660   0.761   1.986   4.596
 8587SOL    HW226661   0.869   2.108   4.583
 8588SOL     OW26662   3.878   1.769   6.989
 8588SOL    HW126663   3.969   1.801   7.016
 8588SOL    HW226664   3.884   1.723   6.900
 8589SOL     OW26665   6.773   2.905   5.246
 8589SOL    HW126666   6.805   2.982   5.190
 8589SOL    HW226667   6.753   2.827   5.187
 8590SOL     OW26668   0.003   0.176   3.108
 8590SOL    HW126669   6.976   0.234   3.170
 8590SOL    HW226670   0.064   0.116   3.160
 8591SOL     OW26671   6.248   4.648   0.847
 8591SOL    HW126672   6.294   4.561   0.829
 8591SOL    HW226673   6.215   4.686   0.761
 8592SOL     OW26674   0.296   2.386   6.998
 8592SOL    HW126675   0.269   2.343   6.911
 8592SOL    HW226676   0.291   2.485   6.989
 8593SOL     OW26677   3.200   0.477   6.794
 8593SOL    HW126678   3.184   0.511   6.701
 8593SOL    HW226679   3.179   0.379   6.797
 8594SOL     OW26680   6.223   2.988   6.113
 8594SOL    HW126681   6.249   2.896   6.143
 8594SOL    HW226682   6.133   3.010   6.149
 8595SOL     OW26683   5.473   7.024   2.984
 8595SOL    HW126684   5.377   0.004   2.959
 8595SOL    HW226685   5.508   6.932   2.965
 8596SOL     OW26686   1.394   3.685   3.450
 8596SOL    HW126687   1.339   3.628   3.389
 8596SOL    HW226688   1.333   3.731   3.515
 8597SOL     OW26689   6.344   2.567   0.518
 8597SOL    HW126690   6.372   2.565   0.422
 8597SOL    HW226691   6.246   2.547   0.524
 8598SOL     OW26692   5.600   1.155   4.842
 8598SOL    HW126693   5.541   1.115   4.912
 8598SOL    HW226694   5.692   1.118   4.850
 8599SOL     OW26695   1.632   3.107   3.758
 8599SOL    HW126696   1.669   3.015   3.745
 8599SOL    HW226697   1.587   3.137   3.674
 8600SOL     OW26698   4.654   3.765   0.931
 8600SOL    HW126699   4.724   3.813   0.878
 8600SOL    HW226700   4.697   3.699   0.992
 8601SOL     OW26701   0.403   0.920   3.585
 8601SOL    HW126702   0.413   0.861   3.665
 8601SOL    HW226703   0.490   0.923   3.535
 8602SOL     OW26704   2.559   6.631   3.250
 8602SOL    HW126705   2.509   6.583   3.179
 8602SOL    HW226706   2.504   6.708   3.283
 8603SOL     OW26707   5.826   1.116   6.776
 8603SOL    HW126708   5.783   1.189   6.723
 8603SOL    HW226709   5.761   1.080   6.842
 8604SOL     OW26710   0.698   3.046   6.317
 8604SOL    HW126711   0.796   3.063   6.309
 8604SOL    HW226712   0.667   2.998   6.235
 8605SOL     OW26713   0.524   4.471   4.365
 8605SOL    HW126714   0.619   4.451   4.342
 8605SOL    HW226715   0.506   4.569   4.349
 8606SOL     OW26716   2.452   2.446   6.756
 8606SOL    HW126717   2.384   2.392   6.706
 8606SOL    HW226718   2.422   2.457   6.851
 8607SOL     OW26719   1.999   4.849   0.239
 8607SOL    HW126720   1.906   4.877   0.264
 8607SOL    HW226721   2.065   4.899   0.295
 8608SOL     OW26722   1.995   4.794   2.507
 8608SOL    HW126723   1.942   4.723   2.460
 8608SOL    HW226724   2.061   4.834   2.443
 8609SOL     OW26725   4.966   0.945   3.583
 8609SOL    HW126726   4.896   0.897   3.531
 8609SOL    HW226727   5.015   0.880   3.641
 8610SOL     OW26728   6.885   6.376   3.033
 8610SOL    HW126729   6.851   6.363   2.940
 8610SOL    HW226730   6.873   6.292   3.085
 8611SOL     OW26731   2.835   0.860   4.112
 8611SOL    HW126732   2.844   0.889   4.208
 8611SOL    HW226733   2.743   0.880   4.080
 8612SOL     OW26734   3.083   3.342   2.589
 8612SOL    HW126735   3.055   3.422   2.643
 8612SOL    HW226736   3.183   3.335   2.590
 8613SOL     OW26737   2.514   2.735   1.414
 8613SOL    HW126738   2.542   2.753   1.319
 8613SOL    HW226739   2.420   2.701   1.415
 8614SOL     OW26740   0.801   2.497   2.604
 8614SOL    HW126741   0.876   2.449   2.559
 8614SOL    HW226742   0.822   2.594   2.610
 8615SOL     OW26743   4.856   1.971   4.590
 8615SOL    HW126744   4.910   1.916   4.655
 8615SOL    HW226745   4.771   1.999   4.634
 8616SOL     OW26746   2.863   4.756   2.465
 8616SOL    HW126747   2.772   4.720   2.485
 8616SOL    HW226748   2.873   4.768   2.366
 8617SOL     OW26749   5.645   0.050   4.067
 8617SOL    HW126750   5.636   0.144   4.102
 8617SOL    HW226751   5.726   0.043   4.010
 8618SOL     OW26752   6.320   3.678   0.848
 8618SOL    HW126753   6.323   3.675   0.948
 8618SOL    HW226754   6.398   3.731   0.815
 8619SOL     OW26755   4.292   5.125   2.653
 8619SOL    HW126756   4.308   5.222   2.671
 8619SOL    HW226757   4.372   5.086   2.607
 8620SOL     OW26758   1.529   0.259   4.396
 8620SOL    HW126759   1.518   0.357   4.384
 8620SOL    HW226760   1.604   0.226   4.337
 8621SOL     OW26761   4.781   2.807   2.098
 8621SOL    HW126762   4.813   2.819   2.192
 8621SOL    HW226763   4.771   2.897   2.055
 8622SOL     OW26764   6.235   5.034   2.234
 8622SOL    HW126765   6.302   4.966   2.264
 8622SOL    HW226766   6.261   5.124   2.270
 8623SOL     OW26767   0.120   3.145   4.821
 8623SOL    HW126768   0.108   3.244   4.826
 8623SOL    HW226769   0.065   3.109   4.746
 8624SOL     OW26770   3.720   3.468   6.298
 8624SOL    HW126771   3.801   3.410   6.288
 8624SOL    HW226772   3.698   3.479   6.395
 8625SOL     OW26773   4.025   1.276   5.752
 8625SOL    HW126774   4.015   1.176   5.751
 8625SOL    HW226775   4.121   1.300   5.737
 8626SOL     OW26776   3.554   2.684   0.904
 8626SOL    HW126777   3.591   2.691   0.811
 8626SOL    HW226778   3.579   2.595   0.943
 8627SOL     OW26779   1.853   1.756   2.363
 8627SOL    HW126780   1.915   1.834   2.375
 8627SOL    HW226781   1.901   1.671   2.382
 8628SOL     OW26782   6.738   0.079   0.260
 8628SOL    HW126783   6.680   7.024   0.270
 8628SOL    HW226784   6.695   0.143   0.196
 8629SOL     OW26785   0.917   6.942   4.754
 8629SOL    HW126786   1.007   6.924   4.714
 8629SOL    HW226787   0.900   6.878   4.829
 8630SOL     OW26788   4.881   3.311   3.496
 8630SOL    HW126789   4.882   3.363   3.581
 8630SOL    HW226790   4.846   3.219   3.514
 8631SOL     OW26791   2.141   5.790   6.398
 8631SOL    HW126792   2.081   5.720   6.437
 8631SOL    HW226793   2.162   5.859   6.468
 8632SOL     OW26794   4.051   4.479   5.363
 8632SOL    HW126795   4.087   4.525   5.444
 8632SOL    HW226796   4.123   4.469   5.295
 8633SOL     OW26797   5.471   3.640   6.003
 8633SOL    HW126798   5.428   3.700   5.936
 8633SOL    HW226799   5.483   3.548   5.964
 8634SOL     OW26800   5.330   5.015   0.267
 8634SOL    HW126801   5.318   4.944   0.336
 8634SOL    HW226802   5.355   5.101   0.312
 8635SOL     OW26803   6.264   2.505   6.693
 8635SOL    HW126804   6.235   2.551   6.609
 8635SOL    HW226805   6.351   2.459   6.677
 8636SOL     OW26806   4.284   5.763   0.393
 8636SOL    HW126807   4.315   5.676   0.354
 8636SOL    HW226808   4.259   5.749   0.489
 8637SOL     OW26809   2.054   1.283   6.042
 8637SOL    HW126810   2.114   1.361   6.062
 8637SOL    HW226811   1.961   1.316   6.027
 8638SOL     OW26812   4.113   2.791   5.304
 8638SOL    HW126813   4.110   2.692   5.302
 8638SOL    HW226814   4.200   2.822   5.341
 8639SOL     OW26815   4.914   3.355   7.024
 8639SOL    HW126816   4.881   3.442   0.035
 8639SOL    HW226817   4.915   3.287   0.072
 8640SOL     OW26818   3.934   3.370   1.676
 8640SOL    HW126819   4.014   3.403   1.626
 8640SOL    HW226820   3.895   3.291   1.628
 8641SOL     OW26821   4.311   5.327   3.874
 8641SOL    HW126822   4.374   5.256   3.902
 8641SOL    HW226823   4.338   5.415   3.914
 8642SOL     OW26824   0.123   6.484   3.557
 8642SOL    HW126825   0.095   6.540   3.635
 8642SOL    HW226826   0.194   6.532   3.505
 8643SOL     OW26827   1.886   6.884   0.598
 8643SOL    HW126828   1.888   6.983   0.610
 8643SOL    HW226829   1.926   6.840   0.678
 8644SOL     OW26830   6.134   2.388   6.374
 8644SOL    HW126831   6.142   2.334   6.458
 8644SOL    HW226832   6.055   2.357   6.321
 8645SOL     OW26833   5.065   4.866   1.545
 8645SOL    HW126834   4.996   4.843   1.477
 8645SOL    HW226835   5.092   4.783   1.594
 8646SOL     OW26836   0.342   2.096   6.281
 8646SOL    HW126837   0.294   2.134   6.360
 8646SOL    HW226838   0.347   2.165   6.209
 8647SOL     OW26839   2.876   5.566   1.077
 8647SOL    HW126840   2.852   5.502   1.005
 8647SOL    HW226841   2.798   5.579   1.138
 8648SOL     OW26842   5.748   6.596   1.043
 8648SOL    HW126843   5.822   6.536   1.074
 8648SOL    HW226844   5.719   6.656   1.117
 8649SOL     OW26845   4.603   6.496   0.089
 8649SOL    HW126846   4.524   6.498   0.028
 8649SOL    HW226847   4.603   6.409   0.139
 8650SOL     OW26848   1.549   6.842   4.441
 8650SOL    HW126849   1.535   6.890   4.354
 8650SOL    HW226850   1.541   6.743   4.426
 8651SOL     OW26851   3.156   1.396   0.905
 8651SOL    HW126852   3.109   1.341   0.836
 8651SOL    HW226853   3.199   1.475   0.862
 8652SOL     OW26854   0.909   4.898   4.223
 8652SOL    HW126855   0.821   4.927   4.187
 8652SOL    HW226856   0.896   4.852   4.311
 8653SOL     OW26857   6.425   1.553   5.613
 8653SOL    HW126858   6.401   1.591   5.523
 8653SOL    HW226859   6.510   1.596   5.644
 8654SOL     OW26860   0.857   4.970   1.477
 8654SOL    HW126861   0.767   4.944   1.442
 8654SOL    HW226862   0.927   4.913   1.435
 8655SOL     OW26863   6.683   1.206   5.232
 8655SOL    HW126864   6.707   1.126   5.288
 8655SOL    HW226865   6.766   1.252   5.202
 8656SOL     OW26866   5.372   0.089   2.210
 8656SOL    HW126867   5.283   0.132   2.219
 8656SOL    HW226868   5.414   0.079   2.300
 8657SOL     OW26869   5.964   5.906   0.249
 8657SOL    HW126870   5.947   5.826   0.192
 8657SOL    HW226871   6.022   5.971   0.200
 8658SOL     OW26872   5.727   5.693   0.974
 8658SOL    HW126873   5.671   5.768   0.941
 8658SOL    HW226874   5.813   5.728   1.009
 8659SOL     OW26875   4.514   2.500   3.085
 8659SOL    HW126876   4.459   2.570   3.131
 8659SOL    HW226877   4.497   2.411   3.129
 8660SOL     OW26878   0.493   2.379   1.994
 8660SOL    HW126879   0.538   2.468   2.000
 8660SOL    HW226880   0.419   2.383   1.927
 8661SOL     OW26881   5.937   3.133   2.579
 8661SOL    HW126882   5.992   3.214   2.562
 8661SOL    HW226883   5.975   3.055   2.529
 8662SOL     OW26884   3.407   6.098   2.027
 8662SOL    HW126885   3.349   6.041   2.085
 8662SOL    HW226886   3.371   6.191   2.025
 8663SOL     OW26887   2.433   5.600   2.998
 8663SOL    HW126888   2.442   5.515   3.049
 8663SOL    HW226889   2.429   5.580   2.900
 8664SOL     OW26890   2.406   5.644   3.383
 8664SOL    HW126891   2.443   5.578   3.318
 8664SOL    HW226892   2.467   5.651   3.462
 8665SOL     OW26893   6.698   5.334   5.572
 8665SOL    HW126894   6.607   5.300   5.595
 8665SOL    HW226895   6.766   5.264   5.594
 8666SOL     OW26896   5.640   7.011   4.342
 8666SOL    HW126897   5.683   7.000   4.252
 8666SOL    HW226898   5.702   6.978   4.413
 8667SOL     OW26899   4.814   1.070   4.848
 8667SOL    HW126900   4.891   1.011   4.872
 8667SOL    HW226901   4.823   1.100   4.753
 8668SOL     OW26902   5.115   3.092   4.656
 8668SOL    HW126903   5.165   3.046   4.730
 8668SOL    HW226904   5.151   3.063   4.568
 8669SOL     OW26905   6.865   6.733   6.602
 8669SOL    HW126906   6.951   6.784   6.608
 8669SOL    HW226907   6.882   6.644   6.561
 8670SOL     OW26908   5.657   5.250   5.923
 8670SOL    HW126909   5.638   5.310   6.000
 8670SOL    HW226910   5.593   5.174   5.924
 8671SOL     OW26911   0.603   1.807   2.244
 8671SOL    HW126912   0.522   1.848   2.202
 8671SOL    HW226913   0.668   1.879   2.269
 8672SOL     OW26914   0.143   7.020   3.547
 8672SOL    HW126915   0.140   0.025   3.642
 8672SOL    HW226916   0.228   0.027   3.504
 8673SOL     OW26917   6.683   1.777   0.151
 8673SOL    HW126918   6.668   1.849   0.219
 8673SOL    HW226919   6.595   1.743   0.119
 8674SOL     OW26920   6.502   4.250   3.084
 8674SOL    HW126921   6.431   4.181   3.097
 8674SOL    HW226922   6.591   4.206   3.074
 8675SOL     OW26923   3.749   1.208   5.774
 8675SOL    HW126924   3.723   1.270   5.700
 8675SOL    HW226925   3.845   1.221   5.798
 8676SOL     OW26926   5.562   0.936   1.342
 8676SOL    HW126927   5.535   0.994   1.418
 8676SOL    HW226928   5.544   0.983   1.255
 8677SOL     OW26929   2.098   6.162   5.571
 8677SOL    HW126930   2.061   6.073   5.596
 8677SOL    HW226931   2.197   6.163   5.585
 8678SOL     OW26932   0.891   6.699   0.549
 8678SOL    HW126933   0.909   6.716   0.453
 8678SOL    HW226934   0.831   6.771   0.585
 8679SOL     OW26935   1.837   1.259   3.954
 8679SOL    HW126936   1.774   1.289   4.026
 8679SOL    HW226937   1.788   1.256   3.867
 8680SOL     OW26938   6.485   2.850   6.484
 8680SOL    HW126939   6.467   2.902   6.401
 8680SOL    HW226940   6.522   2.911   6.554
 8681SOL     OW26941   4.304   5.642   1.634
 8681SOL    HW126942   4.345   5.567   1.582
 8681SOL    HW226943   4.372   5.681   1.695
 8682SOL     OW26944   6.806   0.451   1.140
 8682SOL    HW126945   6.886   0.398   1.114
 8682SOL    HW226946   6.815   0.481   1.235
 8683SOL     OW26947   1.497   3.400   4.850
 8683SOL    HW126948   1.522   3.404   4.947
 8683SOL    HW226949   1.534   3.317   4.809
 8684SOL     OW26950   0.165   3.391   4.542
 8684SOL    HW126951   0.199   3.418   4.633
 8684SOL    HW226952   0.131   3.472   4.495
 8685SOL     OW26953   5.285   2.568   6.891
 8685SOL    HW126954   5.210   2.613   6.842
 8685SOL    HW226955   5.370   2.618   6.874
 8686SOL     OW26956   6.099   6.558   3.012
 8686SOL    HW126957   6.030   6.498   3.052
 8686SOL    HW226958   6.189   6.532   3.045
 8687SOL     OW26959   6.230   4.202   2.857
 8687SOL    HW126960   6.244   4.131   2.927
 8687SOL    HW226961   6.191   4.160   2.775
 8688SOL     OW26962   1.723   4.253   6.457
 8688SOL    HW126963   1.807   4.275   6.407
 8688SOL    HW226964   1.745   4.191   6.533
 8689SOL     OW26965   4.784   3.076   0.439
 8689SOL    HW126966   4.722   2.999   0.451
 8689SOL    HW226967   4.737   3.161   0.464
 8690SOL     OW26968   1.095   2.424   2.801
 8690SOL    HW126969   1.038   2.445   2.722
 8690SOL    HW226970   1.062   2.340   2.845
 8691SOL     OW26971   3.719   1.628   5.200
 8691SOL    HW126972   3.624   1.632   5.230
 8691SOL    HW226973   3.762   1.718   5.213
 8692SOL     OW26974   3.942   2.093   5.773
 8692SOL    HW126975   3.964   2.179   5.727
 8692SOL    HW226976   3.975   2.096   5.867
 8693SOL     OW26977   6.757   1.398   6.406
 8693SOL    HW126978   6.845   1.361   6.435
 8693SOL    HW226979   6.690   1.324   6.399
 8694SOL     OW26980   6.099   2.003   4.823
 8694SOL    HW126981   6.024   2.046   4.773
 8694SOL    HW226982   6.080   2.004   4.921
 8695SOL     OW26983   4.133   3.228   6.358
 8695SOL    HW126984   4.159   3.316   6.318
 8695SOL    HW226985   4.151   3.229   6.457
 8696SOL     OW26986   2.435   6.009   4.965
 8696SOL    HW126987   2.387   5.980   4.881
 8696SOL    HW226988   2.372   6.002   5.043
 8697SOL     OW26989   1.580   4.448   5.914
 8697SOL    HW126990   1.610   4.527   5.860
 8697SOL    HW226991   1.480   4.449   5.922
 8698SOL     OW26992   5.001   5.886   6.101
 8698SOL    HW126993   4.980   5.947   6.177
 8698SOL    HW226994   4.944   5.804   6.107
 8699SOL     OW26995   2.293   3.237   6.452
 8699SOL    HW126996   2.272   3.158   6.396
 8699SOL    HW226997   2.348   3.302   6.399
 8700SOL     OW26998   0.990   0.647   5.286
 8700SOL    HW126999   1.029   0.737   5.268
 8700SOL    HW227000   0.908   0.657   5.343
 8701SOL     OW27001   1.891   1.498   6.814
 8701SOL    HW127002   1.826   1.569   6.787
 8701SOL    HW227003   1.901   1.432   6.740
 8702SOL     OW27004   5.033   5.290   2.087
 8702SOL    HW127005   5.118   5.304   2.036
 8702SOL    HW227006   4.968   5.362   2.063
 8703SOL     OW27007   2.891   4.578   6.837
 8703SOL    HW127008   2.904   4.586   6.936
 8703SOL    HW227009   2.971   4.535   6.796
 8704SOL     OW27010   0.001   2.911   4.178
 8704SOL    HW127011   0.041   3.000   4.156
 8704SOL    HW227012   0.012   2.893   4.275
 8705SOL     OW27013   4.759   2.239   6.632
 8705SOL    HW127014   4.803   2.299   6.699
 8705SOL    HW227015   4.698   2.175   6.680
 8706SOL     OW27016   5.769   2.776   0.321
 8706SOL    HW127017   5.722   2.696   0.285
 8706SOL    HW227018   5.727   2.859   0.285
 8707SOL     OW27019   1.041   2.319   3.690
 8707SOL    HW127020   0.968   2.264   3.730
 8707SOL    HW227021   1.067   2.392   3.754
 8708SOL     OW27022   5.033   1.922   4.077
 8708SOL    HW127023   4.938   1.911   4.048
 8708SOL    HW227024   5.046   2.014   4.115
 8709SOL     OW27025   6.886   0.324   6.975
 8709SOL    HW127026   6.920   0.234   6.947
 8709SOL    HW227027   6.923   0.394   6.914
 8710SOL     OW27028   2.289   2.121   3.480
 8710SOL    HW127029   2.362   2.095   3.416
 8710SOL    HW227030   2.310   2.086   3.571
 8711SOL     OW27031   0.968   0.690   1.770
 8711SOL    HW127032   1.060   0.721   1.750
 8711SOL    HW227033   0.938   0.626   1.698
 8712SOL     OW27034   2.761   1.740   5.054
 8712SOL    HW127035   2.710   1.675   5.111
 8712SOL    HW227036   2.754   1.832   5.093
 8713SOL     OW27037   0.774   3.863   1.466
 8713SOL    HW127038   0.697   3.896   1.520
 8713SOL    HW227039   0.761   3.767   1.443
 8714SOL     OW27040   0.529   6.686   0.578
 8714SOL    HW127041   0.454   6.705   0.516
 8714SOL    HW227042   0.592   6.620   0.536
 8715SOL     OW27043   3.078   1.977   7.010
 8715SOL    HW127044   3.136   2.037   6.955
 8715SOL    HW227045   3.125   1.955   0.071
 8716SOL     OW27046   0.088   6.291   1.154
 8716SOL    HW127047   7.014   6.297   1.158
 8716SOL    HW227048   0.115   6.197   1.130
 8717SOL     OW27049   2.449   3.435   6.334
 8717SOL    HW127050   2.472   3.507   6.400
 8717SOL    HW227051   2.528   3.418   6.274
 8718SOL     OW27052   1.289   2.836   6.318
 8718SOL    HW127053   1.276   2.795   6.409
 8718SOL    HW227054   1.338   2.772   6.259
 8719SOL     OW27055   4.387   1.176   0.014
 8719SOL    HW127056   4.426   1.257   0.058
 8719SOL    HW227057   4.293   1.162   0.047
 8720SOL     OW27058   7.017   5.085   5.421
 8720SOL    HW127059   7.025   5.162   5.359
 8720SOL    HW227060   0.045   5.103   5.504
 8721SOL     OW27061   6.575   6.863   6.607
 8721SOL    HW127062   6.611   6.857   6.514
 8721SOL    HW227063   6.615   6.790   6.663
 8722SOL     OW27064   2.932   0.348   0.607
 8722SOL    HW127065   2.980   0.399   0.678
 8722SOL    HW227066   2.945   0.392   0.519
 8723SOL     OW27067   5.607   6.774   2.088
 8723SOL    HW127068   5.530   6.807   2.143
 8723SOL    HW227069   5.656   6.852   2.049
 8724SOL     OW27070   5.383   0.113   4.394
 8724SOL    HW127071   5.462   0.054   4.376
 8724SOL    HW227072   5.381   0.136   4.491
 8725SOL     OW27073   0.091   6.285   4.713
 8725SOL    HW127074   0.116   6.261   4.807
 8725SOL    HW227075   0.159   6.347   4.675
 8726SOL     OW27076   6.892   1.480   0.237
 8726SOL    HW127077   6.811   1.500   0.292
 8726SOL    HW227078   6.872   1.404   0.175
 8727SOL     OW27079   6.274   0.094   6.921
 8727SOL    HW127080   6.345   0.163   6.904
 8727SOL    HW227081   6.314   0.003   6.915
 8728SOL     OW27082   5.312   1.390   2.746
 8728SOL    HW127083   5.241   1.458   2.731
 8728SOL    HW227084   5.341   1.353   2.658
 8729SOL     OW27085   3.142   5.130   5.377
 8729SOL    HW127086   3.056   5.169   5.410
 8729SOL    HW227087   3.217   5.195   5.395
 8730SOL     OW27088   5.552   4.298   3.078
 8730SOL    HW127089   5.456   4.293   3.050
 8730SOL    HW227090   5.556   4.333   3.172
 8731SOL     OW27091   0.101   2.517   2.939
 8731SOL    HW127092   0.161   2.463   2.998
 8731SOL    HW227093   0.143   2.525   2.849
 8732SOL     OW27094   5.169   4.629   1.284
 8732SOL    HW127095   5.101   4.702   1.288
 8732SOL    HW227096   5.213   4.620   1.373
 8733SOL     OW27097   0.591   5.446   1.166
 8733SOL    HW127098   0.683   5.414   1.143
 8733SOL    HW227099   0.525   5.372   1.150
 8734SOL     OW27100   6.593   3.673   1.610
 8734SOL    HW127101   6.590   3.723   1.524
 8734SOL    HW227102   6.665   3.604   1.606
 8735SOL     OW27103   1.258   3.676   5.100
 8735SOL    HW127104   1.233   3.579   5.102
 8735SOL    HW227105   1.180   3.729   5.066
 8736SOL     OW27106   0.770   5.548   2.004
 8736SOL    HW127107   0.738   5.626   1.950
 8736SOL    HW227108   0.783   5.469   1.945
 8737SOL     OW27109   2.839   5.552   6.278
 8737SOL    HW127110   2.803   5.545   6.371
 8737SOL    HW227111   2.877   5.643   6.263
 8738SOL     OW27112   1.361   3.907   3.632
 8738SOL    HW127113   1.369   3.941   3.726
 8738SOL    HW227114   1.438   3.939   3.578
 8739SOL     OW27115   5.437   3.942   5.245
 8739SOL    HW127116   5.456   3.863   5.187
 8739SOL    HW227117   5.515   4.005   5.242
 8740SOL     OW27118   3.763   2.121   3.025
 8740SOL    HW127119   3.847   2.138   2.974
 8740SOL    HW227120   3.706   2.056   2.976
 8741SOL     OW27121   2.100   6.875   2.594
 8741SOL    HW127122   2.087   6.835   2.684
 8741SOL    HW227123   2.163   6.953   2.601
 8742SOL     OW27124   3.705   0.690   2.694
 8742SOL    HW127125   3.626   0.735   2.736
 8742SOL    HW227126   3.778   0.756   2.680
 8743SOL     OW27127   1.758   1.012   1.628
 8743SOL    HW127128   1.776   0.931   1.572
 8743SOL    HW227129   1.738   1.090   1.569
 8744SOL     OW27130   4.701   2.918   6.741
 8744SOL    HW127131   4.610   2.889   6.710
 8744SOL    HW227132   4.697   2.941   6.838
 8745SOL     OW27133   6.582   2.318   6.350
 8745SOL    HW127134   6.663   2.291   6.297
 8745SOL    HW227135   6.602   2.403   6.400
 8746SOL     OW27136   4.973   4.758   4.027
 8746SOL    HW127137   4.985   4.687   3.958
 8746SOL    HW227138   4.999   4.722   4.117
 8747SOL     OW27139   6.392   0.964   2.504
 8747SOL    HW127140   6.457   1.040   2.502
 8747SOL    HW227141   6.377   0.930   2.411
 8748SOL     OW27142   1.044   1.532   3.961
 8748SOL    HW127143   1.053   1.442   3.919
 8748SOL    HW227144   1.043   1.602   3.889
 8749SOL     OW27145   2.183   1.172   5.437
 8749SOL    HW127146   2.126   1.237   5.488
 8749SOL    HW227147   2.271   1.161   5.484
 8750SOL     OW27148   4.041   2.850   5.875
 8750SOL    HW127149   4.095   2.829   5.793
 8750SOL    HW227150   4.071   2.792   5.951
 8751SOL     OW27151   6.695   0.012   0.538
 8751SOL    HW127152   6.699   0.089   0.475
 8751SOL    HW227153   6.600   7.024   0.568
 8752SOL     OW27154   5.240   2.870   0.029
 8752SOL    HW127155   5.225   2.842   6.960
 8752SOL    HW227156   5.156   2.856   0.082
 8753SOL     OW27157   1.940   3.352   6.852
 8753SOL    HW127158   2.035   3.362   6.822
 8753SOL    HW227159   1.906   3.262   6.825
 8754SOL     OW27160   2.757   5.071   6.193
 8754SOL    HW127161   2.775   5.075   6.095
 8754SOL    HW227162   2.703   5.151   6.220
 8755SOL     OW27163   1.133   1.252   0.877
 8755SOL    HW127164   1.227   1.231   0.901
 8755SOL    HW227165   1.096   1.178   0.820
 8756SOL     OW27166   2.283   2.955   3.733
 8756SOL    HW127167   2.218   3.018   3.691
 8756SOL    HW227168   2.326   2.999   3.811
 8757SOL     OW27169   5.231   6.289   5.698
 8757SOL    HW127170   5.171   6.335   5.763
 8757SOL    HW227171   5.206   6.314   5.605
 8758SOL     OW27172   4.266   7.017   3.272
 8758SOL    HW127173   4.215   6.965   3.204
 8758SOL    HW227174   4.343   6.961   3.304
 8759SOL     OW27175   6.327   1.690   6.997
 8759SOL    HW127176   6.399   1.666   6.932
 8759SOL    HW227177   6.247   1.633   6.980
 8760SOL     OW27178   2.394   1.991   3.722
 8760SOL    HW127179   2.352   1.944   3.800
 8760SOL    HW227180   2.440   1.924   3.663
 8761SOL     OW27181   5.350   1.547   2.109
 8761SOL    HW127182   5.344   1.477   2.180
 8761SOL    HW227183   5.290   1.522   2.033
 8762SOL     OW27184   1.815   6.134   3.917
 8762SOL    HW127185   1.809   6.094   3.826
 8762SOL    HW227186   1.734   6.108   3.971
 8763SOL     OW27187   6.764   0.851   5.019
 8763SOL    HW127188   6.747   0.948   5.002
 8763SOL    HW227189   6.844   0.841   5.078
 8764SOL     OW27190   4.284   5.948   6.166
 8764SOL    HW127191   4.265   5.870   6.106
 8764SOL    HW227192   4.308   6.027   6.110
 8765SOL     OW27193   5.685   1.073   5.360
 8765SOL    HW127194   5.686   1.148   5.295
 8765SOL    HW227195   5.750   1.003   5.331
 8766SOL     OW27196   4.421   4.323   5.609
 8766SOL    HW127197   4.335   4.372   5.619
 8766SOL    HW227198   4.493   4.370   5.660
 8767SOL     OW27199   3.247   0.155   3.708
 8767SOL    HW127200   3.286   0.074   3.753
 8767SOL    HW227201   3.317   0.198   3.651
 8768SOL     OW27202   0.680   2.132   6.795
 8768SOL    HW127203   0.628   2.192   6.857
 8768SOL    HW227204   0.635   2.043   6.790
 8769SOL     OW27205   6.219   1.246   1.432
 8769SOL    HW127206   6.317   1.226   1.438
 8769SOL    HW227207   6.168   1.160   1.428
 8770SOL     OW27208   5.365   4.049   2.024
 8770SOL    HW127209   5.340   3.955   1.999
 8770SOL    HW227210   5.282   4.103   2.036
 8771SOL     OW27211   0.344   3.507   6.398
 8771SOL    HW127212   0.430   3.557   6.390
 8771SOL    HW227213   0.353   3.419   6.350
 8772SOL     OW27214   5.527   0.838   4.773
 8772SOL    HW127215   5.607   0.898   4.773
 8772SOL    HW227216   5.499   0.820   4.679
 8773SOL     OW27217   5.613   2.511   3.683
 8773SOL    HW127218   5.591   2.478   3.591
 8773SOL    HW227219   5.528   2.533   3.731
 8774SOL     OW27220   0.599   6.846   0.116
 8774SOL    HW127221   0.537   6.860   0.039
 8774SOL    HW227222   0.660   6.925   0.126
 8775SOL     OW27223   5.628   1.728   4.795
 8775SOL    HW127224   5.715   1.686   4.770
 8775SOL    HW227225   5.570   1.737   4.714
 8776SOL     OW27226   4.517   3.385   1.130
 8776SOL    HW127227   4.603   3.435   1.130
 8776SOL    HW227228   4.488   3.367   1.224
 8777SOL     OW27229   0.827   3.369   2.965
 8777SOL    HW127230   0.795   3.281   2.930
 8777SOL    HW227231   0.926   3.373   2.960
 8778SOL     OW27232   4.311   4.038   5.991
 8778SOL    HW127233   4.349   4.091   5.915
 8778SOL    HW227234   4.325   4.087   6.077
 8779SOL     OW27235   3.030   5.137   2.401
 8779SOL    HW127236   3.060   5.051   2.442
 8779SOL    HW227237   2.934   5.154   2.425
 8780SOL     OW27238   0.107   5.479   2.504
 8780SOL    HW127239   0.054   5.464   2.588
 8780SOL    HW227240   0.050   5.456   2.425
 8781SOL     OW27241   4.482   0.135   2.640
 8781SOL    HW127242   4.395   0.131   2.688
 8781SOL    HW227243   4.486   0.217   2.584
 8782SOL     OW27244   5.607   1.385   1.619
 8782SOL    HW127245   5.607   1.384   1.519
 8782SOL    HW227246   5.677   1.321   1.652
 8783SOL     OW27247   5.607   3.185   4.428
 8783SOL    HW127248   5.563   3.194   4.517
 8783SOL    HW227249   5.619   3.276   4.388
 8784SOL     OW27250   6.193   6.120   0.875
 8784SOL    HW127251   6.161   6.030   0.847
 8784SOL    HW227252   6.265   6.151   0.814
 8785SOL     OW27253   0.880   5.344   6.255
 8785SOL    HW127254   0.831   5.425   6.288
 8785SOL    HW227255   0.840   5.314   6.168
 8786SOL     OW27256   3.988   1.951   2.554
 8786SOL    HW127257   4.037   2.004   2.486
 8786SOL    HW227258   3.890   1.973   2.549
 8787SOL     OW27259   3.684   0.639   1.356
 8787SOL    HW127260   3.685   0.663   1.259
 8787SOL    HW227261   3.645   0.548   1.368
 8788SOL     OW27262   6.995   0.783   5.188
 8788SOL    HW127263   6.987   0.776   5.287
 8788SOL    HW227264   0.044   0.725   5.155
 8789SOL     OW27265   0.168   3.807   5.325
 8789SOL    HW127266   0.111   3.727   5.345
 8789SOL    HW227267   0.257   3.777   5.291
 8790SOL     OW27268   6.337   2.290   0.277
 8790SOL    HW127269   6.251   2.320   0.319
 8790SOL    HW227270   6.390   2.238   0.344
 8791SOL     OW27271   4.886   6.313   5.315
 8791SOL    HW127272   4.891   6.265   5.403
 8791SOL    HW227273   4.857   6.248   5.244
 8792SOL     OW27274   4.159   5.505   1.924
 8792SOL    HW127275   4.111   5.511   2.011
 8792SOL    HW227276   4.132   5.581   1.865
 8793SOL     OW27277   1.182   4.994   4.393
 8793SOL    HW127278   1.253   5.057   4.361
 8793SOL    HW227279   1.223   4.903   4.407
 8794SOL     OW27280   6.127   1.265   3.399
 8794SOL    HW127281   6.131   1.365   3.401
 8794SOL    HW227282   6.031   1.236   3.403
 8795SOL     OW27283   1.021   5.267   5.359
 8795SOL    HW127284   1.099   5.246   5.419
 8795SOL    HW227285   1.049   5.255   5.264
 8796SOL     OW27286   6.102   3.968   3.284
 8796SOL    HW127287   6.065   3.876   3.295
 8796SOL    HW227288   6.168   3.987   3.357
 8797SOL     OW27289   0.157   6.895   3.945
 8797SOL    HW127290   0.121   6.835   4.017
 8797SOL    HW227291   0.244   6.934   3.975
 8798SOL     OW27292   4.858   6.740   5.412
 8798SOL    HW127293   4.906   6.665   5.366
 8798SOL    HW227294   4.778   6.766   5.359
 8799SOL     OW27295   2.246   4.877   2.175
 8799SOL    HW127296   2.259   4.798   2.234
 8799SOL    HW227297   2.265   4.852   2.080
 8800SOL     OW27298   6.594   6.083   5.325
 8800SOL    HW127299   6.522   6.061   5.259
 8800SOL    HW227300   6.645   6.001   5.348
 8801SOL     OW27301   5.877   1.983   5.105
 8801SOL    HW127302   5.858   1.889   5.076
 8801SOL    HW227303   5.969   1.989   5.143
 8802SOL     OW27304   1.327   5.912   5.711
 8802SOL    HW127305   1.397   5.882   5.776
 8802SOL    HW227306   1.309   5.839   5.645
 8803SOL     OW27307   6.728   0.981   0.024
 8803SOL    HW127308   6.690   0.962   6.959
 8803SOL    HW227309   6.680   0.927   0.093
 8804SOL     OW27310   1.767   6.007   1.446
 8804SOL    HW127311   1.827   5.972   1.374
 8804SOL    HW227312   1.766   6.107   1.442
 8805SOL     OW27313   4.464   5.781   3.873
 8805SOL    HW127314   4.485   5.688   3.904
 8805SOL    HW227315   4.532   5.844   3.910
 8806SOL     OW27316   2.191   6.209   0.435
 8806SOL    HW127317   2.114   6.156   0.401
 8806SOL    HW227318   2.252   6.231   0.359
 8807SOL     OW27319   4.765   2.198   0.018
 8807SOL    HW127320   4.668   2.193   7.016
 8807SOL    HW227321   4.818   2.236   6.967
 8808SOL     OW27322   1.688   2.579   0.509
 8808SOL    HW127323   1.622   2.505   0.527
 8808SOL    HW227324   1.741   2.597   0.591
 8809SOL     OW27325   2.147   4.049   3.617
 8809SOL    HW127326   2.049   4.054   3.638
 8809SOL    HW227327   2.198   4.102   3.684
 8810SOL     OW27328   5.966   1.686   5.092
 8810SOL    HW127329   5.932   1.653   5.004
 8810SOL    HW227330   5.913   1.646   5.166
 8811SOL     OW27331   4.349   6.860   2.505
 8811SOL    HW127332   4.317   6.952   2.528
 8811SOL    HW227333   4.442   6.848   2.539
 8812SOL     OW27334   3.485   0.600   6.779
 8812SOL    HW127335   3.399   0.563   6.812
 8812SOL    HW227336   3.546   0.617   6.857
 8813SOL     OW27337   2.141   4.312   2.696
 8813SOL    HW127338   2.069   4.381   2.700
 8813SOL    HW227339   2.230   4.356   2.686
 8814SOL     OW27340   5.880   6.824   0.368
 8814SOL    HW127341   5.796   6.773   0.348
 8814SOL    HW227342   5.951   6.798   0.302
 8815SOL     OW27343   5.668   0.999   0.521
 8815SOL    HW127344   5.717   1.086   0.533
 8815SOL    HW227345   5.727   0.934   0.473
 8816SOL     OW27346   0.055   6.334   6.570
 8816SOL    HW127347   0.126   6.336   6.500
 8816SOL    HW227348   0.002   6.250   6.562
 8817SOL     OW27349   0.571   3.627   4.619
 8817SOL    HW127350   0.583   3.529   4.633
 8817SOL    HW227351   0.573   3.647   4.521
 8818SOL     OW27352   1.617   6.818   3.982
 8818SOL    HW127353   1.614   6.801   3.883
 8818SOL    HW227354   1.524   6.830   4.016
 8819SOL     OW27355   5.728   4.434   5.504
 8819SOL    HW127356   5.643   4.485   5.514
 8819SOL    HW227357   5.743   4.377   5.585
 8820SOL     OW27358   3.711   1.070   4.549
 8820SOL    HW127359   3.625   1.118   4.530
 8820SOL    HW227360   3.786   1.137   4.554
 8821SOL     OW27361   0.605   5.028   0.685
 8821SOL    HW127362   0.660   5.075   0.754
 8821SOL    HW227363   0.576   5.094   0.616
 8822SOL     OW27364   6.849   6.752   3.588
 8822SOL    HW127365   6.823   6.828   3.648
 8822SOL    HW227366   6.909   6.689   3.637
 8823SOL     OW27367   2.809   1.065   2.276
 8823SOL    HW127368   2.831   1.060   2.374
 8823SOL    HW227369   2.710   1.054   2.264
 8824SOL     OW27370   1.502   0.170   1.376
 8824SOL    HW127371   1.456   0.213   1.298
 8824SOL    HW227372   1.506   0.071   1.363
 8825SOL     OW27373   0.324   0.686   1.513
 8825SOL    HW127374   0.347   0.619   1.583
 8825SOL    HW227375   0.293   0.638   1.431
 8826SOL     OW27376   1.001   3.474   0.717
 8826SOL    HW127377   1.062   3.398   0.696
 8826SOL    HW227378   0.906   3.442   0.714
 8827SOL     OW27379   3.792   0.218   2.249
 8827SOL    HW127380   3.849   0.248   2.326
 8827SOL    HW227381   3.849   0.175   2.180
 8828SOL     OW27382   3.854   4.263   6.282
 8828SOL    HW127383   3.816   4.315   6.358
 8828SOL    HW227384   3.783   4.244   6.215
 8829SOL     OW27385   6.545   1.873   2.112
 8829SOL    HW127386   6.562   1.858   2.209
 8829SOL    HW227387   6.536   1.784   2.066
 8830SOL     OW27388   2.311   1.515   1.672
 8830SOL    HW127389   2.283   1.472   1.586
 8830SOL    HW227390   2.400   1.478   1.700
 8831SOL     OW27391   0.288   2.950   2.167
 8831SOL    HW127392   0.197   2.943   2.127
 8831SOL    HW227393   0.281   2.994   2.257
 8832SOL     OW27394   6.627   6.460   4.133
 8832SOL    HW127395   6.578   6.437   4.049
 8832SOL    HW227396   6.596   6.550   4.166
 8833SOL     OW27397   3.842   3.059   1.150
 8833SOL    HW127398   3.928   3.017   1.180
 8833SOL    HW227399   3.775   2.987   1.131
 8834SOL     OW27400   5.821   3.776   5.251
 8834SOL    HW127401   5.868   3.864   5.255
 8834SOL    HW227402   5.790   3.760   5.157
 8835SOL     OW27403   6.179   0.889   6.112
 8835SOL    HW127404   6.172   0.977   6.065
 8835SOL    HW227405   6.087   0.853   6.128
 8836SOL     OW27406   5.937   2.611   0.036
 8836SOL    HW127407   5.982   2.572   6.980
 8836SOL    HW227408   6.004   2.622   0.109
 8837SOL     OW27409   0.013   6.498   1.989
 8837SOL    HW127410   7.021   6.399   1.996
 8837SOL    HW227411   7.006   6.543   2.072
 8838SOL     OW27412   0.854   3.646   2.864
 8838SOL    HW127413   0.826   3.556   2.895
 8838SOL    HW227414   0.773   3.702   2.846
 8839SOL     OW27415   5.149   5.302   2.356
 8839SOL    HW127416   5.105   5.272   2.272
 8839SOL    HW227417   5.211   5.378   2.336
 8840SOL     OW27418   6.368   0.684   2.025
 8840SOL    HW127419   6.275   0.692   1.989
 8840SOL    HW227420   6.385   0.589   2.052
 8841SOL     OW27421   3.856   0.868   2.227
 8841SOL    HW127422   3.786   0.812   2.271
 8841SOL    HW227423   3.923   0.899   2.295
 8842SOL     OW27424   3.226   4.060   3.953
 8842SOL    HW127425   3.221   4.082   4.050
 8842SOL    HW227426   3.253   3.964   3.942
 8843SOL     OW27427   2.162   3.045   4.955
 8843SOL    HW127428   2.092   2.974   4.958
 8843SOL    HW227429   2.235   3.024   5.020
 8844SOL     OW27430   6.504   2.152   5.277
 8844SOL    HW127431   6.552   2.200   5.350
 8844SOL    HW227432   6.410   2.135   5.305
 8845SOL     OW27433   2.127   5.468   0.952
 8845SOL    HW127434   2.171   5.382   0.980
 8845SOL    HW227435   2.184   5.545   0.979
 8846SOL     OW27436   5.490   4.739   4.381
 8846SOL    HW127437   5.587   4.720   4.397
 8846SOL    HW227438   5.455   4.680   4.308
 8847SOL     OW27439   1.418   1.600   2.423
 8847SOL    HW127440   1.482   1.644   2.360
 8847SOL    HW227441   1.462   1.521   2.466
 8848SOL     OW27442   3.407   1.814   1.746
 8848SOL    HW127443   3.316   1.849   1.724
 8848SOL    HW227444   3.449   1.868   1.818
 8849SOL     OW27445   2.658   5.250   4.098
 8849SOL    HW127446   2.567   5.209   4.102
 8849SOL    HW227447   2.724   5.188   4.141
 8850SOL     OW27448   2.843   1.512   0.336
 8850SOL    HW127449   2.935   1.479   0.314
 8850SOL    HW227450   2.841   1.544   0.431
 8851SOL     OW27451   0.614   4.480   2.770
 8851SOL    HW127452   0.645   4.551   2.832
 8851SOL    HW227453   0.635   4.390   2.809
 8852SOL     OW27454   5.234   2.767   6.265
 8852SOL    HW127455   5.266   2.672   6.264
 8852SOL    HW227456   5.137   2.770   6.289
 8853SOL     OW27457   3.126   1.190   5.318
 8853SOL    HW127458   3.122   1.117   5.386
 8853SOL    HW227459   3.214   1.237   5.324
 8854SOL     OW27460   2.024   0.132   5.836
 8854SOL    HW127461   2.064   0.084   5.914
 8854SOL    HW227462   2.031   0.230   5.850
 8855SOL     OW27463   5.843   5.609   6.739
 8855SOL    HW127464   5.924   5.637   6.791
 8855SOL    HW227465   5.766   5.667   6.766
 8856SOL     OW27466   6.464   0.278   4.668
 8856SOL    HW127467   6.448   0.334   4.586
 8856SOL    HW227468   6.544   0.312   4.717
 8857SOL     OW27469   6.191   1.836   3.136
 8857SOL    HW127470   6.260   1.797   3.197
 8857SOL    HW227471   6.181   1.778   3.055
 8858SOL     OW27472   1.129   3.497   5.712
 8858SOL    HW127473   1.123   3.587   5.754
 8858SOL    HW227474   1.138   3.427   5.783
 8859SOL     OW27475   1.097   6.888   5.093
 8859SOL    HW127476   1.151   6.898   5.177
 8859SOL    HW227477   1.001   6.873   5.116
 8860SOL     OW27478   1.614   3.702   2.473
 8860SOL    HW127479   1.552   3.627   2.450
 8860SOL    HW227480   1.696   3.697   2.416
 8861SOL     OW27481   3.178   2.691   6.236
 8861SOL    HW127482   3.152   2.774   6.187
 8861SOL    HW227483   3.265   2.657   6.200
 8862SOL     OW27484   5.855   1.562   4.493
 8862SOL    HW127485   5.862   1.491   4.424
 8862SOL    HW227486   5.903   1.644   4.461
 8863SOL     OW27487   2.252   5.534   4.616
 8863SOL    HW127488   2.178   5.576   4.668
 8863SOL    HW227489   2.284   5.453   4.664
 8864SOL     OW27490   2.257   3.062   6.213
 8864SOL    HW127491   2.272   2.963   6.216
 8864SOL    HW227492   2.285   3.097   6.123
 8865SOL     OW27493   3.426   1.116   4.498
 8865SOL    HW127494   3.415   1.017   4.495
 8865SOL    HW227495   3.346   1.157   4.541
 8866SOL     OW27496   4.149   6.556   3.073
 8866SOL    HW127497   4.115   6.462   3.066
 8866SOL    HW227498   4.248   6.556   3.065
 8867SOL     OW27499   5.415   2.357   2.752
 8867SOL    HW127500   5.335   2.381   2.698
 8867SOL    HW227501   5.436   2.260   2.739
 8868SOL     OW27502   5.213   3.224   0.284
 8868SOL    HW127503   5.243   3.203   0.377
 8868SOL    HW227504   5.244   3.152   0.222
 8869SOL     OW27505   4.685   4.325   3.080
 8869SOL    HW127506   4.635   4.411   3.087
 8869SOL    HW227507   4.667   4.283   2.991
 8870SOL     OW27508   3.444   0.466   1.023
 8870SOL    HW127509   3.415   0.486   0.929
 8870SOL    HW227510   3.542   0.487   1.033
 8871SOL     OW27511   2.799   1.502   3.838
 8871SOL    HW127512   2.741   1.508   3.756
 8871SOL    HW227513   2.765   1.564   3.908
 8872SOL     OW27514   1.759   4.233   4.504
 8872SOL    HW127515   1.839   4.286   4.476
 8872SOL    HW227516   1.790   4.150   4.550
 8873SOL     OW27517   6.756   5.756   2.672
 8873SOL    HW127518   6.740   5.704   2.587
 8873SOL    HW227519   6.846   5.799   2.668
 8874SOL     OW27520   1.988   6.957   1.134
 8874SOL    HW127521   2.076   7.003   1.149
 8874SOL    HW227522   1.914   7.020   1.157
 8875SOL     OW27523   1.524   2.880   4.641
 8875SOL    HW127524   1.472   2.834   4.714
 8875SOL    HW227525   1.462   2.931   4.582
 8876SOL     OW27526   6.973   0.405   4.590
 8876SOL    HW127527   6.894   0.423   4.531
 8876SOL    HW227528   6.965   0.314   4.631
 8877SOL     OW27529   2.736   0.525   4.434
 8877SOL    HW127530   2.827   0.496   4.403
 8877SOL    HW227531   2.727   0.506   4.531
 8878SOL     OW27532   0.222   4.973   0.959
 8878SOL    HW127533   0.207   5.022   1.045
 8878SOL    HW227534   0.256   4.881   0.979
 8879SOL     OW27535   5.220   5.298   1.159
 8879SOL    HW127536   5.126   5.327   1.143
 8879SOL    HW227537   5.269   5.369   1.210
 8880SOL     OW27538   0.679   5.715   4.690
 8880SOL    HW127539   0.619   5.776   4.639
 8880SOL    HW227540   0.660   5.724   4.788
 8881SOL     OW27541   6.184   0.464   3.403
 8881SOL    HW127542   6.100   0.456   3.457
 8881SOL    HW227543   6.207   0.560   3.390
 8882SOL     OW27544   5.227   0.890   0.203
 8882SOL    HW127545   5.323   0.870   0.222
 8882SOL    HW227546   5.201   0.847   0.117
 8883SOL     OW27547   0.469   1.100   6.002
 8883SOL    HW127548   0.529   1.099   5.922
 8883SOL    HW227549   0.518   1.062   6.081
 8884SOL     OW27550   5.803   6.659   6.721
 8884SOL    HW127551   5.901   6.657   6.740
 8884SOL    HW227552   5.785   6.727   6.650
 8885SOL     OW27553   6.214   3.486   1.579
 8885SOL    HW127554   6.128   3.467   1.626
 8885SOL    HW227555   6.265   3.556   1.630
 8886SOL     OW27556   3.052   5.976   5.213
 8886SOL    HW127557   3.104   5.936   5.288
 8886SOL    HW227558   3.021   6.067   5.239
 8887SOL     OW27559   3.111   1.013   1.113
 8887SOL    HW127560   3.118   1.046   1.019
 8887SOL    HW227561   3.101   0.913   1.112
 8888SOL     OW27562   1.177   1.959   0.893
 8888SOL    HW127563   1.253   2.012   0.931
 8888SOL    HW227564   1.130   2.012   0.823
 8889SOL     OW27565   5.507   6.656   5.240
 8889SOL    HW127566   5.574   6.717   5.198
 8889SOL    HW227567   5.551   6.599   5.309
 8890SOL     OW27568   6.612   6.223   4.982
 8890SOL    HW127569   6.634   6.218   4.884
 8890SOL    HW227570   6.658   6.302   5.022
 8891SOL     OW27571   6.017   3.046   6.289
 8891SOL    HW127572   5.971   3.134   6.289
 8891SOL    HW227573   5.961   2.979   6.338
 8892SOL     OW27574   3.178   6.646   3.401
 8892SOL    HW127575   3.128   6.571   3.359
 8892SOL    HW227576   3.168   6.729   3.346
 8893SOL     OW27577   0.357   0.951   2.276
 8893SOL    HW127578   0.448   0.964   2.236
 8893SOL    HW227579   0.366   0.919   2.370
 8894SOL     OW27580   4.233   2.975   6.269
 8894SOL    HW127581   4.178   3.051   6.303
 8894SOL    HW227582   4.330   2.998   6.276
 8895SOL     OW27583   7.015   0.651   1.950
 8895SOL    HW127584   0.048   0.707   1.891
 8895SOL    HW227585   0.026   0.651   2.043
 8896SOL     OW27586   0.781   3.488   4.905
 8896SOL    HW127587   0.760   3.581   4.876
 8896SOL    HW227588   0.793   3.430   4.824
 8897SOL     OW27589   1.745   1.682   1.770
 8897SOL    HW127590   1.711   1.595   1.803
 8897SOL    HW227591   1.844   1.676   1.755
 8898SOL     OW27592   6.544   3.214   4.774
 8898SOL    HW127593   6.463   3.187   4.825
 8898SOL    HW227594   6.549   3.314   4.768
 8899SOL     OW27595   1.920   4.159   6.674
 8899SOL    HW127596   1.938   4.062   6.658
 8899SOL    HW227597   1.921   4.178   6.772
 8900SOL     OW27598   5.678   3.273   3.073
 8900SOL    HW127599   5.710   3.368   3.072
 8900SOL    HW227600   5.578   3.272   3.067
 8901SOL     OW27601   2.373   0.707   3.406
 8901SOL    HW127602   2.312   0.628   3.396
 8901SOL    HW227603   2.317   0.790   3.411
 8902SOL     OW27604   2.932   5.850   6.163
 8902SOL    HW127605   2.995   5.878   6.235
 8902SOL    HW227606   2.983   5.813   6.085
 8903SOL     OW27607   2.413   1.547   3.770
 8903SOL    HW127608   2.359   1.464   3.755
 8903SOL    HW227609   2.457   1.542   3.860
 8904SOL     OW27610   7.004   4.911   3.582
 8904SOL    HW127611   0.026   4.884   3.666
 8904SOL    HW227612   6.926   4.968   3.605
 8905SOL     OW27613   1.954   3.789   5.248
 8905SOL    HW127614   1.892   3.867   5.245
 8905SOL    HW227615   1.953   3.749   5.340
 8906SOL     OW27616   6.992   0.411   6.653
 8906SOL    HW127617   0.066   0.404   6.643
 8906SOL    HW227618   6.952   0.319   6.650
 8907SOL     OW27619   3.402   2.152   5.153
 8907SOL    HW127620   3.342   2.113   5.223
 8907SOL    HW227621   3.357   2.231   5.110
 8908SOL     OW27622   1.582   2.916   0.567
 8908SOL    HW127623   1.509   2.858   0.603
 8908SOL    HW227624   1.641   2.862   0.507
 8909SOL     OW27625   2.418   0.412   4.866
 8909SOL    HW127626   2.389   0.501   4.900
 8909SOL    HW227627   2.356   0.381   4.794
 8910SOL     OW27628   2.117   3.038   5.933
 8910SOL    HW127629   2.196   3.090   5.901
 8910SOL    HW227630   2.097   2.965   5.868
 8911SOL     OW27631   3.813   2.087   4.706
 8911SOL    HW127632   3.859   2.141   4.776
 8911SOL    HW227633   3.784   1.999   4.745
 8912SOL     OW27634   3.864   1.594   6.774
 8912SOL    HW127635   3.959   1.603   6.742
 8912SOL    HW227636   3.811   1.542   6.706
 8913SOL     OW27637   5.155   4.231   1.580
 8913SOL    HW127638   5.154   4.171   1.500
 8913SOL    HW227639   5.082   4.299   1.571
 8914SOL     OW27640   4.293   1.283   5.721
 8914SOL    HW127641   4.327   1.240   5.805
 8914SOL    HW227642   4.347   1.365   5.702
 8915SOL     OW27643   1.573   2.427   3.833
 8915SOL    HW127644   1.532   2.479   3.908
 8915SOL    HW227645   1.546   2.466   3.745
 8916SOL     OW27646   0.291   3.517   1.663
 8916SOL    HW127647   0.361   3.491   1.729
 8916SOL    HW227648   0.224   3.576   1.708
 8917SOL     OW27649   6.278   4.853   6.111
 8917SOL    HW127650   6.349   4.819   6.048
 8917SOL    HW227651   6.320   4.905   6.185
 8918SOL     OW27652   6.481   5.998   0.119
 8918SOL    HW127653   6.505   5.936   0.044
 8918SOL    HW227654   6.451   5.944   0.198
 8919SOL     OW27655   4.027   3.625   0.816
 8919SOL    HW127656   4.109   3.670   0.851
 8919SOL    HW227657   4.038   3.526   0.822
 8920SOL     OW27658   6.529   6.239   6.238
 8920SOL    HW127659   6.532   6.143   6.210
 8920SOL    HW227660   6.436   6.275   6.226
 8921SOL     OW27661   1.349   1.464   2.825
 8921SOL    HW127662   1.325   1.371   2.796
 8921SOL    HW227663   1.448   1.475   2.826
 8922SOL     OW27664   2.112   5.215   0.686
 8922SOL    HW127665   2.068   5.230   0.597
 8922SOL    HW227666   2.102   5.298   0.741
 8923SOL     OW27667   2.331   3.882   6.512
 8923SOL    HW127668   2.280   3.966   6.492
 8923SOL    HW227669   2.354   3.836   6.426
 8924SOL     OW27670   3.066   5.535   5.392
 8924SOL    HW127671   3.111   5.541   5.303
 8924SOL    HW227672   3.038   5.440   5.409
 8925SOL     OW27673   0.712   0.703   2.335
 8925SOL    HW127674   0.775   0.661   2.270
 8925SOL    HW227675   0.765   0.748   2.408
 8926SOL     OW27676   5.741   2.365   1.431
 8926SOL    HW127677   5.808   2.437   1.448
 8926SOL    HW227678   5.738   2.344   1.333
 8927SOL     OW27679   2.755   2.372   4.730
 8927SOL    HW127680   2.673   2.328   4.694
 8927SOL    HW227681   2.783   2.326   4.815
 8928SOL     OW27682   0.039   1.138   5.305
 8928SOL    HW127683   7.016   1.215   5.263
 8928SOL    HW227684   0.075   1.078   5.233
 8929SOL     OW27685   0.232   3.154   3.847
 8929SOL    HW127686   0.301   3.191   3.909
 8929SOL    HW227687   0.253   3.182   3.753
 8930SOL     OW27688   1.707   5.066   5.274
 8930SOL    HW127689   1.805   5.086   5.267
 8930SOL    HW227690   1.691   4.971   5.248
 8931SOL     OW27691   4.067   2.690   0.828
 8931SOL    HW127692   4.009   2.692   0.910
 8931SOL    HW227693   4.051   2.771   0.773
 8932SOL     OW27694   5.500   0.121   6.827
 8932SOL    HW127695   5.497   0.192   6.898
 8932SOL    HW227696   5.581   0.135   6.770
 8933SOL     OW27697   0.926   1.757   5.611
 8933SOL    HW127698   0.871   1.816   5.669
 8933SOL    HW227699   0.928   1.664   5.649
 8934SOL     OW27700   3.176   5.202   2.863
 8934SOL    HW127701   3.254   5.263   2.853
 8934SOL    HW227702   3.173   5.166   2.956
 8935SOL     OW27703   5.091   3.383   2.203
 8935SOL    HW127704   5.018   3.321   2.232
 8935SOL    HW227705   5.085   3.399   2.104
 8936SOL     OW27706   0.876   3.255   1.001
 8936SOL    HW127707   0.831   3.332   0.956
 8936SOL    HW227708   0.823   3.227   1.081
 8937SOL     OW27709   0.509   0.780   3.868
 8937SOL    HW127710   0.465   0.844   3.931
 8937SOL    HW227711   0.608   0.781   3.883
 8938SOL     OW27712   6.122   0.884   0.569
 8938SOL    HW127713   6.101   0.872   0.666
 8938SOL    HW227714   6.213   0.925   0.560
 8939SOL     OW27715   6.387   2.919   5.001
 8939SOL    HW127716   6.330   2.982   4.948
 8939SOL    HW227717   6.476   2.908   4.956
 8940SOL     OW27718   6.175   2.726   0.197
 8940SOL    HW127719   6.242   2.652   0.196
 8940SOL    HW227720   6.181   2.778   0.112
 8941SOL     OW27721   5.063   2.038   1.911
 8941SOL    HW127722   5.037   2.070   1.820
 8941SOL    HW227723   5.090   1.941   1.905
 8942SOL     OW27724   6.916   4.422   4.106
 8942SOL    HW127725   6.926   4.516   4.138
 8942SOL    HW227726   6.822   4.391   4.124
 8943SOL     OW27727   4.370   4.183   0.025
 8943SOL    HW127728   4.359   4.127   6.968
 8943SOL    HW227729   4.450   4.242   0.016
 8944SOL     OW27730   4.829   4.512   4.434
 8944SOL    HW127731   4.817   4.602   4.477
 8944SOL    HW227732   4.740   4.470   4.419
 8945SOL     OW27733   6.361   3.229   5.231
 8945SOL    HW127734   6.461   3.224   5.239
 8945SOL    HW227735   6.328   3.149   5.180
 8946SOL     OW27736   4.528   0.407   4.741
 8946SOL    HW127737   4.438   0.384   4.704
 8946SOL    HW227738   4.599   0.379   4.676
 8947SOL     OW27739   1.360   4.700   6.622
 8947SOL    HW127740   1.380   4.635   6.549
 8947SOL    HW227741   1.294   4.768   6.590
 8948SOL     OW27742   6.821   5.951   3.930
 8948SOL    HW127743   6.817   6.018   4.004
 8948SOL    HW227744   6.910   5.904   3.933
 8949SOL     OW27745   3.879   6.218   0.226
 8949SOL    HW127746   3.946   6.176   0.286
 8949SOL    HW227747   3.787   6.205   0.263
 8950SOL     OW27748   4.888   4.108   0.989
 8950SOL    HW127749   4.803   4.144   1.027
 8950SOL    HW227750   4.921   4.034   1.047
 8951SOL     OW27751   2.355   1.113   3.837
 8951SOL    HW127752   2.319   1.051   3.906
 8951SOL    HW227753   2.445   1.082   3.807
 8952SOL     OW27754   2.212   4.454   3.683
 8952SOL    HW127755   2.190   4.453   3.585
 8952SOL    HW227756   2.129   4.474   3.736
 8953SOL     OW27757   2.883   5.260   1.651
 8953SOL    HW127758   2.917   5.347   1.615
 8953SOL    HW227759   2.896   5.189   1.582
 8954SOL     OW27760   1.059   5.772   4.049
 8954SOL    HW127761   0.961   5.755   4.039
 8954SOL    HW227762   1.091   5.736   4.136
 8955SOL     OW27763   6.167   2.890   2.659
 8955SOL    HW127764   6.141   2.952   2.733
 8955SOL    HW227765   6.267   2.886   2.653
 8956SOL     OW27766   0.151   6.713   6.808
 8956SOL    HW127767   0.096   6.791   6.777
 8956SOL    HW227768   0.189   6.666   6.728
 8957SOL     OW27769   1.740   5.709   1.965
 8957SOL    HW127770   1.759   5.800   1.931
 8957SOL    HW227771   1.814   5.680   2.026
 8958SOL     OW27772   1.412   3.215   5.181
 8958SOL    HW127773   1.340   3.284   5.189
 8958SOL    HW227774   1.447   3.193   5.273
 8959SOL     OW27775   0.982   3.742   2.148
 8959SOL    HW127776   0.901   3.709   2.197
 8959SOL    HW227777   0.998   3.686   2.067
 8960SOL     OW27778   6.552   4.000   4.199
 8960SOL    HW127779   6.532   3.904   4.216
 8960SOL    HW227780   6.490   4.058   4.252
 8961SOL     OW27781   3.037   7.001   4.182
 8961SOL    HW127782   2.963   0.039   4.157
 8961SOL    HW227783   3.108   7.003   4.112
 8962SOL     OW27784   1.229   6.238   1.691
 8962SOL    HW127785   1.288   6.159   1.678
 8962SOL    HW227786   1.233   6.297   1.610
 8963SOL     OW27787   3.513   5.655   4.372
 8963SOL    HW127788   3.549   5.635   4.281
 8963SOL    HW227789   3.450   5.583   4.400
 8964SOL     OW27790   5.607   3.796   3.234
 8964SOL    HW127791   5.690   3.745   3.258
 8964SOL    HW227792   5.632   3.888   3.205
 8965SOL     OW27793   3.794   4.644   0.612
 8965SOL    HW127794   3.724   4.574   0.595
 8965SOL    HW227795   3.750   4.728   0.641
 8966SOL     OW27796   6.409   5.314   5.908
 8966SOL    HW127797   6.315   5.343   5.922
 8966SOL    HW227798   6.468   5.395   5.897
 8967SOL     OW27799   3.630   1.047   3.458
 8967SOL    HW127800   3.540   1.080   3.487
 8967SOL    HW227801   3.675   1.117   3.402
 8968SOL     OW27802   2.611   4.889   1.664
 8968SOL    HW127803   2.605   4.819   1.593
 8968SOL    HW227804   2.682   4.865   1.730
 8969SOL     OW27805   0.183   6.756   3.410
 8969SOL    HW127806   0.111   6.727   3.473
 8969SOL    HW227807   0.172   6.854   3.390
 8970SOL     OW27808   1.311   2.105   5.748
 8970SOL    HW127809   1.395   2.159   5.736
 8970SOL    HW227810   1.243   2.135   5.681
 8971SOL     OW27811   4.347   6.700   1.067
 8971SOL    HW127812   4.399   6.785   1.057
 8971SOL    HW227813   4.249   6.721   1.068
 8972SOL     OW27814   5.638   5.012   0.382
 8972SOL    HW127815   5.673   5.060   0.302
 8972SOL    HW227816   5.706   4.945   0.413
 8973SOL     OW27817   0.639   2.627   2.246
 8973SOL    HW127818   0.623   2.636   2.148
 8973SOL    HW227819   0.699   2.549   2.263
 8974SOL     OW27820   2.106   3.788   4.343
 8974SOL    HW127821   2.085   3.695   4.312
 8974SOL    HW227822   2.101   3.792   4.443
 8975SOL     OW27823   0.426   6.850   6.632
 8975SOL    HW127824   0.522   6.832   6.613
 8975SOL    HW227825   0.369   6.787   6.578
 8976SOL     OW27826   5.853   6.044   1.087
 8976SOL    HW127827   5.862   5.964   1.147
 8976SOL    HW227828   5.896   6.123   1.129
 8977SOL     OW27829   6.989   5.463   6.170
 8977SOL    HW127830   6.960   5.548   6.212
 8977SOL    HW227831   7.009   5.395   6.240
 8978SOL     OW27832   5.974   6.143   5.132
 8978SOL    HW127833   6.055   6.196   5.158
 8978SOL    HW227834   5.893   6.184   5.172
 8979SOL     OW27835   1.153   5.366   6.279
 8979SOL    HW127836   1.061   5.393   6.253
 8979SOL    HW227837   1.205   5.344   6.196
 8980SOL     OW27838   4.233   2.178   5.932
 8980SOL    HW127839   4.329   2.199   5.951
 8980SOL    HW227840   4.189   2.142   6.014
 8981SOL     OW27841   4.639   2.180   6.008
 8981SOL    HW127842   4.585   2.233   5.943
 8981SOL    HW227843   4.598   2.187   6.099
 8982SOL     OW27844   6.053   1.190   1.753
 8982SOL    HW127845   6.150   1.192   1.730
 8982SOL    HW227846   5.999   1.169   1.671
 8983SOL     OW27847   1.520   5.358   2.462
 8983SOL    HW127848   1.592   5.344   2.529
 8983SOL    HW227849   1.433   5.373   2.509
 8984SOL     OW27850   5.694   0.320   4.611
 8984SOL    HW127851   5.625   0.390   4.624
 8984SOL    HW227852   5.687   0.283   4.519
 8985SOL     OW27853   4.875   1.925   0.542
 8985SOL    HW127854   4.933   1.869   0.600
 8985SOL    HW227855   4.818   1.866   0.484
 8986SOL     OW27856   5.606   4.036   1.564
 8986SOL    HW127857   5.552   4.061   1.645
 8986SOL    HW227858   5.616   4.116   1.505
 8987SOL     OW27859   2.658   0.309   1.262
 8987SOL    HW127860   2.705   0.390   1.296
 8987SOL    HW227861   2.678   0.232   1.322
 8988SOL     OW27862   1.864   5.823   0.982
 8988SOL    HW127863   1.859   5.805   0.884
 8988SOL    HW227864   1.922   5.754   1.025
 8989SOL     OW27865   4.982   2.739   2.967
 8989SOL    HW127866   5.015   2.727   2.873
 8989SOL    HW227867   4.912   2.671   2.986
 8990SOL     OW27868   3.008   6.163   0.487
 8990SOL    HW127869   2.924   6.131   0.444
 8990SOL    HW227870   2.989   6.247   0.539
 8991SOL     OW27871   2.249   2.759   0.883
 8991SOL    HW127872   2.198   2.842   0.906
 8991SOL    HW227873   2.257   2.752   0.784
 8992SOL     OW27874   0.342   3.302   0.570
 8992SOL    HW127875   0.398   3.348   0.639
 8992SOL    HW227876   0.256   3.272   0.611
 8993SOL     OW27877   5.295   1.901   3.987
 8993SOL    HW127878   5.208   1.897   4.037
 8993SOL    HW227879   5.278   1.888   3.889
 8994SOL     OW27880   1.703   5.191   4.598
 8994SOL    HW127881   1.794   5.208   4.560
 8994SOL    HW227882   1.671   5.101   4.567
 8995SOL     OW27883   1.295   2.882   4.834
 8995SOL    HW127884   1.204   2.912   4.805
 8995SOL    HW227885   1.341   2.957   4.883
 8996SOL     OW27886   0.300   3.664   1.179
 8996SOL    HW127887   0.237   3.631   1.108
 8996SOL    HW227888   0.260   3.744   1.225
 8997SOL     OW27889   5.044   1.207   6.019
 8997SOL    HW127890   5.038   1.107   6.016
 8997SOL    HW227891   4.955   1.245   6.042
 8998SOL     OW27892   0.733   2.575   5.263
 8998SOL    HW127893   0.718   2.575   5.164
 8998SOL    HW227894   0.646   2.559   5.309
 8999SOL     OW27895   4.786   1.359   6.497
 8999SOL    HW127896   4.781   1.450   6.457
 8999SOL    HW227897   4.713   1.349   6.565
 9000SOL     OW27898   3.174   3.751   6.786
 9000SOL    HW127899   3.199   3.773   6.881
 9000SOL    HW227900   3.131   3.661   6.784
 9001SOL     OW27901   1.482   4.674   3.448
 9001SOL    HW127902   1.548   4.642   3.381
 9001SOL    HW227903   1.398   4.619   3.443
 9002SOL     OW27904   6.856   4.969   5.644
 9002SOL    HW127905   6.872   4.871   5.659
 9002SOL    HW227906   6.884   4.994   5.551
 9003SOL     OW27907   6.374   2.542   0.198
 9003SOL    HW127908   6.375   2.443   0.212
 9003SOL    HW227909   6.467   2.577   0.206
 9004SOL     OW27910   5.169   6.729   1.218
 9004SOL    HW127911   5.172   6.630   1.209
 9004SOL    HW227912   5.164   6.770   1.127
 9005SOL     OW27913   4.817   1.855   3.938
 9005SOL    HW127914   4.739   1.836   3.998
 9005SOL    HW227915   4.801   1.814   3.848
 9006SOL     OW27916   1.561   5.582   1.348
 9006SOL    HW127917   1.558   5.682   1.352
 9006SOL    HW227918   1.508   5.550   1.270
 9007SOL     OW27919   2.669   5.096   3.701
 9007SOL    HW127920   2.636   5.021   3.758
 9007SOL    HW227921   2.743   5.064   3.642
 9008SOL     OW27922   6.778   4.380   2.178
 9008SOL    HW127923   6.782   4.290   2.135
 9008SOL    HW227924   6.683   4.404   2.199
 9009SOL     OW27925   2.449   0.117   1.196
 9009SOL    HW127926   2.508   0.193   1.222
 9009SOL    HW227927   2.473   0.085   1.104
 9010SOL     OW27928   1.101   6.546   4.730
 9010SOL    HW127929   1.065   6.505   4.646
 9010SOL    HW227930   1.075   6.489   4.808
 9011SOL     OW27931   4.176   2.175   1.353
 9011SOL    HW127932   4.139   2.121   1.428
 9011SOL    HW227933   4.273   2.152   1.340
 9012SOL     OW27934   1.028   4.902   1.262
 9012SOL    HW127935   0.954   4.846   1.226
 9012SOL    HW227936   1.102   4.907   1.195
 9013SOL     OW27937   6.556   5.821   4.415
 9013SOL    HW127938   6.551   5.788   4.509
 9013SOL    HW227939   6.648   5.857   4.398
 9014SOL     OW27940   1.450   1.368   6.966
 9014SOL    HW127941   1.405   1.404   6.884
 9014SOL    HW227942   1.528   1.426   6.990
 9015SOL     OW27943   0.119   1.303   6.624
 9015SOL    HW127944   0.171   1.249   6.690
 9015SOL    HW227945   0.157   1.395   6.618
 9016SOL     OW27946   6.812   6.419   5.878
 9016SOL    HW127947   6.729   6.365   5.865
 9016SOL    HW227948   6.885   6.359   5.913
 9017SOL     OW27949   6.039   2.221   3.950
 9017SOL    HW127950   5.992   2.174   4.025
 9017SOL    HW227951   5.976   2.235   3.874
 9018SOL     OW27952   3.782   0.741   4.944
 9018SOL    HW127953   3.701   0.757   4.888
 9018SOL    HW227954   3.832   0.827   4.956
 9019SOL     OW27955   2.507   6.490   6.356
 9019SOL    HW127956   2.574   6.532   6.295
 9019SOL    HW227957   2.428   6.550   6.365
 9020SOL     OW27958   1.772   4.378   2.456
 9020SOL    HW127959   1.739   4.293   2.414
 9020SOL    HW227960   1.695   4.438   2.477
 9021SOL     OW27961   6.825   6.351   3.805
 9021SOL    HW127962   6.745   6.396   3.767
 9021SOL    HW227963   6.837   6.262   3.763
 9022SOL     OW27964   2.369   0.168   0.127
 9022SOL    HW127965   2.277   0.204   0.143
 9022SOL    HW227966   2.367   0.068   0.140
 9023SOL     OW27967   3.427   3.437   3.955
 9023SOL    HW127968   3.512   3.485   3.935
 9023SOL    HW227969   3.355   3.502   3.979
 9024SOL     OW27970   1.664   6.125   5.965
 9024SOL    HW127971   1.738   6.191   5.948
 9024SOL    HW227972   1.685   6.039   5.918
 9025SOL     OW27973   6.338   5.235   1.455
 9025SOL    HW127974   6.414   5.275   1.405
 9025SOL    HW227975   6.368   5.208   1.546
 9026SOL     OW27976   4.047   3.241   4.378
 9026SOL    HW127977   4.012   3.195   4.297
 9026SOL    HW227978   4.010   3.198   4.460
 9027SOL     OW27979   2.899   2.189   2.971
 9027SOL    HW127980   2.849   2.128   2.910
 9027SOL    HW227981   2.834   2.237   3.030
 9028SOL     OW27982   2.062   4.246   6.092
 9028SOL    HW127983   2.029   4.155   6.067
 9028SOL    HW227984   2.160   4.241   6.111
 9029SOL     OW27985   4.356   4.770   4.493
 9029SOL    HW127986   4.275   4.814   4.454
 9029SOL    HW227987   4.332   4.722   4.577
 9030SOL     OW27988   2.180   0.943   2.718
 9030SOL    HW127989   2.095   0.984   2.684
 9030SOL    HW227990   2.248   1.014   2.732
 9031SOL     OW27991   2.837   6.177   5.591
 9031SOL    HW127992   2.820   6.204   5.686
 9031SOL    HW227993   2.794   6.243   5.530
 9032SOL     OW27994   2.653   2.492   1.490
 9032SOL    HW127995   2.694   2.515   1.578
 9032SOL    HW227996   2.579   2.556   1.469
 9033SOL     OW27997   2.001   3.530   4.464
 9033SOL    HW127998   2.056   3.523   4.381
 9033SOL    HW227999   1.946   3.447   4.475
 9034SOL     OW28000   3.041   6.985   5.210
 9034SOL    HW128001   3.071   0.042   5.161
 9034SOL    HW228002   3.079   6.904   5.165
 9035SOL     OW28003   0.105   6.979   5.059
 9035SOL    HW128004   0.099   0.053   5.075
 9035SOL    HW228005   0.016   6.937   5.076
 9036SOL     OW28006   1.925   2.429   5.179
 9036SOL    HW128007   1.835   2.473   5.170
 9036SOL    HW228008   1.978   2.444   5.096
 9037SOL     OW28009   2.322   3.751   6.241
 9037SOL    HW128010   2.380   3.717   6.168
 9037SOL    HW228011   2.275   3.675   6.285
 9038SOL     OW28012   4.886   0.870   6.248
 9038SOL    HW128013   4.844   0.781   6.228
 9038SOL    HW228014   4.944   0.897   6.171
 9039SOL     OW28015   1.424   4.624   5.275
 9039SOL    HW128016   1.328   4.653   5.283
 9039SOL    HW228017   1.433   4.528   5.303
 9040SOL     OW28018   3.155   1.050   2.586
 9040SOL    HW128019   3.057   1.043   2.567
 9040SOL    HW228020   3.178   1.145   2.607
 9041SOL     OW28021   0.298   2.045   1.964
 9041SOL    HW128022   0.392   2.080   1.972
 9041SOL    HW228023   0.237   2.100   2.022
 9042SOL     OW28024   2.505   6.114   3.188
 9042SOL    HW128025   2.464   6.122   3.279
 9042SOL    HW228026   2.528   6.019   3.169
 9043SOL     OW28027   1.603   2.297   6.044
 9043SOL    HW128028   1.611   2.265   5.950
 9043SOL    HW228029   1.595   2.397   6.045
 9044SOL     OW28030   6.030   0.694   0.904
 9044SOL    HW128031   6.108   0.746   0.867
 9044SOL    HW228032   5.991   0.638   0.831
 9045SOL     OW28033   3.706   0.335   3.330
 9045SOL    HW128034   3.707   0.410   3.396
 9045SOL    HW228035   3.613   0.324   3.294
 9046SOL     OW28036   3.546   4.413   5.404
 9046SOL    HW128037   3.491   4.495   5.421
 9046SOL    HW228038   3.485   4.338   5.378
 9047SOL     OW28039   1.787   4.342   5.361
 9047SOL    HW128040   1.752   4.425   5.405
 9047SOL    HW228041   1.826   4.366   5.272
 9048SOL     OW28042   1.274   3.809   5.603
 9048SOL    HW128043   1.271   3.875   5.528
 9048SOL    HW228044   1.351   3.830   5.663
 9049SOL     OW28045   5.091   6.341   6.325
 9049SOL    HW128046   5.149   6.417   6.354
 9049SOL    HW228047   5.052   6.296   6.406
 9050SOL     OW28048   0.535   5.259   6.901
 9050SOL    HW128049   0.561   5.233   6.994
 9050SOL    HW228050   0.560   5.355   6.886
 9051SOL     OW28051   4.524   6.050   0.800
 9051SOL    HW128052   4.510   6.149   0.801
 9051SOL    HW228053   4.437   6.004   0.786
 9052SOL     OW28054   2.829   4.782   4.769
 9052SOL    HW128055   2.829   4.717   4.845
 9052SOL    HW228056   2.750   4.843   4.776
 9053SOL     OW28057   2.200   2.678   3.761
 9053SOL    HW128058   2.285   2.715   3.724
 9053SOL    HW228059   2.221   2.616   3.837
 9054SOL     OW28060   1.678   0.445   1.512
 9054SOL    HW128061   1.766   0.404   1.535
 9054SOL    HW228062   1.605   0.401   1.565
 9055SOL     OW28063   0.705   2.936   3.669
 9055SOL    HW128064   0.716   3.020   3.722
 9055SOL    HW228065   0.646   2.873   3.719
 9056SOL     OW28066   5.427   0.484   1.935
 9056SOL    HW128067   5.449   0.386   1.939
 9056SOL    HW228068   5.463   0.523   1.851
 9057SOL     OW28069   5.968   4.978   6.944
 9057SOL    HW128070   6.060   5.015   6.940
 9057SOL    HW228071   5.946   4.934   6.857
 9058SOL     OW28072   1.918   2.068   4.392
 9058SOL    HW128073   1.975   2.118   4.457
 9058SOL    HW228074   1.823   2.068   4.424
 9059SOL     OW28075   6.125   0.989   3.437
 9059SOL    HW128076   6.139   1.088   3.428
 9059SOL    HW228077   6.039   0.963   3.394
 9060SOL     OW28078   6.604   3.512   2.260
 9060SOL    HW128079   6.623   3.414   2.260
 9060SOL    HW228080   6.636   3.552   2.175
 9061SOL     OW28081   4.681   5.393   3.319
 9061SOL    HW128082   4.669   5.484   3.358
 9061SOL    HW228083   4.592   5.356   3.292
 9062SOL     OW28084   1.389   4.796   2.192
 9062SOL    HW128085   1.297   4.763   2.173
 9062SOL    HW228086   1.454   4.719   2.188
 9063SOL     OW28087   2.833   1.680   2.288
 9063SOL    HW128088   2.813   1.687   2.386
 9063SOL    HW228089   2.843   1.584   2.263
 9064SOL     OW28090   6.710   4.268   4.185
 9064SOL    HW128091   6.705   4.169   4.189
 9064SOL    HW228092   6.725   4.305   4.277
 9065SOL     OW28093   2.770   6.191   5.195
 9065SOL    HW128094   2.789   6.279   5.239
 9065SOL    HW228095   2.719   6.206   5.111
 9066SOL     OW28096   6.713   6.868   6.307
 9066SOL    HW128097   6.779   6.801   6.271
 9066SOL    HW228098   6.628   6.863   6.255
 9067SOL     OW28099   6.712   6.171   4.726
 9067SOL    HW128100   6.766   6.115   4.663
 9067SOL    HW228101   6.740   6.267   4.719
 9068SOL     OW28102   4.398   0.239   4.969
 9068SOL    HW128103   4.440   0.291   4.895
 9068SOL    HW228104   4.299   0.248   4.964
 9069SOL     OW28105   4.971   2.614   2.043
 9069SOL    HW128106   5.069   2.626   2.027
 9069SOL    HW228107   4.926   2.703   2.045
 9070SOL     OW28108   1.553   2.242   6.312
 9070SOL    HW128109   1.574   2.255   6.215
 9070SOL    HW228110   1.500   2.320   6.346
 9071SOL     OW28111   4.701   1.045   5.939
 9071SOL    HW128112   4.751   1.015   5.858
 9071SOL    HW228113   4.733   1.136   5.965
 9072SOL     OW28114   5.068   6.870   1.716
 9072SOL    HW128115   5.083   6.807   1.639
 9072SOL    HW228116   4.984   6.845   1.764
 9073SOL     OW28117   4.193   6.783   0.548
 9073SOL    HW128118   4.117   6.808   0.608
 9073SOL    HW228119   4.280   6.802   0.594
 9074SOL     OW28120   1.474   0.757   1.169
 9074SOL    HW128121   1.375   0.752   1.157
 9074SOL    HW228122   1.509   0.668   1.194
 9075SOL     OW28123   6.795   0.857   2.559
 9075SOL    HW128124   6.880   0.808   2.540
 9075SOL    HW228125   6.801   0.950   2.524
 9076SOL     OW28126   4.809   1.520   3.983
 9076SOL    HW128127   4.784   1.449   4.048
 9076SOL    HW228128   4.777   1.494   3.892
 9077SOL     OW28129   4.661   1.488   6.170
 9077SOL    HW128130   4.621   1.488   6.262
 9077SOL    HW228131   4.598   1.532   6.106
 9078SOL     OW28132   5.692   4.914   6.087
 9078SOL    HW128133   5.790   4.930   6.074
 9078SOL    HW228134   5.650   4.993   6.131
 9079SOL     OW28135   1.381   0.213   5.178
 9079SOL    HW128136   1.307   0.198   5.112
 9079SOL    HW228137   1.462   0.245   5.129
 9080SOL     OW28138   6.128   3.159   6.691
 9080SOL    HW128139   6.156   3.065   6.673
 9080SOL    HW228140   6.199   3.206   6.743
 9081SOL     OW28141   3.798   1.792   1.640
 9081SOL    HW128142   3.775   1.860   1.709
 9081SOL    HW228143   3.714   1.759   1.597
 9082SOL     OW28144   2.691   6.648   4.730
 9082SOL    HW128145   2.748   6.616   4.805
 9082SOL    HW228146   2.748   6.695   4.663
 9083SOL     OW28147   4.826   4.549   6.352
 9083SOL    HW128148   4.884   4.572   6.431
 9083SOL    HW228149   4.882   4.502   6.283
 9084SOL     OW28150   0.337   2.258   6.025
 9084SOL    HW128151   0.377   2.341   5.986
 9084SOL    HW228152   0.390   2.179   5.995
 9085SOL     OW28153   2.759   5.419   0.858
 9085SOL    HW128154   2.801   5.342   0.810
 9085SOL    HW228155   2.661   5.421   0.840
 9086SOL     OW28156   6.095   4.236   0.859
 9086SOL    HW128157   6.017   4.295   0.840
 9086SOL    HW228158   6.092   4.155   0.800
 9087SOL     OW28159   5.770   3.080   2.799
 9087SOL    HW128160   5.754   3.152   2.866
 9087SOL    HW228161   5.839   3.111   2.733
 9088SOL     OW28162   5.794   6.924   1.848
 9088SOL    HW128163   5.775   6.846   1.788
 9088SOL    HW228164   5.870   6.901   1.908
 9089SOL     OW28165   4.444   5.538   4.697
 9089SOL    HW128166   4.466   5.452   4.743
 9089SOL    HW228167   4.523   5.600   4.702
 9090SOL     OW28168   5.223   6.200   4.929
 9090SOL    HW128169   5.306   6.161   4.968
 9090SOL    HW228170   5.145   6.143   4.952
 9091SOL     OW28171   2.920   2.639   0.593
 9091SOL    HW128172   2.952   2.646   0.498
 9091SOL    HW228173   2.825   2.608   0.593
 9092SOL     OW28174   1.512   0.686   6.216
 9092SOL    HW128175   1.501   0.668   6.118
 9092SOL    HW228176   1.507   0.784   6.233
 9093SOL     OW28177   1.475   6.233   6.992
 9093SOL    HW128178   1.466   6.223   6.893
 9093SOL    HW228179   1.460   6.329   7.017
 9094SOL     OW28180   0.548   5.726   2.769
 9094SOL    HW128181   0.610   5.796   2.734
 9094SOL    HW228182   0.496   5.686   2.693
 9095SOL     OW28183   5.365   4.116   6.649
 9095SOL    HW128184   5.265   4.121   6.658
 9095SOL    HW228185   5.391   4.149   6.558
 9096SOL     OW28186   5.081   3.170   2.707
 9096SOL    HW128187   5.104   3.248   2.766
 9096SOL    HW228188   5.165   3.133   2.667
 9097SOL     OW28189   0.003   3.387   0.101
 9097SOL    HW128190   0.057   3.334   0.166
 9097SOL    HW228191   0.029   3.364   0.008
 9098SOL     OW28192   3.517   3.116   0.992
 9098SOL    HW128193   3.602   3.065   0.977
 9098SOL    HW228194   3.459   3.107   0.911
 9099SOL     OW28195   3.223   3.409   0.571
 9099SOL    HW128196   3.250   3.334   0.632
 9099SOL    HW228197   3.160   3.374   0.501
 9100SOL     OW28198   1.024   2.136   2.407
 9100SOL    HW128199   0.928   2.108   2.417
 9100SOL    HW228200   1.074   2.115   2.491
 9101SOL     OW28201   1.915   3.086   2.625
 9101SOL    HW128202   1.878   3.116   2.712
 9101SOL    HW228203   1.852   3.021   2.582
 9102SOL     OW28204   3.683   6.294   1.782
 9102SOL    HW128205   3.718   6.213   1.735
 9102SOL    HW228206   3.656   6.269   1.875
 9103SOL     OW28207   0.056   3.611   0.254
 9103SOL    HW128208   0.019   3.530   0.210
 9103SOL    HW228209   0.087   3.676   0.184
 9104SOL     OW28210   3.810   6.220   2.117
 9104SOL    HW128211   3.833   6.160   2.194
 9104SOL    HW228212   3.876   6.206   2.043
 9105SOL     OW28213   1.631   0.652   0.099
 9105SOL    HW128214   1.715   0.666   0.047
 9105SOL    HW228215   1.620   0.725   0.166
 9106SOL     OW28216   5.633   3.802   0.051
 9106SOL    HW128217   5.554   3.742   0.067
 9106SOL    HW228218   5.715   3.762   0.093
 9107SOL     OW28219   4.081   0.369   6.283
 9107SOL    HW128220   4.111   0.389   6.190
 9107SOL    HW228221   3.997   0.420   6.302
 9108SOL     OW28222   4.794   4.652   5.976
 9108SOL    HW128223   4.801   4.606   6.064
 9108SOL    HW228224   4.736   4.733   5.985
 9109SOL     OW28225   1.559   2.673   3.229
 9109SOL    HW128226   1.569   2.761   3.182
 9109SOL    HW228227   1.619   2.670   3.308
 9110SOL     OW28228   2.187   4.543   4.070
 9110SOL    HW128229   2.268   4.551   4.012
 9110SOL    HW228230   2.214   4.522   4.164
 9111SOL     OW28231   4.512   3.427   0.273
 9111SOL    HW128232   4.537   3.394   0.182
 9111SOL    HW228233   4.542   3.522   0.283
 9112SOL     OW28234   0.331   4.581   4.612
 9112SOL    HW128235   0.250   4.590   4.554
 9112SOL    HW228236   0.413   4.582   4.556
 9113SOL     OW28237   4.506   6.326   0.762
 9113SOL    HW128238   4.426   6.378   0.790
 9113SOL    HW228239   4.507   6.315   0.663
 9114SOL     OW28240   1.555   5.241   2.029
 9114SOL    HW128241   1.644   5.244   1.985
 9114SOL    HW228242   1.510   5.153   2.009
 9115SOL     OW28243   0.956   5.884   5.657
 9115SOL    HW128244   0.865   5.842   5.658
 9115SOL    HW228245   1.014   5.835   5.592
 9116SOL     OW28246   6.493   2.271   0.547
 9116SOL    HW128247   6.453   2.361   0.560
 9116SOL    HW228248   6.435   2.202   0.591
 9117SOL     OW28249   5.690   2.838   7.019
 9117SOL    HW128250   5.734   2.749   7.009
 9117SOL    HW228251   5.758   2.910   7.005
 9118SOL     OW28252   6.322   5.868   0.528
 9118SOL    HW128253   6.335   5.963   0.499
 9118SOL    HW228254   6.410   5.822   0.532
 9119SOL     OW28255   4.981   1.414   2.632
 9119SOL    HW128256   4.959   1.394   2.727
 9119SOL    HW228257   4.984   1.513   2.618
 9120SOL     OW28258   5.510   3.064   5.885
 9120SOL    HW128259   5.457   3.136   5.930
 9120SOL    HW228260   5.522   2.988   5.949
 9121SOL     OW28261   1.476   2.837   6.921
 9121SOL    HW128262   1.488   2.813   6.825
 9121SOL    HW228263   1.502   2.759   6.978
 9122SOL     OW28264   1.912   3.029   1.837
 9122SOL    HW128265   1.963   2.965   1.893
 9122SOL    HW228266   1.955   3.038   1.748
 9123SOL     OW28267   3.949   0.365   4.422
 9123SOL    HW128268   4.027   0.427   4.415
 9123SOL    HW228269   3.872   0.413   4.465
 9124SOL     OW28270   5.794   6.815   5.655
 9124SOL    HW128271   5.817   6.821   5.752
 9124SOL    HW228272   5.763   6.904   5.622
 9125SOL     OW28273   5.073   3.607   2.362
 9125SOL    HW128274   5.034   3.667   2.292
 9125SOL    HW228275   5.089   3.516   2.323
 9126SOL     OW28276   5.706   2.289   2.310
 9126SOL    HW128277   5.689   2.225   2.235
 9126SOL    HW228278   5.621   2.335   2.334
 9127SOL     OW28279   6.345   0.955   5.768
 9127SOL    HW128280   6.269   0.974   5.830
 9127SOL    HW228281   6.424   0.923   5.820
 9128SOL     OW28282   4.163   1.755   5.194
 9128SOL    HW128283   4.114   1.668   5.188
 9128SOL    HW228284   4.217   1.758   5.278
 9129SOL     OW28285   0.994   2.993   1.431
 9129SOL    HW128286   1.009   2.894   1.443
 9129SOL    HW228287   1.076   3.033   1.390
 9130SOL     OW28288   6.775   3.351   0.455
 9130SOL    HW128289   6.695   3.353   0.514
 9130SOL    HW228290   6.835   3.428   0.477
 9131SOL     OW28291   0.180   3.551   5.928
 9131SOL    HW128292   0.212   3.609   5.853
 9131SOL    HW228293   0.255   3.534   5.992
 9132SOL     OW28294   0.352   4.963   4.664
 9132SOL    HW128295   0.319   4.922   4.748
 9132SOL    HW228296   0.441   4.924   4.641
 9133SOL     OW28297   3.390   6.122   1.550
 9133SOL    HW128298   3.370   6.172   1.634
 9133SOL    HW228299   3.460   6.171   1.498
 9134SOL     OW28300   3.764   5.996   0.071
 9134SOL    HW128301   3.786   5.994   6.999
 9134SOL    HW228302   3.816   6.068   0.116
 9135SOL     OW28303   6.413   6.136   1.843
 9135SOL    HW128304   6.483   6.192   1.798
 9135SOL    HW228305   6.423   6.142   1.942
 9136SOL     OW28306   5.564   5.437   5.534
 9136SOL    HW128307   5.641   5.425   5.597
 9136SOL    HW228308   5.579   5.383   5.452
 9137SOL     OW28309   5.146   2.133   1.278
 9137SOL    HW128310   5.112   2.077   1.203
 9137SOL    HW228311   5.246   2.128   1.280
 9138SOL     OW28312   6.441   5.221   5.625
 9138SOL    HW128313   6.422   5.161   5.702
 9138SOL    HW228314   6.354   5.255   5.587
 9139SOL     OW28315   2.408   1.793   4.684
 9139SOL    HW128316   2.455   1.848   4.752
 9139SOL    HW228317   2.432   1.696   4.697
 9140SOL     OW28318   5.999   2.865   2.457
 9140SOL    HW128319   6.051   2.854   2.542
 9140SOL    HW228320   5.942   2.784   2.442
 9141SOL     OW28321   5.876   0.362   6.518
 9141SOL    HW128322   5.859   0.425   6.593
 9141SOL    HW228323   5.796   0.303   6.506
 9142SOL     OW28324   0.759   2.156   0.816
 9142SOL    HW128325   0.729   2.122   0.727
 9142SOL    HW228326   0.689   2.215   0.855
 9143SOL     OW28327   5.147   2.925   1.476
 9143SOL    HW128328   5.217   2.934   1.405
 9143SOL    HW228329   5.167   2.844   1.532
 9144SOL     OW28330   2.642   5.616   5.470
 9144SOL    HW128331   2.648   5.623   5.569
 9144SOL    HW228332   2.572   5.679   5.436
 9145SOL     OW28333   6.390   5.320   0.049
 9145SOL    HW128334   6.479   5.317   0.003
 9145SOL    HW228335   6.398   5.371   0.135
 9146SOL     OW28336   5.043   2.432   2.829
 9146SOL    HW128337   5.128   2.466   2.870
 9146SOL    HW228338   5.036   2.464   2.735
 9147SOL     OW28339   5.942   0.274   3.991
 9147SOL    HW128340   5.985   0.361   4.014
 9147SOL    HW228341   6.005   0.199   4.009
 9148SOL     OW28342   4.857   6.488   0.635
 9148SOL    HW128343   4.769   6.520   0.670
 9148SOL    HW228344   4.872   6.525   0.543
 9149SOL     OW28345   5.172   3.143   3.412
 9149SOL    HW128346   5.178   3.048   3.440
 9149SOL    HW228347   5.142   3.148   3.316
 9150SOL     OW28348   2.870   5.363   2.716
 9150SOL    HW128349   2.894   5.267   2.731
 9150SOL    HW228350   2.949   5.412   2.677
 9151SOL     OW28351   1.355   4.701   3.756
 9151SOL    HW128352   1.285   4.761   3.716
 9151SOL    HW228353   1.434   4.756   3.782
 9152SOL     OW28354   2.276   4.677   5.122
 9152SOL    HW128355   2.315   4.587   5.105
 9152SOL    HW228356   2.188   4.667   5.167
 9153SOL     OW28357   1.201   3.006   1.067
 9153SOL    HW128358   1.243   2.999   1.157
 9153SOL    HW228359   1.187   3.103   1.045
 9154SOL     OW28360   4.610   5.081   6.151
 9154SOL    HW128361   4.679   5.080   6.224
 9154SOL    HW228362   4.641   5.139   6.076
 9155SOL     OW28363   1.179   3.220   1.569
 9155SOL    HW128364   1.108   3.281   1.534
 9155SOL    HW228365   1.188   3.141   1.508
 9156SOL     OW28366   1.668   2.504   0.894
 9156SOL    HW128367   1.730   2.553   0.833
 9156SOL    HW228368   1.714   2.488   0.982
 9157SOL     OW28369   6.587   4.425   6.422
 9157SOL    HW128370   6.609   4.461   6.513
 9157SOL    HW228371   6.663   4.368   6.390
 9158SOL     OW28372   5.658   3.738   4.353
 9158SOL    HW128373   5.564   3.745   4.386
 9158SOL    HW228374   5.660   3.756   4.255
 9159SOL     OW28375   1.700   0.129   2.549
 9159SOL    HW128376   1.705   0.030   2.545
 9159SOL    HW228377   1.760   0.163   2.622
 9160SOL     OW28378   6.260   0.377   4.968
 9160SOL    HW128379   6.171   0.347   5.002
 9160SOL    HW228380   6.262   0.370   4.868
 9161SOL     OW28381   4.567   4.493   4.926
 9161SOL    HW128382   4.600   4.567   4.868
 9161SOL    HW228383   4.478   4.517   4.964
 9162SOL     OW28384   4.782   0.791   4.815
 9162SOL    HW128385   4.724   0.716   4.848
 9162SOL    HW228386   4.733   0.878   4.824
 9163SOL     OW28387   1.976   3.074   4.342
 9163SOL    HW128388   1.901   3.058   4.406
 9163SOL    HW228389   2.054   3.113   4.390
 9164SOL     OW28390   2.576   1.093   6.893
 9164SOL    HW128391   2.652   1.075   6.831
 9164SOL    HW228392   2.605   1.157   6.963
 9165SOL     OW28393   5.802   2.220   5.247
 9165SOL    HW128394   5.817   2.129   5.208
 9165SOL    HW228395   5.741   2.213   5.326
 9166SOL     OW28396   3.914   6.343   0.926
 9166SOL    HW128397   3.823   6.339   0.967
 9166SOL    HW228398   3.909   6.389   0.837
 9167SOL     OW28399   2.195   2.737   6.885
 9167SOL    HW128400   2.198   2.820   6.941
 9167SOL    HW228401   2.106   2.694   6.894
 9168SOL     OW28402   0.263   0.403   6.638
 9168SOL    HW128403   0.289   0.498   6.620
 9168SOL    HW228404   0.345   0.347   6.648
 9169SOL     OW28405   6.026   1.444   4.930
 9169SOL    HW128406   6.071   1.397   5.006
 9169SOL    HW228407   6.083   1.521   4.900
 9170SOL     OW28408   1.199   5.146   6.978
 9170SOL    HW128409   1.189   5.165   6.880
 9170SOL    HW228410   1.254   5.217   7.020
 9171SOL     OW28411   3.999   5.374   0.942
 9171SOL    HW128412   4.005   5.451   0.879
 9171SOL    HW228413   4.089   5.330   0.949
 9172SOL     OW28414   3.250   0.895   4.116
 9172SOL    HW128415   3.188   0.926   4.044
 9172SOL    HW228416   3.344   0.921   4.091
 9173SOL     OW28417   6.511   3.780   4.874
 9173SOL    HW128418   6.539   3.686   4.856
 9173SOL    HW228419   6.538   3.806   4.966
 9174SOL     OW28420   5.617   3.411   1.699
 9174SOL    HW128421   5.589   3.434   1.792
 9174SOL    HW228422   5.614   3.311   1.687
 9175SOL     OW28423   0.467   7.018   4.638
 9175SOL    HW128424   0.481   7.009   4.540
 9175SOL    HW228425   0.511   0.076   4.671
 9176SOL     OW28426   2.857   1.017   5.419
 9176SOL    HW128427   2.906   1.039   5.503
 9176SOL    HW228428   2.915   0.962   5.360
 9177SOL     OW28429   0.768   5.223   5.102
 9177SOL    HW128430   0.692   5.171   5.062
 9177SOL    HW228431   0.739   5.262   5.189
 9178SOL     OW28432   1.635   5.535   0.437
 9178SOL    HW128433   1.661   5.514   0.342
 9178SOL    HW228434   1.625   5.450   0.488
 9179SOL     OW28435   3.137   5.427   4.551
 9179SOL    HW128436   3.129   5.328   4.563
 9179SOL    HW228437   3.087   5.474   4.624
 9180SOL     OW28438   6.388   2.636   2.845
 9180SOL    HW128439   6.477   2.602   2.877
 9180SOL    HW228440   6.384   2.629   2.745
 9181SOL     OW28441   4.368   1.869   5.037
 9181SOL    HW128442   4.337   1.964   5.024
 9181SOL    HW228443   4.367   1.847   5.135
 9182SOL     OW28444   2.322   6.833   2.205
 9182SOL    HW128445   2.404   6.854   2.152
 9182SOL    HW228446   2.339   6.753   2.262
 9183SOL     OW28447   4.805   5.608   0.896
 9183SOL    HW128448   4.840   5.619   0.803
 9183SOL    HW228449   4.750   5.687   0.921
 9184SOL     OW28450   5.023   1.534   0.735
 9184SOL    HW128451   5.101   1.479   0.766
 9184SOL    HW228452   4.995   1.504   0.644
 9185SOL     OW28453   4.356   6.785   4.461
 9185SOL    HW128454   4.386   6.751   4.372
 9185SOL    HW228455   4.285   6.725   4.498
 9186SOL     OW28456   5.797   6.116   4.248
 9186SOL    HW128457   5.820   6.160   4.335
 9186SOL    HW228458   5.876   6.066   4.213
 9187SOL     OW28459   2.762   1.562   0.664
 9187SOL    HW128460   2.737   1.472   0.628
 9187SOL    HW228461   2.785   1.554   0.761
 9188SOL     OW28462   1.217   6.900   1.565
 9188SOL    HW128463   1.227   6.979   1.625
 9188SOL    HW228464   1.249   6.818   1.612
 9189SOL     OW28465   4.619   5.913   1.554
 9189SOL    HW128466   4.657   5.995   1.597
 9189SOL    HW228467   4.543   5.940   1.494
 9190SOL     OW28468   2.581   4.587   6.311
 9190SOL    HW128469   2.561   4.600   6.408
 9190SOL    HW228470   2.530   4.655   6.258
 9191SOL     OW28471   6.651   2.720   5.446
 9191SOL    HW128472   6.689   2.788   5.382
 9191SOL    HW228473   6.553   2.712   5.430
 9192SOL     OW28474   0.594   3.313   6.079
 9192SOL    HW128475   0.568   3.275   6.167
 9192SOL    HW228476   0.692   3.300   6.065
 9193SOL     OW28477   4.590   4.362   0.034
 9193SOL    HW128478   4.663   4.394   6.997
 9193SOL    HW228479   4.631   4.333   0.120
 9194SOL     OW28480   2.954   0.577   3.532
 9194SOL    HW128481   2.871   0.565   3.476
 9194SOL    HW228482   2.965   0.674   3.554
 9195SOL     OW28483   1.640   1.569   3.731
 9195SOL    HW128484   1.574   1.603   3.664
 9195SOL    HW228485   1.733   1.584   3.697
 9196SOL     OW28486   4.862   6.866   2.779
 9196SOL    HW128487   4.792   6.935   2.795
 9196SOL    HW228488   4.830   6.802   2.709
 9197SOL     OW28489   1.799   5.282   1.759
 9197SOL    HW128490   1.821   5.229   1.677
 9197SOL    HW228491   1.789   5.378   1.735
 9198SOL     OW28492   6.713   4.924   6.865
 9198SOL    HW128493   6.717   5.016   6.825
 9198SOL    HW228494   6.653   4.866   6.809
 9199SOL     OW28495   0.963   4.318   6.201
 9199SOL    HW128496   0.928   4.285   6.289
 9199SOL    HW228497   1.037   4.383   6.218
 9200SOL     OW28498   2.565   6.641   6.698
 9200SOL    HW128499   2.550   6.542   6.692
 9200SOL    HW228500   2.477   6.688   6.689
 9201SOL     OW28501   0.298   2.422   0.942
 9201SOL    HW128502   0.254   2.348   0.994
 9201SOL    HW228503   0.317   2.499   1.002
 9202SOL     OW28504   1.256   6.719   2.324
 9202SOL    HW128505   1.212   6.711   2.234
 9202SOL    HW228506   1.210   6.659   2.388
 9203SOL     OW28507   0.958   3.936   6.550
 9203SOL    HW128508   0.989   3.971   6.462
 9203SOL    HW228509   0.915   3.847   6.537
 9204SOL     OW28510   4.942   2.666   6.154
 9204SOL    HW128511   4.899   2.616   6.079
 9204SOL    HW228512   4.967   2.758   6.122
 9205SOL     OW28513   6.030   4.672   3.427
 9205SOL    HW128514   6.079   4.637   3.507
 9205SOL    HW228515   6.011   4.597   3.364
 9206SOL     OW28516   3.912   5.790   2.879
 9206SOL    HW128517   3.942   5.881   2.852
 9206SOL    HW228518   3.961   5.762   2.962
 9207SOL     OW28519   5.186   3.877   5.994
 9207SOL    HW128520   5.157   3.942   5.923
 9207SOL    HW228521   5.187   3.924   6.083
 9208SOL     OW28522   5.736   4.368   3.773
 9208SOL    HW128523   5.791   4.428   3.831
 9208SOL    HW228524   5.670   4.422   3.723
 9209SOL     OW28525   4.035   0.677   6.781
 9209SOL    HW128526   3.968   0.603   6.792
 9209SOL    HW228527   3.990   0.765   6.798
 9210SOL     OW28528   0.204   0.684   2.752
 9210SOL    HW128529   0.219   0.622   2.675
 9210SOL    HW228530   0.130   0.650   2.809
 9211SOL     OW28531   0.552   2.094   5.995
 9211SOL    HW128532   0.635   2.142   6.022
 9211SOL    HW228533   0.542   2.010   6.048
 9212SOL     OW28534   5.346   5.379   4.021
 9212SOL    HW128535   5.364   5.292   3.976
 9212SOL    HW228536   5.425   5.440   4.010
 9213SOL     OW28537   5.169   3.554   5.453
 9213SOL    HW128538   5.119   3.469   5.439
 9213SOL    HW228539   5.186   3.568   5.550
 9214SOL     OW28540   6.643   3.324   6.838
 9214SOL    HW128541   6.727   3.270   6.829
 9214SOL    HW228542   6.655   3.395   6.906
 9215SOL     OW28543   0.732   2.706   1.259
 9215SOL    HW128544   0.672   2.718   1.338
 9215SOL    HW228545   0.682   2.657   1.187
 9216SOL     OW28546   3.053   0.354   2.408
 9216SOL    HW128547   3.134   0.368   2.351
 9216SOL    HW228548   3.036   0.256   2.419
 9217SOL     OW28549   0.498   2.534   0.196
 9217SOL    HW128550   0.434   2.578   0.133
 9217SOL    HW228551   0.583   2.515   0.147
 9218SOL     OW28552   1.945   0.092   0.320
 9218SOL    HW128553   1.926   0.146   0.402
 9218SOL    HW228554   1.863   0.087   0.263
 9219SOL     OW28555   6.212   2.709   1.097
 9219SOL    HW128556   6.259   2.797   1.098
 9219SOL    HW228557   6.218   2.668   1.006
 9220SOL     OW28558   1.686   6.633   1.565
 9220SOL    HW128559   1.748   6.560   1.535
 9220SOL    HW228560   1.734   6.720   1.563
 9221SOL     OW28561   3.382   0.604   3.165
 9221SOL    HW128562   3.377   0.574   3.070
 9221SOL    HW228563   3.290   0.615   3.202
 9222SOL     OW28564   1.893   6.713   6.266
 9222SOL    HW128565   1.969   6.658   6.301
 9222SOL    HW228566   1.860   6.672   6.181
 9223SOL     OW28567   0.627   1.021   3.766
 9223SOL    HW128568   0.695   1.091   3.790
 9223SOL    HW228569   0.546   1.032   3.825
 9224SOL     OW28570   1.290   4.907   5.221
 9224SOL    HW128571   1.232   4.844   5.272
 9224SOL    HW228572   1.350   4.855   5.160
 9225SOL     OW28573   3.254   6.698   5.844
 9225SOL    HW128574   3.266   6.705   5.745
 9225SOL    HW228575   3.334   6.654   5.885
 9226SOL     OW28576   5.995   6.480   1.066
 9226SOL    HW128577   5.960   6.399   1.019
 9226SOL    HW228578   6.062   6.453   1.134
 9227SOL     OW28579   1.039   5.404   0.579
 9227SOL    HW128580   1.006   5.497   0.598
 9227SOL    HW228581   1.050   5.393   0.480
 9228SOL     OW28582   1.467   1.854   5.540
 9228SOL    HW128583   1.413   1.853   5.625
 9228SOL    HW228584   1.425   1.794   5.473
 9229SOL     OW28585   0.621   5.795   4.966
 9229SOL    HW128586   0.659   5.884   4.992
 9229SOL    HW228587   0.654   5.725   5.029
 9230SOL     OW28588   4.415   1.366   3.506
 9230SOL    HW128589   4.481   1.440   3.497
 9230SOL    HW228590   4.381   1.340   3.415
 9231SOL     OW28591   0.396   4.330   4.713
 9231SOL    HW128592   0.458   4.280   4.653
 9231SOL    HW228593   0.378   4.421   4.676
 9232SOL     OW28594   3.777   5.381   0.679
 9232SOL    HW128595   3.744   5.408   0.588
 9232SOL    HW228596   3.798   5.284   0.679
 9233SOL     OW28597   5.527   5.228   2.078
 9233SOL    HW128598   5.539   5.128   2.078
 9233SOL    HW228599   5.616   5.272   2.068
 9234SOL     OW28600   3.735   5.833   5.823
 9234SOL    HW128601   3.834   5.849   5.828
 9234SOL    HW228602   3.694   5.848   5.913
 9235SOL     OW28603   1.604   3.379   3.112
 9235SOL    HW128604   1.703   3.386   3.125
 9235SOL    HW228605   1.570   3.459   3.062
 9236SOL     OW28606   2.753   4.244   5.546
 9236SOL    HW128607   2.666   4.246   5.594
 9236SOL    HW228608   2.756   4.320   5.480
 9237SOL     OW28609   1.845   5.620   4.726
 9237SOL    HW128610   1.754   5.594   4.694
 9237SOL    HW228611   1.896   5.539   4.753
 9238SOL     OW28612   3.482   1.637   0.005
 9238SOL    HW128613   3.401   1.661   6.977
 9238SOL    HW228614   3.453   1.599   0.093
 9239SOL     OW28615   6.541   4.735   0.649
 9239SOL    HW128616   6.628   4.685   0.652
 9239SOL    HW228617   6.465   4.669   0.654
 9240SOL     OW28618   5.027   1.721   1.109
 9240SOL    HW128619   4.975   1.690   1.029
 9240SOL    HW228620   5.052   1.817   1.097
 9241SOL     OW28621   0.694   4.946   5.578
 9241SOL    HW128622   0.605   4.923   5.538
 9241SOL    HW228623   0.681   4.975   5.673
 9242SOL     OW28624   0.372   5.524   0.351
 9242SOL    HW128625   0.367   5.616   0.390
 9242SOL    HW228626   0.461   5.484   0.371
 9243SOL     OW28627   5.745   6.678   1.717
 9243SOL    HW128628   5.653   6.640   1.705
 9243SOL    HW228629   5.786   6.694   1.627
 9244SOL     OW28630   4.138   5.479   6.743
 9244SOL    HW128631   4.227   5.510   6.710
 9244SOL    HW228632   4.097   5.418   6.675
 9245SOL     OW28633   1.388   5.202   3.184
 9245SOL    HW128634   1.459   5.193   3.114
 9245SOL    HW228635   1.309   5.146   3.160
 9246SOL     OW28636   0.204   4.870   2.702
 9246SOL    HW128637   0.114   4.908   2.726
 9246SOL    HW228638   0.195   4.813   2.620
 9247SOL     OW28639   0.983   6.724   2.988
 9247SOL    HW128640   0.941   6.787   3.053
 9247SOL    HW228641   0.948   6.743   2.896
 9248SOL     OW28642   1.669   2.386   4.869
 9248SOL    HW128643   1.594   2.429   4.919
 9248SOL    HW228644   1.674   2.289   4.893
 9249SOL     OW28645   4.960   4.131   6.986
 9249SOL    HW128646   4.956   4.191   0.041
 9249SOL    HW228647   4.978   4.037   7.017
 9250SOL     OW28648   5.800   3.105   4.712
 9250SOL    HW128649   5.730   3.034   4.702
 9250SOL    HW228650   5.764   3.191   4.676
 9251SOL     OW28651   4.129   2.208   3.210
 9251SOL    HW128652   4.189   2.288   3.206
 9251SOL    HW228653   4.181   2.128   3.241
 9252SOL     OW28654   5.779   0.235   4.346
 9252SOL    HW128655   5.730   0.149   4.359
 9252SOL    HW228656   5.877   0.217   4.341
 9253SOL     OW28657   5.989   6.348   5.935
 9253SOL    HW128658   5.909   6.386   5.887
 9253SOL    HW228659   5.968   6.254   5.964
 9254SOL     OW28660   6.267   4.464   2.943
 9254SOL    HW128661   6.252   4.370   2.913
 9254SOL    HW228662   6.336   4.466   3.015
 9255SOL     OW28663   4.506   3.700   0.354
 9255SOL    HW128664   4.556   3.676   0.438
 9255SOL    HW228665   4.556   3.771   0.305
 9256SOL     OW28666   4.069   6.478   2.424
 9256SOL    HW128667   4.077   6.553   2.489
 9256SOL    HW228668   3.973   6.465   2.399
 9257SOL     OW28669   0.899   3.891   2.986
 9257SOL    HW128670   0.896   3.793   2.966
 9257SOL    HW228671   0.829   3.939   2.933
 9258SOL     OW28672   3.207   3.490   3.441
 9258SOL    HW128673   3.137   3.420   3.430
 9258SOL    HW228674   3.289   3.463   3.392
 9259SOL     OW28675   1.133   2.564   0.264
 9259SOL    HW128676   1.098   2.653   0.293
 9259SOL    HW228677   1.233   2.567   0.261
 9260SOL     OW28678   4.981   1.867   5.122
 9260SOL    HW128679   5.036   1.786   5.103
 9260SOL    HW228680   5.032   1.949   5.097
 9261SOL     OW28681   4.556   0.705   6.328
 9261SOL    HW128682   4.583   0.789   6.280
 9261SOL    HW228683   4.456   0.699   6.331
 9262SOL     OW28684   0.079   3.360   5.648
 9262SOL    HW128685   0.049   3.283   5.592
 9262SOL    HW228686   0.039   3.354   5.739
 9263SOL     OW28687   5.813   5.325   1.782
 9263SOL    HW128688   5.807   5.395   1.711
 9263SOL    HW228689   5.864   5.247   1.747
 9264SOL     OW28690   5.754   4.218   0.214
 9264SOL    HW128691   5.768   4.157   0.136
 9264SOL    HW228692   5.842   4.233   0.260
 9265SOL     OW28693   3.328   1.842   6.799
 9265SOL    HW128694   3.346   1.897   6.881
 9265SOL    HW228695   3.342   1.898   6.718
 9266SOL     OW28696   2.120   6.573   2.045
 9266SOL    HW128697   2.171   6.657   2.066
 9266SOL    HW228698   2.184   6.496   2.046
 9267SOL     OW28699   0.580   3.836   5.736
 9267SOL    HW128700   0.530   3.810   5.819
 9267SOL    HW228701   0.650   3.768   5.717
 9268SOL     OW28702   1.369   4.750   1.493
 9268SOL    HW128703   1.449   4.770   1.436
 9268SOL    HW228704   1.398   4.730   1.586
 9269SOL     OW28705   3.234   1.855   5.863
 9269SOL    HW128706   3.137   1.871   5.878
 9269SOL    HW228707   3.258   1.763   5.893
 9270SOL     OW28708   4.565   6.685   6.059
 9270SOL    HW128709   4.610   6.640   6.136
 9270SOL    HW228710   4.507   6.759   6.093
 9271SOL     OW28711   1.170   6.128   6.700
 9271SOL    HW128712   1.246   6.079   6.742
 9271SOL    HW228713   1.144   6.082   6.615
 9272SOL     OW28714   1.627   5.296   5.419
 9272SOL    HW128715   1.637   5.219   5.356
 9272SOL    HW228716   1.717   5.328   5.447
 9273SOL     OW28717   5.275   6.057   3.700
 9273SOL    HW128718   5.296   6.037   3.796
 9273SOL    HW228719   5.177   6.071   3.690
 9274SOL     OW28720   6.649   2.604   0.230
 9274SOL    HW128721   6.702   2.594   0.146
 9274SOL    HW228722   6.689   2.677   0.286
 9275SOL     OW28723   6.984   2.177   0.055
 9275SOL    HW128724   6.995   2.272   0.082
 9275SOL    HW228725   6.986   2.118   0.136
 9276SOL     OW28726   1.943   4.516   2.642
 9276SOL    HW128727   1.918   4.486   2.550
 9276SOL    HW228728   1.996   4.601   2.636
 9277SOL     OW28729   5.582   3.127   0.536
 9277SOL    HW128730   5.613   3.078   0.618
 9277SOL    HW228731   5.524   3.067   0.481
 9278SOL     OW28732   1.265   0.285   5.404
 9278SOL    HW128733   1.303   0.255   5.317
 9278SOL    HW228734   1.167   0.306   5.393
 9279SOL     OW28735   4.938   0.437   2.091
 9279SOL    HW128736   4.910   0.415   1.997
 9279SOL    HW228737   5.038   0.434   2.098
 9280SOL     OW28738   1.302   1.213   2.464
 9280SOL    HW128739   1.243   1.280   2.417
 9280SOL    HW228740   1.255   1.125   2.469
 9281SOL     OW28741   2.843   4.690   1.097
 9281SOL    HW128742   2.927   4.736   1.070
 9281SOL    HW228743   2.855   4.649   1.187
 9282SOL     OW28744   5.209   1.188   4.660
 9282SOL    HW128745   5.285   1.245   4.689
 9282SOL    HW228746   5.236   1.092   4.662
 9283SOL     OW28747   5.703   0.293   3.862
 9283SOL    HW128748   5.718   0.249   3.773
 9283SOL    HW228749   5.788   0.293   3.914
 9284SOL     OW28750   3.241   4.611   5.976
 9284SOL    HW128751   3.143   4.625   5.991
 9284SOL    HW228752   3.262   4.628   5.879
 9285SOL     OW28753   5.196   2.703   1.067
 9285SOL    HW128754   5.153   2.790   1.043
 9285SOL    HW228755   5.134   2.650   1.126
 9286SOL     OW28756   5.333   6.917   6.768
 9286SOL    HW128757   5.322   6.926   6.669
 9286SOL    HW228758   5.382   6.998   6.803
 9287SOL     OW28759   3.044   5.430   7.015
 9287SOL    HW128760   3.048   5.530   7.010
 9287SOL    HW228761   2.949   5.400   7.007
 9288SOL     OW28762   3.594   1.500   4.142
 9288SOL    HW128763   3.556   1.414   4.176
 9288SOL    HW228764   3.660   1.480   4.070
 9289SOL     OW28765   3.325   1.760   2.509
 9289SOL    HW128766   3.256   1.779   2.439
 9289SOL    HW228767   3.401   1.710   2.468
 9290SOL     OW28768   4.701   1.417   3.741
 9290SOL    HW128769   4.732   1.338   3.687
 9290SOL    HW228770   4.609   1.443   3.710
 9291SOL     OW28771   2.224   7.019   4.090
 9291SOL    HW128772   2.248   0.036   4.003
 9291SOL    HW228773   2.144   0.039   4.128
 9292SOL     OW28774   0.856   3.299   6.640
 9292SOL    HW128775   0.870   3.381   6.695
 9292SOL    HW228776   0.759   3.276   6.638
 9293SOL     OW28777   5.510   4.265   0.086
 9293SOL    HW128778   5.533   4.199   0.015
 9293SOL    HW228779   5.585   4.271   0.152
 9294SOL     OW28780   3.460   6.740   4.670
 9294SOL    HW128781   3.445   6.831   4.631
 9294SOL    HW228782   3.382   6.714   4.726
 9295SOL     OW28783   5.276   2.667   4.350
 9295SOL    HW128784   5.207   2.610   4.395
 9295SOL    HW228785   5.232   2.724   4.281
 9296SOL     OW28786   0.697   6.877   6.549
 9296SOL    HW128787   0.689   6.777   6.542
 9296SOL    HW228788   0.775   6.908   6.495
 9297SOL     OW28789   6.198   1.379   0.563
 9297SOL    HW128790   6.143   1.336   0.635
 9297SOL    HW228791   6.256   1.450   0.604
 9298SOL     OW28792   1.529   0.645   4.683
 9298SOL    HW128793   1.615   0.693   4.699
 9298SOL    HW228794   1.471   0.699   4.623
 9299SOL     OW28795   0.842   2.465   4.266
 9299SOL    HW128796   0.826   2.400   4.192
 9299SOL    HW228797   0.937   2.456   4.298
 9300SOL     OW28798   0.953   4.466   5.778
 9300SOL    HW128799   0.909   4.543   5.732
 9300SOL    HW228800   1.045   4.453   5.739
 9301SOL     OW28801   5.102   4.315   3.502
 9301SOL    HW128802   5.029   4.371   3.541
 9301SOL    HW228803   5.154   4.368   3.436
 9302SOL     OW28804   2.209   2.790   4.414
 9302SOL    HW128805   2.198   2.876   4.464
 9302SOL    HW228806   2.256   2.723   4.472
 9303SOL     OW28807   3.398   5.502   0.473
 9303SOL    HW128808   3.313   5.458   0.445
 9303SOL    HW228809   3.414   5.582   0.414
 9304SOL     OW28810   4.738   4.316   2.161
 9304SOL    HW128811   4.791   4.234   2.183
 9304SOL    HW228812   4.664   4.293   2.098
 9305SOL     OW28813   3.517   1.258   1.760
 9305SOL    HW128814   3.514   1.314   1.677
 9305SOL    HW228815   3.606   1.268   1.804
 9306SOL     OW28816   0.398   4.841   4.914
 9306SOL    HW128817   0.421   4.746   4.894
 9306SOL    HW228818   0.335   4.846   4.991
 9307SOL     OW28819   0.994   3.561   1.014
 9307SOL    HW128820   0.950   3.614   0.943
 9307SOL    HW228821   1.037   3.479   0.974
 9308SOL     OW28822   1.718   4.233   0.959
 9308SOL    HW128823   1.739   4.231   0.862
 9308SOL    HW228824   1.793   4.194   1.012
 9309SOL     OW28825   3.587   4.761   5.736
 9309SOL    HW128826   3.543   4.779   5.648
 9309SOL    HW228827   3.588   4.845   5.791
 9310SOL     OW28828   4.682   5.403   5.921
 9310SOL    HW128829   4.691   5.431   6.017
 9310SOL    HW228830   4.734   5.319   5.906
 9311SOL     OW28831   4.246   4.992   2.051
 9311SOL    HW128832   4.303   4.932   1.995
 9311SOL    HW228833   4.286   5.084   2.051
 9312SOL     OW28834   1.249   2.986   1.355
 9312SOL    HW128835   1.208   2.894   1.353
 9312SOL    HW228836   1.348   2.978   1.348
 9313SOL     OW28837   0.004   0.307   1.054
 9313SOL    HW128838   0.024   0.366   0.975
 9313SOL    HW228839   0.020   0.212   1.028
 9314SOL     OW28840   4.643   6.281   6.152
 9314SOL    HW128841   4.647   6.191   6.107
 9314SOL    HW228842   4.736   6.314   6.166
 9315SOL     OW28843   6.370   1.183   5.230
 9315SOL    HW128844   6.342   1.173   5.134
 9315SOL    HW228845   6.424   1.267   5.240
 9316SOL     OW28846   4.721   6.032   5.372
 9316SOL    HW128847   4.702   6.025   5.470
 9316SOL    HW228848   4.637   6.054   5.323
 9317SOL     OW28849   6.516   5.039   3.263
 9317SOL    HW128850   6.614   5.059   3.265
 9317SOL    HW228851   6.473   5.093   3.191
 9318SOL     OW28852   6.298   0.615   5.874
 9318SOL    HW128853   6.208   0.640   5.910
 9318SOL    HW228854   6.314   0.664   5.788
 9319SOL     OW28855   1.238   3.006   0.431
 9319SOL    HW128856   1.301   3.036   0.502
 9319SOL    HW228857   1.144   3.032   0.455
 9320SOL     OW28858   3.571   1.025   5.862
 9320SOL    HW128859   3.564   1.018   5.962
 9320SOL    HW228860   3.626   1.105   5.838
 9321SOL     OW28861   5.949   6.891   3.129
 9321SOL    HW128862   5.987   6.807   3.168
 9321SOL    HW228863   6.011   6.926   3.059
 9322SOL     OW28864   1.118   4.842   6.648
 9322SOL    HW128865   1.053   4.798   6.586
 9322SOL    HW228866   1.106   4.941   6.643
 9323SOL     OW28867   1.270   0.594   5.146
 9323SOL    HW128868   1.189   0.536   5.144
 9323SOL    HW228869   1.341   0.556   5.086
 9324SOL     OW28870   1.410   4.741   0.467
 9324SOL    HW128871   1.343   4.692   0.522
 9324SOL    HW228872   1.372   4.762   0.377
 9325SOL     OW28873   4.810   1.000   6.692
 9325SOL    HW128874   4.769   0.988   6.602
 9325SOL    HW228875   4.741   1.034   6.756
 9326SOL     OW28876   1.872   6.419   0.732
 9326SOL    HW128877   1.864   6.319   0.740
 9326SOL    HW228878   1.925   6.442   0.651
 9327SOL     OW28879   5.100   6.820   2.912
 9327SOL    HW128880   5.121   6.727   2.939
 9327SOL    HW228881   5.001   6.828   2.895
 9328SOL     OW28882   3.359   0.616   5.782
 9328SOL    HW128883   3.366   0.541   5.716
 9328SOL    HW228884   3.436   0.678   5.771
 9329SOL     OW28885   6.166   4.059   1.640
 9329SOL    HW128886   6.204   4.000   1.568
 9329SOL    HW228887   6.103   4.006   1.697
 9330SOL     OW28888   6.371   6.860   6.816
 9330SOL    HW128889   6.452   6.887   6.764
 9330SOL    HW228890   6.394   6.785   6.878
 9331SOL     OW28891   1.328   1.198   6.649
 9331SOL    HW128892   1.399   1.261   6.681
 9331SOL    HW228893   1.280   1.238   6.572
 9332SOL     OW28894   4.186   3.975   1.748
 9332SOL    HW128895   4.265   4.018   1.792
 9332SOL    HW228896   4.108   4.038   1.751
 9333SOL     OW28897   4.279   4.017   1.424
 9333SOL    HW128898   4.261   4.054   1.333
 9333SOL    HW228899   4.212   3.946   1.445
 9334SOL     OW28900   5.262   5.703   3.863
 9334SOL    HW128901   5.218   5.791   3.874
 9334SOL    HW228902   5.308   5.677   3.949
 9335SOL     OW28903   0.898   1.346   5.965
 9335SOL    HW128904   0.872   1.386   6.053
 9335SOL    HW228905   0.816   1.333   5.909
 9336SOL     OW28906   2.614   4.889   5.370
 9336SOL    HW128907   2.653   4.831   5.441
 9336SOL    HW228908   2.598   4.980   5.407
 9337SOL     OW28909   5.267   1.502   4.044
 9337SOL    HW128910   5.177   1.543   4.034
 9337SOL    HW228911   5.325   1.529   3.967
 9338SOL     OW28912   4.057   0.588   1.922
 9338SOL    HW128913   3.986   0.522   1.946
 9338SOL    HW228914   4.080   0.643   2.003
 9339SOL     OW28915   5.531   0.335   1.574
 9339SOL    HW128916   5.611   0.291   1.613
 9339SOL    HW228917   5.516   0.423   1.619
 9340SOL     OW28918   5.599   3.317   4.090
 9340SOL    HW128919   5.540   3.344   4.014
 9340SOL    HW228920   5.632   3.224   4.075
 9341SOL     OW28921   6.892   5.937   0.382
 9341SOL    HW128922   6.920   5.878   0.306
 9341SOL    HW228923   6.944   5.913   0.464
 9342SOL     OW28924   1.739   0.105   3.578
 9342SOL    HW128925   1.659   0.162   3.591
 9342SOL    HW228926   1.736   0.063   3.487
 9343SOL     OW28927   6.035   4.029   2.412
 9343SOL    HW128928   6.031   3.984   2.322
 9343SOL    HW228929   5.945   4.068   2.433
 9344SOL     OW28930   4.658   6.130   2.183
 9344SOL    HW128931   4.620   6.217   2.215
 9344SOL    HW228932   4.673   6.135   2.085
 9345SOL     OW28933   6.335   4.361   2.162
 9345SOL    HW128934   6.323   4.280   2.220
 9345SOL    HW228935   6.246   4.398   2.138
 9346SOL     OW28936   6.247   1.228   1.135
 9346SOL    HW128937   6.293   1.140   1.150
 9346SOL    HW228938   6.260   1.286   1.215
 9347SOL     OW28939   1.199   3.757   0.574
 9347SOL    HW128940   1.263   3.752   0.497
 9347SOL    HW228941   1.228   3.692   0.645
 9348SOL     OW28942   3.592   5.967   2.294
 9348SOL    HW128943   3.680   5.996   2.257
 9348SOL    HW228944   3.539   5.921   2.223
 9349SOL     OW28945   0.450   6.237   3.166
 9349SOL    HW128946   0.368   6.205   3.213
 9349SOL    HW228947   0.509   6.286   3.231
 9350SOL     OW28948   0.524   3.766   5.473
 9350SOL    HW128949   0.555   3.852   5.433
 9350SOL    HW228950   0.516   3.777   5.573
 9351SOL     OW28951   2.582   0.555   6.607
 9351SOL    HW128952   2.546   0.614   6.680
 9351SOL    HW228953   2.545   0.585   6.519
 9352SOL     OW28954   3.188   2.156   6.805
 9352SOL    HW128955   3.269   2.193   6.851
 9352SOL    HW228956   3.213   2.128   6.712
 9353SOL     OW28957   0.291   4.698   0.554
 9353SOL    HW128958   0.218   4.756   0.517
 9353SOL    HW228959   0.380   4.737   0.530
 9354SOL     OW28960   6.399   1.841   6.330
 9354SOL    HW128961   6.361   1.755   6.365
 9354SOL    HW228962   6.481   1.822   6.277
 9355SOL     OW28963   0.498   2.234   4.609
 9355SOL    HW128964   0.467   2.324   4.638
 9355SOL    HW228965   0.542   2.187   4.686
 9356SOL     OW28966   4.576   0.437   2.141
 9356SOL    HW128967   4.588   0.338   2.146
 9356SOL    HW228968   4.653   0.479   2.093
 9357SOL     OW28969   1.209   3.091   6.013
 9357SOL    HW128970   1.180   2.997   5.995
 9357SOL    HW228971   1.194   3.113   6.109
 9358SOL     OW28972   6.852   3.907   2.239
 9358SOL    HW128973   6.813   3.967   2.308
 9358SOL    HW228974   6.950   3.924   2.231
 9359SOL     OW28975   1.237   4.586   6.863
 9359SOL    HW128976   1.279   4.607   6.775
 9359SOL    HW228977   1.241   4.668   6.921
 9360SOL     OW28978   1.913   5.294   6.121
 9360SOL    HW128979   1.816   5.288   6.100
 9360SOL    HW228980   1.964   5.313   6.037
 9361SOL     OW28981   1.507   4.920   3.575
 9361SOL    HW128982   1.469   4.838   3.533
 9361SOL    HW228983   1.490   4.998   3.515
 9362SOL     OW28984   0.637   0.961   2.577
 9362SOL    HW128985   0.717   0.982   2.521
 9362SOL    HW228986   0.607   1.043   2.625
 9363SOL     OW28987   3.205   5.175   2.055
 9363SOL    HW128988   3.231   5.154   1.961
 9363SOL    HW228989   3.122   5.124   2.079
 9364SOL     OW28990   2.321   2.392   0.153
 9364SOL    HW128991   2.354   2.393   0.248
 9364SOL    HW228992   2.399   2.375   0.092
 9365SOL     OW28993   3.022   1.726   3.318
 9365SOL    HW128994   2.976   1.812   3.295
 9365SOL    HW228995   3.032   1.718   3.417
 9366SOL     OW28996   2.938   5.324   0.265
 9366SOL    HW128997   2.956   5.358   0.172
 9366SOL    HW228998   3.018   5.339   0.322
 9367SOL     OW28999   6.411   0.102   1.452
 9367SOL    HW129000   6.324   0.072   1.412
 9367SOL    HW229001   6.474   0.025   1.455
 9368SOL     OW29002   3.379   6.780   2.064
 9368SOL    HW129003   3.469   6.736   2.061
 9368SOL    HW229004   3.377   6.856   1.999
 9369SOL     OW29005   6.571   6.188   4.248
 9369SOL    HW129006   6.597   6.282   4.227
 9369SOL    HW229007   6.479   6.187   4.288
 9370SOL     OW29008   5.477   6.791   4.266
 9370SOL    HW129009   5.539   6.867   4.284
 9370SOL    HW229010   5.509   6.709   4.313
 9371SOL     OW29011   2.614   6.093   0.631
 9371SOL    HW129012   2.664   6.012   0.661
 9371SOL    HW229013   2.647   6.121   0.541
 9372SOL     OW29014   5.256   0.272   1.581
 9372SOL    HW129015   5.353   0.295   1.577
 9372SOL    HW229016   5.240   0.205   1.653
 9373SOL     OW29017   5.467   2.280   0.602
 9373SOL    HW129018   5.469   2.182   0.622
 9373SOL    HW229019   5.435   2.330   0.683
 9374SOL     OW29020   0.236   3.251   6.034
 9374SOL    HW129021   0.284   3.266   5.947
 9374SOL    HW229022   0.138   3.263   6.021
 9375SOL     OW29023   0.038   1.692   0.666
 9375SOL    HW129024   0.023   1.594   0.670
 9375SOL    HW229025   0.028   1.724   0.572
 9376SOL     OW29026   2.596   3.750   1.721
 9376SOL    HW129027   2.663   3.809   1.675
 9376SOL    HW229028   2.513   3.803   1.742
 9377SOL     OW29029   1.734   5.302   3.308
 9377SOL    HW129030   1.655   5.361   3.289
 9377SOL    HW229031   1.716   5.247   3.390
 9378SOL     OW29032   3.513   1.172   3.873
 9378SOL    HW129033   3.585   1.221   3.822
 9378SOL    HW229034   3.530   1.074   3.868
 9379SOL     OW29035   5.138   6.977   4.645
 9379SOL    HW129036   5.040   6.980   4.662
 9379SOL    HW229037   5.159   6.900   4.584
 9380SOL     OW29038   3.516   5.684   5.709
 9380SOL    HW129039   3.559   5.770   5.737
 9380SOL    HW229040   3.495   5.688   5.611
 9381SOL     OW29041   5.374   2.880   5.264
 9381SOL    HW129042   5.435   2.923   5.331
 9381SOL    HW229043   5.279   2.904   5.285
 9382SOL     OW29044   3.785   1.435   3.935
 9382SOL    HW129045   3.814   1.355   3.988
 9382SOL    HW229046   3.858   1.503   3.936
 9383SOL     OW29047   5.340   4.293   4.449
 9383SOL    HW129048   5.399   4.257   4.377
 9383SOL    HW229049   5.289   4.372   4.415
 9384SOL     OW29050   3.343   6.995   1.924
 9384SOL    HW129051   3.419   0.033   1.909
 9384SOL    HW229052   3.295   6.980   1.837
 9385SOL     OW29053   4.451   1.349   4.470
 9385SOL    HW129054   4.536   1.297   4.456
 9385SOL    HW229055   4.466   1.445   4.447
 9386SOL     OW29056   3.214   5.584   5.167
 9386SOL    HW129057   3.204   5.512   5.099
 9386SOL    HW229058   3.224   5.672   5.121
 9387SOL     OW29059   3.231   1.935   0.653
 9387SOL    HW129060   3.240   1.927   0.753
 9387SOL    HW229061   3.192   2.024   0.630
 9388SOL     OW29062   1.792   6.724   3.164
 9388SOL    HW129063   1.707   6.747   3.116
 9388SOL    HW229064   1.856   6.683   3.099
 9389SOL     OW29065   3.190   6.142   3.025
 9389SOL    HW129066   3.206   6.240   3.012
 9389SOL    HW229067   3.176   6.098   2.937
 9390SOL     OW29068   6.086   5.098   5.864
 9390SOL    HW129069   6.027   5.124   5.787
 9390SOL    HW229070   6.179   5.081   5.831
 9391SOL     OW29071   0.374   0.883   5.054
 9391SOL    HW129072   0.399   0.906   4.960
 9391SOL    HW229073   0.411   0.792   5.076
 9392SOL     OW29074   4.823   4.212   3.815
 9392SOL    HW129075   4.863   4.159   3.740
 9392SOL    HW229076   4.811   4.153   3.895
 9393SOL     OW29077   2.759   0.020   5.336
 9393SOL    HW129078   2.843   7.010   5.296
 9393SOL    HW229079   2.745   7.003   5.426
 9394SOL     OW29080   6.036   0.357   1.365
 9394SOL    HW129081   6.124   0.381   1.325
 9394SOL    HW229082   5.965   0.356   1.294
 9395SOL     OW29083   2.734   1.261   0.636
 9395SOL    HW129084   2.646   1.215   0.633
 9395SOL    HW229085   2.796   1.218   0.570
 9396SOL     OW29086   2.036   4.571   5.244
 9396SOL    HW129087   2.014   4.556   5.341
 9396SOL    HW229088   1.975   4.516   5.187
 9397SOL     OW29089   3.033   6.673   5.254
 9397SOL    HW129090   3.020   6.766   5.288
 9397SOL    HW229091   3.075   6.617   5.326
 9398SOL     OW29092   6.057   1.551   5.556
 9398SOL    HW129093   6.029   1.642   5.525
 9398SOL    HW229094   6.024   1.483   5.491
 9399SOL     OW29095   0.848   2.663   3.993
 9399SOL    HW129096   0.897   2.652   4.080
 9399SOL    HW229097   0.800   2.751   3.994
 9400SOL     OW29098   4.712   0.258   0.493
 9400SOL    HW129099   4.683   0.201   0.416
 9400SOL    HW229100   4.635   0.310   0.528
 9401SOL     OW29101   0.284   2.333   1.814
 9401SOL    HW129102   0.245   2.320   1.905
 9401SOL    HW229103   0.211   2.326   1.745
 9402SOL     OW29104   1.161   4.719   3.147
 9402SOL    HW129105   1.173   4.631   3.193
 9402SOL    HW229106   1.066   4.727   3.115
 9403SOL     OW29107   6.736   1.494   2.336
 9403SOL    HW129108   6.688   1.457   2.416
 9403SOL    HW229109   6.835   1.480   2.348
 9404SOL     OW29110   0.188   1.920   1.292
 9404SOL    HW129111   0.258   1.860   1.256
 9404SOL    HW229112   0.107   1.917   1.233
 9405SOL     OW29113   0.909   4.341   4.496
 9405SOL    HW129114   0.974   4.336   4.572
 9405SOL    HW229115   0.959   4.356   4.411
 9406SOL     OW29116   1.197   2.947   0.098
 9406SOL    HW129117   1.212   2.914   0.191
 9406SOL    HW229118   1.157   2.874   0.043
 9407SOL     OW29119   2.936   5.130   4.163
 9407SOL    HW129120   3.006   5.187   4.121
 9407SOL    HW229121   2.976   5.044   4.194
 9408SOL     OW29122   0.013   2.065   6.175
 9408SOL    HW129123   0.066   2.012   6.109
 9408SOL    HW229124   0.042   2.161   6.172
 9409SOL     OW29125   6.750   5.559   2.367
 9409SOL    HW129126   6.783   5.550   2.273
 9409SOL    HW229127   6.775   5.477   2.419
 9410SOL     OW29128   4.999   1.147   1.731
 9410SOL    HW129129   4.900   1.148   1.721
 9410SOL    HW229130   5.023   1.178   1.823
 9411SOL     OW29131   3.161   3.777   2.525
 9411SOL    HW129132   3.231   3.764   2.454
 9411SOL    HW229133   3.074   3.801   2.483
 9412SOL     OW29134   1.319   0.432   1.947
 9412SOL    HW129135   1.282   0.438   1.855
 9412SOL    HW229136   1.343   0.524   1.979
 9413SOL     OW29137   4.681   4.718   4.794
 9413SOL    HW129138   4.607   4.767   4.748
 9413SOL    HW229139   4.764   4.723   4.739
 9414SOL     OW29140   3.012   2.196   4.274
 9414SOL    HW129141   2.985   2.276   4.328
 9414SOL    HW229142   2.998   2.216   4.176
 9415SOL     OW29143   2.930   0.110   1.980
 9415SOL    HW129144   2.950   0.201   1.945
 9415SOL    HW229145   2.862   0.066   1.922
 9416SOL     OW29146   0.135   1.023   5.071
 9416SOL    HW129147   0.081   0.997   4.991
 9416SOL    HW229148   0.214   0.961   5.079
 9417SOL     OW29149   3.398   6.301   1.766
 9417SOL    HW129150   3.495   6.292   1.786
 9417SOL    HW229151   3.366   6.391   1.796
 9418SOL     OW29152   2.533   1.656   2.689
 9418SOL    HW129153   2.487   1.715   2.755
 9418SOL    HW229154   2.467   1.594   2.647
 9419SOL     OW29155   2.663   3.122   6.607
 9419SOL    HW129156   2.676   3.139   6.704
 9419SOL    HW229157   2.575   3.078   6.592
 9420SOL     OW29158   5.752   4.755   0.499
 9420SOL    HW129159   5.665   4.717   0.466
 9420SOL    HW229160   5.807   4.683   0.541
 9421SOL     OW29161   2.844   5.291   4.348
 9421SOL    HW129162   2.824   5.383   4.313
 9421SOL    HW229163   2.874   5.233   4.272
 9422SOL     OW29164   2.765   6.240   4.052
 9422SOL    HW129165   2.688   6.304   4.055
 9422SOL    HW229166   2.734   6.150   4.083
 9423SOL     OW29167   3.801   6.420   2.857
 9423SOL    HW129168   3.747   6.347   2.814
 9423SOL    HW229169   3.874   6.448   2.794
 9424SOL     OW29170   5.242   1.610   4.737
 9424SOL    HW129171   5.303   1.559   4.676
 9424SOL    HW229172   5.275   1.602   4.831
 9425SOL     OW29173   5.914   5.057   1.670
 9425SOL    HW129174   5.960   5.096   1.591
 9425SOL    HW229175   5.900   4.959   1.656
 9426SOL     OW29176   1.782   1.385   5.995
 9426SOL    HW129177   1.732   1.464   5.961
 9426SOL    HW229178   1.779   1.312   5.926
 9427SOL     OW29179   2.130   6.234   3.094
 9427SOL    HW129180   2.134   6.326   3.134
 9427SOL    HW229181   2.088   6.171   3.160
 9428SOL     OW29182   6.549   6.894   0.124
 9428SOL    HW129183   6.494   6.821   0.085
 9428SOL    HW229184   6.493   6.950   0.185
 9429SOL     OW29185   1.436   2.102   3.551
 9429SOL    HW129186   1.486   2.061   3.475
 9429SOL    HW229187   1.500   2.135   3.620
 9430SOL     OW29188   0.505   2.608   3.859
 9430SOL    HW129189   0.571   2.538   3.834
 9430SOL    HW229190   0.420   2.565   3.891
 9431SOL     OW29191   6.694   4.484   1.126
 9431SOL    HW129192   6.651   4.527   1.205
 9431SOL    HW229193   6.719   4.554   1.059
 9432SOL     OW29194   6.591   1.744   4.316
 9432SOL    HW129195   6.665   1.801   4.353
 9432SOL    HW229196   6.508   1.759   4.369
 9433SOL     OW29197   3.840   5.805   3.403
 9433SOL    HW129198   3.758   5.848   3.442
 9433SOL    HW229199   3.897   5.768   3.477
 9434SOL     OW29200   5.636   5.422   3.637
 9434SOL    HW129201   5.568   5.484   3.676
 9434SOL    HW229202   5.592   5.363   3.569
 9435SOL     OW29203   0.111   2.040   2.283
 9435SOL    HW129204   0.206   2.020   2.309
 9435SOL    HW229205   0.057   1.957   2.287
 9436SOL     OW29206   1.229   0.975   2.506
 9436SOL    HW129207   1.148   0.938   2.550
 9436SOL    HW229208   1.277   0.902   2.457
 9437SOL     OW29209   0.981   5.136   3.457
 9437SOL    HW129210   0.917   5.175   3.523
 9437SOL    HW229211   0.948   5.152   3.364
 9438SOL     OW29212   0.999   6.983   2.047
 9438SOL    HW129213   0.965   6.911   2.108
 9438SOL    HW229214   1.083   7.022   2.085
 9439SOL     OW29215   0.281   3.011   1.180
 9439SOL    HW129216   0.300   2.948   1.105
 9439SOL    HW229217   0.302   3.105   1.151
 9440SOL     OW29218   2.577   4.759   3.109
 9440SOL    HW129219   2.674   4.746   3.087
 9440SOL    HW229220   2.551   4.695   3.181
 9441SOL     OW29221   6.540   5.829   5.580
 9441SOL    HW129222   6.543   5.730   5.563
 9441SOL    HW229223   6.445   5.856   5.599
 9442SOL     OW29224   4.301   3.657   1.354
 9442SOL    HW129225   4.316   3.601   1.435
 9442SOL    HW229226   4.216   3.708   1.364
 9443SOL     OW29227   2.764   5.893   1.336
 9443SOL    HW129228   2.860   5.869   1.352
 9443SOL    HW229229   2.706   5.847   1.403
 9444SOL     OW29230   1.868   3.926   0.689
 9444SOL    HW129231   1.870   3.865   0.610
 9444SOL    HW229232   1.907   3.879   0.768
 9445SOL     OW29233   6.893   2.217   3.576
 9445SOL    HW129234   6.867   2.313   3.581
 9445SOL    HW229235   6.876   2.183   3.484
 9446SOL     OW29236   6.962   4.705   4.186
 9446SOL    HW129237   6.863   4.714   4.194
 9446SOL    HW229238   7.003   4.794   4.167
 9447SOL     OW29239   4.678   4.907   3.009
 9447SOL    HW129240   4.718   4.823   2.973
 9447SOL    HW229241   4.669   4.974   2.935
 9448SOL     OW29242   6.189   6.915   5.764
 9448SOL    HW129243   6.267   6.956   5.810
 9448SOL    HW229244   6.209   6.903   5.667
 9449SOL     OW29245   5.331   6.410   0.619
 9449SOL    HW129246   5.278   6.448   0.695
 9449SOL    HW229247   5.373   6.484   0.567
 9450SOL     OW29248   1.432   5.090   4.338
 9450SOL    HW129249   1.482   5.069   4.422
 9450SOL    HW229250   1.466   5.033   4.263
 9451SOL     OW29251   4.189   5.746   5.963
 9451SOL    HW129252   4.251   5.692   5.907
 9451SOL    HW229253   4.143   5.814   5.906
 9452SOL     OW29254   0.760   3.894   0.653
 9452SOL    HW129255   0.723   3.983   0.627
 9452SOL    HW229256   0.802   3.851   0.573
 9453SOL     OW29257   2.382   4.904   3.000
 9453SOL    HW129258   2.454   4.838   3.022
 9453SOL    HW229259   2.343   4.882   2.911
 9454SOL     OW29260   4.208   3.745   0.169
 9454SOL    HW129261   4.271   3.767   0.244
 9454SOL    HW229262   4.179   3.650   0.177
 9455SOL     OW29263   2.469   1.752   2.086
 9455SOL    HW129264   2.563   1.783   2.070
 9455SOL    HW229265   2.423   1.740   1.998
 9456SOL     OW29266   6.205   4.065   2.069
 9456SOL    HW129267   6.114   4.089   2.102
 9456SOL    HW229268   6.247   4.144   2.026
 9457SOL     OW29269   0.931   5.097   4.542
 9457SOL    HW129270   0.920   5.194   4.519
 9457SOL    HW229271   1.016   5.063   4.503
 9458SOL     OW29272   0.033   3.915   0.306
 9458SOL    HW129273   0.110   3.900   0.368
 9458SOL    HW229274   0.055   3.991   0.244
 9459SOL     OW29275   5.354   4.264   3.676
 9459SOL    HW129276   5.352   4.329   3.752
 9459SOL    HW229277   5.317   4.306   3.594
 9460SOL     OW29278   1.915   3.077   4.789
 9460SOL    HW129279   1.928   3.145   4.862
 9460SOL    HW229280   2.000   3.064   4.739
 9461SOL     OW29281   0.963   1.272   1.113
 9461SOL    HW129282   1.007   1.254   1.024
 9461SOL    HW229283   0.982   1.367   1.140
 9462SOL     OW29284   1.774   2.873   3.714
 9462SOL    HW129285   1.841   2.947   3.702
 9462SOL    HW229286   1.823   2.786   3.720
 9463SOL     OW29287   5.440   6.721   1.411
 9463SOL    HW129288   5.445   6.699   1.509
 9463SOL    HW229289   5.359   6.678   1.372
 9464SOL     OW29290   5.910   0.535   1.524
 9464SOL    HW129291   5.928   0.621   1.475
 9464SOL    HW229292   5.940   0.458   1.467
 9465SOL     OW29293   0.285   3.822   1.727
 9465SOL    HW129294   0.268   3.900   1.787
 9465SOL    HW229295   0.270   3.849   1.632
 9466SOL     OW29296   4.412   5.347   6.192
 9466SOL    HW129297   4.386   5.251   6.186
 9466SOL    HW229298   4.364   5.390   6.268
 9467SOL     OW29299   1.865   2.645   0.713
 9467SOL    HW129300   1.959   2.611   0.719
 9467SOL    HW229301   1.862   2.740   0.744
 9468SOL     OW29302   6.644   3.358   6.249
 9468SOL    HW129303   6.551   3.336   6.219
 9468SOL    HW229304   6.648   3.356   6.349
 9469SOL     OW29305   0.211   6.467   0.466
 9469SOL    HW129306   0.113   6.483   0.470
 9469SOL    HW229307   0.230   6.390   0.406
 9470SOL     OW29308   4.472   3.777   6.740
 9470SOL    HW129309   4.468   3.710   6.813
 9470SOL    HW229310   4.443   3.866   6.775
 9471SOL     OW29311   5.599   2.200   5.429
 9471SOL    HW129312   5.577   2.273   5.364
 9471SOL    HW229313   5.594   2.236   5.522
 9472SOL     OW29314   1.136   4.523   6.256
 9472SOL    HW129315   1.229   4.521   6.293
 9472SOL    HW229316   1.098   4.615   6.266
 9473SOL     OW29317   3.005   3.362   6.567
 9473SOL    HW129318   2.915   3.332   6.535
 9473SOL    HW229319   3.050   3.415   6.494
 9474SOL     OW29320   5.974   2.993   1.561
 9474SOL    HW129321   5.988   3.043   1.646
 9474SOL    HW229322   5.879   2.963   1.554
 9475SOL     OW29323   4.387   3.376   6.852
 9475SOL    HW129324   4.442   3.308   6.804
 9475SOL    HW229325   4.444   3.423   6.920
 9476SOL     OW29326   3.578   4.018   5.881
 9476SOL    HW129327   3.624   3.991   5.796
 9476SOL    HW229328   3.508   4.086   5.860
 9477SOL     OW29329   1.658   3.279   0.904
 9477SOL    HW129330   1.652   3.206   0.972
 9477SOL    HW229331   1.584   3.270   0.838
 9478SOL     OW29332   4.322   2.838   1.292
 9478SOL    HW129333   4.360   2.786   1.215
 9478SOL    HW229334   4.353   2.796   1.378
 9479SOL     OW29335   3.929   0.386   1.285
 9479SOL    HW129336   3.929   0.429   1.376
 9479SOL    HW229337   3.903   0.454   1.216
 9480SOL     OW29338   5.963   5.230   0.321
 9480SOL    HW129339   6.006   5.295   0.259
 9480SOL    HW229340   5.992   5.249   0.415
 9481SOL     OW29341   4.826   2.520   3.006
 9481SOL    HW129342   4.732   2.505   2.976
 9481SOL    HW229343   4.889   2.490   2.935
 9482SOL     OW29344   6.225   6.765   1.435
 9482SOL    HW129345   6.180   6.729   1.353
 9482SOL    HW229346   6.168   6.836   1.476
 9483SOL     OW29347   1.437   0.929   6.335
 9483SOL    HW129348   1.457   0.884   6.422
 9483SOL    HW229349   1.338   0.932   6.321
 9484SOL     OW29350   2.322   0.246   4.397
 9484SOL    HW129351   2.269   0.282   4.321
 9484SOL    HW229352   2.403   0.199   4.363
 9485SOL     OW29353   5.887   1.805   1.007
 9485SOL    HW129354   5.947   1.790   1.085
 9485SOL    HW229355   5.897   1.729   0.942
 9486SOL     OW29356   5.007   5.640   1.254
 9486SOL    HW129357   4.959   5.725   1.235
 9486SOL    HW229358   5.091   5.659   1.305
 9487SOL     OW29359   3.296   3.636   4.511
 9487SOL    HW129360   3.221   3.570   4.516
 9487SOL    HW229361   3.265   3.724   4.546
 9488SOL     OW29362   2.226   0.659   1.040
 9488SOL    HW129363   2.315   0.671   0.996
 9488SOL    HW229364   2.193   0.566   1.025
 9489SOL     OW29365   5.216   4.314   1.181
 9489SOL    HW129366   5.303   4.333   1.135
 9489SOL    HW229367   5.145   4.372   1.142
 9490SOL     OW29368   0.079   5.902   3.421
 9490SOL    HW129369   0.034   5.828   3.371
 9490SOL    HW229370   0.064   5.989   3.373
 9491SOL     OW29371   5.999   5.677   4.125
 9491SOL    HW129372   5.983   5.728   4.040
 9491SOL    HW229373   5.912   5.660   4.171
 9492SOL     OW29374   4.513   3.228   5.578
 9492SOL    HW129375   4.416   3.210   5.560
 9492SOL    HW229376   4.530   3.326   5.567
 9493SOL     OW29377   3.020   5.511   3.977
 9493SOL    HW129378   3.000   5.602   3.940
 9493SOL    HW229379   3.018   5.444   3.904
 9494SOL     OW29380   5.637   2.947   2.393
 9494SOL    HW129381   5.678   2.928   2.483
 9494SOL    HW229382   5.702   2.925   2.321
 9495SOL     OW29383   6.635   1.426   2.582
 9495SOL    HW129384   6.651   1.376   2.667
 9495SOL    HW229385   6.590   1.513   2.603
 9496SOL     OW29386   4.670   2.221   1.967
 9496SOL    HW129387   4.687   2.123   1.980
 9496SOL    HW229388   4.578   2.234   1.930
 9497SOL     OW29389   5.993   5.827   5.566
 9497SOL    HW129390   5.918   5.763   5.549
 9497SOL    HW229391   5.963   5.920   5.546
 9498SOL     OW29392   6.812   4.754   5.260
 9498SOL    HW129393   6.887   4.741   5.325
 9498SOL    HW229394   6.783   4.850   5.262
 9499SOL     OW29395   0.186   6.025   5.124
 9499SOL    HW129396   0.265   5.967   5.145
 9499SOL    HW229397   0.104   5.986   5.165
 9500SOL     OW29398   3.655   6.345   1.025
 9500SOL    HW129399   3.596   6.391   0.958
 9500SOL    HW229400   3.666   6.402   1.106
 9501SOL     OW29401   1.506   1.412   4.510
 9501SOL    HW129402   1.512   1.496   4.457
 9501SOL    HW229403   1.512   1.434   4.608
 9502SOL     OW29404   6.086   3.796   3.966
 9502SOL    HW129405   6.160   3.819   3.902
 9502SOL    HW229406   6.011   3.861   3.954
 9503SOL     OW29407   0.325   2.288   0.585
 9503SOL    HW129408   0.251   2.225   0.610
 9503SOL    HW229409   0.351   2.342   0.665
 9504SOL     OW29410   6.745   3.908   1.756
 9504SOL    HW129411   6.707   3.818   1.777
 9504SOL    HW229412   6.671   3.976   1.759
 9505SOL     OW29413   5.023   4.611   5.550
 9505SOL    HW129414   5.103   4.663   5.578
 9505SOL    HW229415   4.948   4.674   5.529
 9506SOL     OW29416   2.406   2.391   0.407
 9506SOL    HW129417   2.338   2.373   0.479
 9506SOL    HW229418   2.490   2.426   0.449
 9507SOL     OW29419   6.541   0.494   0.978
 9507SOL    HW129420   6.618   0.514   1.038
 9507SOL    HW229421   6.561   0.411   0.924
 9508SOL     OW29422   5.848   1.984   2.490
 9508SOL    HW129423   5.848   1.885   2.473
 9508SOL    HW229424   5.881   2.032   2.408
 9509SOL     OW29425   6.444   0.065   3.609
 9509SOL    HW129426   6.412   0.016   3.528
 9509SOL    HW229427   6.520   0.125   3.584
 9510SOL     OW29428   1.042   3.681   3.359
 9510SOL    HW129429   1.078   3.748   3.424
 9510SOL    HW229430   0.955   3.714   3.322
 9511SOL     OW29431   0.964   1.185   1.826
 9511SOL    HW129432   0.964   1.098   1.778
 9511SOL    HW229433   1.005   1.173   1.917
 9512SOL     OW29434   6.721   2.177   1.493
 9512SOL    HW129435   6.725   2.078   1.486
 9512SOL    HW229436   6.671   2.202   1.576
 9513SOL     OW29437   2.975   4.891   6.228
 9513SOL    HW129438   3.007   4.876   6.134
 9513SOL    HW229439   2.887   4.938   6.226
 9514SOL     OW29440   2.860   3.864   0.038
 9514SOL    HW129441   2.805   3.893   0.116
 9514SOL    HW229442   2.957   3.868   0.062
 9515SOL     OW29443   1.975   5.393   3.428
 9515SOL    HW129444   2.023   5.380   3.340
 9515SOL    HW229445   1.887   5.346   3.425
 9516SOL     OW29446   5.233   4.211   0.668
 9516SOL    HW129447   5.199   4.237   0.577
 9516SOL    HW229448   5.202   4.119   0.691
 9517SOL     OW29449   1.469   4.093   0.943
 9517SOL    HW129450   1.407   4.168   0.918
 9517SOL    HW229451   1.559   4.129   0.966
 9518SOL     OW29452   2.667   1.589   0.142
 9518SOL    HW129453   2.644   1.685   0.128
 9518SOL    HW229454   2.734   1.581   0.216
 9519SOL     OW29455   2.174   2.338   5.838
 9519SOL    HW129456   2.259   2.334   5.891
 9519SOL    HW229457   2.097   2.356   5.900
 9520SOL     OW29458   2.973   0.428   2.691
 9520SOL    HW129459   3.005   0.376   2.612
 9520SOL    HW229460   2.995   0.524   2.679
 9521SOL     OW29461   5.370   5.965   3.087
 9521SOL    HW129462   5.460   5.966   3.129
 9521SOL    HW229463   5.302   5.940   3.156
 9522SOL     OW29464   3.804   5.861   0.998
 9522SOL    HW129465   3.716   5.889   1.037
 9522SOL    HW229466   3.801   5.764   0.976
 9523SOL     OW29467   3.462   4.913   4.209
 9523SOL    HW129468   3.558   4.919   4.236
 9523SOL    HW229469   3.455   4.925   4.110
 9524SOL     OW29470   4.050   2.876   1.501
 9524SOL    HW129471   3.962   2.924   1.497
 9524SOL    HW229472   4.062   2.823   1.417
 9525SOL     OW29473   1.972   1.722   5.966
 9525SOL    HW129474   1.918   1.681   5.893
 9525SOL    HW229475   2.000   1.814   5.940
 9526SOL     OW29476   5.887   5.536   2.487
 9526SOL    HW129477   5.960   5.584   2.438
 9526SOL    HW229478   5.855   5.593   2.563
 9527SOL     OW29479   1.227   0.832   1.748
 9527SOL    HW129480   1.180   0.909   1.706
 9527SOL    HW229481   1.323   0.832   1.722
 9528SOL     OW29482   6.470   0.698   0.554
 9528SOL    HW129483   6.390   0.736   0.508
 9528SOL    HW229484   6.440   0.650   0.637
 9529SOL     OW29485   1.265   2.640   5.834
 9529SOL    HW129486   1.363   2.660   5.832
 9529SOL    HW229487   1.224   2.683   5.915
 9530SOL     OW29488   1.384   3.294   2.954
 9530SOL    HW129489   1.408   3.319   3.048
 9530SOL    HW229490   1.447   3.337   2.891
 9531SOL     OW29491   3.935   6.077   3.104
 9531SOL    HW129492   3.970   5.989   3.136
 9531SOL    HW229493   3.930   6.077   3.004
 9532SOL     OW29494   1.512   5.772   1.706
 9532SOL    HW129495   1.539   5.680   1.677
 9532SOL    HW229496   1.550   5.790   1.797
 9533SOL     OW29497   0.349   1.503   5.152
 9533SOL    HW129498   0.363   1.452   5.237
 9533SOL    HW229499   0.420   1.479   5.086
 9534SOL     OW29500   5.124   3.227   5.282
 9534SOL    HW129501   5.095   3.143   5.237
 9534SOL    HW229502   5.092   3.306   5.229
 9535SOL     OW29503   2.275   0.822   5.598
 9535SOL    HW129504   2.355   0.761   5.601
 9535SOL    HW229505   2.217   0.805   5.677
 9536SOL     OW29506   2.282   5.831   5.546
 9536SOL    HW129507   2.192   5.791   5.533
 9536SOL    HW229508   2.342   5.804   5.471
 9537SOL     OW29509   3.233   0.811   2.701
 9537SOL    HW129510   3.250   0.746   2.627
 9537SOL    HW229511   3.207   0.900   2.663
 9538SOL     OW29512   6.625   1.170   4.370
 9538SOL    HW129513   6.629   1.166   4.270
 9538SOL    HW229514   6.704   1.121   4.407
 9539SOL     OW29515   2.323   4.495   6.036
 9539SOL    HW129516   2.290   4.545   6.116
 9539SOL    HW229517   2.308   4.397   6.050
 9540SOL     OW29518   4.640   4.451   5.423
 9540SOL    HW129519   4.737   4.426   5.416
 9540SOL    HW229520   4.618   4.468   5.519
 9541SOL     OW29521   1.922   1.940   4.987
 9541SOL    HW129522   1.925   1.870   5.057
 9541SOL    HW229523   2.001   2.001   4.996
 9542SOL     OW29524   4.976   3.389   5.079
 9542SOL    HW129525   4.935   3.480   5.070
 9542SOL    HW229526   4.989   3.349   4.989
 9543SOL     OW29527   4.609   0.583   4.921
 9543SOL    HW129528   4.549   0.542   4.852
 9543SOL    HW229529   4.673   0.513   4.954
 9544SOL     OW29530   5.723   0.421   2.015
 9544SOL    HW129531   5.665   0.339   2.017
 9544SOL    HW229532   5.715   0.470   2.101
 9545SOL     OW29533   6.344   6.459   3.079
 9545SOL    HW129534   6.412   6.410   3.134
 9545SOL    HW229535   6.386   6.541   3.040
 9546SOL     OW29536   3.155   3.782   6.449
 9546SOL    HW129537   3.060   3.816   6.450
 9546SOL    HW229538   3.184   3.764   6.542
 9547SOL     OW29539   2.154   6.644   4.186
 9547SOL    HW129540   2.125   6.697   4.265
 9547SOL    HW229541   2.194   6.558   4.216
 9548SOL     OW29542   6.164   5.289   4.959
 9548SOL    HW129543   6.192   5.254   4.869
 9548SOL    HW229544   6.203   5.231   5.030
 9549SOL     OW29545   3.577   5.267   1.253
 9549SOL    HW129546   3.551   5.316   1.170
 9549SOL    HW229547   3.566   5.328   1.332
 9550SOL     OW29548   0.052   1.682   6.814
 9550SOL    HW129549   0.016   1.752   6.876
 9550SOL    HW229550   0.151   1.689   6.810
 9551SOL     OW29551   0.193   0.176   4.857
 9551SOL    HW129552   0.274   0.232   4.872
 9551SOL    HW229553   0.118   0.208   4.914
 9552SOL     OW29554   1.454   6.722   3.299
 9552SOL    HW129555   1.465   6.628   3.331
 9552SOL    HW229556   1.364   6.732   3.256
 9553SOL     OW29557   6.586   4.969   0.080
 9553SOL    HW129558   6.587   5.067   0.100
 9553SOL    HW229559   6.621   4.953   7.012
 9554SOL     OW29560   2.974   0.833   1.895
 9554SOL    HW129561   2.908   0.900   1.929
 9554SOL    HW229562   3.054   0.881   1.857
 9555SOL     OW29563   6.690   2.395   1.196
 9555SOL    HW129564   6.745   2.401   1.280
 9555SOL    HW229565   6.597   2.425   1.216
 9556SOL     OW29566   2.782   1.407   1.224
 9556SOL    HW129567   2.688   1.431   1.202
 9556SOL    HW229568   2.790   1.393   1.323
 9557SOL     OW29569   5.916   0.125   2.815
 9557SOL    HW129570   5.857   0.202   2.793
 9557SOL    HW229571   5.887   0.045   2.762
 9558SOL     OW29572   0.173   4.998   3.099
 9558SOL    HW129573   0.152   4.976   3.195
 9558SOL    HW229574   0.271   5.016   3.091
 9559SOL     OW29575   0.643   4.084   2.188
 9559SOL    HW129576   0.623   3.994   2.150
 9559SOL    HW229577   0.728   4.119   2.147
 9560SOL     OW29578   2.452   1.422   2.505
 9560SOL    HW129579   2.476   1.503   2.450
 9560SOL    HW229580   2.536   1.379   2.538
 9561SOL     OW29581   2.928   6.363   0.645
 9561SOL    HW129582   2.999   6.433   0.636
 9561SOL    HW229583   2.901   6.356   0.741
 9562SOL     OW29584   3.911   5.121   4.070
 9562SOL    HW129585   3.942   5.192   4.008
 9562SOL    HW229586   3.910   5.156   4.164
 9563SOL     OW29587   6.797   6.724   6.879
 9563SOL    HW129588   6.836   6.714   6.788
 9563SOL    HW229589   6.751   6.813   6.886
 9564SOL     OW29590   2.799   6.789   6.172
 9564SOL    HW129591   2.871   6.803   6.104
 9564SOL    HW229592   2.832   6.729   6.244
 9565SOL     OW29593   4.260   5.982   4.540
 9565SOL    HW129594   4.278   5.884   4.532
 9565SOL    HW229595   4.203   6.011   4.463
 9566SOL     OW29596   3.468   4.585   6.655
 9566SOL    HW129597   3.465   4.630   6.744
 9566SOL    HW229598   3.487   4.488   6.667
 9567SOL     OW29599   6.371   5.665   6.334
 9567SOL    HW129600   6.286   5.710   6.307
 9567SOL    HW229601   6.351   5.575   6.372
 9568SOL     OW29602   5.092   3.820   6.369
 9568SOL    HW129603   5.186   3.850   6.356
 9568SOL    HW229604   5.041   3.830   6.284
 9569SOL     OW29605   6.574   1.455   0.170
 9569SOL    HW129606   6.523   1.370   0.160
 9569SOL    HW229607   6.612   1.481   0.081
 9570SOL     OW29608   0.297   1.447   0.889
 9570SOL    HW129609   0.237   1.372   0.862
 9570SOL    HW229610   0.243   1.527   0.912
 9571SOL     OW29611   2.512   3.800   0.241
 9571SOL    HW129612   2.605   3.831   0.259
 9571SOL    HW229613   2.513   3.732   0.167
 9572SOL     OW29614   1.136   4.248   1.252
 9572SOL    HW129615   1.102   4.156   1.231
 9572SOL    HW229616   1.105   4.275   1.343
 9573SOL     OW29617   0.788   0.969   6.804
 9573SOL    HW129618   0.864   1.015   6.758
 9573SOL    HW229619   0.752   1.029   6.876
 9574SOL     OW29620   3.736   3.800   5.796
 9574SOL    HW129621   3.696   3.849   5.874
 9574SOL    HW229622   3.815   3.852   5.761
 9575SOL     OW29623   5.915   0.901   1.688
 9575SOL    HW129624   5.957   0.865   1.605
 9575SOL    HW229625   5.956   0.858   1.768
 9576SOL     OW29626   3.676   1.321   3.680
 9576SOL    HW129627   3.649   1.417   3.681
 9576SOL    HW229628   3.759   1.311   3.625
 9577SOL     OW29629   0.312   0.147   2.366
 9577SOL    HW129630   0.346   0.210   2.296
 9577SOL    HW229631   0.234   0.189   2.413
 9578SOL     OW29632   6.129   2.575   2.075
 9578SOL    HW129633   6.213   2.584   2.129
 9578SOL    HW229634   6.060   2.527   2.128
 9579SOL     OW29635   1.242   0.024   2.143
 9579SOL    HW129636   1.292   7.014   2.222
 9579SOL    HW229637   1.300   0.090   2.095
 9580SOL     OW29638   4.729   3.628   0.074
 9580SOL    HW129639   4.685   3.705   0.028
 9580SOL    HW229640   4.806   3.661   0.128
 9581SOL     OW29641   1.567   5.695   6.265
 9581SOL    HW129642   1.592   5.678   6.360
 9581SOL    HW229643   1.571   5.793   6.247
 9582SOL     OW29644   4.592   4.531   3.958
 9582SOL    HW129645   4.587   4.625   3.991
 9582SOL    HW229646   4.657   4.480   4.015
 9583SOL     OW29647   2.204   3.697   1.807
 9583SOL    HW129648   2.229   3.639   1.885
 9583SOL    HW229649   2.155   3.643   1.739
 9584SOL     OW29650   6.596   4.841   6.599
 9584SOL    HW129651   6.637   4.912   6.541
 9584SOL    HW229652   6.518   4.800   6.553
 9585SOL     OW29653   5.627   6.870   2.523
 9585SOL    HW129654   5.581   6.808   2.588
 9585SOL    HW229655   5.573   6.954   2.515
 9586SOL     OW29656   5.235   3.384   3.529
 9586SOL    HW129657   5.148   3.416   3.566
 9586SOL    HW229658   5.219   3.302   3.474
 9587SOL     OW29659   5.768   0.339   1.760
 9587SOL    HW129660   5.797   0.427   1.721
 9587SOL    HW229661   5.754   0.350   1.858
 9588SOL     OW29662   0.090   0.581   1.283
 9588SOL    HW129663   0.070   0.485   1.306
 9588SOL    HW229664   0.018   0.640   1.321
 9589SOL     OW29665   2.314   6.553   5.543
 9589SOL    HW129666   2.367   6.623   5.496
 9589SOL    HW229667   2.367   6.469   5.549
 9590SOL     OW29668   0.465   3.983   2.948
 9590SOL    HW129669   0.374   4.011   2.916
 9590SOL    HW229670   0.469   3.993   3.047
 9591SOL     OW29671   2.675   6.476   1.020
 9591SOL    HW129672   2.602   6.408   1.024
 9591SOL    HW229673   2.764   6.430   1.017
 9592SOL     OW29674   4.246   5.722   2.834
 9592SOL    HW129675   4.172   5.735   2.900
 9592SOL    HW229676   4.318   5.668   2.876
 9593SOL     OW29677   6.210   2.940   4.709
 9593SOL    HW129678   6.137   2.889   4.754
 9593SOL    HW229679   6.195   3.039   4.721
 9594SOL     OW29680   6.623   6.744   2.568
 9594SOL    HW129681   6.590   6.677   2.635
 9594SOL    HW229682   6.567   6.827   2.573
 9595SOL     OW29683   1.170   5.593   4.220
 9595SOL    HW129684   1.164   5.608   4.318
 9595SOL    HW229685   1.221   5.508   4.202
 9596SOL     OW29686   6.671   6.359   5.338
 9596SOL    HW129687   6.660   6.401   5.248
 9596SOL    HW229688   6.643   6.263   5.333
 9597SOL     OW29689   0.506   4.175   1.761
 9597SOL    HW129690   0.581   4.236   1.786
 9597SOL    HW229691   0.519   4.086   1.805
 9598SOL     OW29692   0.574   4.582   6.400
 9598SOL    HW129693   0.638   4.579   6.477
 9598SOL    HW229694   0.623   4.560   6.316
 9599SOL     OW29695   3.771   6.972   5.547
 9599SOL    HW129696   3.799   6.952   5.454
 9599SOL    HW229697   3.723   0.034   5.549
 9600SOL     OW29698   1.016   0.486   5.665
 9600SOL    HW129699   1.025   0.465   5.763
 9600SOL    HW229700   1.028   0.402   5.612
 9601SOL     OW29701   0.814   5.089   6.497
 9601SOL    HW129702   0.753   5.010   6.508
 9601SOL    HW229703   0.908   5.057   6.489
 9602SOL     OW29704   0.260   5.081   6.369
 9602SOL    HW129705   0.298   5.162   6.413
 9602SOL    HW229706   0.278   5.001   6.427
 9603SOL     OW29707   2.311   6.289   4.069
 9603SOL    HW129708   2.238   6.275   4.002
 9603SOL    HW229709   2.271   6.293   4.161
 9604SOL     OW29710   4.673   1.107   6.907
 9604SOL    HW129711   4.720   1.097   6.994
 9604SOL    HW229712   4.626   1.195   6.904
 9605SOL     OW29713   2.305   5.753   5.871
 9605SOL    HW129714   2.342   5.800   5.792
 9605SOL    HW229715   2.314   5.811   5.952
 9606SOL     OW29716   0.260   6.256   3.657
 9606SOL    HW129717   0.198   6.178   3.645
 9606SOL    HW229718   0.224   6.335   3.608
 9607SOL     OW29719   0.829   1.243   2.300
 9607SOL    HW129720   0.846   1.324   2.356
 9607SOL    HW229721   0.896   1.240   2.225
 9608SOL     OW29722   6.673   0.104   2.605
 9608SOL    HW129723   6.695   0.189   2.558
 9608SOL    HW229724   6.758   0.057   2.630
 9609SOL     OW29725   2.237   4.372   5.046
 9609SOL    HW129726   2.140   4.393   5.039
 9609SOL    HW229727   2.249   4.273   5.057
 9610SOL     OW29728   1.922   1.819   6.229
 9610SOL    HW129729   1.915   1.915   6.201
 9610SOL    HW229730   1.918   1.761   6.147
 9611SOL     OW29731   0.067   0.479   0.863
 9611SOL    HW129732   0.145   0.539   0.879
 9611SOL    HW229733   0.003   0.523   0.800
 9612SOL     OW29734   5.707   3.227   1.000
 9612SOL    HW129735   5.685   3.157   1.068
 9612SOL    HW229736   5.623   3.263   0.961
 9613SOL     OW29737   6.306   6.915   5.511
 9613SOL    HW129738   6.293   6.887   5.416
 9613SOL    HW229739   6.402   6.940   5.525
 9614SOL     OW29740   3.581   4.047   2.255
 9614SOL    HW129741   3.641   4.056   2.334
 9614SOL    HW229742   3.498   4.100   2.271
 9615SOL     OW29743   1.212   6.066   2.797
 9615SOL    HW129744   1.311   6.051   2.804
 9615SOL    HW229745   1.164   5.994   2.847
 9616SOL     OW29746   3.476   2.278   0.900
 9616SOL    HW129747   3.491   2.243   0.992
 9616SOL    HW229748   3.408   2.351   0.903
 9617SOL     OW29749   1.262   3.018   3.534
 9617SOL    HW129750   1.169   3.051   3.549
 9617SOL    HW229751   1.283   3.021   3.437
 9618SOL     OW29752   3.830   6.699   6.426
 9618SOL    HW129753   3.797   6.752   6.505
 9618SOL    HW229754   3.752   6.662   6.376
 9619SOL     OW29755   2.137   5.847   0.437
 9619SOL    HW129756   2.229   5.871   0.406
 9619SOL    HW229757   2.137   5.841   0.537
 9620SOL     OW29758   3.146   0.570   0.032
 9620SOL    HW129759   3.161   0.528   6.968
 9620SOL    HW229760   3.210   0.645   0.045
 9621SOL     OW29761   0.119   0.948   2.693
 9621SOL    HW129762   0.183   0.984   2.761
 9621SOL    HW229763   0.129   0.848   2.687
 9622SOL     OW29764   5.877   0.404   6.828
 9622SOL    HW129765   5.893   0.491   6.782
 9622SOL    HW229766   5.949   0.339   6.802
 9623SOL     OW29767   5.196   5.805   6.556
 9623SOL    HW129768   5.231   5.897   6.572
 9623SOL    HW229769   5.172   5.762   6.644
 9624SOL     OW29770   4.772   5.616   4.957
 9624SOL    HW129771   4.743   5.638   4.864
 9624SOL    HW229772   4.696   5.632   5.020
 9625SOL     OW29773   5.414   4.660   6.780
 9625SOL    HW129774   5.366   4.672   6.867
 9625SOL    HW229775   5.394   4.570   6.743
 9626SOL     OW29776   1.672   4.554   5.477
 9626SOL    HW129777   1.610   4.629   5.452
 9626SOL    HW229778   1.652   4.523   5.570
 9627SOL     OW29779   2.128   5.574   5.828
 9627SOL    HW129780   2.204   5.636   5.848
 9627SOL    HW229781   2.070   5.566   5.909
 9628SOL     OW29782   5.873   4.162   6.585
 9628SOL    HW129783   5.901   4.153   6.680
 9628SOL    HW229784   5.933   4.228   6.539
 9629SOL     OW29785   6.893   5.642   2.976
 9629SOL    HW129786   6.907   5.684   3.066
 9629SOL    HW229787   6.957   5.682   2.911
 9630SOL     OW29788   6.547   6.487   5.580
 9630SOL    HW129789   6.466   6.516   5.528
 9630SOL    HW229790   6.590   6.410   5.535
 9631SOL     OW29791   4.319   1.128   0.819
 9631SOL    HW129792   4.325   1.224   0.849
 9631SOL    HW229793   4.407   1.083   0.833
 9632SOL     OW29794   2.987   5.491   1.500
 9632SOL    HW129795   2.947   5.460   1.414
 9632SOL    HW229796   2.938   5.571   1.533
 9633SOL     OW29797   3.846   3.209   2.117
 9633SOL    HW129798   3.802   3.262   2.044
 9633SOL    HW229799   3.943   3.233   2.121
 9634SOL     OW29800   5.287   4.848   2.694
 9634SOL    HW129801   5.219   4.883   2.629
 9634SOL    HW229802   5.353   4.791   2.645
 9635SOL     OW29803   1.128   3.850   4.312
 9635SOL    HW129804   1.095   3.825   4.221
 9635SOL    HW229805   1.050   3.863   4.373
 9636SOL     OW29806   4.377   2.185   5.651
 9636SOL    HW129807   4.328   2.158   5.733
 9636SOL    HW229808   4.427   2.270   5.668
 9637SOL     OW29809   2.160   3.545   1.315
 9637SOL    HW129810   2.252   3.549   1.276
 9637SOL    HW229811   2.164   3.506   1.407
 9638SOL     OW29812   0.282   4.228   6.377
 9638SOL    HW129813   0.267   4.327   6.375
 9638SOL    HW229814   0.353   4.206   6.445
 9639SOL     OW29815   4.567   2.122   1.523
 9639SOL    HW129816   4.517   2.208   1.511
 9639SOL    HW229817   4.665   2.138   1.509
 9640SOL     OW29818   4.052   1.023   2.423
 9640SOL    HW129819   3.989   1.075   2.481
 9640SOL    HW229820   4.142   1.020   2.466
 9641SOL     OW29821   5.583   4.801   2.625
 9641SOL    HW129822   5.568   4.747   2.542
 9641SOL    HW229823   5.581   4.741   2.705
 9642SOL     OW29824   1.468   7.019   4.242
 9642SOL    HW129825   1.477   0.069   4.308
 9642SOL    HW229826   1.417   0.026   4.162
 9643SOL     OW29827   4.880   3.724   4.037
 9643SOL    HW129828   4.836   3.774   3.962
 9643SOL    HW229829   4.927   3.789   4.097
 9644SOL     OW29830   1.888   6.239   5.385
 9644SOL    HW129831   1.874   6.168   5.316
 9644SOL    HW229832   1.958   6.209   5.450
 9645SOL     OW29833   1.445   5.484   5.598
 9645SOL    HW129834   1.426   5.562   5.539
 9645SOL    HW229835   1.443   5.513   5.693
 9646SOL     OW29836   3.095   6.915   4.683
 9646SOL    HW129837   3.047   7.003   4.692
 9646SOL    HW229838   3.183   6.930   4.638
 9647SOL     OW29839   6.102   6.297   3.362
 9647SOL    HW129840   6.146   6.212   3.391
 9647SOL    HW229841   6.164   6.374   3.380
 9648SOL     OW29842   5.407   2.199   1.628
 9648SOL    HW129843   5.504   2.174   1.631
 9648SOL    HW229844   5.386   2.242   1.541
 9649SOL     OW29845   2.362   3.657   6.882
 9649SOL    HW129846   2.382   3.635   6.786
 9649SOL    HW229847   2.391   3.751   6.901
 9650SOL     OW29848   6.500   4.439   3.977
 9650SOL    HW129849   6.483   4.403   4.069
 9650SOL    HW229850   6.562   4.377   3.928
 9651SOL     OW29851   2.626   1.473   6.894
 9651SOL    HW129852   2.710   1.464   6.841
 9651SOL    HW229853   2.648   1.499   6.988
 9652SOL     OW29854   0.372   4.106   0.835
 9652SOL    HW129855   0.431   4.027   0.847
 9652SOL    HW229856   0.368   4.131   0.738
 9653SOL     OW29857   4.837   4.309   5.824
 9653SOL    HW129858   4.831   4.226   5.768
 9653SOL    HW229859   4.745   4.334   5.855
 9654SOL     OW29860   4.062   3.260   3.254
 9654SOL    HW129861   4.052   3.311   3.340
 9654SOL    HW229862   4.025   3.315   3.179
 9655SOL     OW29863   6.244   0.711   1.309
 9655SOL    HW129864   6.279   0.692   1.401
 9655SOL    HW229865   6.291   0.653   1.243
 9656SOL     OW29866   5.179   3.354   0.719
 9656SOL    HW129867   5.254   3.347   0.653
 9656SOL    HW229868   5.096   3.314   0.679
 9657SOL     OW29869   5.108   3.856   3.803
 9657SOL    HW129870   5.158   3.783   3.851
 9657SOL    HW229871   5.134   3.857   3.707
 9658SOL     OW29872   4.522   1.455   2.947
 9658SOL    HW129873   4.458   1.380   2.931
 9658SOL    HW229874   4.613   1.419   2.965
 9659SOL     OW29875   3.426   2.198   0.615
 9659SOL    HW129876   3.333   2.167   0.592
 9659SOL    HW229877   3.433   2.208   0.714
 9660SOL     OW29878   0.677   5.935   0.516
 9660SOL    HW129879   0.647   5.886   0.435
 9660SOL    HW229880   0.623   5.906   0.595
 9661SOL     OW29881   4.649   5.302   1.306
 9661SOL    HW129882   4.724   5.368   1.312
 9661SOL    HW229883   4.568   5.348   1.270
 9662SOL     OW29884   5.838   4.909   0.151
 9662SOL    HW129885   5.884   4.928   0.065
 9662SOL    HW229886   5.899   4.931   0.227
 9663SOL     OW29887   1.051   4.543   3.476
 9663SOL    HW129888   0.986   4.615   3.499
 9663SOL    HW229889   1.119   4.534   3.549
 9664SOL     OW29890   5.497   3.849   3.611
 9664SOL    HW129891   5.425   3.911   3.643
 9664SOL    HW229892   5.493   3.840   3.512
 9665SOL     OW29893   6.476   6.835   6.010
 9665SOL    HW129894   6.436   6.872   6.094
 9665SOL    HW229895   6.550   6.773   6.033
 9666SOL     OW29896   6.157   4.497   1.647
 9666SOL    HW129897   6.126   4.415   1.599
 9666SOL    HW229898   6.243   4.477   1.694
 9667SOL     OW29899   4.208   4.842   0.984
 9667SOL    HW129900   4.245   4.904   1.053
 9667SOL    HW229901   4.119   4.875   0.952
 9668SOL     OW29902   1.115   6.825   5.671
 9668SOL    HW129903   1.148   6.752   5.611
 9668SOL    HW229904   1.170   6.907   5.658
 9669SOL     OW29905   2.465   0.047   0.910
 9669SOL    HW129906   2.470   0.141   0.876
 9669SOL    HW229907   2.448   7.010   0.834
 9670SOL     OW29908   0.706   0.208   5.762
 9670SOL    HW129909   0.745   0.146   5.830
 9670SOL    HW229910   0.742   0.300   5.777
 9671SOL     OW29911   0.814   4.951   0.008
 9671SOL    HW129912   0.871   4.878   0.047
 9671SOL    HW229913   0.788   4.928   6.940
 9672SOL     OW29914   0.904   4.253   3.192
 9672SOL    HW129915   0.881   4.209   3.279
 9672SOL    HW229916   0.892   4.186   3.118
 9673SOL     OW29917   3.373   4.452   1.450
 9673SOL    HW129918   3.401   4.459   1.354
 9673SOL    HW229919   3.333   4.362   1.467
 9674SOL     OW29920   3.585   6.755   2.627
 9674SOL    HW129921   3.620   6.693   2.697
 9674SOL    HW229922   3.552   6.702   2.549
 9675SOL     OW29923   4.732   3.888   0.374
 9675SOL    HW129924   4.766   3.966   0.322
 9675SOL    HW229925   4.808   3.824   0.390
 9676SOL     OW29926   1.444   2.526   6.403
 9676SOL    HW129927   1.431   2.575   6.317
 9676SOL    HW229928   1.515   2.571   6.457
 9677SOL     OW29929   6.185   5.047   0.247
 9677SOL    HW129930   6.104   5.104   0.261
 9677SOL    HW229931   6.187   5.015   0.152
 9678SOL     OW29932   3.177   3.903   4.629
 9678SOL    HW129933   3.159   3.912   4.531
 9678SOL    HW229934   3.213   3.989   4.665
 9679SOL     OW29935   3.192   1.907   4.403
 9679SOL    HW129936   3.174   2.003   4.421
 9679SOL    HW229937   3.120   1.851   4.444
 9680SOL     OW29938   5.053   6.270   4.724
 9680SOL    HW129939   5.092   6.268   4.816
 9680SOL    HW229940   4.964   6.225   4.725
 9681SOL     OW29941   2.993   1.166   1.318
 9681SOL    HW129942   3.035   1.245   1.275
 9681SOL    HW229943   3.004   1.086   1.260
 9682SOL     OW29944   5.823   5.245   4.228
 9682SOL    HW129945   5.822   5.282   4.321
 9682SOL    HW229946   5.762   5.166   4.223
 9683SOL     OW29947   1.574   6.463   0.886
 9683SOL    HW129948   1.664   6.469   0.842
 9683SOL    HW229949   1.506   6.431   0.820
 9684SOL     OW29950   0.985   3.730   5.491
 9684SOL    HW129951   0.934   3.731   5.405
 9684SOL    HW229952   1.071   3.680   5.479
 9685SOL     OW29953   4.405   3.399   0.685
 9685SOL    HW129954   4.374   3.483   0.638
 9685SOL    HW229955   4.455   3.342   0.620
 9686SOL     OW29956   6.961   2.244   6.410
 9686SOL    HW129957   6.906   2.248   6.493
 9686SOL    HW229958   0.007   2.315   6.414
 9687SOL     OW29959   6.545   6.525   1.100
 9687SOL    HW129960   6.602   6.579   1.162
 9687SOL    HW229961   6.541   6.431   1.134
 9688SOL     OW29962   1.323   4.533   0.882
 9688SOL    HW129963   1.265   4.529   0.964
 9688SOL    HW229964   1.326   4.443   0.839
 9689SOL     OW29965   1.017   5.411   6.540
 9689SOL    HW129966   1.057   5.501   6.520
 9689SOL    HW229967   1.011   5.358   6.455
 9690SOL     OW29968   4.857   5.332   5.131
 9690SOL    HW129969   4.805   5.252   5.160
 9690SOL    HW229970   4.862   5.398   5.206
 9691SOL     OW29971   3.316   4.107   2.331
 9691SOL    HW129972   3.268   4.181   2.283
 9691SOL    HW229973   3.275   4.019   2.307
 9692SOL     OW29974   4.913   5.158   0.309
 9692SOL    HW129975   4.916   5.248   0.353
 9692SOL    HW229976   4.876   5.092   0.374
 9693SOL     OW29977   5.934   4.024   4.377
 9693SOL    HW129978   5.973   3.933   4.388
 9693SOL    HW229979   5.937   4.073   4.464
 9694SOL     OW29980   2.776   0.330   1.598
 9694SOL    HW129981   2.769   0.367   1.691
 9694SOL    HW229982   2.710   0.256   1.587
 9695SOL     OW29983   6.985   4.258   3.042
 9695SOL    HW129984   7.015   4.279   2.949
 9695SOL    HW229985   7.017   4.166   3.067
 9696SOL     OW29986   5.962   1.903   2.864
 9696SOL    HW129987   5.935   1.982   2.809
 9696SOL    HW229988   5.981   1.933   2.958
 9697SOL     OW29989   6.602   6.248   0.001
 9697SOL    HW129990   6.694   6.212   7.011
 9697SOL    HW229991   6.539   6.172   0.015
 9698SOL     OW29992   5.726   3.549   6.400
 9698SOL    HW129993   5.693   3.643   6.402
 9698SOL    HW229994   5.799   3.541   6.332
 9699SOL     OW29995   0.770   5.872   0.041
 9699SOL    HW129996   0.856   5.892   7.019
 9699SOL    HW229997   0.697   5.865   6.999
 9700SOL     OW29998   6.828   6.098   3.690
 9700SOL    HW129999   6.744   6.104   3.636
 9700SOL    HW230000   6.813   6.037   3.768
 9701SOL     OW30001   5.123   3.496   6.659
 9701SOL    HW130002   5.199   3.496   6.594
 9701SOL    HW230003   5.070   3.412   6.648
 9702SOL     OW30004   3.338   3.041   0.553
 9702SOL    HW130005   3.321   3.029   0.455
 9702SOL    HW230006   3.320   2.956   0.601
 9703SOL     OW30007   6.197   4.068   4.195
 9703SOL    HW130008   6.256   4.095   4.119
 9703SOL    HW230009   6.216   3.974   4.220
 9704SOL     OW30010   3.005   4.888   3.203
 9704SOL    HW130011   2.944   4.855   3.131
 9704SOL    HW230012   2.962   4.874   3.292
 9705SOL     OW30013   6.308   4.237   5.053
 9705SOL    HW130014   6.221   4.225   5.101
 9705SOL    HW230015   6.299   4.206   4.958
 9706SOL     OW30016   1.722   1.746   1.422
 9706SOL    HW130017   1.757   1.789   1.505
 9706SOL    HW230018   1.671   1.664   1.446
 9707SOL     OW30019   5.748   4.635   1.922
 9707SOL    HW130020   5.649   4.643   1.937
 9707SOL    HW230021   5.797   4.657   2.006
 9708SOL     OW30022   1.512   1.485   2.071
 9708SOL    HW130023   1.417   1.517   2.066
 9708SOL    HW230024   1.566   1.551   2.124
 9709SOL     OW30025   5.272   3.842   1.851
 9709SOL    HW130026   5.220   3.789   1.785
 9709SOL    HW230027   5.231   3.832   1.942
 9710SOL     OW30028   6.219   0.504   6.748
 9710SOL    HW130029   6.173   0.592   6.758
 9710SOL    HW230030   6.167   0.433   6.796
 9711SOL     OW30031   4.041   6.096   5.650
 9711SOL    HW130032   3.959   6.083   5.593
 9711SOL    HW230033   4.123   6.080   5.595
 9712SOL     OW30034   6.274   3.208   0.410
 9712SOL    HW130035   6.269   3.306   0.389
 9712SOL    HW230036   6.295   3.195   0.506
 9713SOL     OW30037   2.398   6.479   3.075
 9713SOL    HW130038   2.383   6.397   3.021
 9713SOL    HW230039   2.315   6.501   3.127
 9714SOL     OW30040   4.264   5.677   4.535
 9714SOL    HW130041   4.179   5.633   4.509
 9714SOL    HW230042   4.331   5.608   4.561
 9715SOL     OW30043   6.434   4.811   1.063
 9715SOL    HW130044   6.386   4.725   1.042
 9715SOL    HW230045   6.458   4.858   0.978
 9716SOL     OW30046   3.772   4.278   6.780
 9716SOL    HW130047   3.811   4.221   6.708
 9716SOL    HW230048   3.827   4.271   6.862
 9717SOL     OW30049   4.972   6.565   6.884
 9717SOL    HW130050   4.913   6.615   6.947
 9717SOL    HW230051   4.923   6.485   6.849
 9718SOL     OW30052   4.168   1.996   0.570
 9718SOL    HW130053   4.219   2.042   0.642
 9718SOL    HW230054   4.092   1.945   0.610
 9719SOL     OW30055   5.138   0.120   5.729
 9719SOL    HW130056   5.223   0.069   5.743
 9719SOL    HW230057   5.069   0.058   5.691
 9720SOL     OW30058   1.680   3.730   2.778
 9720SOL    HW130059   1.771   3.767   2.758
 9720SOL    HW230060   1.639   3.695   2.694
 9721SOL     OW30061   0.514   1.628   0.132
 9721SOL    HW130062   0.553   1.594   0.218
 9721SOL    HW230063   0.416   1.648   0.145
 9722SOL     OW30064   3.662   2.093   5.107
 9722SOL    HW130065   3.569   2.118   5.135
 9722SOL    HW230066   3.728   2.156   5.148
 9723SOL     OW30067   5.949   4.895   4.929
 9723SOL    HW130068   6.021   4.836   4.965
 9723SOL    HW230069   5.908   4.948   5.004
 9724SOL     OW30070   2.263   5.458   6.492
 9724SOL    HW130071   2.315   5.483   6.574
 9724SOL    HW230072   2.170   5.495   6.499
 9725SOL     OW30073   4.025   5.608   4.900
 9725SOL    HW130074   3.937   5.593   4.856
 9725SOL    HW230075   4.055   5.524   4.946
 9726SOL     OW30076   5.003   0.891   4.316
 9726SOL    HW130077   4.971   0.798   4.333
 9726SOL    HW230078   4.958   0.928   4.234
 9727SOL     OW30079   0.751   2.753   0.188
 9727SOL    HW130080   0.757   2.729   0.091
 9727SOL    HW230081   0.775   2.673   0.243
 9728SOL     OW30082   6.378   1.553   6.325
 9728SOL    HW130083   6.467   1.577   6.287
 9728SOL    HW230084   6.387   1.540   6.424
 9729SOL     OW30085   1.499   3.704   4.225
 9729SOL    HW130086   1.496   3.613   4.182
 9729SOL    HW230087   1.588   3.716   4.269
 9730SOL     OW30088   1.007   4.129   3.873
 9730SOL    HW130089   1.025   4.228   3.879
 9730SOL    HW230090   1.085   4.079   3.911
 9731SOL     OW30091   5.082   4.749   1.892
 9731SOL    HW130092   5.089   4.649   1.892
 9731SOL    HW230093   4.990   4.776   1.863
 9732SOL     OW30094   0.499   3.142   2.167
 9732SOL    HW130095   0.484   3.046   2.192
 9732SOL    HW230096   0.578   3.177   2.217
 9733SOL     OW30097   6.068   5.537   1.990
 9733SOL    HW130098   6.013   5.620   1.981
 9733SOL    HW230099   6.066   5.505   2.084
 9734SOL     OW30100   6.729   6.542   0.294
 9734SOL    HW130101   6.753   6.635   0.324
 9734SOL    HW230102   6.716   6.542   0.195
 9735SOL     OW30103   1.384   2.763   3.500
 9735SOL    HW130104   1.466   2.786   3.447
 9735SOL    HW230105   1.336   2.848   3.524
 9736SOL     OW30106   4.957   1.854   6.231
 9736SOL    HW130107   4.906   1.866   6.147
 9736SOL    HW230108   4.970   1.943   6.276
 9737SOL     OW30109   5.521   2.131   2.965
 9737SOL    HW130110   5.581   2.210   2.955
 9737SOL    HW230111   5.574   2.047   2.957
 9738SOL     OW30112   2.028   6.430   0.495
 9738SOL    HW130113   1.959   6.416   0.424
 9738SOL    HW230114   2.095   6.356   0.492
 9739SOL     OW30115   4.630   5.966   6.934
 9739SOL    HW130116   4.654   5.870   6.921
 9739SOL    HW230117   4.601   6.005   6.847
 9740SOL     OW30118   5.322   0.205   2.674
 9740SOL    HW130119   5.245   0.269   2.681
 9740SOL    HW230120   5.342   0.167   2.764
 9741SOL     OW30121   2.649   1.080   3.849
 9741SOL    HW130122   2.638   0.987   3.887
 9741SOL    HW230123   2.726   1.081   3.785
 9742SOL     OW30124   4.573   0.733   0.148
 9742SOL    HW130125   4.511   0.809   0.130
 9742SOL    HW230126   4.665   0.757   0.116
 9743SOL     OW30127   0.328   3.428   3.351
 9743SOL    HW130128   0.272   3.382   3.282
 9743SOL    HW230129   0.423   3.399   3.342
 9744SOL     OW30130   2.124   6.836   3.133
 9744SOL    HW130131   2.060   6.809   3.204
 9744SOL    HW230132   2.108   6.932   3.108
 9745SOL     OW30133   5.382   2.468   6.260
 9745SOL    HW130134   5.381   2.525   6.343
 9745SOL    HW230135   5.446   2.507   6.194
 9746SOL     OW30136   5.305   6.636   0.009
 9746SOL    HW130137   5.369   6.698   0.055
 9746SOL    HW230138   5.251   6.687   6.968
 9747SOL     OW30139   2.386   2.313   2.010
 9747SOL    HW130140   2.473   2.362   2.008
 9747SOL    HW230141   2.372   2.273   2.101
 9748SOL     OW30142   0.197   0.043   3.235
 9748SOL    HW130143   0.238   0.105   3.302
 9748SOL    HW230144   0.268   7.024   3.181
 9749SOL     OW30145   0.841   1.478   2.504
 9749SOL    HW130146   0.866   1.438   2.592
 9749SOL    HW230147   0.924   1.509   2.457
 9750SOL     OW30148   6.017   4.892   4.185
 9750SOL    HW130149   6.089   4.838   4.141
 9750SOL    HW230150   6.043   4.911   4.280
 9751SOL     OW30151   2.396   0.249   0.623
 9751SOL    HW130152   2.413   0.295   0.536
 9751SOL    HW230153   2.448   0.296   0.695
 9752SOL     OW30154   3.964   2.561   6.921
 9752SOL    HW130155   3.993   2.576   6.826
 9752SOL    HW230156   3.870   2.594   6.932
 9753SOL     OW30157   1.131   6.043   6.122
 9753SOL    HW130158   1.088   6.122   6.165
 9753SOL    HW230159   1.138   6.058   6.024
 9754SOL     OW30160   3.817   0.106   0.086
 9754SOL    HW130161   3.820   0.071   0.179
 9754SOL    HW230162   3.727   0.087   0.046
 9755SOL     OW30163   3.148   4.143   5.018
 9755SOL    HW130164   3.079   4.077   4.989
 9755SOL    HW230165   3.104   4.219   5.067
 9756SOL     OW30166   5.747   1.919   6.090
 9756SOL    HW130167   5.651   1.902   6.070
 9756SOL    HW230168   5.759   1.929   6.189
 9757SOL     OW30169   5.373   4.444   4.694
 9757SOL    HW130170   5.397   4.533   4.734
 9757SOL    HW230171   5.323   4.458   4.609
 9758SOL     OW30172   1.194   1.702   6.638
 9758SOL    HW130173   1.199   1.791   6.684
 9758SOL    HW230174   1.269   1.644   6.671
 9759SOL     OW30175   0.867   1.744   6.851
 9759SOL    HW130176   0.830   1.709   6.937
 9759SOL    HW230177   0.963   1.767   6.864
 9760SOL     OW30178   5.130   2.817   6.810
 9760SOL    HW130179   5.131   2.761   6.727
 9760SOL    HW230180   5.120   2.914   6.784
 9761SOL     OW30181   1.254   1.604   2.095
 9761SOL    HW130182   1.249   1.654   2.008
 9761SOL    HW230183   1.164   1.604   2.139
 9762SOL     OW30184   3.537   1.727   4.524
 9762SOL    HW130185   3.464   1.664   4.551
 9762SOL    HW230186   3.527   1.813   4.574
 9763SOL     OW30187   6.268   0.901   3.105
 9763SOL    HW130188   6.171   0.921   3.118
 9763SOL    HW230189   6.296   0.929   3.013
 9764SOL     OW30190   6.333   1.710   3.343
 9764SOL    HW130191   6.401   1.638   3.336
 9764SOL    HW230192   6.351   1.766   3.424
 9765SOL     OW30193   6.718   0.726   2.871
 9765SOL    HW130194   6.664   0.807   2.846
 9765SOL    HW230195   6.658   0.646   2.877
 9766SOL     OW30196   2.139   0.205   3.241
 9766SOL    HW130197   2.120   0.133   3.174
 9766SOL    HW230198   2.236   0.229   3.238
 9767SOL     OW30199   2.071   2.661   4.921
 9767SOL    HW130200   2.014   2.731   4.964
 9767SOL    HW230201   2.167   2.688   4.927
 9768SOL     OW30202   5.333   2.029   0.972
 9768SOL    HW130203   5.336   1.955   0.905
 9768SOL    HW230204   5.283   2.107   0.933
 9769SOL     OW30205   3.670   0.629   5.164
 9769SOL    HW130206   3.592   0.688   5.144
 9769SOL    HW230207   3.754   0.683   5.167
 9770SOL     OW30208   3.767   1.961   5.435
 9770SOL    HW130209   3.788   1.937   5.340
 9770SOL    HW230210   3.842   1.930   5.494
 9771SOL     OW30211   2.611   6.852   1.633
 9771SOL    HW130212   2.547   6.802   1.691
 9771SOL    HW230213   2.592   6.834   1.537
 9772SOL     OW30214   2.050   6.650   1.793
 9772SOL    HW130215   1.990   6.729   1.781
 9772SOL    HW230216   2.084   6.647   1.887
 9773SOL     OW30217   5.921   4.677   3.686
 9773SOL    HW130218   5.907   4.620   3.605
 9773SOL    HW230219   5.870   4.762   3.675
 9774SOL     OW30220   0.599   4.288   3.571
 9774SOL    HW130221   0.645   4.337   3.497
 9774SOL    HW230222   0.609   4.190   3.557
 9775SOL     OW30223   2.908   0.278   3.348
 9775SOL    HW130224   2.892   0.182   3.324
 9775SOL    HW230225   2.960   0.322   3.274
 9776SOL     OW30226   1.332   4.800   6.235
 9776SOL    HW130227   1.298   4.766   6.147
 9776SOL    HW230228   1.413   4.748   6.261
 9777SOL     OW30229   5.200   6.181   0.479
 9777SOL    HW130230   5.267   6.216   0.544
 9777SOL    HW230231   5.108   6.202   0.513
 9778SOL     OW30232   0.237   2.192   4.533
 9778SOL    HW130233   0.337   2.183   4.532
 9778SOL    HW230234   0.197   2.117   4.585
 9779SOL     OW30235   0.739   2.528   3.626
 9779SOL    HW130236   0.822   2.580   3.649
 9779SOL    HW230237   0.717   2.466   3.702
 9780SOL     OW30238   2.202   1.600   0.991
 9780SOL    HW130239   2.173   1.668   0.924
 9780SOL    HW230240   2.299   1.577   0.975
 9781SOL     OW30241   2.155   3.258   4.723
 9781SOL    HW130242   2.191   3.221   4.809
 9781SOL    HW230243   2.154   3.357   4.727
 9782SOL     OW30244   0.705   1.899   0.925
 9782SOL    HW130245   0.760   1.982   0.928
 9782SOL    HW230246   0.660   1.886   1.014
 9783SOL     OW30247   4.586   1.593   3.432
 9783SOL    HW130248   4.570   1.598   3.334
 9783SOL    HW230249   4.595   1.686   3.469
 9784SOL     OW30250   3.313   1.097   5.806
 9784SOL    HW130251   3.407   1.067   5.819
 9784SOL    HW230252   3.251   1.025   5.837
 9785SOL     OW30253   6.004   2.344   5.370
 9785SOL    HW130254   5.933   2.312   5.306
 9785SOL    HW230255   5.974   2.326   5.464
 9786SOL     OW30256   2.595   4.170   0.469
 9786SOL    HW130257   2.505   4.213   0.459
 9786SOL    HW230258   2.587   4.089   0.528
 9787SOL     OW30259   3.668   3.567   3.924
 9787SOL    HW130260   3.680   3.616   4.011
 9787SOL    HW230261   3.740   3.498   3.915
 9788SOL     OW30262   0.998   6.182   1.814
 9788SOL    HW130263   1.086   6.214   1.777
 9788SOL    HW230264   0.955   6.120   1.749
 9789SOL     OW30265   2.452   6.908   6.906
 9789SOL    HW130266   2.511   6.921   6.986
 9789SOL    HW230267   2.509   6.901   6.824
 9790SOL     OW30268   6.438   4.559   6.265
 9790SOL    HW130269   6.475   4.485   6.320
 9790SOL    HW230270   6.394   4.522   6.183
 9791SOL     OW30271   1.287   0.595   0.412
 9791SOL    HW130272   1.293   0.497   0.428
 9791SOL    HW230273   1.264   0.642   0.497
 9792SOL     OW30274   3.682   4.866   1.134
 9792SOL    HW130275   3.609   4.917   1.088
 9792SOL    HW230276   3.750   4.837   1.066
 9793SOL     OW30277   3.861   0.120   1.837
 9793SOL    HW130278   3.892   0.164   1.921
 9793SOL    HW230279   3.923   0.143   1.762
 9794SOL     OW30280   5.260   4.079   5.031
 9794SOL    HW130281   5.346   4.036   5.059
 9794SOL    HW230282   5.276   4.136   4.951
 9795SOL     OW30283   1.075   3.037   4.506
 9795SOL    HW130284   1.139   3.060   4.580
 9795SOL    HW230285   0.986   3.016   4.545
 9796SOL     OW30286   3.622   4.119   3.617
 9796SOL    HW130287   3.603   4.180   3.694
 9796SOL    HW230288   3.564   4.038   3.623
 9797SOL     OW30289   2.262   6.030   0.016
 9797SOL    HW130290   2.248   6.125   0.044
 9797SOL    HW230291   2.258   6.024   6.942
 9798SOL     OW30292   2.449   1.579   0.868
 9798SOL    HW130293   2.439   1.626   0.781
 9798SOL    HW230294   2.437   1.481   0.855
 9799SOL     OW30295   3.140   4.292   6.351
 9799SOL    HW130296   3.130   4.202   6.308
 9799SOL    HW230297   3.228   4.297   6.398
 9800SOL     OW30298   5.748   4.067   4.135
 9800SOL    HW130299   5.702   4.150   4.105
 9800SOL    HW230300   5.800   4.086   4.219
 9801SOL     OW30301   5.062   4.857   0.358
 9801SOL    HW130302   5.087   4.907   0.441
 9801SOL    HW230303   5.114   4.892   0.281
 9802SOL     OW30304   4.534   4.794   0.340
 9802SOL    HW130305   4.459   4.811   0.404
 9802SOL    HW230306   4.499   4.742   0.262
 9803SOL     OW30307   1.876   3.392   6.279
 9803SOL    HW130308   1.805   3.366   6.213
 9803SOL    HW230309   1.931   3.466   6.241
 9804SOL     OW30310   0.105   6.054   3.110
 9804SOL    HW130311   0.117   6.059   3.011
 9804SOL    HW230312   0.155   6.129   3.153
 9805SOL     OW30313   0.655   6.254   2.922
 9805SOL    HW130314   0.699   6.164   2.918
 9805SOL    HW230315   0.575   6.249   2.982
 9806SOL     OW30316   2.083   2.037   6.906
 9806SOL    HW130317   2.108   2.041   7.002
 9806SOL    HW230318   2.119   1.953   6.865
 9807SOL     OW30319   3.489   3.413   2.133
 9807SOL    HW130320   3.499   3.473   2.053
 9807SOL    HW230321   3.425   3.454   2.197
 9808SOL     OW30322   3.577   5.596   4.103
 9808SOL    HW130323   3.514   5.608   4.027
 9808SOL    HW230324   3.639   5.520   4.084
 9809SOL     OW30325   1.164   3.488   0.420
 9809SOL    HW130326   1.198   3.402   0.381
 9809SOL    HW230327   1.155   3.478   0.519
 9810SOL     OW30328   2.998   2.192   4.868
 9810SOL    HW130329   3.045   2.187   4.780
 9810SOL    HW230330   3.063   2.220   4.939
 9811SOL     OW30331   5.980   4.264   3.615
 9811SOL    HW130332   5.952   4.172   3.587
 9811SOL    HW230333   5.946   4.283   3.707
 9812SOL     OW30334   2.887   0.946   4.376
 9812SOL    HW130335   2.812   0.880   4.383
 9812SOL    HW230336   2.851   1.039   4.385
 9813SOL     OW30337   5.573   2.150   0.916
 9813SOL    HW130338   5.509   2.083   0.952
 9813SOL    HW230339   5.525   2.236   0.897
 9814SOL     OW30340   5.294   1.233   0.063
 9814SOL    HW130341   5.332   1.322   0.088
 9814SOL    HW230342   5.290   1.225   6.989
 9815SOL     OW30343   4.480   2.468   4.356
 9815SOL    HW130344   4.557   2.532   4.371
 9815SOL    HW230345   4.459   2.464   4.259
 9816SOL     OW30346   0.951   0.876   6.440
 9816SOL    HW130347   0.950   0.797   6.502
 9816SOL    HW230348   0.867   0.929   6.452
 9817SOL     OW30349   0.595   6.994   3.274
 9817SOL    HW130350   0.523   6.927   3.293
 9817SOL    HW230351   0.561   0.037   3.209
 9818SOL     OW30352   6.333   2.039   4.692
 9818SOL    HW130353   6.312   2.111   4.626
 9818SOL    HW230354   6.253   2.022   4.749
 9819SOL     OW30355   4.660   2.708   3.285
 9819SOL    HW130356   4.681   2.659   3.200
 9819SOL    HW230357   4.710   2.794   3.287
 9820SOL     OW30358   3.814   3.186   6.139
 9820SOL    HW130359   3.724   3.181   6.094
 9820SOL    HW230360   3.829   3.104   6.192
 9821SOL     OW30361   5.312   0.707   6.329
 9821SOL    HW130362   5.228   0.739   6.374
 9821SOL    HW230363   5.333   0.766   6.251
 9822SOL     OW30364   0.768   6.523   3.154
 9822SOL    HW130365   0.805   6.579   3.228
 9822SOL    HW230366   0.841   6.499   3.090
 9823SOL     OW30367   3.690   0.238   0.925
 9823SOL    HW130368   3.729   0.202   1.009
 9823SOL    HW230369   3.763   0.260   0.861
 9824SOL     OW30370   1.980   3.982   6.003
 9824SOL    HW130371   1.958   3.903   6.060
 9824SOL    HW230372   2.067   3.967   5.956
 9825SOL     OW30373   3.502   4.983   5.034
 9825SOL    HW130374   3.546   4.987   5.124
 9825SOL    HW230375   3.410   4.945   5.043
 9826SOL     OW30376   5.234   5.552   6.223
 9826SOL    HW130377   5.294   5.608   6.165
 9826SOL    HW230378   5.248   5.455   6.201
 9827SOL     OW30379   2.164   4.053   4.318
 9827SOL    HW130380   2.141   4.084   4.226
 9827SOL    HW230381   2.175   3.954   4.318
 9828SOL     OW30382   2.866   2.937   6.567
 9828SOL    HW130383   2.845   2.915   6.472
 9828SOL    HW230384   2.805   3.010   6.598
 9829SOL     OW30385   3.031   6.599   0.535
 9829SOL    HW130386   3.009   6.687   0.576
 9829SOL    HW230387   2.996   6.596   0.441
 9830SOL     OW30388   5.332   2.469   1.441
 9830SOL    HW130389   5.234   2.488   1.443
 9830SOL    HW230390   5.365   2.474   1.347
 9831SOL     OW30391   1.588   6.088   0.913
 9831SOL    HW130392   1.510   6.069   0.853
 9831SOL    HW230393   1.561   6.157   0.981
 9832SOL     OW30394   5.249   5.070   2.422
 9832SOL    HW130395   5.178   5.018   2.469
 9832SOL    HW230396   5.208   5.148   2.375
 9833SOL     OW30397   3.335   2.975   4.916
 9833SOL    HW130398   3.403   2.926   4.971
 9833SOL    HW230399   3.246   2.968   4.961
 9834SOL     OW30400   3.007   4.214   5.649
 9834SOL    HW130401   3.038   4.302   5.614
 9834SOL    HW230402   2.908   4.206   5.636
 9835SOL     OW30403   3.871   2.673   6.005
 9835SOL    HW130404   3.839   2.583   5.976
 9835SOL    HW230405   3.891   2.729   5.924
 9836SOL     OW30406   6.264   4.614   3.833
 9836SOL    HW130407   6.279   4.711   3.817
 9836SOL    HW230408   6.211   4.602   3.917
 9837SOL     OW30409   2.441   0.160   2.429
 9837SOL    HW130410   2.451   0.251   2.469
 9837SOL    HW230411   2.369   0.162   2.360
 9838SOL     OW30412   0.753   0.093   6.205
 9838SOL    HW130413   0.771   0.068   6.110
 9838SOL    HW230414   0.664   0.056   6.233
 9839SOL     OW30415   5.549   1.141   3.217
 9839SOL    HW130416   5.476   1.199   3.252
 9839SOL    HW230417   5.565   1.066   3.282
 9840SOL     OW30418   0.553   0.774   1.670
 9840SOL    HW130419   0.637   0.724   1.687
 9840SOL    HW230420   0.517   0.751   1.580
 9841SOL     OW30421   1.119   4.297   4.703
 9841SOL    HW130422   1.189   4.366   4.724
 9841SOL    HW230423   1.147   4.246   4.622
 9842SOL     OW30424   3.929   3.989   2.983
 9842SOL    HW130425   3.991   3.961   2.909
 9842SOL    HW230426   3.837   4.004   2.946
 9843SOL     OW30427   6.230   1.921   1.722
 9843SOL    HW130428   6.170   1.887   1.794
 9843SOL    HW230429   6.325   1.901   1.747
 9844SOL     OW30430   5.268   0.443   2.354
 9844SOL    HW130431   5.181   0.429   2.402
 9844SOL    HW230432   5.306   0.532   2.379
 9845SOL     OW30433   2.973   1.508   4.385
 9845SOL    HW130434   2.978   1.431   4.322
 9845SOL    HW230435   2.965   1.474   4.478
 9846SOL     OW30436   4.028   3.401   2.436
 9846SOL    HW130437   4.002   3.304   2.443
 9846SOL    HW230438   4.050   3.422   2.341
 9847SOL     OW30439   3.690   2.648   5.258
 9847SOL    HW130440   3.710   2.588   5.181
 9847SOL    HW230441   3.751   2.728   5.255
 9848SOL     OW30442   3.671   2.447   6.391
 9848SOL    HW130443   3.734   2.406   6.326
 9848SOL    HW230444   3.584   2.398   6.388
 9849SOL     OW30445   6.082   0.504   0.226
 9849SOL    HW130446   6.170   0.463   0.249
 9849SOL    HW230447   6.083   0.532   0.130
 9850SOL     OW30448   5.796   6.091   2.866
 9850SOL    HW130449   5.880   6.129   2.827
 9850SOL    HW230450   5.812   6.068   2.962
 9851SOL     OW30451   4.577   2.374   5.804
 9851SOL    HW130452   4.626   2.296   5.764
 9851SOL    HW230453   4.632   2.412   5.878
 9852SOL     OW30454   4.396   1.846   3.056
 9852SOL    HW130455   4.420   1.925   3.111
 9852SOL    HW230456   4.345   1.781   3.112
 9853SOL     OW30457   5.128   3.951   3.339
 9853SOL    HW130458   5.055   3.896   3.299
 9853SOL    HW230459   5.215   3.903   3.328
 9854SOL     OW30460   6.904   5.272   4.480
 9854SOL    HW130461   6.872   5.367   4.489
 9854SOL    HW230462   6.899   5.227   4.570
 9855SOL     OW30463   2.298   4.479   1.849
 9855SOL    HW130464   2.286   4.499   1.752
 9855SOL    HW230465   2.291   4.565   1.901
 9856SOL     OW30466   5.048   3.908   0.082
 9856SOL    HW130467   5.145   3.902   0.059
 9856SOL    HW230468   5.005   3.819   0.064
 9857SOL     OW30469   3.979   1.518   4.488
 9857SOL    HW130470   3.974   1.617   4.475
 9857SOL    HW230471   3.913   1.490   4.557
 9858SOL     OW30472   0.233   0.904   1.411
 9858SOL    HW130473   0.291   0.837   1.458
 9858SOL    HW230474   0.288   0.954   1.345
 9859SOL     OW30475   6.174   0.073   1.236
 9859SOL    HW130476   6.214   0.005   1.175
 9859SOL    HW230477   6.076   0.082   1.216
 9860SOL     OW30478   6.971   1.221   2.940
 9860SOL    HW130479   0.042   1.246   2.953
 9860SOL    HW230480   6.964   1.123   2.925
 9861SOL     OW30481   3.136   6.929   3.277
 9861SOL    HW130482   3.111   6.863   3.207
 9861SOL    HW230483   3.166   7.014   3.234
 9862SOL     OW30484   2.402   5.121   0.468
 9862SOL    HW130485   2.366   5.173   0.546
 9862SOL    HW230486   2.460   5.047   0.502
 9863SOL     OW30487   2.951   0.190   3.606
 9863SOL    HW130488   3.049   0.191   3.628
 9863SOL    HW230489   2.938   0.219   3.511
 9864SOL     OW30490   3.895   6.055   3.947
 9864SOL    HW130491   3.857   5.973   3.990
 9864SOL    HW230492   3.859   6.064   3.854
 9865SOL     OW30493   1.603   1.009   3.919
 9865SOL    HW130494   1.558   1.083   3.969
 9865SOL    HW230495   1.553   0.991   3.834
 9866SOL     OW30496   5.811   4.276   5.283
 9866SOL    HW130497   5.795   4.335   5.363
 9866SOL    HW230498   5.885   4.212   5.304
 9867SOL     OW30499   6.207   0.213   0.859
 9867SOL    HW130500   6.226   0.275   0.783
 9867SOL    HW230501   6.122   0.164   0.841
 9868SOL     OW30502   1.169   4.068   5.366
 9868SOL    HW130503   1.096   4.021   5.415
 9868SOL    HW230504   1.136   4.157   5.334
 9869SOL     OW30505   1.446   3.374   2.117
 9869SOL    HW130506   1.391   3.387   2.034
 9869SOL    HW230507   1.508   3.297   2.104
 9870SOL     OW30508   4.693   6.018   2.886
 9870SOL    HW130509   4.705   5.926   2.924
 9870SOL    HW230510   4.723   6.018   2.790
 9871SOL     OW30511   0.857   6.852   5.763
 9871SOL    HW130512   0.945   6.846   5.717
 9871SOL    HW230513   0.836   6.764   5.806
 9872SOL     OW30514   2.878   4.742   4.410
 9872SOL    HW130515   2.780   4.728   4.394
 9872SOL    HW230516   2.912   4.675   4.476
 9873SOL     OW30517   2.922   2.127   1.047
 9873SOL    HW130518   2.828   2.118   1.016
 9873SOL    HW230519   2.923   2.156   1.143
 9874SOL     OW30520   0.728   3.467   4.099
 9874SOL    HW130521   0.646   3.410   4.094
 9874SOL    HW230522   0.703   3.560   4.127
 9875SOL     OW30523   6.693   6.853   2.067
 9875SOL    HW130524   6.689   6.786   1.993
 9875SOL    HW230525   6.609   6.848   2.121
 9876SOL     OW30526   6.052   0.827   2.489
 9876SOL    HW130527   6.052   0.877   2.402
 9876SOL    HW230528   5.990   0.749   2.483
 9877SOL     OW30529   0.373   5.803   3.337
 9877SOL    HW130530   0.368   5.804   3.238
 9877SOL    HW230531   0.281   5.791   3.375
 9878SOL     OW30532   2.811   5.348   4.862
 9878SOL    HW130533   2.906   5.359   4.891
 9878SOL    HW230534   2.807   5.294   4.777
 9879SOL     OW30535   5.703   5.318   3.902
 9879SOL    HW130536   5.801   5.326   3.920
 9879SOL    HW230537   5.685   5.335   3.805
 9880SOL     OW30538   2.961   1.706   5.771
 9880SOL    HW130539   2.868   1.670   5.777
 9880SOL    HW230540   2.988   1.713   5.674
 9881SOL     OW30541   1.581   1.402   5.082
 9881SOL    HW130542   1.589   1.367   5.175
 9881SOL    HW230543   1.630   1.341   5.019
 9882SOL     OW30544   1.084   2.452   3.437
 9882SOL    HW130545   1.041   2.431   3.525
 9882SOL    HW230546   1.183   2.456   3.449
 9883SOL     OW30547   1.671   5.517   0.172
 9883SOL    HW130548   1.668   5.608   0.130
 9883SOL    HW230549   1.686   5.448   0.102
 9884SOL     OW30550   4.469   1.710   2.844
 9884SOL    HW130551   4.495   1.621   2.881
 9884SOL    HW230552   4.440   1.770   2.919
 9885SOL     OW30553   6.584   3.029   5.490
 9885SOL    HW130554   6.486   3.051   5.494
 9885SOL    HW230555   6.615   3.035   5.395
 9886SOL     OW30556   0.738   3.591   1.452
 9886SOL    HW130557   0.782   3.552   1.371
 9886SOL    HW230558   0.654   3.540   1.472
 9887SOL     OW30559   3.996   0.637   6.045
 9887SOL    HW130560   3.984   0.538   6.037
 9887SOL    HW230561   3.956   0.668   6.132
 9888SOL     OW30562   5.920   4.002   1.787
 9888SOL    HW130563   5.920   4.089   1.838
 9888SOL    HW230564   5.831   3.989   1.744
 9889SOL     OW30565   0.499   5.588   1.710
 9889SOL    HW130566   0.433   5.513   1.718
 9889SOL    HW230567   0.587   5.553   1.678
 9890SOL     OW30568   1.653   1.801   0.389
 9890SOL    HW130569   1.557   1.774   0.384
 9890SOL    HW230570   1.667   1.862   0.467
 9891SOL     OW30571   5.621   3.101   1.944
 9891SOL    HW130572   5.637   3.184   1.998
 9891SOL    HW230573   5.643   3.021   1.999
 9892SOL     OW30574   6.821   4.957   0.732
 9892SOL    HW130575   6.812   4.874   0.677
 9892SOL    HW230576   6.893   4.943   0.800
 9893SOL     OW30577   1.020   0.164   1.445
 9893SOL    HW130578   1.020   0.079   1.393
 9893SOL    HW230579   0.993   0.146   1.539
 9894SOL     OW30580   2.666   2.918   1.591
 9894SOL    HW130581   2.624   2.834   1.558
 9894SOL    HW230582   2.753   2.897   1.635
 9895SOL     OW30583   6.706   4.095   5.122
 9895SOL    HW130584   6.738   4.160   5.053
 9895SOL    HW230585   6.677   4.145   5.203
 9896SOL     OW30586   6.419   0.818   6.845
 9896SOL    HW130587   6.466   0.812   6.757
 9896SOL    HW230588   6.463   0.756   6.910
 9897SOL     OW30589   6.186   5.918   2.854
 9897SOL    HW130590   6.233   5.830   2.859
 9897SOL    HW230591   6.216   5.968   2.774
 9898SOL     OW30592   1.454   6.160   4.239
 9898SOL    HW130593   1.514   6.106   4.180
 9898SOL    HW230594   1.412   6.234   4.185
 9899SOL     OW30595   1.005   5.963   6.947
 9899SOL    HW130596   1.047   5.880   6.985
 9899SOL    HW230597   1.076   6.031   6.927
 9900SOL     OW30598   2.042   3.598   3.501
 9900SOL    HW130599   2.097   3.664   3.553
 9900SOL    HW230600   2.066   3.605   3.404
 9901SOL     OW30601   2.903   0.323   6.260
 9901SOL    HW130602   2.858   0.265   6.192
 9901SOL    HW230603   2.933   0.266   6.337
 9902SOL     OW30604   3.366   5.059   1.087
 9902SOL    HW130605   3.384   5.089   1.181
 9902SOL    HW230606   3.424   5.110   1.024
 9903SOL     OW30607   5.271   1.748   2.292
 9903SOL    HW130608   5.321   1.683   2.235
 9903SOL    HW230609   5.179   1.761   2.255
 9904SOL     OW30610   1.394   3.984   7.009
 9904SOL    HW130611   1.486   3.945   6.998
 9904SOL    HW230612   1.402   4.078   0.016
 9905SOL     OW30613   2.242   6.996   6.514
 9905SOL    HW130614   2.213   0.063   6.540
 9905SOL    HW230615   2.184   6.963   6.439
 9906SOL     OW30616   2.501   3.511   1.655
 9906SOL    HW130617   2.452   3.474   1.735
 9906SOL    HW230618   2.567   3.579   1.686
 9907SOL     OW30619   6.414   0.521   1.203
 9907SOL    HW130620   6.345   0.451   1.184
 9907SOL    HW230621   6.449   0.558   1.117
 9908SOL     OW30622   5.700   1.529   5.023
 9908SOL    HW130623   5.745   1.502   4.938
 9908SOL    HW230624   5.608   1.562   5.003
 9909SOL     OW30625   4.352   0.252   3.251
 9909SOL    HW130626   4.289   0.315   3.294
 9909SOL    HW230627   4.326   0.158   3.272
 9910SOL     OW30628   1.509   4.698   2.632
 9910SOL    HW130629   1.477   4.667   2.721
 9910SOL    HW230630   1.437   4.751   2.587
 9911SOL     OW30631   2.721   5.836   2.293
 9911SOL    HW130632   2.741   5.791   2.380
 9911SOL    HW230633   2.663   5.777   2.237
 9912SOL     OW30634   4.183   0.633   1.246
 9912SOL    HW130635   4.096   0.601   1.208
 9912SOL    HW230636   4.256   0.571   1.217
 9913SOL     OW30637   5.834   3.663   0.903
 9913SOL    HW130638   5.877   3.752   0.918
 9913SOL    HW230639   5.899   3.591   0.927
 9914SOL     OW30640   5.578   1.648   4.465
 9914SOL    HW130641   5.666   1.606   4.489
 9914SOL    HW230642   5.504   1.587   4.490
 9915SOL     OW30643   5.092   0.310   3.172
 9915SOL    HW130644   5.069   0.228   3.226
 9915SOL    HW230645   5.156   0.367   3.224
 9916SOL     OW30646   2.106   2.539   2.974
 9916SOL    HW130647   2.101   2.637   2.992
 9916SOL    HW230648   2.162   2.522   2.893
 9917SOL     OW30649   5.653   4.357   6.646
 9917SOL    HW130650   5.703   4.423   6.701
 9917SOL    HW230651   5.702   4.270   6.647
 9918SOL     OW30652   3.412   1.434   3.305
 9918SOL    HW130653   3.370   1.486   3.231
 9918SOL    HW230654   3.477   1.492   3.354
 9919SOL     OW30655   0.146   4.969   1.632
 9919SOL    HW130656   0.192   4.991   1.545
 9919SOL    HW230657   0.176   4.878   1.662
 9920SOL     OW30658   4.776   1.369   2.078
 9920SOL    HW130659   4.773   1.400   2.174
 9920SOL    HW230660   4.686   1.334   2.052
 9921SOL     OW30661   4.473   0.268   5.415
 9921SOL    HW130662   4.571   0.271   5.437
 9921SOL    HW230663   4.422   0.240   5.496
 9922SOL     OW30664   2.951   4.447   0.341
 9922SOL    HW130665   2.977   4.494   0.425
 9922SOL    HW230666   2.921   4.354   0.363
 9923SOL     OW30667   5.198   5.056   6.550
 9923SOL    HW130668   5.191   5.153   6.573
 9923SOL    HW230669   5.241   5.007   6.626
 9924SOL     OW30670   6.349   1.848   4.445
 9924SOL    HW130671   6.313   1.895   4.365
 9924SOL    HW230672   6.346   1.909   4.524
 9925SOL     OW30673   7.004   3.547   4.191
 9925SOL    HW130674   6.946   3.599   4.128
 9925SOL    HW230675   0.027   3.476   4.140
 9926SOL     OW30676   3.885   2.171   1.085
 9926SOL    HW130677   3.976   2.134   1.067
 9926SOL    HW230678   3.848   2.211   1.001
 9927SOL     OW30679   6.806   6.802   0.423
 9927SOL    HW130680   6.769   6.883   0.469
 9927SOL    HW230681   6.819   6.822   0.326
 9928SOL     OW30682   4.677   4.180   2.829
 9928SOL    HW130683   4.754   4.146   2.884
 9928SOL    HW230684   4.666   4.121   2.749
 9929SOL     OW30685   3.338   4.544   5.650
 9929SOL    HW130686   3.359   4.581   5.559
 9929SOL    HW230687   3.416   4.492   5.683
 9930SOL     OW30688   6.451   6.495   4.839
 9930SOL    HW130689   6.370   6.543   4.872
 9930SOL    HW230690   6.427   6.401   4.815
 9931SOL     OW30691   0.650   5.736   4.296
 9931SOL    HW130692   0.661   5.706   4.201
 9931SOL    HW230693   0.677   5.662   4.358
 9932SOL     OW30694   3.249   3.988   6.667
 9932SOL    HW130695   3.235   3.898   6.708
 9932SOL    HW230696   3.347   4.002   6.648
 9933SOL     OW30697   6.822   5.912   2.984
 9933SOL    HW130698   6.843   5.992   3.040
 9933SOL    HW230699   6.858   5.926   2.891
 9934SOL     OW30700   6.250   2.159   5.620
 9934SOL    HW130701   6.339   2.184   5.657
 9934SOL    HW230702   6.242   2.059   5.616
 9935SOL     OW30703   2.857   6.573   6.339
 9935SOL    HW130704   2.875   6.541   6.432
 9935SOL    HW230705   2.863   6.495   6.276
 9936SOL     OW30706   6.671   5.297   6.970
 9936SOL    HW130707   6.676   5.264   0.039
 9936SOL    HW230708   6.723   5.382   6.962
 9937SOL     OW30709   6.540   1.635   1.133
 9937SOL    HW130710   6.524   1.720   1.184
 9937SOL    HW230711   6.454   1.606   1.090
 9938SOL     OW30712   6.662   4.860   2.944
 9938SOL    HW130713   6.717   4.920   3.002
 9938SOL    HW230714   6.602   4.804   3.001
 9939SOL     OW30715   4.538   2.137   1.039
 9939SOL    HW130716   4.468   2.068   1.058
 9939SOL    HW230717   4.505   2.200   0.968
 9940SOL     OW30718   1.186   0.627   1.190
 9940SOL    HW130719   1.210   0.533   1.165
 9940SOL    HW230720   1.187   0.684   1.108
 9941SOL     OW30721   2.954   3.350   5.438
 9941SOL    HW130722   2.938   3.441   5.477
 9941SOL    HW230723   3.051   3.337   5.421
 9942SOL     OW30724   2.614   5.331   2.649
 9942SOL    HW130725   2.696   5.362   2.698
 9942SOL    HW230726   2.598   5.235   2.669
 9943SOL     OW30727   0.769   4.779   5.888
 9943SOL    HW130728   0.789   4.731   5.803
 9943SOL    HW230729   0.672   4.769   5.910
 9944SOL     OW30730   1.361   4.524   6.405
 9944SOL    HW130731   1.382   4.434   6.443
 9944SOL    HW230732   1.438   4.555   6.348
 9945SOL     OW30733   5.818   5.337   6.754
 9945SOL    HW130734   5.822   5.436   6.744
 9945SOL    HW230735   5.750   5.299   6.691
 9946SOL     OW30736   5.304   0.783   3.711
 9946SOL    HW130737   5.317   0.875   3.748
 9946SOL    HW230738   5.278   0.790   3.614
 9947SOL     OW30739   2.097   2.073   4.674
 9947SOL    HW130740   2.166   2.131   4.717
 9947SOL    HW230741   2.008   2.119   4.675
 9948SOL     OW30742   5.748   4.281   4.775
 9948SOL    HW130743   5.726   4.339   4.854
 9948SOL    HW230744   5.680   4.296   4.703
 9949SOL     OW30745   6.766   4.817   4.635
 9949SOL    HW130746   6.754   4.730   4.683
 9949SOL    HW230747   6.677   4.862   4.624
 9950SOL     OW30748   5.910   5.928   5.282
 9950SOL    HW130749   5.883   5.976   5.366
 9950SOL    HW230750   5.953   5.993   5.220
 9951SOL     OW30751   6.903   1.002   4.014
 9951SOL    HW130752   6.989   0.952   4.005
 9951SOL    HW230753   6.849   0.963   4.089
 9952SOL     OW30754   1.127   3.830   0.861
 9952SOL    HW130755   1.051   3.766   0.873
 9952SOL    HW230756   1.161   3.824   0.768
 9953SOL     OW30757   5.460   2.525   4.592
 9953SOL    HW130758   5.438   2.577   4.510
 9953SOL    HW230759   5.481   2.430   4.567
 9954SOL     OW30760   6.648   1.012   6.756
 9954SOL    HW130761   6.662   0.952   6.677
 9954SOL    HW230762   6.732   1.064   6.774
 9955SOL     OW30763   6.236   3.607   5.404
 9955SOL    HW130764   6.261   3.510   5.402
 9955SOL    HW230765   6.290   3.654   5.474
 9956SOL     OW30766   1.392   6.940   2.351
 9956SOL    HW130767   1.480   6.915   2.392
 9956SOL    HW230768   1.339   6.857   2.334
 9957SOL     OW30769   4.871   5.624   2.712
 9957SOL    HW130770   4.951   5.623   2.772
 9957SOL    HW230771   4.788   5.618   2.768
 9958SOL     OW30772   3.392   5.324   0.130
 9958SOL    HW130773   3.370   5.421   0.127
 9958SOL    HW230774   3.437   5.297   0.045
 9959SOL     OW30775   4.153   3.642   5.220
 9959SOL    HW130776   4.122   3.623   5.127
 9959SOL    HW230777   4.161   3.741   5.232
 9960SOL     OW30778   6.768   0.548   1.869
 9960SOL    HW130779   6.855   0.592   1.845
 9960SOL    HW230780   6.767   0.527   1.967
 9961SOL     OW30781   1.568   4.957   4.530
 9961SOL    HW130782   1.642   4.895   4.553
 9961SOL    HW230783   1.514   4.977   4.612
 9962SOL     OW30784   6.523   5.902   2.529
 9962SOL    HW130785   6.531   5.870   2.434
 9962SOL    HW230786   6.606   5.950   2.555
 9963SOL     OW30787   3.141   2.917   6.643
 9963SOL    HW130788   3.165   2.829   6.602
 9963SOL    HW230789   3.045   2.937   6.626
 9964SOL     OW30790   5.256   4.337   5.564
 9964SOL    HW130791   5.322   4.302   5.631
 9964SOL    HW230792   5.173   4.365   5.612
 9965SOL     OW30793   3.880   6.853   6.095
 9965SOL    HW130794   3.858   6.796   6.174
 9965SOL    HW230795   3.799   6.907   6.070
 9966SOL     OW30796   2.253   5.908   1.821
 9966SOL    HW130797   2.195   5.869   1.892
 9966SOL    HW230798   2.286   5.997   1.850
 9967SOL     OW30799   0.000   0.386   2.066
 9967SOL    HW130800   6.990   0.358   2.155
 9967SOL    HW230801   7.001   0.482   2.049
 9968SOL     OW30802   3.433   3.986   0.809
 9968SOL    HW130803   3.457   4.046   0.886
 9968SOL    HW230804   3.342   4.011   0.776
 9969SOL     OW30805   1.692   3.212   2.259
 9969SOL    HW130806   1.734   3.211   2.169
 9969SOL    HW230807   1.735   3.282   2.316
 9970SOL     OW30808   5.091   3.928   2.575
 9970SOL    HW130809   5.146   3.929   2.492
 9970SOL    HW230810   5.113   3.847   2.629
 9971SOL     OW30811   2.268   5.531   1.342
 9971SOL    HW130812   2.178   5.559   1.377
 9971SOL    HW230813   2.275   5.554   1.245
 9972SOL     OW30814   4.277   5.090   1.414
 9972SOL    HW130815   4.223   5.163   1.456
 9972SOL    HW230816   4.350   5.063   1.478
 9973SOL     OW30817   4.649   1.599   4.363
 9973SOL    HW130818   4.622   1.622   4.456
 9973SOL    HW230819   4.695   1.678   4.321
 9974SOL     OW30820   0.466   3.172   2.882
 9974SOL    HW130821   0.411   3.117   2.945
 9974SOL    HW230822   0.428   3.264   2.876
 9975SOL     OW30823   6.212   4.485   0.100
 9975SOL    HW130824   6.136   4.523   0.153
 9975SOL    HW230825   6.297   4.531   0.126
 9976SOL     OW30826   0.430   6.336   5.513
 9976SOL    HW130827   0.502   6.276   5.478
 9976SOL    HW230828   0.343   6.310   5.472
 9977SOL     OW30829   6.868   5.511   5.424
 9977SOL    HW130830   6.804   5.465   5.486
 9977SOL    HW230831   6.901   5.595   5.466
 9978SOL     OW30832   0.449   2.282   3.645
 9978SOL    HW130833   0.411   2.371   3.618
 9978SOL    HW230834   0.377   2.227   3.687
 9979SOL     OW30835   6.181   5.277   5.480
 9979SOL    HW130836   6.138   5.367   5.485
 9979SOL    HW230837   6.212   5.260   5.387
 9980SOL     OW30838   1.601   1.045   5.419
 9980SOL    HW130839   1.538   1.083   5.488
 9980SOL    HW230840   1.640   1.120   5.366
 9981SOL     OW30841   2.030   1.685   2.082
 9981SOL    HW130842   2.054   1.682   2.179
 9981SOL    HW230843   2.068   1.604   2.036
 9982SOL     OW30844   6.519   6.709   4.223
 9982SOL    HW130845   6.440   6.756   4.184
 9982SOL    HW230846   6.553   6.760   4.302
 9983SOL     OW30847   6.821   2.615   2.601
 9983SOL    HW130848   6.889   2.542   2.594
 9983SOL    HW230849   6.859   2.699   2.562
 9984SOL     OW30850   2.111   0.870   6.728
 9984SOL    HW130851   2.031   0.905   6.776
 9984SOL    HW230852   2.192   0.884   6.785
 9985SOL     OW30853   1.598   1.440   0.979
 9985SOL    HW130854   1.667   1.509   0.955
 9985SOL    HW230855   1.540   1.422   0.900
 9986SOL     OW30856   5.788   4.230   5.696
 9986SOL    HW130857   5.855   4.185   5.756
 9986SOL    HW230858   5.756   4.164   5.628
 9987SOL     OW30859   0.113   3.162   4.118
 9987SOL    HW130860   0.189   3.224   4.100
 9987SOL    HW230861   0.048   3.206   4.180
 9988SOL     OW30862   6.912   5.576   4.609
 9988SOL    HW130863   6.901   5.668   4.647
 9988SOL    HW230864   6.894   5.578   4.511
 9989SOL     OW30865   6.141   3.684   3.292
 9989SOL    HW130866   6.207   3.686   3.217
 9989SOL    HW230867   6.184   3.649   3.375
 9990SOL     OW30868   2.544   5.526   1.792
 9990SOL    HW130869   2.454   5.515   1.750
 9990SOL    HW230870   2.555   5.621   1.823
 9991SOL     OW30871   2.065   2.896   3.382
 9991SOL    HW130872   2.022   2.828   3.323
 9991SOL    HW230873   2.163   2.876   3.390
 9992SOL     OW30874   5.715   5.196   0.202
 9992SOL    HW130875   5.732   5.190   0.104
 9992SOL    HW230876   5.798   5.224   0.249
 9993SOL     OW30877   2.889   0.415   0.291
 9993SOL    HW130878   2.814   0.349   0.283
 9993SOL    HW230879   2.976   0.368   0.278
 9994SOL     OW30880   6.184   4.276   3.199
 9994SOL    HW130881   6.185   4.186   3.244
 9994SOL    HW230882   6.245   4.274   3.120
 9995SOL     OW30883   4.492   0.726   2.776
 9995SOL    HW130884   4.488   0.636   2.733
 9995SOL    HW230885   4.558   0.725   2.851
 9996SOL     OW30886   2.863   3.084   1.043
 9996SOL    HW130887   2.820   3.020   1.107
 9996SOL    HW230888   2.792   3.126   0.986
 9997SOL     OW30889   3.463   1.447   0.226
 9997SOL    HW130890   3.555   1.486   0.223
 9997SOL    HW230891   3.440   1.424   0.321
 9998SOL     OW30892   5.559   4.677   6.050
 9998SOL    HW130893   5.585   4.612   6.121
 9998SOL    HW230894   5.597   4.766   6.071
 9999SOL     OW30895   6.362   3.324   5.493
 9999SOL    HW130896   6.345   3.280   5.404
 9999SOL    HW230897   6.274   3.347   5.535
10000SOL     OW30898   0.486   4.360   6.805
10000SOL    HW130899   0.461   4.387   6.898
10000SOL    HW230900   0.586   4.361   6.797
10001SOL     OW30901   4.791   6.847   1.809
10001SOL    HW130902   4.824   6.774   1.869
10001SOL    HW230903   4.799   6.935   1.857
10002SOL     OW30904   1.475   0.521   2.904
10002SOL    HW130905   1.380   0.508   2.876
10002SOL    HW230906   1.519   0.587   2.843
10003SOL     OW30907   3.891   1.197   3.286
10003SOL    HW130908   3.909   1.104   3.256
10003SOL    HW230909   3.798   1.223   3.259
10004SOL     OW30910   6.145   2.559   4.454
10004SOL    HW130911   6.071   2.559   4.521
10004SOL    HW230912   6.223   2.610   4.491
10005SOL     OW30913   5.107   0.476   4.728
10005SOL    HW130914   5.077   0.566   4.695
10005SOL    HW230915   5.049   0.446   4.803
10006SOL     OW30916   5.188   5.952   3.943
10006SOL    HW130917   5.209   6.017   4.016
10006SOL    HW230918   5.118   5.990   3.883
10007SOL     OW30919   0.073   4.730   5.944
10007SOL    HW130920   0.026   4.708   5.859
10007SOL    HW230921   0.050   4.662   6.013
10008SOL     OW30922   4.204   1.328   4.627
10008SOL    HW130923   4.296   1.352   4.593
10008SOL    HW230924   4.140   1.399   4.600
10009SOL     OW30925   2.133   4.239   1.858
10009SOL    HW130926   2.105   4.218   1.764
10009SOL    HW230927   2.188   4.322   1.859
10010SOL     OW30928   2.039   0.599   5.357
10010SOL    HW130929   1.966   0.533   5.374
10010SOL    HW230930   2.099   0.604   5.436
10011SOL     OW30931   5.657   1.235   5.964
10011SOL    HW130932   5.714   1.159   5.997
10011SOL    HW230933   5.561   1.215   5.984
10012SOL     OW30934   5.652   1.435   3.274
10012SOL    HW130935   5.621   1.395   3.360
10012SOL    HW230936   5.573   1.461   3.218
10013SOL     OW30937   0.231   1.019   3.362
10013SOL    HW130938   0.189   1.108   3.345
10013SOL    HW230939   0.284   1.022   3.446
10014SOL     OW30940   6.515   3.833   0.737
10014SOL    HW130941   6.603   3.851   0.692
10014SOL    HW230942   6.455   3.911   0.723
10015SOL     OW30943   1.762   4.966   0.305
10015SOL    HW130944   1.804   5.047   0.265
10015SOL    HW230945   1.767   4.971   0.405
10016SOL     OW30946   0.905   0.696   6.630
10016SOL    HW130947   0.938   0.692   6.724
10016SOL    HW230948   0.808   0.718   6.630
10017SOL     OW30949   2.716   1.848   2.558
10017SOL    HW130950   2.695   1.906   2.480
10017SOL    HW230951   2.654   1.769   2.558
10018SOL     OW30952   4.560   7.004   6.430
10018SOL    HW130953   4.474   6.956   6.450
10018SOL    HW230954   4.540   0.061   6.378
10019SOL     OW30955   0.563   1.293   3.224
10019SOL    HW130956   0.514   1.216   3.184
10019SOL    HW230957   0.498   1.365   3.248
10020SOL     OW30958   2.086   2.453   1.004
10020SOL    HW130959   2.086   2.513   0.924
10020SOL    HW230960   2.173   2.405   1.010
10021SOL     OW30961   0.516   2.178   1.624
10021SOL    HW130962   0.610   2.145   1.633
10021SOL    HW230963   0.453   2.108   1.655
10022SOL     OW30964   2.307   1.244   5.831
10022SOL    HW130965   2.393   1.251   5.882
10022SOL    HW230966   2.232   1.234   5.896
10023SOL     OW30967   0.388   5.061   1.347
10023SOL    HW130968   0.447   5.056   1.266
10023SOL    HW230969   0.375   4.970   1.385
10024SOL     OW30970   1.884   6.091   2.367
10024SOL    HW130971   1.892   6.049   2.458
10024SOL    HW230972   1.798   6.141   2.361
10025SOL     OW30973   1.309   1.509   0.465
10025SOL    HW130974   1.263   1.491   0.552
10025SOL    HW230975   1.408   1.513   0.480
10026SOL     OW30976   5.063   6.498   3.829
10026SOL    HW130977   5.103   6.496   3.738
10026SOL    HW230978   5.125   6.454   3.894
10027SOL     OW30979   6.927   4.085   4.206
10027SOL    HW130980   6.940   4.085   4.305
10027SOL    HW230981   6.895   4.175   4.177
10028SOL     OW30982   1.084   0.413   2.330
10028SOL    HW130983   1.071   0.363   2.416
10028SOL    HW230984   1.133   0.498   2.347
10029SOL     OW30985   4.512   1.644   4.598
10029SOL    HW130986   4.588   1.661   4.662
10029SOL    HW230987   4.425   1.659   4.645
10030SOL     OW30988   1.465   0.472   3.196
10030SOL    HW130989   1.446   0.542   3.264
10030SOL    HW230990   1.458   0.511   3.104
10031SOL     OW30991   5.245   4.465   5.164
10031SOL    HW130992   5.155   4.422   5.159
10031SOL    HW230993   5.279   4.461   5.258
10032SOL     OW30994   3.224   1.076   5.105
10032SOL    HW130995   3.289   1.138   5.061
10032SOL    HW230996   3.185   1.120   5.186
10033SOL     OW30997   6.818   3.104   4.761
10033SOL    HW130998   6.718   3.108   4.755
10033SOL    HW230999   6.857   3.121   4.671
10034SOL     OW31000   3.328   0.615   4.617
10034SOL    HW131001   3.316   0.681   4.543
10034SOL    HW231002   3.248   0.555   4.622
10035SOL     OW31003   6.874   5.543   1.710
10035SOL    HW131004   6.889   5.562   1.807
10035SOL    HW231005   6.785   5.497   1.699
10036SOL     OW31006   6.314   2.092   0.616
10036SOL    HW131007   6.350   1.999   0.617
10036SOL    HW231008   6.215   2.090   0.628
10037SOL     OW31009   6.954   1.728   0.086
10037SOL    HW131010   6.862   1.740   0.048
10037SOL    HW231011   6.954   1.649   0.148
10038SOL     OW31012   5.980   0.197   0.152
10038SOL    HW131013   5.953   0.128   0.220
10038SOL    HW231014   6.050   0.256   0.192
10039SOL     OW31015   3.746   0.526   3.881
10039SOL    HW131016   3.767   0.496   3.788
10039SOL    HW231017   3.648   0.546   3.888
10040SOL     OW31018   6.012   5.107   6.271
10040SOL    HW131019   6.011   5.080   6.175
10040SOL    HW231020   5.919   5.129   6.301
10041SOL     OW31021   3.643   6.284   6.911
10041SOL    HW131022   3.595   6.279   6.999
10041SOL    HW231023   3.741   6.288   6.926
10042SOL     OW31024   0.278   1.407   3.717
10042SOL    HW131025   0.352   1.401   3.783
10042SOL    HW231026   0.296   1.345   3.640
10043SOL     OW31027   6.268   1.663   5.154
10043SOL    HW131028   6.183   1.695   5.111
10043SOL    HW231029   6.320   1.609   5.089
10044SOL     OW31030   2.246   2.833   5.528
10044SOL    HW131031   2.315   2.781   5.477
10044SOL    HW231032   2.237   2.924   5.487
10045SOL     OW31033   4.171   0.724   1.513
10045SOL    HW131034   4.072   0.728   1.527
10045SOL    HW231035   4.191   0.676   1.427
10046SOL     OW31036   1.875   3.825   0.993
10046SOL    HW131037   1.963   3.825   0.946
10046SOL    HW231038   1.806   3.781   0.935
10047SOL     OW31039   0.448   2.906   5.935
10047SOL    HW131040   0.489   2.994   5.911
10047SOL    HW231041   0.395   2.917   6.019
10048SOL     OW31042   6.829   6.662   2.966
10048SOL    HW131043   6.852   6.601   2.891
10048SOL    HW231044   6.835   6.612   3.053
10049SOL     OW31045   1.051   1.629   6.009
10049SOL    HW131046   1.137   1.604   5.966
10049SOL    HW231047   1.068   1.657   6.104
10050SOL     OW31048   5.565   3.409   5.251
10050SOL    HW131049   5.493   3.352   5.292
10050SOL    HW231050   5.624   3.445   5.324
10051SOL     OW31051   0.323   4.563   4.890
10051SOL    HW131052   0.329   4.549   4.791
10051SOL    HW231053   0.382   4.497   4.936
10052SOL     OW31054   1.493   1.004   3.111
10052SOL    HW131055   1.492   1.016   3.011
10052SOL    HW231056   1.587   0.994   3.143
10053SOL     OW31057   5.195   5.125   3.955
10053SOL    HW131058   5.106   5.086   3.932
10053SOL    HW231059   5.185   5.191   4.030
10054SOL     OW31060   5.422   3.854   4.958
10054SOL    HW131061   5.376   3.897   4.881
10054SOL    HW231062   5.441   3.758   4.936
10055SOL     OW31063   6.900   2.692   6.709
10055SOL    HW131064   6.897   2.791   6.721
10055SOL    HW231065   6.823   2.650   6.757
10056SOL     OW31066   5.220   3.525   3.222
10056SOL    HW131067   5.161   3.469   3.279
10056SOL    HW231068   5.166   3.566   3.148
10057SOL     OW31069   5.459   3.738   5.451
10057SOL    HW131070   5.433   3.808   5.386
10057SOL    HW231071   5.444   3.771   5.544
10058SOL     OW31072   6.784   3.233   4.047
10058SOL    HW131073   6.804   3.252   4.143
10058SOL    HW231074   6.760   3.137   4.037
10059SOL     OW31075   6.106   1.764   0.635
10059SOL    HW131076   6.107   1.845   0.694
10059SOL    HW231077   6.161   1.782   0.553
10060SOL     OW31078   2.535   1.661   2.389
10060SOL    HW131079   2.463   1.721   2.354
10060SOL    HW231080   2.599   1.639   2.316
10061SOL     OW31081   4.166   1.110   3.817
10061SOL    HW131082   4.179   1.131   3.913
10061SOL    HW231083   4.250   1.133   3.766
10062SOL     OW31084   6.989   6.775   4.344
10062SOL    HW131085   0.058   6.760   4.314
10062SOL    HW231086   6.940   6.830   4.276
10063SOL     OW31087   2.425   1.892   4.433
10063SOL    HW131088   2.400   1.871   4.528
10063SOL    HW231089   2.420   1.991   4.419
10064SOL     OW31090   3.890   6.030   6.807
10064SOL    HW131091   3.961   6.060   6.871
10064SOL    HW231092   3.932   5.980   6.731
10065SOL     OW31093   1.459   0.898   1.571
10065SOL    HW131094   1.426   0.992   1.573
10065SOL    HW231095   1.531   0.889   1.502
10066SOL     OW31096   0.212   3.443   5.407
10066SOL    HW131097   0.178   3.413   5.496
10066SOL    HW231098   0.210   3.366   5.343
10067SOL     OW31099   0.622   3.216   6.577
10067SOL    HW131100   0.663   3.147   6.517
10067SOL    HW231101   0.528   3.189   6.599
10068SOL     OW31102   1.742   3.428   2.840
10068SOL    HW131103   1.732   3.524   2.865
10068SOL    HW231104   1.702   3.412   2.750
10069SOL     OW31105   3.563   5.105   1.938
10069SOL    HW131106   3.518   5.147   1.859
10069SOL    HW231107   3.502   5.110   2.017
10070SOL     OW31108   2.165   5.633   4.375
10070SOL    HW131109   2.066   5.620   4.370
10070SOL    HW231110   2.199   5.594   4.460
10071SOL     OW31111   0.405   6.476   3.771
10071SOL    HW131112   0.356   6.564   3.772
10071SOL    HW231113   0.347   6.407   3.729
10072SOL     OW31114   0.322   1.559   2.478
10072SOL    HW131115   0.246   1.620   2.454
10072SOL    HW231116   0.292   1.492   2.546
10073SOL     OW31117   6.169   2.748   3.897
10073SOL    HW131118   6.151   2.653   3.873
10073SOL    HW231119   6.228   2.790   3.828
10074SOL     OW31120   1.200   4.965   0.322
10074SOL    HW131121   1.230   4.893   0.259
10074SOL    HW231122   1.205   4.931   0.416
10075SOL     OW31123   2.391   1.356   2.205
10075SOL    HW131124   2.461   1.416   2.169
10075SOL    HW231125   2.423   1.314   2.290
10076SOL     OW31126   4.916   5.075   3.035
10076SOL    HW131127   5.014   5.055   3.042
10076SOL    HW231128   4.864   4.994   3.062
10077SOL     OW31129   6.011   3.164   0.227
10077SOL    HW131130   6.048   3.198   0.140
10077SOL    HW231131   6.086   3.152   0.292
10078SOL     OW31132   6.773   6.720   4.888
10078SOL    HW131133   6.834   6.746   4.813
10078SOL    HW231134   6.678   6.722   4.857
10079SOL     OW31135   5.518   2.811   3.525
10079SOL    HW131136   5.574   2.893   3.514
10079SOL    HW231137   5.485   2.806   3.619
10080SOL     OW31138   5.822   1.024   6.046
10080SOL    HW131139   5.853   0.953   6.109
10080SOL    HW231140   5.865   1.010   5.956
10081SOL     OW31141   1.309   1.472   6.433
10081SOL    HW131142   1.355   1.513   6.354
10081SOL    HW231143   1.231   1.417   6.401
10082SOL     OW31144   1.137   4.966   2.601
10082SOL    HW131145   1.176   4.995   2.688
10082SOL    HW231146   1.210   4.935   2.539
10083SOL     OW31147   3.594   5.308   3.473
10083SOL    HW131148   3.603   5.401   3.510
10083SOL    HW231149   3.570   5.245   3.547
10084SOL     OW31150   0.466   0.359   5.565
10084SOL    HW131151   0.413   0.407   5.635
10084SOL    HW231152   0.500   0.272   5.602
10085SOL     OW31153   3.994   6.688   0.205
10085SOL    HW131154   3.912   6.741   0.184
10085SOL    HW231155   4.069   6.749   0.228
10086SOL     OW31156   6.389   6.633   1.817
10086SOL    HW131157   6.356   6.540   1.801
10086SOL    HW231158   6.360   6.664   1.907
10087SOL     OW31159   0.603   6.765   4.335
10087SOL    HW131160   0.539   6.709   4.387
10087SOL    HW231161   0.697   6.741   4.360
10088SOL     OW31162   0.039   2.541   0.192
10088SOL    HW131163   0.019   2.538   0.290
10088SOL    HW231164   0.129   2.583   0.178
10089SOL     OW31165   4.129   1.565   2.261
10089SOL    HW131166   4.035   1.569   2.297
10089SOL    HW231167   4.193   1.594   2.333
10090SOL     OW31168   1.115   5.131   1.403
10090SOL    HW131169   1.177   5.176   1.338
10090SOL    HW231170   1.081   5.046   1.364
10091SOL     OW31171   6.697   5.434   6.098
10091SOL    HW131172   6.694   5.336   6.079
10091SOL    HW231173   6.792   5.464   6.106
10092SOL     OW31174   0.921   3.206   5.763
10092SOL    HW131175   0.825   3.199   5.735
10092SOL    HW231176   0.980   3.196   5.683
10093SOL     OW31177   5.072   3.617   5.978
10093SOL    HW131178   4.974   3.618   5.997
10093SOL    HW231179   5.106   3.711   5.973
10094SOL     OW31180   3.086   6.806   0.980
10094SOL    HW131181   2.988   6.821   0.966
10094SOL    HW231182   3.131   6.893   1.001
10095SOL     OW31183   5.154   2.666   5.006
10095SOL    HW131184   5.123   2.748   4.958
10095SOL    HW231185   5.221   2.618   4.949
10096SOL     OW31186   4.865   0.906   2.519
10096SOL    HW131187   4.850   1.000   2.549
10096SOL    HW231188   4.918   0.857   2.589
10097SOL     OW31189   1.966   1.551   5.709
10097SOL    HW131190   2.054   1.521   5.673
10097SOL    HW231191   1.894   1.490   5.674
10098SOL     OW31192   3.244   5.562   4.334
10098SOL    HW131193   3.204   5.529   4.420
10098SOL    HW231194   3.176   5.612   4.282
10099SOL     OW31195   6.289   3.867   1.436
10099SOL    HW131196   6.307   3.943   1.374
10099SOL    HW231197   6.374   3.818   1.455
10100SOL     OW31198   5.420   5.517   5.275
10100SOL    HW131199   5.448   5.437   5.221
10100SOL    HW231200   5.344   5.563   5.229
10101SOL     OW31201   0.473   2.620   1.454
10101SOL    HW131202   0.476   2.583   1.547
10101SOL    HW231203   0.527   2.561   1.393
10102SOL     OW31204   5.917   6.967   0.637
10102SOL    HW131205   5.909   6.961   0.538
10102SOL    HW231206   5.939   0.036   0.663
10103SOL     OW31207   0.720   0.487   5.821
10103SOL    HW131208   0.706   0.487   5.722
10103SOL    HW231209   0.702   0.579   5.856
10104SOL     OW31210   2.025   0.424   5.924
10104SOL    HW131211   1.977   0.460   6.003
10104SOL    HW231212   2.117   0.395   5.951
10105SOL     OW31213   3.048   1.492   5.948
10105SOL    HW131214   3.140   1.496   5.987
10105SOL    HW231215   3.030   1.575   5.895
10106SOL     OW31216   4.939   6.486   1.366
10106SOL    HW131217   4.990   6.444   1.291
10106SOL    HW231218   5.000   6.502   1.444
10107SOL     OW31219   5.378   4.850   6.329
10107SOL    HW131220   5.376   4.909   6.410
10107SOL    HW231221   5.289   4.850   6.285
10108SOL     OW31222   1.491   3.273   0.663
10108SOL    HW131223   1.521   3.299   0.571
10108SOL    HW231224   1.400   3.232   0.658
10109SOL     OW31225   0.677   1.173   0.106
10109SOL    HW131226   0.656   1.083   0.145
10109SOL    HW231227   0.776   1.185   0.101
10110SOL     OW31228   4.644   5.378   2.669
10110SOL    HW131229   4.657   5.442   2.744
10110SOL    HW231230   4.717   5.309   2.672
10111SOL     OW31231   1.386   1.977   2.025
10111SOL    HW131232   1.296   1.938   2.047
10111SOL    HW231233   1.449   1.960   2.100
10112SOL     OW31234   6.511   2.557   3.738
10112SOL    HW131235   6.509   2.654   3.759
10112SOL    HW231236   6.539   2.505   3.818
10113SOL     OW31237   5.049   1.087   6.780
10113SOL    HW131238   4.978   1.042   6.726
10113SOL    HW231239   5.090   1.020   6.843
10114SOL     OW31240   4.182   1.749   3.195
10114SOL    HW131241   4.094   1.755   3.242
10114SOL    HW231242   4.168   1.756   3.096
10115SOL     OW31243   3.327   1.260   4.837
10115SOL    HW131244   3.260   1.217   4.775
10115SOL    HW231245   3.312   1.359   4.839
10116SOL     OW31246   6.317   0.927   5.170
10116SOL    HW131247   6.349   0.846   5.120
10116SOL    HW231248   6.395   0.979   5.203
10117SOL     OW31249   6.270   5.578   4.937
10117SOL    HW131250   6.305   5.593   5.030
10117SOL    HW231251   6.196   5.512   4.940
10118SOL     OW31252   3.271   4.878   5.089
10118SOL    HW131253   3.188   4.874   5.034
10118SOL    HW231254   3.246   4.875   5.186
10119SOL     OW31255   0.316   4.890   4.370
10119SOL    HW131256   0.349   4.935   4.453
10119SOL    HW231257   0.284   4.798   4.393
10120SOL     OW31258   1.475   3.130   1.955
10120SOL    HW131259   1.398   3.104   1.897
10120SOL    HW231260   1.475   3.073   2.037
10121SOL     OW31261   6.329   4.376   0.819
10121SOL    HW131262   6.253   4.314   0.834
10121SOL    HW231263   6.383   4.384   0.903
10122SOL     OW31264   0.391   1.977   3.492
10122SOL    HW131265   0.467   1.912   3.484
10122SOL    HW231266   0.383   2.007   3.587
10123SOL     OW31267   5.680   6.086   1.449
10123SOL    HW131268   5.747   6.135   1.504
10123SOL    HW231269   5.687   6.116   1.353
10124SOL     OW31270   1.371   4.730   2.871
10124SOL    HW131271   1.305   4.729   2.946
10124SOL    HW231272   1.390   4.825   2.845
10125SOL     OW31273   1.555   2.187   0.312
10125SOL    HW131274   1.525   2.138   0.230
10125SOL    HW231275   1.655   2.185   0.317
10126SOL     OW31276   5.877   0.667   6.692
10126SOL    HW131277   5.944   0.740   6.711
10126SOL    HW231278   5.798   0.706   6.645
10127SOL     OW31279   2.036   4.922   5.906
10127SOL    HW131280   2.125   4.933   5.863
10127SOL    HW231281   1.973   4.991   5.871
10128SOL     OW31282   3.301   0.619   0.449
10128SOL    HW131283   3.201   0.617   0.440
10128SOL    HW231284   3.338   0.527   0.434
10129SOL     OW31285   6.292   1.668   3.821
10129SOL    HW131286   6.336   1.664   3.910
10129SOL    HW231287   6.351   1.624   3.753
10130SOL     OW31288   1.414   2.281   2.250
10130SOL    HW131289   1.401   2.196   2.301
10130SOL    HW231290   1.397   2.265   2.153
10131SOL     OW31291   2.142   0.670   4.415
10131SOL    HW131292   2.100   0.753   4.379
10131SOL    HW231293   2.220   0.694   4.472
10132SOL     OW31294   6.581   0.900   2.708
10132SOL    HW131295   6.502   0.893   2.646
10132SOL    HW231296   6.666   0.894   2.654
10133SOL     OW31297   4.566   5.768   1.136
10133SOL    HW131298   4.621   5.793   1.056
10133SOL    HW231299   4.473   5.803   1.125
10134SOL     OW31300   5.832   0.356   2.368
10134SOL    HW131301   5.863   0.384   2.459
10134SOL    HW231302   5.815   0.438   2.312
10135SOL     OW31303   5.726   0.095   3.630
10135SOL    HW131304   5.677   0.033   3.691
10135SOL    HW231305   5.730   0.056   3.538
10136SOL     OW31306   4.449   1.913   2.535
10136SOL    HW131307   4.422   1.851   2.461
10136SOL    HW231308   4.539   1.951   2.516
10137SOL     OW31309   0.165   5.953   5.796
10137SOL    HW131310   0.105   6.027   5.768
10137SOL    HW231311   0.223   5.925   5.719
10138SOL     OW31312   5.387   1.172   6.830
10138SOL    HW131313   5.401   1.268   6.808
10138SOL    HW231314   5.346   1.125   6.751
10139SOL     OW31315   3.248   3.489   5.424
10139SOL    HW131316   3.236   3.586   5.444
10139SOL    HW231317   3.345   3.465   5.425
10140SOL     OW31318   0.013   5.388   5.917
10140SOL    HW131319   0.015   5.405   6.016
10140SOL    HW231320   6.987   5.304   5.899
10141SOL     OW31321   3.031   1.428   4.047
10141SOL    HW131322   2.946   1.480   4.036
10141SOL    HW231323   3.009   1.331   4.050
10142SOL     OW31324   6.043   6.292   4.098
10142SOL    HW131325   5.982   6.217   4.074
10142SOL    HW231326   6.138   6.262   4.092
10143SOL     OW31327   5.789   3.309   0.511
10143SOL    HW131328   5.749   3.222   0.482
10143SOL    HW231329   5.809   3.305   0.609
10144SOL     OW31330   3.655   6.098   5.125
10144SOL    HW131331   3.714   6.106   5.044
10144SOL    HW231332   3.711   6.090   5.207
10145SOL     OW31333   5.093   5.899   0.748
10145SOL    HW131334   5.140   5.814   0.723
10145SOL    HW231335   5.161   5.969   0.771
10146SOL     OW31336   0.526   3.382   3.852
10146SOL    HW131337   0.445   3.380   3.794
10146SOL    HW231338   0.591   3.450   3.816
10147SOL     OW31339   4.466   5.819   6.331
10147SOL    HW131340   4.387   5.846   6.274
10147SOL    HW231341   4.434   5.794   6.422
10148SOL     OW31342   1.116   5.139   6.707
10148SOL    HW131343   1.103   5.138   6.607
10148SOL    HW231344   1.027   5.140   6.752
10149SOL     OW31345   4.573   4.374   0.927
10149SOL    HW131346   4.641   4.321   0.979
10149SOL    HW231347   4.549   4.456   0.978
10150SOL     OW31348   4.517   4.230   0.396
10150SOL    HW131349   4.480   4.137   0.395
10150SOL    HW231350   4.503   4.269   0.487
10151SOL     OW31351   6.433   0.404   5.633
10151SOL    HW131352   6.335   0.397   5.615
10151SOL    HW231353   6.458   0.500   5.647
10152SOL     OW31354   5.504   6.433   2.709
10152SOL    HW131355   5.584   6.414   2.766
10152SOL    HW231356   5.504   6.372   2.630
10153SOL     OW31357   5.660   4.813   3.989
10153SOL    HW131358   5.710   4.727   3.980
10153SOL    HW231359   5.563   4.798   3.969
10154SOL     OW31360   4.017   5.257   5.384
10154SOL    HW131361   3.958   5.177   5.391
10154SOL    HW231362   4.061   5.275   5.472
10155SOL     OW31363   4.444   1.917   5.864
10155SOL    HW131364   4.526   1.867   5.893
10155SOL    HW231365   4.366   1.891   5.921
10156SOL     OW31366   4.710   0.808   0.945
10156SOL    HW131367   4.728   0.808   0.846
10156SOL    HW231368   4.772   0.873   0.989
10157SOL     OW31369   0.186   2.941   1.431
10157SOL    HW131370   0.208   2.923   1.335
10157SOL    HW231371   0.219   3.032   1.456
10158SOL     OW31372   5.679   6.289   1.764
10158SOL    HW131373   5.605   6.257   1.705
10158SOL    HW231374   5.659   6.382   1.795
10159SOL     OW31375   3.426   3.522   3.227
10159SOL    HW131376   3.470   3.574   3.153
10159SOL    HW231377   3.392   3.585   3.296
10160SOL     OW31378   2.377   4.287   3.280
10160SOL    HW131379   2.341   4.205   3.326
10160SOL    HW231380   2.416   4.260   3.192
10161SOL     OW31381   4.296   4.836   6.347
10161SOL    HW131382   4.362   4.811   6.418
10161SOL    HW231383   4.230   4.761   6.336
10162SOL     OW31384   1.806   4.034   2.525
10162SOL    HW131385   1.774   4.059   2.434
10162SOL    HW231386   1.728   4.027   2.587
10163SOL     OW31387   1.290   6.317   5.308
10163SOL    HW131388   1.338   6.231   5.319
10163SOL    HW231389   1.217   6.307   5.240
10164SOL     OW31390   6.815   2.952   3.228
10164SOL    HW131391   6.765   2.897   3.295
10164SOL    HW231392   6.902   2.908   3.207
10165SOL     OW31393   6.321   3.398   4.276
10165SOL    HW131394   6.305   3.300   4.269
10165SOL    HW231395   6.390   3.425   4.209
10166SOL     OW31396   1.374   2.139   1.202
10166SOL    HW131397   1.386   2.102   1.294
10166SOL    HW231398   1.406   2.073   1.134
10167SOL     OW31399   0.720   6.484   6.756
10167SOL    HW131400   0.649   6.542   6.798
10167SOL    HW231401   0.690   6.389   6.760
10168SOL     OW31402   5.612   0.981   0.169
10168SOL    HW131403   5.700   0.962   0.212
10168SOL    HW231404   5.586   1.076   0.186
10169SOL     OW31405   6.799   3.476   3.070
10169SOL    HW131406   6.792   3.380   3.098
10169SOL    HW231407   6.844   3.528   3.141
10170SOL     OW31408   6.287   5.861   6.598
10170SOL    HW131409   6.304   5.770   6.636
10170SOL    HW231410   6.210   5.857   6.534
10171SOL     OW31411   1.519   3.165   5.414
10171SOL    HW131412   1.498   3.069   5.399
10171SOL    HW231413   1.463   3.200   5.489
10172SOL     OW31414   6.312   0.319   3.687
10172SOL    HW131415   6.370   0.240   3.666
10172SOL    HW231416   6.298   0.372   3.603
10173SOL     OW31417   3.460   5.061   0.179
10173SOL    HW131418   3.369   5.019   0.176
10173SOL    HW231419   3.452   5.159   0.158
10174SOL     OW31420   4.362   6.543   2.336
10174SOL    HW131421   4.273   6.505   2.361
10174SOL    HW231422   4.352   6.640   2.316
10175SOL     OW31423   0.043   2.099   3.930
10175SOL    HW131424   6.980   2.062   3.900
10175SOL    HW231425   0.029   2.188   3.974
10176SOL     OW31426   5.928   3.092   5.745
10176SOL    HW131427   5.889   3.168   5.694
10176SOL    HW231428   6.026   3.107   5.759
10177SOL     OW31429   1.996   0.615   1.883
10177SOL    HW131430   1.901   0.592   1.907
10177SOL    HW231431   2.047   0.531   1.864
10178SOL     OW31432   1.619   1.545   0.094
10178SOL    HW131433   1.701   1.602   0.092
10178SOL    HW231434   1.626   1.481   0.170
10179SOL     OW31435   6.848   4.246   1.105
10179SOL    HW131436   6.774   4.314   1.110
10179SOL    HW231437   6.935   4.293   1.093
10180SOL     OW31438   4.158   6.704   6.045
10180SOL    HW131439   4.077   6.694   6.103
10180SOL    HW231440   4.224   6.764   6.090
10181SOL     OW31441   6.816   3.873   1.262
10181SOL    HW131442   6.796   3.776   1.271
10181SOL    HW231443   6.797   3.903   1.169
10182SOL     OW31444   5.090   1.120   0.213
10182SOL    HW131445   5.133   1.035   0.243
10182SOL    HW231446   5.143   1.159   0.138
10183SOL     OW31447   6.317   2.061   5.900
10183SOL    HW131448   6.316   1.962   5.914
10183SOL    HW231449   6.225   2.097   5.912
10184SOL     OW31450   5.989   3.768   5.898
10184SOL    HW131451   5.967   3.671   5.885
10184SOL    HW231452   6.028   3.782   5.989
10185SOL     OW31453   3.862   5.823   2.496
10185SOL    HW131454   3.946   5.845   2.446
10185SOL    HW231455   3.825   5.905   2.538
10186SOL     OW31456   4.878   4.102   5.640
10186SOL    HW131457   4.901   4.132   5.547
10186SOL    HW231458   4.817   4.022   5.635
10187SOL     OW31459   2.534   4.859   6.235
10187SOL    HW131460   2.448   4.865   6.185
10187SOL    HW231461   2.592   4.937   6.211
10188SOL     OW31462   2.284   6.710   0.036
10188SOL    HW131463   2.337   6.737   6.981
10188SOL    HW231464   2.231   6.788   0.068
10189SOL     OW31465   1.146   1.220   6.430
10189SOL    HW131466   1.052   1.238   6.399
10189SOL    HW231467   1.182   1.139   6.383
10190SOL     OW31468   3.117   4.735   1.427
10190SOL    HW131469   3.211   4.755   1.455
10190SOL    HW231470   3.055   4.761   1.502
10191SOL     OW31471   5.688   5.763   6.864
10191SOL    HW131472   5.695   5.860   6.889
10191SOL    HW231473   5.607   5.723   6.908
10192SOL     OW31474   2.362   1.687   5.044
10192SOL    HW131475   2.316   1.668   4.958
10192SOL    HW231476   2.366   1.786   5.059
10193SOL     OW31477   4.151   3.614   3.117
10193SOL    HW131478   4.080   3.626   3.186
10193SOL    HW231479   4.177   3.703   3.080
10194SOL     OW31480   3.924   0.120   4.607
10194SOL    HW131481   3.954   0.192   4.545
10194SOL    HW231482   3.921   0.155   4.700
10195SOL     OW31483   5.106   0.098   2.224
10195SOL    HW131484   5.050   0.029   2.178
10195SOL    HW231485   5.075   0.189   2.197
10196SOL     OW31486   5.795   1.653   2.837
10196SOL    HW131487   5.787   1.618   2.930
10196SOL    HW231488   5.833   1.745   2.838
10197SOL     OW31489   6.163   0.257   2.697
10197SOL    HW131490   6.086   0.212   2.652
10197SOL    HW231491   6.133   0.292   2.786
10198SOL     OW31492   3.384   6.563   1.844
10198SOL    HW131493   3.432   6.602   1.922
10198SOL    HW231494   3.369   6.634   1.775
10199SOL     OW31495   1.242   2.002   6.756
10199SOL    HW131496   1.277   1.986   6.664
10199SOL    HW231497   1.214   2.098   6.764
10200SOL     OW31498   4.927   4.403   5.413
10200SOL    HW131499   4.993   4.329   5.424
10200SOL    HW231500   4.956   4.481   5.469
10201SOL     OW31501   0.985   5.503   2.176
10201SOL    HW131502   1.067   5.474   2.127
10201SOL    HW231503   0.914   5.526   2.110
10202SOL     OW31504   0.596   3.959   1.882
10202SOL    HW131505   0.540   3.883   1.916
10202SOL    HW231506   0.692   3.943   1.903
10203SOL     OW31507   2.074   3.151   2.059
10203SOL    HW131508   2.068   3.175   2.156
10203SOL    HW231509   2.091   3.053   2.050
10204SOL     OW31510   3.232   4.862   5.367
10204SOL    HW131511   3.202   4.956   5.384
10204SOL    HW231512   3.183   4.800   5.427
10205SOL     OW31513   5.819   1.928   3.732
10205SOL    HW131514   5.848   1.984   3.655
10205SOL    HW231515   5.892   1.926   3.801
10206SOL     OW31516   5.818   6.620   6.217
10206SOL    HW131517   5.786   6.613   6.123
10206SOL    HW231518   5.916   6.597   6.221
10207SOL     OW31519   2.710   0.635   2.913
10207SOL    HW131520   2.652   0.673   2.986
10207SOL    HW231521   2.684   0.540   2.896
10208SOL     OW31522   5.788   5.131   5.391
10208SOL    HW131523   5.699   5.099   5.422
10208SOL    HW231524   5.775   5.207   5.327
10209SOL     OW31525   7.010   1.015   6.588
10209SOL    HW131526   0.040   1.052   6.514
10209SOL    HW231527   6.940   0.954   6.550
10210SOL     OW31528   5.797   6.878   2.293
10210SOL    HW131529   5.757   6.940   2.226
10210SOL    HW231530   5.729   6.857   2.363
10211SOL     OW31531   3.850   6.421   5.409
10211SOL    HW131532   3.805   6.406   5.497
10211SOL    HW231533   3.910   6.500   5.415
10212SOL     OW31534   0.357   1.055   3.871
10212SOL    HW131535   0.357   1.125   3.942
10212SOL    HW231536   0.264   1.042   3.836
10213SOL     OW31537   5.923   1.812   3.210
10213SOL    HW131538   6.009   1.836   3.254
10213SOL    HW231539   5.928   1.719   3.175
10214SOL     OW31540   6.364   0.827   2.264
10214SOL    HW131541   6.358   0.819   2.164
10214SOL    HW231542   6.367   0.736   2.305
10215SOL     OW31543   4.037   3.612   6.064
10215SOL    HW131544   3.958   3.573   6.016
10215SOL    HW231545   4.077   3.543   6.124
10216SOL     OW31546   6.243   6.900   1.069
10216SOL    HW131547   6.157   6.869   1.028
10216SOL    HW231548   6.295   6.953   1.003
10217SOL     OW31549   2.953   2.277   4.015
10217SOL    HW131550   2.884   2.348   4.026
10217SOL    HW231551   2.971   2.263   3.917
10218SOL     OW31552   1.882   0.682   1.299
10218SOL    HW131553   1.832   0.689   1.386
10218SOL    HW231554   1.977   0.709   1.313
10219SOL     OW31555   0.853   1.986   2.232
10219SOL    HW131556   0.851   1.965   2.134
10219SOL    HW231557   0.807   2.074   2.248
10220SOL     OW31558   4.273   1.979   1.759
10220SOL    HW131559   4.238   2.006   1.849
10220SOL    HW231560   4.206   2.002   1.688
10221SOL     OW31561   2.898   0.518   5.147
10221SOL    HW131562   2.834   0.595   5.142
10221SOL    HW231563   2.943   0.519   5.236
10222SOL     OW31564   1.387   4.344   5.294
10222SOL    HW131565   1.420   4.290   5.372
10222SOL    HW231566   1.381   4.286   5.213
10223SOL     OW31567   1.765   4.973   6.892
10223SOL    HW131568   1.706   5.014   6.962
10223SOL    HW231569   1.727   4.885   6.863
10224SOL     OW31570   0.785   0.274   4.277
10224SOL    HW131571   0.837   0.329   4.212
10224SOL    HW231572   0.689   0.303   4.277
10225SOL     OW31573   0.354   5.969   4.544
10225SOL    HW131574   0.424   6.033   4.574
10225SOL    HW231575   0.276   5.973   4.606
10226SOL     OW31576   2.804   1.238   6.985
10226SOL    HW131577   2.791   1.234   0.059
10226SOL    HW231578   2.849   1.323   6.960
10227SOL     OW31579   4.738   4.549   0.276
10227SOL    HW131580   4.672   4.553   0.351
10227SOL    HW231581   4.768   4.455   0.264
10228SOL     OW31582   0.343   5.342   2.567
10228SOL    HW131583   0.262   5.395   2.539
10228SOL    HW231584   0.319   5.245   2.573
10229SOL     OW31585   0.789   0.373   3.422
10229SOL    HW131586   0.797   0.274   3.436
10229SOL    HW231587   0.818   0.396   3.329
10230SOL     OW31588   6.211   6.962   3.660
10230SOL    HW131589   6.127   7.016   3.660
10230SOL    HW231590   6.290   7.022   3.665
10231SOL     OW31591   6.117   0.056   4.624
10231SOL    HW131592   6.171   0.097   4.697
10231SOL    HW231593   6.028   0.028   4.659
10232SOL     OW31594   3.507   1.058   4.121
10232SOL    HW131595   3.466   1.132   4.174
10232SOL    HW231596   3.537   1.093   4.033
10233SOL     OW31597   4.352   2.805   6.093
10233SOL    HW131598   4.293   2.871   6.139
10233SOL    HW231599   4.301   2.720   6.077
10234SOL     OW31600   5.038   0.292   0.852
10234SOL    HW131601   5.051   0.194   0.867
10234SOL    HW231602   5.125   0.340   0.866
10235SOL     OW31603   4.524   1.419   0.136
10235SOL    HW131604   4.618   1.449   0.125
10235SOL    HW231605   4.464   1.499   0.138
10236SOL     OW31606   2.330   6.332   1.284
10236SOL    HW131607   2.402   6.369   1.342
10236SOL    HW231608   2.368   6.261   1.225
10237SOL     OW31609   6.203   4.248   1.848
10237SOL    HW131610   6.187   4.174   1.782
10237SOL    HW231611   6.115   4.286   1.878
10238SOL     OW31612   3.788   4.540   5.439
10238SOL    HW131613   3.707   4.488   5.413
10238SOL    HW231614   3.870   4.491   5.407
10239SOL     OW31615   0.535   4.423   5.244
10239SOL    HW131616   0.442   4.421   5.207
10239SOL    HW231617   0.590   4.487   5.190
10240SOL     OW31618   0.911   4.572   2.840
10240SOL    HW131619   1.009   4.574   2.825
10240SOL    HW231620   0.869   4.501   2.783
10241SOL     OW31621   0.483   1.360   2.119
10241SOL    HW131622   0.479   1.415   2.036
10241SOL    HW231623   0.533   1.409   2.190
10242SOL     OW31624   0.220   1.395   5.682
10242SOL    HW131625   0.181   1.323   5.624
10242SOL    HW231626   0.157   1.472   5.686
10243SOL     OW31627   0.435   5.282   1.533
10243SOL    HW131628   0.429   5.262   1.436
10243SOL    HW231629   0.528   5.311   1.556
10244SOL     OW31630   2.397   4.977   6.763
10244SOL    HW131631   2.484   5.025   6.750
10244SOL    HW231632   2.384   4.958   6.860
10245SOL     OW31633   1.791   3.119   6.855
10245SOL    HW131634   1.817   3.023   6.860
10245SOL    HW231635   1.720   3.139   6.922
10246SOL     OW31636   3.083   3.839   4.354
10246SOL    HW131637   3.004   3.869   4.301
10246SOL    HW231638   3.163   3.833   4.294
10247SOL     OW31639   0.573   5.517   5.986
10247SOL    HW131640   0.487   5.542   6.031
10247SOL    HW231641   0.565   5.533   5.888
10248SOL     OW31642   3.206   0.229   2.109
10248SOL    HW131643   3.260   0.290   2.167
10248SOL    HW231644   3.180   0.148   2.162
10249SOL     OW31645   4.170   0.350   5.361
10249SOL    HW131646   4.264   0.337   5.394
10249SOL    HW231647   4.138   0.441   5.387
10250SOL     OW31648   6.469   1.026   1.528
10250SOL    HW131649   6.536   1.096   1.551
10250SOL    HW231650   6.511   0.958   1.469
10251SOL     OW31651   2.799   2.842   6.329
10251SOL    HW131652   2.812   2.859   6.231
10251SOL    HW231653   2.743   2.760   6.341
10252SOL     OW31654   6.208   6.637   0.833
10252SOL    HW131655   6.207   6.616   0.931
10252SOL    HW231656   6.118   6.620   0.794
10253SOL     OW31657   4.818   4.833   0.462
10253SOL    HW131658   4.907   4.828   0.418
10253SOL    HW231659   4.746   4.822   0.393
10254SOL     OW31660   3.036   1.712   4.791
10254SOL    HW131661   3.073   1.778   4.857
10254SOL    HW231662   3.030   1.755   4.701
10255SOL     OW31663   2.155   6.378   1.752
10255SOL    HW131664   2.166   6.317   1.830
10255SOL    HW231665   2.117   6.465   1.783
10256SOL     OW31666   5.114   0.081   0.640
10256SOL    HW131667   5.153   0.162   0.597
10256SOL    HW231668   5.025   0.104   0.680
10257SOL     OW31669   1.254   4.999   5.484
10257SOL    HW131670   1.219   5.090   5.505
10257SOL    HW231671   1.293   4.998   5.392
10258SOL     OW31672   4.891   6.280   3.765
10258SOL    HW131673   4.850   6.304   3.677
10258SOL    HW231674   4.958   6.350   3.791
10259SOL     OW31675   0.096   4.859   3.839
10259SOL    HW131676   0.164   4.797   3.800
10259SOL    HW231677   0.119   4.878   3.935
10260SOL     OW31678   0.355   6.386   2.907
10260SOL    HW131679   0.403   6.345   2.984
10260SOL    HW231680   0.362   6.326   2.827
10261SOL     OW31681   6.749   6.077   2.568
10261SOL    HW131682   6.792   6.019   2.499
10261SOL    HW231683   6.764   6.173   2.546
10262SOL     OW31684   3.280   5.097   4.312
10262SOL    HW131685   3.343   5.027   4.277
10262SOL    HW231686   3.316   5.188   4.291
10263SOL     OW31687   5.235   2.244   0.081
10263SOL    HW131688   5.330   2.222   0.104
10263SOL    HW231689   5.229   2.266   7.009
10264SOL     OW31690   5.811   1.469   6.479
10264SOL    HW131691   5.860   1.382   6.482
10264SOL    HW231692   5.715   1.454   6.458
10265SOL     OW31693   3.257   1.770   3.145
10265SOL    HW131694   3.185   1.724   3.198
10265SOL    HW231695   3.345   1.758   3.191
10266SOL     OW31696   4.097   3.890   6.214
10266SOL    HW131697   4.062   3.964   6.156
10266SOL    HW231698   4.050   3.805   6.191
10267SOL     OW31699   6.897   1.994   0.250
10267SOL    HW131700   6.893   1.894   0.246
10267SOL    HW231701   6.809   2.030   0.280
10268SOL     OW31702   5.485   6.177   1.609
10268SOL    HW131703   5.535   6.122   1.542
10268SOL    HW231704   5.407   6.222   1.564
10269SOL     OW31705   2.429   2.053   5.545
10269SOL    HW131706   2.483   2.136   5.536
10269SOL    HW231707   2.418   2.010   5.455
10270SOL     OW31708   1.900   6.137   0.430
10270SOL    HW131709   1.866   6.139   0.523
10270SOL    HW231710   1.895   6.044   0.394
10271SOL     OW31711   3.263   3.680   0.631
10271SOL    HW131712   3.261   3.730   0.545
10271SOL    HW231713   3.257   3.582   0.613
10272SOL     OW31714   1.292   1.063   4.143
10272SOL    HW131715   1.379   1.098   4.109
10272SOL    HW231716   1.231   1.045   4.065
10273SOL     OW31717   3.397   5.438   3.937
10273SOL    HW131718   3.371   5.343   3.919
10273SOL    HW231719   3.338   5.499   3.884
10274SOL     OW31720   1.166   5.240   5.614
10274SOL    HW131721   1.121   5.262   5.701
10274SOL    HW231722   1.266   5.241   5.627
10275SOL     OW31723   0.892   6.155   3.180
10275SOL    HW131724   0.835   6.080   3.146
10275SOL    HW231725   0.838   6.214   3.240
10276SOL     OW31726   6.850   5.564   5.808
10276SOL    HW131727   6.914   5.508   5.861
10276SOL    HW231728   6.766   5.512   5.792
10277SOL     OW31729   2.889   6.396   3.879
10277SOL    HW131730   2.834   6.434   3.805
10277SOL    HW231731   2.831   6.343   3.941
10278SOL     OW31732   6.740   1.198   6.096
10278SOL    HW131733   6.699   1.137   6.164
10278SOL    HW231734   6.784   1.143   6.025
10279SOL     OW31735   3.252   7.014   4.022
10279SOL    HW131736   3.313   6.987   3.949
10279SOL    HW231737   3.292   0.066   4.073
10280SOL     OW31738   2.121   4.670   0.516
10280SOL    HW131739   2.091   4.764   0.534
10280SOL    HW231740   2.045   4.618   0.477
10281SOL     OW31741   4.795   1.353   2.887
10281SOL    HW131742   4.715   1.312   2.845
10281SOL    HW231743   4.869   1.286   2.892
10282SOL     OW31744   0.179   2.723   3.630
10282SOL    HW131745   0.185   2.741   3.728
10282SOL    HW231746   0.083   2.724   3.602
10283SOL     OW31747   1.154   3.268   1.044
10283SOL    HW131748   1.162   3.333   1.120
10283SOL    HW231749   1.058   3.256   1.020
10284SOL     OW31750   5.305   3.511   4.775
10284SOL    HW131751   5.274   3.521   4.680
10284SOL    HW231752   5.236   3.549   4.837
10285SOL     OW31753   4.885   0.317   1.473
10285SOL    HW131754   4.981   0.308   1.499
10285SOL    HW231755   4.877   0.319   1.374
10286SOL     OW31756   3.785   1.568   2.624
10286SOL    HW131757   3.847   1.597   2.552
10286SOL    HW231758   3.826   1.492   2.675
10287SOL     OW31759   1.388   6.554   2.114
10287SOL    HW131760   1.306   6.517   2.069
10287SOL    HW231761   1.441   6.478   2.153
10288SOL     OW31762   5.081   5.531   3.087
10288SOL    HW131763   5.000   5.472   3.084
10288SOL    HW231764   5.094   5.574   2.997
10289SOL     OW31765   2.949   1.210   1.686
10289SOL    HW131766   2.928   1.118   1.654
10289SOL    HW231767   3.017   1.205   1.759
10290SOL     OW31768   4.059   3.797   2.774
10290SOL    HW131769   3.976   3.785   2.718
10290SOL    HW231770   4.139   3.775   2.718
10291SOL     OW31771   3.766   0.948   3.663
10291SOL    HW131772   3.706   0.983   3.591
10291SOL    HW231773   3.712   0.893   3.727
10292SOL     OW31774   0.632   2.289   5.018
10292SOL    HW131775   0.641   2.208   4.960
10292SOL    HW231776   0.693   2.281   5.096
10293SOL     OW31777   1.811   6.096   3.188
10293SOL    HW131778   1.902   6.059   3.208
10293SOL    HW231779   1.748   6.069   3.261
10294SOL     OW31780   4.643   2.434   2.565
10294SOL    HW131781   4.592   2.386   2.493
10294SOL    HW231782   4.583   2.448   2.644
10295SOL     OW31783   6.477   4.576   5.534
10295SOL    HW131784   6.524   4.621   5.610
10295SOL    HW231785   6.541   4.515   5.487
10296SOL     OW31786   6.043   4.231   6.055
10296SOL    HW131787   5.969   4.286   6.095
10296SOL    HW231788   6.093   4.185   6.128
10297SOL     OW31789   2.808   6.696   4.336
10297SOL    HW131790   2.740   6.681   4.264
10297SOL    HW231791   2.894   6.652   4.311
10298SOL     OW31792   5.002   4.157   3.209
10298SOL    HW131793   5.057   4.088   3.257
10298SOL    HW231794   4.928   4.188   3.267
10299SOL     OW31795   4.791   4.247   3.338
10299SOL    HW131796   4.789   4.337   3.384
10299SOL    HW231797   4.735   4.251   3.256
10300SOL     OW31798   1.457   3.318   1.630
10300SOL    HW131799   1.372   3.273   1.602
10300SOL    HW231800   1.503   3.355   1.549
10301SOL     OW31801   5.890   1.640   3.668
10301SOL    HW131802   5.912   1.737   3.652
10301SOL    HW231803   5.878   1.593   3.581
10302SOL     OW31804   1.084   6.597   2.659
10302SOL    HW131805   1.144   6.635   2.730
10302SOL    HW231806   1.043   6.512   2.693
10303SOL     OW31807   3.452   3.429   1.606
10303SOL    HW131808   3.413   3.514   1.570
10303SOL    HW231809   3.419   3.352   1.551
10304SOL     OW31810   6.625   0.066   4.068
10304SOL    HW131811   6.528   0.086   4.079
10304SOL    HW231812   6.673   0.149   4.040
10305SOL     OW31813   1.703   5.744   0.048
10305SOL    HW131814   1.654   5.765   6.989
10305SOL    HW231815   1.706   5.825   0.106
10306SOL     OW31816   4.599   5.779   0.167
10306SOL    HW131817   4.532   5.766   0.094
10306SOL    HW231818   4.631   5.689   0.199
10307SOL     OW31819   1.109   0.957   5.305
10307SOL    HW131820   1.058   0.909   5.377
10307SOL    HW231821   1.205   0.963   5.330
10308SOL     OW31822   3.229   5.133   3.529
10308SOL    HW131823   3.257   5.207   3.467
10308SOL    HW231824   3.136   5.103   3.504
10309SOL     OW31825   5.857   6.406   3.449
10309SOL    HW131826   5.933   6.362   3.400
10309SOL    HW231827   5.867   6.506   3.443
10310SOL     OW31828   3.228   3.679   2.068
10310SOL    HW131829   3.234   3.610   1.996
10310SOL    HW231830   3.237   3.635   2.157
10311SOL     OW31831   0.580   5.901   0.766
10311SOL    HW131832   0.502   5.959   0.785
10311SOL    HW231833   0.650   5.914   0.838
10312SOL     OW31834   3.694   4.868   0.722
10312SOL    HW131835   3.595   4.879   0.717
10312SOL    HW231836   3.734   4.948   0.768
10313SOL     OW31837   4.742   0.030   2.450
10313SOL    HW131838   4.710   0.125   2.445
10313SOL    HW231839   4.818   0.024   2.514
10314SOL     OW31840   6.574   0.284   0.632
10314SOL    HW131841   6.651   0.323   0.582
10314SOL    HW231842   6.608   0.234   0.712
10315SOL     OW31843   6.462   6.138   5.569
10315SOL    HW131844   6.496   6.132   5.475
10315SOL    HW231845   6.507   6.068   5.625
10316SOL     OW31846   0.219   3.848   4.976
10316SOL    HW131847   0.261   3.844   4.886
10316SOL    HW231848   0.216   3.756   5.016
10317SOL     OW31849   3.906   5.055   6.289
10317SOL    HW131850   3.963   5.058   6.206
10317SOL    HW231851   3.861   5.143   6.302
10318SOL     OW31852   6.701   4.914   1.431
10318SOL    HW131853   6.614   4.889   1.386
10318SOL    HW231854   6.760   4.960   1.365
10319SOL     OW31855   0.390   4.339   3.747
10319SOL    HW131856   0.300   4.302   3.727
10319SOL    HW231857   0.455   4.309   3.677
10320SOL     OW31858   0.913   6.612   1.052
10320SOL    HW131859   0.900   6.564   0.966
10320SOL    HW231860   0.836   6.594   1.113
10321SOL     OW31861   4.552   6.018   4.532
10321SOL    HW131862   4.453   6.023   4.521
10321SOL    HW231863   4.596   6.037   4.444
10322SOL     OW31864   6.403   5.324   0.933
10322SOL    HW131865   6.501   5.310   0.949
10322SOL    HW231866   6.387   5.420   0.909
10323SOL     OW31867   6.308   3.507   6.054
10323SOL    HW131868   6.334   3.411   6.065
10323SOL    HW231869   6.213   3.520   6.080
10324SOL     OW31870   3.042   3.105   3.608
10324SOL    HW131871   3.107   3.036   3.577
10324SOL    HW231872   3.031   3.175   3.537
10325SOL     OW31873   6.707   3.800   3.319
10325SOL    HW131874   6.695   3.843   3.230
10325SOL    HW231875   6.783   3.736   3.314
10326SOL     OW31876   4.907   3.128   0.192
10326SOL    HW131877   4.859   3.113   0.278
10326SOL    HW231878   4.995   3.173   0.210
10327SOL     OW31879   1.180   1.028   3.098
10327SOL    HW131880   1.272   1.063   3.079
10327SOL    HW231881   1.116   1.104   3.102
10328SOL     OW31882   5.686   3.725   2.312
10328SOL    HW131883   5.761   3.687   2.259
10328SOL    HW231884   5.713   3.733   2.408
10329SOL     OW31885   3.262   0.584   2.898
10329SOL    HW131886   3.168   0.588   2.931
10329SOL    HW231887   3.286   0.672   2.858
10330SOL     OW31888   3.514   5.480   2.615
10330SOL    HW131889   3.510   5.398   2.558
10330SOL    HW231890   3.560   5.553   2.566
10331SOL     OW31891   5.455   0.544   3.629
10331SOL    HW131892   5.515   0.514   3.703
10331SOL    HW231893   5.414   0.632   3.654
10332SOL     OW31894   0.207   1.915   0.767
10332SOL    HW131895   0.307   1.921   0.761
10332SOL    HW231896   0.177   1.822   0.746
10333SOL     OW31897   5.789   5.117   4.598
10333SOL    HW131898   5.799   5.183   4.524
10333SOL    HW231899   5.791   5.164   4.686
10334SOL     OW31900   2.218   4.879   4.295
10334SOL    HW131901   2.287   4.845   4.231
10334SOL    HW231902   2.262   4.909   4.380
10335SOL     OW31903   2.201   5.591   6.979
10335SOL    HW131904   2.189   5.494   7.000
10335SOL    HW231905   2.111   5.632   6.960
10336SOL     OW31906   4.395   6.956   1.921
10336SOL    HW131907   4.333   7.016   1.971
10336SOL    HW231908   4.473   7.009   1.888
10337SOL     OW31909   0.366   5.380   4.834
10337SOL    HW131910   0.449   5.371   4.779
10337SOL    HW231911   0.297   5.430   4.782
10338SOL     OW31912   3.037   6.866   1.905
10338SOL    HW131913   3.125   6.873   1.858
10338SOL    HW231914   3.016   6.953   1.950
10339SOL     OW31915   3.274   5.938   1.132
10339SOL    HW131916   3.204   5.871   1.108
10339SOL    HW231917   3.248   5.986   1.216
10340SOL     OW31918   2.186   6.149   6.801
10340SOL    HW131919   2.113   6.217   6.807
10340SOL    HW231920   2.274   6.193   6.821
10341SOL     OW31921   2.294   2.255   2.372
10341SOL    HW131922   2.302   2.176   2.311
10341SOL    HW231923   2.290   2.223   2.467
10342SOL     OW31924   2.334   0.116   5.566
10342SOL    HW131925   2.267   0.188   5.583
10342SOL    HW231926   2.345   0.104   5.467
10343SOL     OW31927   2.572   3.935   5.990
10343SOL    HW131928   2.670   3.919   5.981
10343SOL    HW231929   2.521   3.858   5.953
10344SOL     OW31930   4.141   3.597   4.940
10344SOL    HW131931   4.232   3.583   4.978
10344SOL    HW231932   4.150   3.624   4.844
10345SOL     OW31933   2.397   1.369   7.017
10345SOL    HW131934   2.460   1.395   6.944
10345SOL    HW231935   2.417   1.422   0.074
10346SOL     OW31936   4.874   6.918   0.047
10346SOL    HW131937   4.960   6.925   7.022
10346SOL    HW231938   4.861   7.000   0.103
10347SOL     OW31939   5.634   1.931   1.222
10347SOL    HW131940   5.560   1.872   1.189
10347SOL    HW231941   5.644   1.918   1.321
10348SOL     OW31942   6.097   1.199   6.834
10348SOL    HW131943   6.113   1.235   6.742
10348SOL    HW231944   5.998   1.192   6.850
10349SOL     OW31945   6.674   1.075   1.152
10349SOL    HW131946   6.696   1.032   1.064
10349SOL    HW231947   6.638   1.006   1.215
10350SOL     OW31948   3.387   5.856   4.280
10350SOL    HW131949   3.322   5.906   4.337
10350SOL    HW231950   3.429   5.783   4.333
10351SOL     OW31951   5.956   5.690   4.885
10351SOL    HW131952   6.048   5.728   4.889
10351SOL    HW231953   5.904   5.736   4.813
10352SOL     OW31954   5.456   1.683   6.973
10352SOL    HW131955   5.458   1.772   7.018
10352SOL    HW231956   5.364   1.644   6.980
10353SOL     OW31957   0.627   2.932   2.947
10353SOL    HW131958   0.577   3.018   2.934
10353SOL    HW231959   0.608   2.896   3.039
10354SOL     OW31960   0.264   3.615   0.439
10354SOL    HW131961   0.285   3.710   0.464
10354SOL    HW231962   0.190   3.613   0.372
10355SOL     OW31963   1.249   1.009   0.680
10355SOL    HW131964   1.175   0.972   0.737
10355SOL    HW231965   1.242   0.970   0.588
10356SOL     OW31966   6.741   3.457   0.021
10356SOL    HW131967   6.818   3.399   0.048
10356SOL    HW231968   6.679   3.468   0.099
10357SOL     OW31969   1.521   2.745   6.647
10357SOL    HW131970   1.517   2.659   6.698
10357SOL    HW231971   1.585   2.735   6.570
10358SOL     OW31972   1.563   2.658   2.748
10358SOL    HW131973   1.596   2.681   2.657
10358SOL    HW231974   1.493   2.724   2.776
10359SOL     OW31975   5.248   2.007   2.661
10359SOL    HW131976   5.171   2.070   2.666
10359SOL    HW231977   5.281   1.988   2.754
10360SOL     OW31978   5.540   5.320   2.950
10360SOL    HW131979   5.584   5.401   2.912
10360SOL    HW231980   5.479   5.347   3.025
10361SOL     OW31981   1.614   1.503   1.525
10361SOL    HW131982   1.521   1.467   1.536
10361SOL    HW231983   1.666   1.490   1.609
10362SOL     OW31984   0.682   4.783   1.805
10362SOL    HW131985   0.612   4.854   1.809
10362SOL    HW231986   0.773   4.825   1.801
10363SOL     OW31987   4.907   3.103   0.777
10363SOL    HW131988   4.808   3.098   0.781
10363SOL    HW231989   4.940   3.064   0.692
10364SOL     OW31990   4.598   5.226   1.567
10364SOL    HW131991   4.564   5.133   1.579
10364SOL    HW231992   4.612   5.245   1.470
10365SOL     OW31993   6.171   4.962   0.845
10365SOL    HW131994   6.209   4.870   0.834
10365SOL    HW231995   6.157   4.981   0.942
10366SOL     OW31996   3.625   6.657   2.894
10366SOL    HW131997   3.683   6.578   2.872
10366SOL    HW231998   3.587   6.646   2.986
10367SOL     OW31999   6.429   1.503   1.428
10367SOL    HW132000   6.483   1.443   1.369
10367SOL    HW232001   6.487   1.537   1.502
10368SOL     OW32002   1.892   0.458   2.205
10368SOL    HW132003   1.916   0.369   2.167
10368SOL    HW232004   1.796   0.458   2.232
10369SOL     OW32005   3.282   6.329   4.866
10369SOL    HW132006   3.221   6.251   4.852
10369SOL    HW232007   3.327   6.352   4.780
10370SOL     OW32008   0.261   2.300   4.260
10370SOL    HW132009   0.169   2.338   4.249
10370SOL    HW232010   0.295   2.321   4.352
10371SOL     OW32011   3.855   6.378   3.591
10371SOL    HW132012   3.932   6.403   3.533
10371SOL    HW232013   3.770   6.414   3.553
10372SOL     OW32014   2.773   0.519   1.366
10372SOL    HW132015   2.860   0.556   1.334
10372SOL    HW232016   2.789   0.461   1.446
10373SOL     OW32017   6.884   1.058   5.495
10373SOL    HW132018   6.957   1.061   5.427
10373SOL    HW232019   6.809   1.000   5.462
10374SOL     OW32020   3.300   6.905   4.477
10374SOL    HW132021   3.335   6.996   4.457
10374SOL    HW232022   3.255   6.868   4.395
10375SOL     OW32023   3.502   3.028   6.771
10375SOL    HW132024   3.601   3.032   6.768
10375SOL    HW232025   3.464   3.117   6.743
10376SOL     OW32026   1.371   6.105   3.449
10376SOL    HW132027   1.328   6.189   3.417
10376SOL    HW232028   1.378   6.040   3.373
10377SOL     OW32029   0.492   1.601   1.474
10377SOL    HW132030   0.475   1.503   1.470
10377SOL    HW232031   0.546   1.623   1.555
10378SOL     OW32032   0.333   5.623   4.999
10378SOL    HW132033   0.242   5.649   5.030
10378SOL    HW232034   0.325   5.551   4.930
10379SOL     OW32035   2.359   6.756   3.890
10379SOL    HW132036   2.458   6.749   3.901
10379SOL    HW232037   2.316   6.776   3.978
10380SOL     OW32038   1.670   2.618   4.289
10380SOL    HW132039   1.718   2.693   4.334
10380SOL    HW232040   1.601   2.581   4.351
10381SOL     OW32041   4.267   4.490   1.789
10381SOL    HW132042   4.255   4.407   1.735
10381SOL    HW232043   4.363   4.497   1.817
10382SOL     OW32044   3.100   4.915   2.146
10382SOL    HW132045   3.195   4.886   2.131
10382SOL    HW232046   3.083   4.923   2.244
10383SOL     OW32047   1.609   4.763   0.166
10383SOL    HW132048   1.691   4.813   0.138
10383SOL    HW232049   1.584   4.790   0.259
10384SOL     OW32050   6.342   6.155   1.123
10384SOL    HW132051   6.337   6.072   1.179
10384SOL    HW232052   6.270   6.154   1.054
10385SOL     OW32053   3.548   5.179   6.490
10385SOL    HW132054   3.492   5.194   6.408
10385SOL    HW232055   3.501   5.115   6.551
10386SOL     OW32056   7.001   1.275   6.405
10386SOL    HW132057   0.022   1.299   6.491
10386SOL    HW232058   0.015   1.191   6.368
10387SOL     OW32059   5.062   2.732   3.380
10387SOL    HW132060   5.143   2.699   3.331
10387SOL    HW232061   5.015   2.654   3.421
10388SOL     OW32062   2.945   0.651   5.978
10388SOL    HW132063   2.909   0.702   5.900
10388SOL    HW232064   2.884   0.662   6.057
10389SOL     OW32065   6.285   3.876   0.176
10389SOL    HW132066   6.377   3.909   0.156
10389SOL    HW232067   6.283   3.776   0.169
10390SOL     OW32068   2.021   2.136   0.955
10390SOL    HW132069   2.115   2.114   0.982
10390SOL    HW232070   1.990   2.217   1.005
10391SOL     OW32071   0.706   6.061   3.560
10391SOL    HW132072   0.782   6.102   3.510
10391SOL    HW232073   0.623   6.066   3.504
10392SOL     OW32074   6.579   5.199   5.176
10392SOL    HW132075   6.548   5.181   5.082
10392SOL    HW232076   6.546   5.126   5.236
10393SOL     OW32077   2.131   3.509   4.208
10393SOL    HW132078   2.133   3.409   4.202
10393SOL    HW232079   2.170   3.548   4.124
10394SOL     OW32080   2.664   5.956   4.077
10394SOL    HW132081   2.654   5.977   3.979
10394SOL    HW232082   2.577   5.973   4.124
10395SOL     OW32083   0.231   6.370   1.379
10395SOL    HW132084   0.286   6.323   1.449
10395SOL    HW232085   0.200   6.304   1.311
10396SOL     OW32086   3.941   1.775   4.423
10396SOL    HW132087   3.846   1.798   4.445
10396SOL    HW232088   3.970   1.828   4.343
10397SOL     OW32089   3.519   1.931   2.888
10397SOL    HW132090   3.562   1.878   2.816
10397SOL    HW232091   3.421   1.909   2.893
10398SOL     OW32092   6.624   2.882   1.156
10398SOL    HW132093   6.642   2.804   1.217
10398SOL    HW232094   6.696   2.950   1.166
10399SOL     OW32095   5.386   2.256   3.170
10399SOL    HW132096   5.461   2.315   3.201
10399SOL    HW232097   5.414   2.208   3.087
10400SOL     OW32098   4.091   6.981   0.340
10400SOL    HW132099   3.991   6.982   0.346
10400SOL    HW232100   4.129   6.938   0.422
10401SOL     OW32101   5.914   0.740   3.872
10401SOL    HW132102   5.834   0.715   3.927
10401SOL    HW232103   5.949   0.659   3.826
10402SOL     OW32104   6.607   3.516   5.084
10402SOL    HW132105   6.588   3.483   5.177
10402SOL    HW232106   6.534   3.486   5.023
10403SOL     OW32107   3.906   1.242   3.544
10403SOL    HW132108   3.953   1.173   3.600
10403SOL    HW232109   3.904   1.211   3.449
10404SOL     OW32110   6.363   6.742   5.283
10404SOL    HW132111   6.453   6.717   5.320
10404SOL    HW232112   6.374   6.805   5.206
10405SOL     OW32113   0.302   1.885   5.686
10405SOL    HW132114   0.375   1.818   5.702
10405SOL    HW232115   0.265   1.873   5.594
10406SOL     OW32116   2.598   5.076   2.732
10406SOL    HW132117   2.668   5.072   2.661
10406SOL    HW232118   2.568   4.983   2.755
10407SOL     OW32119   3.418   6.590   6.077
10407SOL    HW132120   3.408   6.681   6.116
10407SOL    HW232121   3.497   6.589   6.016
10408SOL     OW32122   4.718   7.023   0.940
10408SOL    HW132123   4.806   6.979   0.958
10408SOL    HW232124   4.721   0.092   0.972
10409SOL     OW32125   0.021   4.761   0.653
10409SOL    HW132126   0.050   4.836   0.594
10409SOL    HW232127   0.098   4.729   0.707
10410SOL     OW32128   5.383   1.449   0.239
10410SOL    HW132129   5.399   1.355   0.269
10410SOL    HW232130   5.287   1.473   0.252
10411SOL     OW32131   4.019   6.686   3.493
10411SOL    HW132132   3.934   6.735   3.505
10411SOL    HW232133   4.001   6.587   3.492
10412SOL     OW32134   0.074   0.888   0.665
10412SOL    HW132135   7.023   0.933   0.712
10412SOL    HW232136   0.049   0.874   0.569
10413SOL     OW32137   6.063   2.576   0.561
10413SOL    HW132138   6.032   2.669   0.541
10413SOL    HW232139   6.056   2.558   0.659
10414SOL     OW32140   3.706   4.156   5.589
10414SOL    HW132141   3.610   4.184   5.593
10414SOL    HW232142   3.719   4.093   5.513
10415SOL     OW32143   0.446   4.001   4.457
10415SOL    HW132144   0.441   4.087   4.406
10415SOL    HW232145   0.354   3.971   4.481
10416SOL     OW32146   6.589   0.307   3.793
10416SOL    HW132147   6.670   0.294   3.850
10416SOL    HW232148   6.513   0.252   3.829
10417SOL     OW32149   3.646   5.355   4.377
10417SOL    HW132150   3.579   5.369   4.304
10417SOL    HW232151   3.606   5.297   4.449
10418SOL     OW32152   0.172   4.766   6.772
10418SOL    HW132153   0.209   4.674   6.762
10418SOL    HW232154   0.140   4.799   6.683
10419SOL     OW32155   1.232   6.882   6.370
10419SOL    HW132156   1.191   6.876   6.460
10419SOL    HW232157   1.192   6.959   6.320
10420SOL     OW32158   0.199   3.964   2.733
10420SOL    HW132159   0.199   3.884   2.674
10420SOL    HW232160   0.134   4.032   2.697
10421SOL     OW32161   0.117   1.705   3.543
10421SOL    HW132162   0.112   1.793   3.496
10421SOL    HW232163   0.160   1.716   3.632
10422SOL     OW32164   6.110   3.401   5.589
10422SOL    HW132165   6.080   3.345   5.512
10422SOL    HW232166   6.051   3.482   5.597
10423SOL     OW32167   5.541   5.072   4.735
10423SOL    HW132168   5.504   4.983   4.707
10423SOL    HW232169   5.614   5.099   4.672
10424SOL     OW32170   6.013   2.817   0.409
10424SOL    HW132171   5.925   2.802   0.364
10424SOL    HW232172   6.087   2.797   0.345
10425SOL     OW32173   1.364   6.818   1.987
10425SOL    HW132174   1.389   6.758   2.063
10425SOL    HW232175   1.443   6.875   1.963
10426SOL     OW32176   0.336   4.697   0.235
10426SOL    HW132177   0.425   4.740   0.249
10426SOL    HW232178   0.297   4.728   0.148
10427SOL     OW32179   3.551   0.954   6.890
10427SOL    HW132180   3.535   1.045   6.927
10427SOL    HW232181   3.466   0.919   6.850
10428SOL     OW32182   2.982   1.175   4.041
10428SOL    HW132183   3.003   1.089   3.994
10428SOL    HW232184   3.056   1.197   4.104
10429SOL     OW32185   6.991   5.314   0.752
10429SOL    HW132186   0.057   5.334   0.789
10429SOL    HW232187   6.976   5.368   0.670
10430SOL     OW32188   4.515   6.296   3.553
10430SOL    HW132189   4.522   6.280   3.652
10430SOL    HW232190   4.423   6.275   3.522
10431SOL     OW32191   3.187   6.046   4.357
10431SOL    HW132192   3.180   6.034   4.456
10431SOL    HW232193   3.097   6.032   4.316
10432SOL     OW32194   6.050   6.758   4.311
10432SOL    HW132195   6.116   6.692   4.276
10432SOL    HW232196   6.038   6.745   4.409
10433SOL     OW32197   1.806   6.784   1.239
10433SOL    HW132198   1.844   6.691   1.241
10433SOL    HW232199   1.866   6.842   1.183
10434SOL     OW32200   4.323   0.232   3.649
10434SOL    HW132201   4.262   0.172   3.597
10434SOL    HW232202   4.417   0.217   3.619
10435SOL     OW32203   6.984   0.251   4.984
10435SOL    HW132204   6.952   0.269   5.077
10435SOL    HW232205   6.905   0.247   4.922
10436SOL     OW32206   0.956   5.268   5.807
10436SOL    HW132207   0.923   5.303   5.895
10436SOL    HW232208   0.952   5.168   5.807
10437SOL     OW32209   6.531   4.822   5.947
10437SOL    HW132210   6.546   4.920   5.958
10437SOL    HW232211   6.595   4.772   6.004
10438SOL     OW32212   6.157   6.111   0.482
10438SOL    HW132213   6.131   6.098   0.386
10438SOL    HW232214   6.255   6.131   0.487
10439SOL     OW32215   3.744   1.542   6.031
10439SOL    HW132216   3.768   1.592   5.948
10439SOL    HW232217   3.680   1.597   6.085
10440SOL     OW32218   1.603   6.668   0.547
10440SOL    HW132219   1.649   6.729   0.482
10440SOL    HW232220   1.632   6.689   0.640
10441SOL     OW32221   4.260   1.431   6.975
10441SOL    HW132222   4.238   1.440   0.047
10441SOL    HW232223   4.180   1.455   6.920
10442SOL     OW32224   3.714   6.561   6.058
10442SOL    HW132225   3.737   6.617   5.978
10442SOL    HW232226   3.763   6.474   6.052
10443SOL     OW32227   5.059   3.727   4.832
10443SOL    HW132228   5.000   3.651   4.805
10443SOL    HW232229   5.003   3.809   4.847
10444SOL     OW32230   4.178   6.589   4.499
10444SOL    HW132231   4.140   6.596   4.407
10444SOL    HW232232   4.105   6.601   4.566
10445SOL     OW32233   1.087   5.638   4.469
10445SOL    HW132234   1.022   5.682   4.531
10445SOL    HW232235   1.133   5.563   4.517
10446SOL     OW32236   0.905   2.877   5.820
10446SOL    HW132237   0.852   2.805   5.776
10446SOL    HW232238   0.849   2.959   5.830
10447SOL     OW32239   6.600   1.371   1.875
10447SOL    HW132240   6.589   1.419   1.962
10447SOL    HW232241   6.629   1.277   1.893
10448SOL     OW32242   3.917   2.535   1.638
10448SOL    HW132243   3.978   2.610   1.664
10448SOL    HW232244   3.826   2.550   1.677
10449SOL     OW32245   2.412   5.331   4.722
10449SOL    HW132246   2.444   5.374   4.806
10449SOL    HW232247   2.487   5.325   4.657
10450SOL     OW32248   0.607   2.170   0.581
10450SOL    HW132249   0.606   2.248   0.518
10450SOL    HW232250   0.513   2.136   0.593
10451SOL     OW32251   1.804   5.151   3.522
10451SOL    HW132252   1.803   5.200   3.610
10451SOL    HW232253   1.778   5.056   3.537
10452SOL     OW32254   6.341   3.506   3.419
10452SOL    HW132255   6.349   3.411   3.448
10452SOL    HW232256   6.310   3.562   3.496
10453SOL     OW32257   5.109   6.028   1.929
10453SOL    HW132258   5.194   5.996   1.971
10453SOL    HW232259   5.049   5.951   1.912
10454SOL     OW32260   4.334   2.616   1.138
10454SOL    HW132261   4.376   2.533   1.101
10454SOL    HW232262   4.256   2.592   1.195
10455SOL     OW32263   0.086   5.096   2.469
10455SOL    HW132264   0.115   5.165   2.402
10455SOL    HW232265   0.110   5.005   2.435
10456SOL     OW32266   3.129   6.228   1.918
10456SOL    HW132267   3.229   6.234   1.919
10456SOL    HW232268   3.090   6.299   1.976
10457SOL     OW32269   3.634   2.912   2.948
10457SOL    HW132270   3.607   2.890   3.042
10457SOL    HW232271   3.715   2.970   2.949
10458SOL     OW32272   0.668   0.755   0.060
10458SOL    HW132273   0.630   0.741   6.993
10458SOL    HW232274   0.765   0.777   0.052
10459SOL     OW32275   5.508   5.414   2.618
10459SOL    HW132276   5.413   5.427   2.591
10459SOL    HW232277   5.525   5.317   2.635
10460SOL     OW32278   1.876   6.000   1.186
10460SOL    HW132279   1.847   5.933   1.118
10460SOL    HW232280   1.941   6.063   1.145
10461SOL     OW32281   1.448   6.113   5.494
10461SOL    HW132282   1.510   6.178   5.539
10461SOL    HW232283   1.432   6.036   5.554
10462SOL     OW32284   5.482   1.919   2.341
10462SOL    HW132285   5.567   1.895   2.295
10462SOL    HW232286   5.413   1.849   2.323
10463SOL     OW32287   3.519   3.284   5.603
10463SOL    HW132288   3.522   3.366   5.546
10463SOL    HW232289   3.573   3.300   5.686
10464SOL     OW32290   5.299   0.368   0.860
10464SOL    HW132291   5.334   0.454   0.898
10464SOL    HW232292   5.320   0.293   0.922
10465SOL     OW32293   6.495   6.616   0.853
10465SOL    HW132294   6.513   6.575   0.942
10465SOL    HW232295   6.396   6.623   0.839
10466SOL     OW32296   4.403   5.098   5.224
10466SOL    HW132297   4.350   5.014   5.231
10466SOL    HW232298   4.343   5.177   5.237
10467SOL     OW32299   1.228   2.010   5.126
10467SOL    HW132300   1.171   2.039   5.203
10467SOL    HW232301   1.243   2.087   5.064
10468SOL     OW32302   3.408   5.597   3.421
10468SOL    HW132303   3.403   5.523   3.354
10468SOL    HW232304   3.442   5.680   3.376
10469SOL     OW32305   3.767   3.308   0.593
10469SOL    HW132306   3.729   3.388   0.547
10469SOL    HW232307   3.738   3.307   0.689
10470SOL     OW32308   2.073   2.088   2.751
10470SOL    HW132309   2.162   2.122   2.721
10470SOL    HW232310   2.025   2.161   2.800
10471SOL     OW32311   2.388   3.773   1.473
10471SOL    HW132312   2.329   3.746   1.549
10471SOL    HW232313   2.483   3.768   1.502
10472SOL     OW32314   3.473   6.240   1.282
10472SOL    HW132315   3.562   6.203   1.255
10472SOL    HW232316   3.402   6.203   1.222
10473SOL     OW32317   5.737   6.892   0.866
10473SOL    HW132318   5.790   6.919   0.785
10473SOL    HW232319   5.687   6.808   0.846
10474SOL     OW32320   5.002   0.717   4.654
10474SOL    HW132321   4.912   0.757   4.671
10474SOL    HW232322   5.031   0.739   4.561
10475SOL     OW32323   4.982   6.848   1.376
10475SOL    HW132324   5.059   6.805   1.329
10475SOL    HW232325   4.988   6.948   1.366
10476SOL     OW32326   0.469   5.809   6.218
10476SOL    HW132327   0.457   5.736   6.286
10476SOL    HW232328   0.561   5.848   6.228
10477SOL     OW32329   6.019   2.971   5.048
10477SOL    HW132330   6.060   3.028   4.977
10477SOL    HW232331   5.920   2.967   5.034
10478SOL     OW32332   0.639   0.451   0.066
10478SOL    HW132333   0.561   0.485   0.117
10478SOL    HW232334   0.638   0.351   0.064
10479SOL     OW32335   1.002   2.672   1.300
10479SOL    HW132336   0.916   2.710   1.266
10479SOL    HW232337   1.010   2.689   1.398
10480SOL     OW32338   5.352   0.264   1.135
10480SOL    HW132339   5.437   0.313   1.156
10480SOL    HW232340   5.277   0.302   1.190
10481SOL     OW32341   2.825   0.987   5.082
10481SOL    HW132342   2.845   1.017   4.989
10481SOL    HW232343   2.790   1.064   5.135
10482SOL     OW32344   0.587   6.083   4.673
10482SOL    HW132345   0.618   6.169   4.713
10482SOL    HW232346   0.543   6.027   4.743
10483SOL     OW32347   6.679   5.217   0.201
10483SOL    HW132348   6.726   5.138   0.240
10483SOL    HW232349   6.636   5.269   0.275
10484SOL     OW32350   0.034   0.257   0.559
10484SOL    HW132351   0.056   0.195   0.484
10484SOL    HW232352   0.021   0.205   0.643
10485SOL     OW32353   3.631   3.756   3.254
10485SOL    HW132354   3.691   3.831   3.281
10485SOL    HW232355   3.543   3.765   3.302
10486SOL     OW32356   6.033   0.653   5.959
10486SOL    HW132357   5.982   0.697   5.885
10486SOL    HW232358   5.984   0.573   5.990
10487SOL     OW32359   4.463   1.605   1.497
10487SOL    HW132360   4.538   1.668   1.476
10487SOL    HW232361   4.459   1.534   1.426
10488SOL     OW32362   1.569   2.209   5.733
10488SOL    HW132363   1.600   2.115   5.741
10488SOL    HW232364   1.647   2.269   5.717
10489SOL     OW32365   5.634   5.873   3.575
10489SOL    HW132366   5.705   5.912   3.516
10489SOL    HW232367   5.661   5.884   3.671
10490SOL     OW32368   5.882   0.520   0.719
10490SOL    HW132369   5.811   0.452   0.739
10490SOL    HW232370   5.894   0.527   0.620
10491SOL     OW32371   1.948   2.722   6.301
10491SOL    HW132372   1.887   2.798   6.324
10491SOL    HW232373   2.043   2.755   6.301
10492SOL     OW32374   3.455   5.941   0.332
10492SOL    HW132375   3.409   5.948   0.421
10492SOL    HW232376   3.386   5.938   0.259
10493SOL     OW32377   3.475   5.492   1.075
10493SOL    HW132378   3.448   5.548   1.154
10493SOL    HW232379   3.394   5.466   1.023
10494SOL     OW32380   0.532   5.047   5.890
10494SOL    HW132381   0.538   4.948   5.902
10494SOL    HW232382   0.506   5.089   5.977
10495SOL     OW32383   6.553   5.758   6.972
10495SOL    HW132384   6.576   5.665   6.940
10495SOL    HW232385   6.524   5.813   6.894
10496SOL     OW32386   6.806   4.382   4.999
10496SOL    HW132387   6.759   4.452   5.054
10496SOL    HW232388   6.780   4.392   4.903
10497SOL     OW32389   1.002   6.766   1.886
10497SOL    HW132390   1.011   6.857   1.926
10497SOL    HW232391   1.092   6.726   1.872
10498SOL     OW32392   5.276   5.954   1.505
10498SOL    HW132393   5.252   5.977   1.411
10498SOL    HW232394   5.203   5.986   1.567
10499SOL     OW32395   5.883   5.813   1.250
10499SOL    HW132396   5.901   5.717   1.230
10499SOL    HW232397   5.788   5.824   1.279
10500SOL     OW32398   5.009   3.258   4.842
10500SOL    HW132399   5.069   3.226   4.769
10500SOL    HW232400   4.975   3.180   4.894
10501SOL     OW32401   2.390   5.751   2.532
10501SOL    HW132402   2.457   5.819   2.561
10501SOL    HW232403   2.298   5.788   2.546
10502SOL     OW32404   3.024   3.256   1.270
10502SOL    HW132405   2.992   3.345   1.237
10502SOL    HW232406   2.994   3.184   1.208
10503SOL     OW32407   6.492   3.974   6.548
10503SOL    HW132408   6.522   3.896   6.493
10503SOL    HW232409   6.449   3.941   6.631
10504SOL     OW32410   0.673   2.868   6.112
10504SOL    HW132411   0.622   2.894   6.030
10504SOL    HW232412   0.673   2.768   6.121
10505SOL     OW32413   5.922   5.762   1.991
10505SOL    HW132414   5.975   5.844   2.012
10505SOL    HW232415   5.852   5.784   1.923
10506SOL     OW32416   0.812   3.479   0.448
10506SOL    HW132417   0.715   3.498   0.432
10506SOL    HW232418   0.842   3.407   0.385
10507SOL     OW32419   2.562   5.304   0.180
10507SOL    HW132420   2.476   5.289   0.230
10507SOL    HW232421   2.626   5.231   0.202
10508SOL     OW32422   1.578   5.357   3.894
10508SOL    HW132423   1.478   5.351   3.904
10508SOL    HW232424   1.622   5.316   3.974
10509SOL     OW32425   5.416   3.763   4.484
10509SOL    HW132426   5.401   3.807   4.572
10509SOL    HW232427   5.366   3.677   4.481
10510SOL     OW32428   4.739   6.697   6.338
10510SOL    HW132429   4.676   6.623   6.361
10510SOL    HW232430   4.825   6.684   6.387
10511SOL     OW32431   2.934   1.182   2.065
10511SOL    HW132432   2.915   1.135   2.151
10511SOL    HW232433   3.025   1.223   2.069
10512SOL     OW32434   4.391   6.903   6.126
10512SOL    HW132435   4.321   6.953   6.074
10512SOL    HW232436   4.468   6.964   6.145
10513SOL     OW32437   6.404   2.560   2.523
10513SOL    HW132438   6.343   2.481   2.515
10513SOL    HW232439   6.468   2.545   2.599
10514SOL     OW32440   1.751   1.990   1.029
10514SOL    HW132441   1.824   2.053   1.001
10514SOL    HW232442   1.789   1.919   1.088
10515SOL     OW32443   2.354   2.276   3.837
10515SOL    HW132444   2.385   2.182   3.822
10515SOL    HW232445   2.259   2.286   3.810
10516SOL     OW32446   2.687   1.893   0.256
10516SOL    HW132447   2.611   1.932   0.203
10516SOL    HW232448   2.742   1.967   0.294
10517SOL     OW32449   1.708   4.131   2.300
10517SOL    HW132450   1.712   4.211   2.241
10517SOL    HW232451   1.739   4.051   2.249
10518SOL     OW32452   0.416   5.247   2.213
10518SOL    HW132453   0.508   5.214   2.235
10518SOL    HW232454   0.351   5.172   2.221
10519SOL     OW32455   3.004   5.012   1.215
10519SOL    HW132456   3.058   4.933   1.184
10519SOL    HW232457   2.956   4.989   1.300
10520SOL     OW32458   6.465   2.074   6.431
10520SOL    HW132459   6.460   1.991   6.376
10520SOL    HW232460   6.495   2.150   6.374
10521SOL     OW32461   6.533   4.080   1.750
10521SOL    HW132462   6.492   4.084   1.659
10521SOL    HW232463   6.535   4.172   1.789
10522SOL     OW32464   0.438   2.177   3.017
10522SOL    HW132465   0.440   2.095   3.075
10522SOL    HW232466   0.528   2.219   3.018
10523SOL     OW32467   7.024   3.973   3.545
10523SOL    HW132468   0.035   4.050   3.596
10523SOL    HW232469   6.994   4.003   3.455
10524SOL     OW32470   0.052   5.175   3.862
10524SOL    HW132471   0.076   5.198   3.957
10524SOL    HW232472   6.982   5.146   3.858
10525SOL     OW32473   4.017   0.381   5.130
10525SOL    HW132474   3.987   0.476   5.125
10525SOL    HW232475   4.092   0.372   5.195
10526SOL     OW32476   0.257   5.976   1.196
10526SOL    HW132477   0.354   5.955   1.191
10526SOL    HW232478   0.223   5.957   1.288
10527SOL     OW32479   0.451   0.549   6.020
10527SOL    HW132480   0.405   0.555   6.109
10527SOL    HW232481   0.491   0.458   6.009
10528SOL     OW32482   0.548   4.229   0.200
10528SOL    HW132483   0.622   4.173   0.163
10528SOL    HW232484   0.558   4.323   0.168
10529SOL     OW32485   1.678   6.004   4.965
10529SOL    HW132486   1.670   5.922   4.908
10529SOL    HW232487   1.631   6.080   4.921
10530SOL     OW32488   1.695   6.333   6.178
10530SOL    HW132489   1.598   6.345   6.202
10530SOL    HW232490   1.702   6.284   6.091
10531SOL     OW32491   2.519   2.607   4.723
10531SOL    HW132492   2.496   2.638   4.815
10531SOL    HW232493   2.616   2.584   4.719
10532SOL     OW32494   6.135   6.919   6.699
10532SOL    HW132495   6.083   6.974   6.764
10532SOL    HW232496   6.224   6.896   6.738
10533SOL     OW32497   2.990   5.670   4.245
10533SOL    HW132498   2.941   5.754   4.220
10533SOL    HW232499   2.957   5.594   4.189
10534SOL     OW32500   0.615   5.622   2.244
10534SOL    HW132501   0.606   5.541   2.302
10534SOL    HW232502   0.637   5.595   2.151
10535SOL     OW32503   2.740   1.297   1.507
10535SOL    HW132504   2.829   1.253   1.518
10535SOL    HW232505   2.670   1.244   1.555
10536SOL     OW32506   4.566   0.188   3.537
10536SOL    HW132507   4.570   0.288   3.542
10536SOL    HW232508   4.621   0.157   3.460
10537SOL     OW32509   4.784   6.737   3.491
10537SOL    HW132510   4.698   6.719   3.539
10537SOL    HW232511   4.796   6.836   3.482
10538SOL     OW32512   5.524   4.045   2.591
10538SOL    HW132513   5.486   4.021   2.501
10538SOL    HW232514   5.536   3.962   2.645
10539SOL     OW32515   6.567   5.643   1.957
10539SOL    HW132516   6.492   5.580   1.935
10539SOL    HW232517   6.530   5.722   2.006
10540SOL     OW32518   2.414   4.002   6.243
10540SOL    HW132519   2.495   3.983   6.187
10540SOL    HW232520   2.359   3.919   6.251
10541SOL     OW32521   3.454   3.044   4.621
10541SOL    HW132522   3.372   3.064   4.567
10541SOL    HW232523   3.429   2.990   4.701
10542SOL     OW32524   6.264   0.541   4.590
10542SOL    HW132525   6.250   0.603   4.512
10542SOL    HW232526   6.211   0.458   4.577
10543SOL     OW32527   6.955   2.311   5.863
10543SOL    HW132528   7.003   2.307   5.950
10543SOL    HW232529   6.977   2.397   5.817
10544SOL     OW32530   1.236   0.474   3.695
10544SOL    HW132531   1.216   0.547   3.629
10544SOL    HW232532   1.291   0.511   3.769
10545SOL     OW32533   0.862   2.990   2.185
10545SOL    HW132534   0.959   3.009   2.200
10545SOL    HW232535   0.839   2.901   2.223
10546SOL     OW32536   3.209   6.148   1.305
10546SOL    HW132537   3.125   6.200   1.293
10546SOL    HW232538   3.271   6.199   1.365
10547SOL     OW32539   4.709   0.364   4.488
10547SOL    HW132540   4.732   0.459   4.466
10547SOL    HW232541   4.772   0.303   4.440
10548SOL     OW32542   0.535   5.061   5.025
10548SOL    HW132543   0.521   4.986   4.961
10548SOL    HW232544   0.448   5.107   5.042
10549SOL     OW32545   0.209   1.689   0.428
10549SOL    HW132546   0.160   1.776   0.418
10549SOL    HW232547   0.147   1.613   0.407
10550SOL     OW32548   3.767   6.666   3.312
10550SOL    HW132549   3.799   6.758   3.293
10550SOL    HW232550   3.828   6.600   3.267
10551SOL     OW32551   2.358   1.840   5.874
10551SOL    HW132552   2.374   1.775   5.948
10551SOL    HW232553   2.271   1.888   5.890
10552SOL     OW32554   2.687   0.823   4.698
10552SOL    HW132555   2.685   0.795   4.602
10552SOL    HW232556   2.706   0.921   4.705
10553SOL     OW32557   0.036   4.542   1.269
10553SOL    HW132558   0.001   4.635   1.272
10553SOL    HW232559   0.133   4.541   1.292
10554SOL     OW32560   5.814   4.654   2.560
10554SOL    HW132561   5.756   4.729   2.593
10554SOL    HW232562   5.907   4.666   2.596
10555SOL     OW32563   2.771   2.105   0.608
10555SOL    HW132564   2.842   2.141   0.668
10555SOL    HW232565   2.713   2.042   0.661
10556SOL     OW32566   2.506   1.331   3.168
10556SOL    HW132567   2.526   1.343   3.265
10556SOL    HW232568   2.456   1.411   3.134
10557SOL     OW32569   1.852   3.449   4.833
10557SOL    HW132570   1.797   3.448   4.750
10557SOL    HW232571   1.828   3.370   4.890
10558SOL     OW32572   3.178   4.849   5.674
10558SOL    HW132573   3.098   4.808   5.632
10558SOL    HW232574   3.223   4.910   5.609
10559SOL     OW32575   3.423   1.313   0.552
10559SOL    HW132576   3.460   1.320   0.645
10559SOL    HW232577   3.353   1.383   0.539
10560SOL     OW32578   4.088   6.104   1.978
10560SOL    HW132579   4.039   6.076   1.896
10560SOL    HW232580   4.185   6.086   1.967
10561SOL     OW32581   4.215   4.903   2.347
10561SOL    HW132582   4.205   4.914   2.248
10561SOL    HW232583   4.144   4.842   2.381
10562SOL     OW32584   3.567   6.046   1.061
10562SOL    HW132585   3.473   6.010   1.058
10562SOL    HW232586   3.564   6.146   1.054
10563SOL     OW32587   1.050   0.219   0.841
10563SOL    HW132588   0.981   0.230   0.770
10563SOL    HW232589   1.028   0.139   0.897
10564SOL     OW32590   6.736   5.299   3.639
10564SOL    HW132591   6.803   5.365   3.674
10564SOL    HW232592   6.657   5.348   3.602
10565SOL     OW32593   6.840   0.173   6.026
10565SOL    HW132594   6.925   0.174   6.079
10565SOL    HW232595   6.822   0.080   5.992
10566SOL     OW32596   2.864   2.335   0.070
10566SOL    HW132597   2.883   2.432   0.059
10566SOL    HW232598   2.946   2.287   0.100
10567SOL     OW32599   1.960   2.475   5.477
10567SOL    HW132600   1.929   2.570   5.481
10567SOL    HW232601   1.960   2.444   5.381
10568SOL     OW32602   5.917   2.759   6.732
10568SOL    HW132603   5.935   2.857   6.736
10568SOL    HW232604   5.823   2.743   6.702
10569SOL     OW32605   5.436   0.677   2.114
10569SOL    HW132606   5.393   0.738   2.048
10569SOL    HW232607   5.471   0.596   2.067
10570SOL     OW32608   1.498   4.682   4.176
10570SOL    HW132609   1.447   4.622   4.116
10570SOL    HW232610   1.590   4.698   4.139
10571SOL     OW32611   0.133   4.286   6.153
10571SOL    HW132612   0.190   4.241   6.222
10571SOL    HW232613   0.190   4.315   6.076
10572SOL     OW32614   6.636   4.510   1.753
10572SOL    HW132615   6.707   4.533   1.687
10572SOL    HW232616   6.635   4.578   1.826
10573SOL     OW32617   5.318   0.672   4.569
10573SOL    HW132618   5.232   0.677   4.620
10573SOL    HW232619   5.353   0.578   4.571
10574SOL     OW32620   6.655   0.741   3.884
10574SOL    HW132621   6.707   0.729   3.799
10574SOL    HW232622   6.626   0.836   3.893
10575SOL     OW32623   5.471   0.298   3.484
10575SOL    HW132624   5.498   0.384   3.528
10575SOL    HW232625   5.551   0.239   3.473
10576SOL     OW32626   1.644   5.128   2.827
10576SOL    HW132627   1.681   5.138   2.920
10576SOL    HW232628   1.687   5.195   2.767
10577SOL     OW32629   2.965   5.885   0.289
10577SOL    HW132630   2.880   5.857   0.244
10577SOL    HW232631   2.990   5.977   0.259
10578SOL     OW32632   5.912   2.081   3.513
10578SOL    HW132633   5.845   2.080   3.438
10578SOL    HW232634   5.992   2.025   3.487
10579SOL     OW32635   2.499   4.102   1.246
10579SOL    HW132636   2.576   4.158   1.277
10579SOL    HW232637   2.421   4.161   1.225
10580SOL     OW32638   6.311   6.736   6.489
10580SOL    HW132639   6.375   6.776   6.555
10580SOL    HW232640   6.341   6.645   6.463
10581SOL     OW32641   4.863   6.351   2.839
10581SOL    HW132642   4.780   6.395   2.873
10581SOL    HW232643   4.839   6.287   2.766
10582SOL     OW32644   5.436   4.578   6.410
10582SOL    HW132645   5.430   4.675   6.386
10582SOL    HW232646   5.392   4.524   6.338
10583SOL     OW32647   3.484   0.381   4.539
10583SOL    HW132648   3.547   0.392   4.615
10583SOL    HW232649   3.438   0.468   4.521
10584SOL     OW32650   6.384   0.455   6.539
10584SOL    HW132651   6.330   0.439   6.622
10584SOL    HW232652   6.462   0.392   6.537
10585SOL     OW32653   1.147   1.691   6.318
10585SOL    HW132654   1.191   1.632   6.386
10585SOL    HW232655   1.075   1.744   6.362
10586SOL     OW32656   4.389   4.945   5.835
10586SOL    HW132657   4.394   4.960   5.736
10586SOL    HW232658   4.296   4.962   5.867
10587SOL     OW32659   0.570   6.010   5.954
10587SOL    HW132660   0.593   5.918   5.985
10587SOL    HW232661   0.653   6.057   5.925
10588SOL     OW32662   1.788   2.373   4.322
10588SOL    HW132663   1.831   2.401   4.408
10588SOL    HW232664   1.754   2.453   4.273
10589SOL     OW32665   5.403   6.329   4.466
10589SOL    HW132666   5.423   6.279   4.550
10589SOL    HW232667   5.305   6.334   4.452
10590SOL     OW32668   0.242   5.852   1.993
10590SOL    HW132669   0.207   5.945   1.981
10590SOL    HW232670   0.205   5.793   1.921
10591SOL     OW32671   2.147   1.228   1.204
10591SOL    HW132672   2.072   1.187   1.255
10591SOL    HW232673   2.117   1.247   1.110
10592SOL     OW32674   5.820   2.492   4.559
10592SOL    HW132675   5.747   2.425   4.542
10592SOL    HW232676   5.861   2.474   4.648
10593SOL     OW32677   1.313   6.078   0.824
10593SOL    HW132678   1.324   6.177   0.832
10593SOL    HW232679   1.220   6.056   0.796
10594SOL     OW32680   3.772   0.867   2.950
10594SOL    HW132681   3.776   0.779   2.998
10594SOL    HW232682   3.679   0.903   2.955
10595SOL     OW32683   6.223   0.957   0.890
10595SOL    HW132684   6.306   0.902   0.882
10595SOL    HW232685   6.240   1.050   0.858
10596SOL     OW32686   4.747   1.504   0.029
10596SOL    HW132687   4.839   1.468   0.041
10596SOL    HW232688   4.752   1.596   7.014
10597SOL     OW32689   2.834   0.578   6.281
10597SOL    HW132690   2.759   0.591   6.346
10597SOL    HW232691   2.854   0.481   6.272
10598SOL     OW32692   2.559   1.768   6.233
10598SOL    HW132693   2.498   1.845   6.215
10598SOL    HW232694   2.532   1.724   6.319
10599SOL     OW32695   6.413   4.212   6.439
10599SOL    HW132696   6.498   4.244   6.397
10599SOL    HW232697   6.431   4.132   6.495
10600SOL     OW32698   3.430   0.972   1.411
10600SOL    HW132699   3.434   1.070   1.430
10600SOL    HW232700   3.470   0.922   1.489
10601SOL     OW32701   0.378   5.854   5.175
10601SOL    HW132702   0.425   5.788   5.116
10601SOL    HW232703   0.446   5.909   5.223
10602SOL     OW32704   0.884   0.715   0.286
10602SOL    HW132705   0.861   0.801   0.332
10602SOL    HW232706   0.908   0.733   0.191
10603SOL     OW32707   4.375   6.381   1.948
10603SOL    HW132708   4.353   6.369   1.851
10603SOL    HW232709   4.352   6.475   1.976
10604SOL     OW32710   0.404   6.458   4.931
10604SOL    HW132711   0.371   6.367   4.908
10604SOL    HW232712   0.410   6.467   5.031
10605SOL     OW32713   1.737   7.011   0.189
10605SOL    HW132714   1.638   7.002   0.182
10605SOL    HW232715   1.773   0.029   0.106
10606SOL     OW32716   6.859   0.597   1.418
10606SOL    HW132717   6.768   0.557   1.417
10606SOL    HW232718   6.910   0.559   1.496
10607SOL     OW32719   4.191   4.391   0.390
10607SOL    HW132720   4.202   4.317   0.324
10607SOL    HW232721   4.097   4.392   0.424
10608SOL     OW32722   6.594   3.091   3.210
10608SOL    HW132723   6.681   3.044   3.198
10608SOL    HW232724   6.524   3.046   3.154
10609SOL     OW32725   2.560   6.484   0.289
10609SOL    HW132726   2.604   6.496   0.378
10609SOL    HW232727   2.619   6.520   0.217
10610SOL     OW32728   6.753   2.702   4.398
10610SOL    HW132729   6.848   2.722   4.425
10610SOL    HW232730   6.750   2.683   4.300
10611SOL     OW32731   2.589   5.450   4.991
10611SOL    HW132732   2.661   5.397   4.946
10611SOL    HW232733   2.599   5.547   4.967
10612SOL     OW32734   5.336   1.084   4.210
10612SOL    HW132735   5.334   0.993   4.253
10612SOL    HW232736   5.387   1.147   4.269
10613SOL     OW32737   5.266   6.114   4.154
10613SOL    HW132738   5.358   6.145   4.177
10613SOL    HW232739   5.217   6.091   4.238
10614SOL     OW32740   4.986   1.423   5.163
10614SOL    HW132741   5.051   1.377   5.223
10614SOL    HW232742   4.934   1.355   5.112
10615SOL     OW32743   3.628   1.384   5.605
10615SOL    HW132744   3.545   1.365   5.551
10615SOL    HW232745   3.635   1.482   5.621
10616SOL     OW32746   2.567   6.202   6.231
10616SOL    HW132747   2.619   6.142   6.292
10616SOL    HW232748   2.473   6.209   6.265
10617SOL     OW32749   2.232   4.599   1.608
10617SOL    HW132750   2.271   4.691   1.613
10617SOL    HW232751   2.206   4.579   1.514
10618SOL     OW32752   0.849   5.528   5.687
10618SOL    HW132753   0.836   5.440   5.641
10618SOL    HW232754   0.761   5.565   5.715
10619SOL     OW32755   0.740   2.276   2.788
10619SOL    HW132756   0.755   2.337   2.711
10619SOL    HW232757   0.712   2.329   2.868
10620SOL     OW32758   1.473   7.002   5.307
10620SOL    HW132759   1.404   6.933   5.331
10620SOL    HW232760   1.427   0.065   5.294
10621SOL     OW32761   1.187   4.269   2.701
10621SOL    HW132762   1.183   4.286   2.603
10621SOL    HW232763   1.149   4.179   2.721
10622SOL     OW32764   4.381   2.319   1.513
10622SOL    HW132765   4.300   2.305   1.571
10622SOL    HW232766   4.378   2.412   1.475
10623SOL     OW32767   6.292   6.065   5.340
10623SOL    HW132768   6.308   6.052   5.438
10623SOL    HW232769   6.246   6.153   5.325
10624SOL     OW32770   0.863   2.872   4.599
10624SOL    HW132771   0.821   2.861   4.509
10624SOL    HW232772   0.803   2.927   4.657
10625SOL     OW32773   0.490   3.004   0.709
10625SOL    HW132774   0.521   3.080   0.765
10625SOL    HW232775   0.463   3.038   0.619
10626SOL     OW32776   3.163   2.757   1.491
10626SOL    HW132777   3.154   2.765   1.591
10626SOL    HW232778   3.122   2.837   1.448
10627SOL     OW32779   5.593   0.982   6.386
10627SOL    HW132780   5.672   1.041   6.370
10627SOL    HW232781   5.571   0.933   6.302
10628SOL     OW32782   4.150   0.413   0.565
10628SOL    HW132783   4.165   0.314   0.571
10628SOL    HW232784   4.174   0.456   0.652
10629SOL     OW32785   3.421   5.142   4.709
10629SOL    HW132786   3.423   5.066   4.644
10629SOL    HW232787   3.328   5.176   4.719
10630SOL     OW32788   5.414   1.240   2.523
10630SOL    HW132789   5.508   1.252   2.554
10630SOL    HW232790   5.395   1.303   2.448
10631SOL     OW32791   4.144   4.630   6.060
10631SOL    HW132792   4.171   4.657   6.152
10631SOL    HW232793   4.056   4.584   6.064
10632SOL     OW32794   5.044   5.662   3.368
10632SOL    HW132795   5.130   5.650   3.418
10632SOL    HW232796   5.059   5.643   3.271
10633SOL     OW32797   2.455   2.723   1.811
10633SOL    HW132798   2.467   2.802   1.750
10633SOL    HW232799   2.358   2.707   1.826
10634SOL     OW32800   1.287   5.576   0.668
10634SOL    HW132801   1.251   5.668   0.685
10634SOL    HW232802   1.256   5.545   0.578
10635SOL     OW32803   2.292   3.571   0.444
10635SOL    HW132804   2.229   3.649   0.454
10635SOL    HW232805   2.252   3.504   0.381
10636SOL     OW32806   6.665   1.514   0.669
10636SOL    HW132807   6.694   1.549   0.758
10636SOL    HW232808   6.660   1.589   0.603
10637SOL     OW32809   1.856   6.048   6.391
10637SOL    HW132810   1.911   6.109   6.334
10637SOL    HW232811   1.761   6.052   6.361
10638SOL     OW32812   6.405   6.544   2.267
10638SOL    HW132813   6.367   6.606   2.336
10638SOL    HW232814   6.427   6.456   2.309
10639SOL     OW32815   2.076   3.411   1.794
10639SOL    HW132816   1.994   3.402   1.850
10639SOL    HW232817   2.152   3.445   1.850
10640SOL     OW32818   4.762   0.787   3.480
10640SOL    HW132819   4.674   0.802   3.525
10640SOL    HW232820   4.800   0.699   3.508
10641SOL     OW32821   2.031   1.524   3.421
10641SOL    HW132822   2.089   1.593   3.465
10641SOL    HW232823   2.083   1.440   3.409
10642SOL     OW32824   5.764   2.027   0.456
10642SOL    HW132825   5.737   1.931   0.462
10642SOL    HW232826   5.753   2.070   0.546
10643SOL     OW32827   2.287   6.203   4.752
10643SOL    HW132828   2.199   6.220   4.707
10643SOL    HW232829   2.347   6.282   4.739
10644SOL     OW32830   5.643   3.048   1.205
10644SOL    HW132831   5.722   2.987   1.211
10644SOL    HW232832   5.633   3.098   1.292
10645SOL     OW32833   2.314   2.845   3.467
10645SOL    HW132834   2.341   2.755   3.500
10645SOL    HW232835   2.324   2.912   3.541
10646SOL     OW32836   5.874   0.715   5.736
10646SOL    HW132837   5.893   0.624   5.701
10646SOL    HW232838   5.775   0.729   5.741
10647SOL     OW32839   3.625   5.320   5.420
10647SOL    HW132840   3.663   5.386   5.355
10647SOL    HW232841   3.526   5.331   5.424
10648SOL     OW32842   5.946   5.591   6.474
10648SOL    HW132843   5.938   5.668   6.411
10648SOL    HW232844   5.869   5.592   6.538
10649SOL     OW32845   0.945   3.160   3.489
10649SOL    HW132846   0.930   3.215   3.572
10649SOL    HW232847   0.962   3.065   3.516
10650SOL     OW32848   0.471   0.363   4.213
10650SOL    HW132849   0.390   0.405   4.172
10650SOL    HW232850   0.506   0.424   4.285
10651SOL     OW32851   6.084   5.896   6.420
10651SOL    HW132852   6.004   5.836   6.421
10651SOL    HW232853   6.061   5.983   6.376
10652SOL     OW32854   2.174   6.709   5.808
10652SOL    HW132855   2.250   6.771   5.787
10652SOL    HW232856   2.088   6.757   5.795
10653SOL     OW32857   4.071   5.808   4.715
10653SOL    HW132858   4.123   5.787   4.632
10653SOL    HW232859   4.060   5.725   4.769
10654SOL     OW32860   4.676   1.204   5.546
10654SOL    HW132861   4.769   1.194   5.510
10654SOL    HW232862   4.610   1.200   5.472
10655SOL     OW32863   1.717   4.487   0.553
10655SOL    HW132864   1.798   4.502   0.496
10655SOL    HW232865   1.733   4.525   0.644
10656SOL     OW32866   6.717   1.272   2.837
10656SOL    HW132867   6.812   1.276   2.870
10656SOL    HW232868   6.668   1.199   2.886
10657SOL     OW32869   6.061   0.833   4.703
10657SOL    HW132870   6.003   0.756   4.677
10657SOL    HW232871   6.155   0.815   4.677
10658SOL     OW32872   6.250   4.113   4.785
10658SOL    HW132873   6.235   4.188   4.720
10658SOL    HW232874   6.324   4.055   4.754
10659SOL     OW32875   0.909   4.738   0.833
10659SOL    HW132876   0.937   4.756   0.738
10659SOL    HW232877   0.814   4.766   0.845
10660SOL     OW32878   5.963   3.929   5.492
10660SOL    HW132879   6.007   3.943   5.404
10660SOL    HW232880   6.033   3.913   5.562
10661SOL     OW32881   1.262   5.560   0.371
10661SOL    HW132882   1.195   5.514   0.314
10661SOL    HW232883   1.353   5.524   0.352
10662SOL     OW32884   3.996   0.633   2.537
10662SOL    HW132885   3.931   0.589   2.600
10662SOL    HW232886   4.050   0.701   2.587
10663SOL     OW32887   0.769   1.726   3.268
10663SOL    HW132888   0.758   1.683   3.358
10663SOL    HW232889   0.796   1.657   3.201
10664SOL     OW32890   0.004   5.274   4.947
10664SOL    HW132891   0.040   5.272   4.854
10664SOL    HW232892   6.962   5.348   4.955
10665SOL     OW32893   2.096   2.269   0.092
10665SOL    HW132894   2.187   2.310   0.090
10665SOL    HW232895   2.046   2.295   0.009
10666SOL     OW32896   3.174   3.886   2.244
10666SOL    HW132897   3.082   3.867   2.279
10666SOL    HW232898   3.194   3.826   2.167
10667SOL     OW32899   4.686   1.355   4.225
10667SOL    HW132900   4.652   1.440   4.265
10667SOL    HW232901   4.763   1.320   4.280
10668SOL     OW32902   3.307   1.363   5.163
10668SOL    HW132903   3.255   1.447   5.177
10668SOL    HW232904   3.313   1.344   5.065
10669SOL     OW32905   5.873   0.674   1.139
10669SOL    HW132906   5.926   0.681   1.054
10669SOL    HW232907   5.854   0.765   1.174
10670SOL     OW32908   5.467   4.669   4.820
10670SOL    HW132909   5.410   4.701   4.895
10670SOL    HW232910   5.563   4.679   4.845
10671SOL     OW32911   1.900   1.719   3.962
10671SOL    HW132912   1.803   1.734   3.948
10671SOL    HW232913   1.920   1.716   4.061
10672SOL     OW32914   6.785   4.244   1.767
10672SOL    HW132915   6.739   4.195   1.694
10672SOL    HW232916   6.729   4.321   1.797
10673SOL     OW32917   1.091   0.347   0.340
10673SOL    HW132918   1.164   0.304   0.394
10673SOL    HW232919   1.127   0.373   0.250
10674SOL     OW32920   3.987   3.867   4.305
10674SOL    HW132921   4.072   3.854   4.253
10674SOL    HW232922   3.918   3.802   4.274
10675SOL     OW32923   2.815   0.616   6.764
10675SOL    HW132924   2.870   0.539   6.797
10675SOL    HW232925   2.740   0.582   6.707
10676SOL     OW32926   0.404   6.693   4.768
10676SOL    HW132927   0.335   6.765   4.779
10676SOL    HW232928   0.400   6.631   4.846
10677SOL     OW32929   1.899   1.092   1.268
10677SOL    HW132930   1.853   1.142   1.195
10677SOL    HW232931   1.892   0.993   1.251
10678SOL     OW32932   4.401   4.644   3.781
10678SOL    HW132933   4.419   4.628   3.683
10678SOL    HW232934   4.447   4.573   3.835
10679SOL     OW32935   3.749   5.972   6.293
10679SOL    HW132936   3.718   5.917   6.216
10679SOL    HW232937   3.841   6.005   6.275
10680SOL     OW32938   3.756   2.028   3.459
10680SOL    HW132939   3.683   2.068   3.515
10680SOL    HW232940   3.797   2.100   3.403
10681SOL     OW32941   6.639   3.630   0.301
10681SOL    HW132942   6.724   3.663   0.341
10681SOL    HW232943   6.562   3.684   0.335
10682SOL     OW32944   0.132   2.589   5.351
10682SOL    HW132945   0.049   2.562   5.400
10682SOL    HW232946   0.178   2.661   5.402
10683SOL     OW32947   4.734   0.975   3.825
10683SOL    HW132948   4.783   0.888   3.814
10683SOL    HW232949   4.800   1.051   3.817
10684SOL     OW32950   4.516   5.461   2.439
10684SOL    HW132951   4.466   5.377   2.416
10684SOL    HW232952   4.575   5.444   2.518
10685SOL     OW32953   0.382   5.283   1.128
10685SOL    HW132954   0.347   5.361   1.179
10685SOL    HW232955   0.318   5.206   1.137
10686SOL     OW32956   1.459   3.881   5.798
10686SOL    HW132957   1.550   3.864   5.760
10686SOL    HW232958   1.468   3.931   5.884
10687SOL     OW32959   6.236   4.894   4.586
10687SOL    HW132960   6.142   4.915   4.612
10687SOL    HW232961   6.241   4.880   4.487
10688SOL     OW32962   5.967   3.333   2.839
10688SOL    HW132963   6.026   3.315   2.760
10688SOL    HW232964   5.978   3.260   2.906
10689SOL     OW32965   6.269   0.562   2.373
10689SOL    HW132966   6.279   0.469   2.337
10689SOL    HW232967   6.181   0.599   2.344
10690SOL     OW32968   0.325   5.125   3.456
10690SOL    HW132969   0.346   5.031   3.429
10690SOL    HW232970   0.390   5.188   3.412
10691SOL     OW32971   2.022   1.871   1.866
10691SOL    HW132972   2.032   1.819   1.950
10691SOL    HW232973   2.025   1.810   1.787
10692SOL     OW32974   2.645   0.663   3.473
10692SOL    HW132975   2.690   0.737   3.524
10692SOL    HW232976   2.550   0.689   3.454
10693SOL     OW32977   1.173   5.879   1.045
10693SOL    HW132978   1.243   5.860   0.975
10693SOL    HW232979   1.216   5.879   1.135
10694SOL     OW32980   5.310   6.190   6.851
10694SOL    HW132981   5.356   6.277   6.868
10694SOL    HW232982   5.364   6.116   6.890
10695SOL     OW32983   1.293   2.563   2.345
10695SOL    HW132984   1.334   2.641   2.299
10695SOL    HW232985   1.331   2.478   2.308
10696SOL     OW32986   6.439   4.165   4.406
10696SOL    HW132987   6.499   4.153   4.486
10696SOL    HW232988   6.344   4.147   4.433
10697SOL     OW32989   0.102   0.320   5.661
10697SOL    HW132990   0.090   0.248   5.730
10697SOL    HW232991   0.106   0.278   5.570
10698SOL     OW32992   5.365   4.936   6.730
10698SOL    HW132993   5.357   4.979   6.820
10698SOL    HW232994   5.370   4.836   6.741
10699SOL     OW32995   3.896   4.854   1.900
10699SOL    HW132996   3.960   4.901   1.960
10699SOL    HW232997   3.937   4.771   1.864
10700SOL     OW32998   5.481   6.197   0.642
10700SOL    HW132999   5.563   6.219   0.693
10700SOL    HW233000   5.421   6.277   0.638
10701SOL     OW33001   2.480   6.897   5.599
10701SOL    HW133002   2.425   6.980   5.589
10701SOL    HW233003   2.481   6.847   5.513
10702SOL     OW33004   5.554   3.226   2.339
10702SOL    HW133005   5.646   3.263   2.348
10702SOL    HW233006   5.556   3.127   2.353
10703SOL     OW33007   2.709   2.691   5.379
10703SOL    HW133008   2.756   2.613   5.339
10703SOL    HW233009   2.756   2.775   5.353
10704SOL     OW33010   6.505   4.859   1.946
10704SOL    HW133011   6.477   4.863   1.850
10704SOL    HW233012   6.535   4.767   1.968
10705SOL     OW33013   6.643   4.995   1.690
10705SOL    HW133014   6.549   4.971   1.713
10705SOL    HW233015   6.663   4.968   1.596
10706SOL     OW33016   4.073   6.959   2.607
10706SOL    HW133017   4.081   6.861   2.627
10706SOL    HW233018   3.980   6.989   2.626
10707SOL     OW33019   0.346   6.298   3.993
10707SOL    HW133020   0.410   6.347   3.935
10707SOL    HW233021   0.373   6.202   3.999
10708SOL     OW33022   3.786   1.152   1.382
10708SOL    HW133023   3.723   1.137   1.305
10708SOL    HW233024   3.775   1.078   1.448
10709SOL     OW33025   5.492   5.751   5.028
10709SOL    HW133026   5.584   5.734   5.064
10709SOL    HW233027   5.452   5.664   4.999
10710SOL     OW33028   5.867   0.892   4.455
10710SOL    HW133029   5.937   0.891   4.526
10710SOL    HW233030   5.895   0.953   4.381
10711SOL     OW33031   1.991   6.563   3.985
10711SOL    HW133032   2.032   6.541   3.896
10711SOL    HW233033   2.061   6.602   4.044
10712SOL     OW33034   2.864   0.642   2.053
10712SOL    HW133035   2.889   0.548   2.029
10712SOL    HW233036   2.923   0.706   2.003
10713SOL     OW33037   0.540   3.454   0.950
10713SOL    HW133038   0.549   3.362   0.912
10713SOL    HW233039   0.504   3.449   1.043
10714SOL     OW33040   5.180   3.935   5.325
10714SOL    HW133041   5.174   3.839   5.351
10714SOL    HW233042   5.271   3.953   5.287
10715SOL     OW33043   4.313   0.128   2.155
10715SOL    HW133044   4.280   0.097   2.244
10715SOL    HW233045   4.276   0.219   2.136
10716SOL     OW33046   5.757   2.357   4.126
10716SOL    HW133047   5.806   2.344   4.040
10716SOL    HW233048   5.804   2.426   4.181
10717SOL     OW33049   0.924   2.395   1.300
10717SOL    HW133050   0.921   2.380   1.399
10717SOL    HW233051   0.969   2.483   1.282
10718SOL     OW33052   1.226   3.642   6.867
10718SOL    HW133053   1.133   3.607   6.868
10718SOL    HW233054   1.249   3.679   6.957
10719SOL     OW33055   7.003   5.838   2.774
10719SOL    HW133056   0.050   5.799   2.716
10719SOL    HW233057   0.003   5.932   2.800
10720SOL     OW33058   0.192   4.422   5.679
10720SOL    HW133059   0.213   4.374   5.593
10720SOL    HW233060   0.116   4.376   5.725
10721SOL     OW33061   5.217   3.612   5.166
10721SOL    HW133062   5.316   3.623   5.160
10721SOL    HW233063   5.191   3.590   5.260
10722SOL     OW33064   1.485   5.323   6.945
10722SOL    HW133065   1.452   5.359   6.858
10722SOL    HW233066   1.585   5.316   6.942
10723SOL     OW33067   0.307   3.009   6.838
10723SOL    HW133068   0.241   2.995   6.764
10723SOL    HW233069   0.260   3.004   6.926
10724SOL     OW33070   6.418   1.222   0.089
10724SOL    HW133071   6.382   1.144   0.039
10724SOL    HW233072   6.345   1.289   0.104
10725SOL     OW33073   1.490   5.364   4.607
10725SOL    HW133074   1.567   5.300   4.599
10725SOL    HW233075   1.490   5.403   4.699
10726SOL     OW33076   5.679   0.271   5.023
10726SOL    HW133077   5.744   0.197   5.038
10726SOL    HW233078   5.586   0.239   5.045
10727SOL     OW33079   0.452   5.574   5.461
10727SOL    HW133080   0.443   5.499   5.395
10727SOL    HW233081   0.507   5.647   5.420
10728SOL     OW33082   0.812   6.192   6.660
10728SOL    HW133083   0.846   6.209   6.752
10728SOL    HW233084   0.712   6.194   6.661
10729SOL     OW33085   5.014   1.670   2.542
10729SOL    HW133086   4.967   1.757   2.559
10729SOL    HW233087   5.113   1.687   2.537
10730SOL     OW33088   1.826   0.812   1.074
10730SOL    HW133089   1.864   0.764   1.153
10730SOL    HW233090   1.843   0.758   0.992
10731SOL     OW33091   3.182   0.048   0.992
10731SOL    HW133092   3.222   0.071   1.080
10731SOL    HW233093   3.109   0.114   0.970
10732SOL     OW33094   6.127   4.674   5.019
10732SOL    HW133095   6.124   4.597   5.083
10732SOL    HW233096   6.220   4.682   4.982
10733SOL     OW33097   6.311   1.875   0.917
10733SOL    HW133098   6.258   1.955   0.945
10733SOL    HW233099   6.316   1.872   0.817
10734SOL     OW33100   1.024   0.479   7.022
10734SOL    HW133101   1.048   0.383   7.011
10734SOL    HW233102   0.937   0.497   6.975
10735SOL     OW33103   0.425   2.753   2.782
10735SOL    HW133104   0.499   2.789   2.839
10735SOL    HW233105   0.410   2.656   2.804
10736SOL     OW33106   1.198   0.674   3.522
10736SOL    HW133107   1.292   0.686   3.490
10736SOL    HW233108   1.145   0.755   3.499
10737SOL     OW33109   1.455   1.750   0.869
10737SOL    HW133110   1.452   1.837   0.919
10737SOL    HW233111   1.362   1.720   0.847
10738SOL     OW33112   2.660   0.847   2.725
10738SOL    HW133113   2.647   0.803   2.814
10738SOL    HW233114   2.581   0.828   2.667
10739SOL     OW33115   1.688   1.622   0.781
10739SOL    HW133116   1.609   1.671   0.817
10739SOL    HW233117   1.760   1.688   0.760
10740SOL     OW33118   0.265   5.194   5.002
10740SOL    HW133119   0.305   5.262   4.941
10740SOL    HW233120   0.166   5.193   4.990
10741SOL     OW33121   5.151   0.391   1.356
10741SOL    HW133122   5.085   0.345   1.296
10741SOL    HW233123   5.178   0.329   1.430
10742SOL     OW33124   5.899   0.289   0.934
10742SOL    HW133125   5.911   0.343   1.018
10742SOL    HW233126   5.818   0.231   0.943
10743SOL     OW33127   2.450   1.263   5.174
10743SOL    HW133128   2.381   1.308   5.231
10743SOL    HW233129   2.518   1.218   5.232
10744SOL     OW33130   3.694   1.618   0.996
10744SOL    HW133131   3.604   1.613   1.038
10744SOL    HW233132   3.763   1.630   1.068
10745SOL     OW33133   0.436   5.957   6.503
10745SOL    HW133134   0.530   5.926   6.488
10745SOL    HW233135   0.423   5.980   6.599
10746SOL     OW33136   2.267   5.215   1.041
10746SOL    HW133137   2.349   5.242   1.091
10746SOL    HW233138   2.292   5.156   0.965
10747SOL     OW33139   3.794   1.265   4.205
10747SOL    HW133140   3.834   1.190   4.257
10747SOL    HW233141   3.862   1.338   4.193
10748SOL     OW33142   5.445   1.045   1.122
10748SOL    HW133143   5.449   0.998   1.033
10748SOL    HW233144   5.350   1.047   1.154
10749SOL     OW33145   0.564   4.998   3.239
10749SOL    HW133146   0.598   5.075   3.295
10749SOL    HW233147   0.487   4.955   3.285
10750SOL     OW33148   4.360   6.179   4.333
10750SOL    HW133149   4.405   6.267   4.350
10750SOL    HW233150   4.410   6.130   4.262
10751SOL     OW33151   1.847   4.713   4.985
10751SOL    HW133152   1.892   4.795   4.950
10751SOL    HW233153   1.870   4.635   4.927
10752SOL     OW33154   6.425   4.073   6.133
10752SOL    HW133155   6.386   4.039   6.048
10752SOL    HW233156   6.427   4.173   6.131
10753SOL     OW33157   4.924   5.382   4.655
10753SOL    HW133158   5.011   5.404   4.699
10753SOL    HW233159   4.934   5.389   4.556
10754SOL     OW33160   0.727   0.333   3.093
10754SOL    HW133161   0.741   0.427   3.064
10754SOL    HW233162   0.815   0.286   3.099
10755SOL     OW33163   6.885   1.098   0.348
10755SOL    HW133164   6.786   1.107   0.362
10755SOL    HW233165   6.914   1.163   0.277
10756SOL     OW33166   6.797   4.628   0.198
10756SOL    HW133167   6.758   4.675   0.277
10756SOL    HW233168   6.877   4.576   0.226
10757SOL     OW33169   2.432   3.349   0.219
10757SOL    HW133170   2.333   3.343   0.222
10757SOL    HW233171   2.472   3.269   0.264
10758SOL     OW33172   0.844   6.707   4.486
10758SOL    HW133173   0.878   6.744   4.572
10758SOL    HW233174   0.913   6.649   4.444
10759SOL     OW33175   1.908   2.712   1.353
10759SOL    HW133176   1.851   2.767   1.292
10759SOL    HW233177   1.971   2.656   1.300
10760SOL     OW33178   5.434   0.981   2.778
10760SOL    HW133179   5.382   1.005   2.696
10760SOL    HW233180   5.517   0.931   2.752
10761SOL     OW33181   1.245   6.551   5.784
10761SOL    HW133182   1.186   6.632   5.790
10761SOL    HW233183   1.206   6.477   5.838
10762SOL     OW33184   3.976   2.154   4.479
10762SOL    HW133185   4.028   2.200   4.551
10762SOL    HW233186   3.891   2.119   4.516
10763SOL     OW33187   5.455   6.690   2.635
10763SOL    HW133188   5.360   6.719   2.626
10763SOL    HW233189   5.459   6.592   2.654
10764SOL     OW33190   5.010   2.306   5.933
10764SOL    HW133191   5.021   2.256   6.018
10764SOL    HW233192   5.026   2.245   5.855
10765SOL     OW33193   4.978   2.549   0.562
10765SOL    HW133194   5.050   2.482   0.544
10765SOL    HW233195   4.972   2.613   0.486
10766SOL     OW33196   5.185   4.293   0.428
10766SOL    HW133197   5.242   4.257   0.355
10766SOL    HW233198   5.166   4.390   0.411
10767SOL     OW33199   1.472   0.669   6.787
10767SOL    HW133200   1.536   0.615   6.841
10767SOL    HW233201   1.421   0.731   6.847
10768SOL     OW33202   4.690   5.115   2.128
10768SOL    HW133203   4.773   5.111   2.072
10768SOL    HW233204   4.705   5.176   2.206
10769SOL     OW33205   2.416   4.117   5.389
10769SOL    HW133206   2.431   4.054   5.312
10769SOL    HW233207   2.353   4.190   5.360
10770SOL     OW33208   5.682   0.068   4.714
10770SOL    HW133209   5.699   0.161   4.681
10770SOL    HW233210   5.617   0.071   4.790
10771SOL     OW33211   5.942   6.958   3.832
10771SOL    HW133212   5.971   6.952   3.737
10771SOL    HW233213   5.968   0.022   3.869
10772SOL     OW33214   6.013   6.736   4.600
10772SOL    HW133215   5.975   6.643   4.598
10772SOL    HW233216   6.090   6.738   4.664
10773SOL     OW33217   6.651   6.040   6.590
10773SOL    HW133218   6.694   6.077   6.507
10773SOL    HW233219   6.551   6.046   6.581
10774SOL     OW33220   2.553   1.692   6.496
10774SOL    HW133221   2.500   1.643   6.566
10774SOL    HW233222   2.646   1.655   6.492
10775SOL     OW33223   0.321   4.672   1.960
10775SOL    HW133224   0.287   4.588   2.002
10775SOL    HW233225   0.405   4.701   2.007
10776SOL     OW33226   0.236   1.015   0.000
10776SOL    HW133227   0.238   1.001   0.099
10776SOL    HW233228   0.142   1.000   6.992
10777SOL     OW33229   3.712   5.294   2.733
10777SOL    HW133230   3.678   5.246   2.813
10777SOL    HW233231   3.677   5.388   2.733
10778SOL     OW33232   5.422   6.918   3.994
10778SOL    HW133233   5.484   6.997   3.990
10778SOL    HW233234   5.448   6.859   4.071
10779SOL     OW33235   6.207   3.591   3.636
10779SOL    HW133236   6.218   3.685   3.668
10779SOL    HW233237   6.115   3.558   3.660
10780SOL     OW33238   2.072   1.159   3.254
10780SOL    HW133239   2.159   1.204   3.274
10780SOL    HW233240   2.026   1.137   3.340
10781SOL     OW33241   4.512   0.938   4.170
10781SOL    HW133242   4.548   0.848   4.146
10781SOL    HW233243   4.495   0.942   4.269
10782SOL     OW33244   6.731   1.875   1.775
10782SOL    HW133245   6.756   1.822   1.856
10782SOL    HW233246   6.802   1.943   1.756
10783SOL     OW33247   0.385   2.484   2.807
10783SOL    HW133248   0.369   2.442   2.897
10783SOL    HW233249   0.413   2.413   2.742
10784SOL     OW33250   3.611   6.967   3.922
10784SOL    HW133251   3.710   6.978   3.918
10784SOL    HW233252   3.574   7.017   4.000
10785SOL     OW33253   6.751   4.780   0.427
10785SOL    HW133254   6.782   4.722   0.502
10785SOL    HW233255   6.684   4.846   0.461
10786SOL     OW33256   5.855   4.871   3.276
10786SOL    HW133257   5.912   4.953   3.270
10786SOL    HW233258   5.903   4.800   3.328
10787SOL     OW33259   2.339   1.685   5.378
10787SOL    HW133260   2.283   1.605   5.356
10787SOL    HW233261   2.364   1.682   5.474
10788SOL     OW33262   1.664   4.762   6.497
10788SOL    HW133263   1.681   4.706   6.578
10788SOL    HW233264   1.709   4.851   6.507
10789SOL     OW33265   6.631   2.630   6.391
10789SOL    HW133266   6.559   2.681   6.440
10789SOL    HW233267   6.607   2.623   6.294
10790SOL     OW33268   0.939   0.017   1.695
10790SOL    HW133269   0.857   0.022   1.752
10790SOL    HW233270   0.998   6.968   1.728
10791SOL     OW33271   6.620   6.428   1.466
10791SOL    HW133272   6.564   6.508   1.484
10791SOL    HW233273   6.600   6.394   1.374
10792SOL     OW33274   3.607   3.269   4.729
10792SOL    HW133275   3.575   3.187   4.682
10792SOL    HW233276   3.663   3.242   4.808
10793SOL     OW33277   5.757   3.150   5.349
10793SOL    HW133278   5.782   3.204   5.429
10793SOL    HW233279   5.782   3.200   5.266
10794SOL     OW33280   3.534   2.924   3.788
10794SOL    HW133281   3.611   2.962   3.840
10794SOL    HW233282   3.449   2.947   3.834
10795SOL     OW33283   6.867   5.004   2.494
10795SOL    HW133284   6.881   4.914   2.454
10795SOL    HW233285   6.955   5.051   2.502
10796SOL     OW33286   6.070   0.287   6.158
10796SOL    HW133287   6.138   0.345   6.115
10796SOL    HW233288   5.984   0.294   6.107
10797SOL     OW33289   2.936   2.240   1.434
10797SOL    HW133290   3.001   2.164   1.427
10797SOL    HW233291   2.957   2.294   1.516
10798SOL     OW33292   2.598   0.515   7.007
10798SOL    HW133293   2.515   0.570   7.019
10798SOL    HW233294   2.678   0.572   0.002
10799SOL     OW33295   3.710   0.768   1.813
10799SOL    HW133296   3.627   0.772   1.869
10799SOL    HW233297   3.780   0.827   1.853
10800SOL     OW33298   0.161   6.516   6.159
10800SOL    HW133299   0.114   6.466   6.086
10800SOL    HW233300   0.153   6.614   6.143
10801SOL     OW33301   1.362   6.631   6.492
10801SOL    HW133302   1.382   6.714   6.544
10801SOL    HW233303   1.353   6.653   6.395
10802SOL     OW33304   0.539   0.327   2.580
10802SOL    HW133305   0.474   0.393   2.543
10802SOL    HW233306   0.502   0.287   2.664
10803SOL     OW33307   2.415   5.392   6.294
10803SOL    HW133308   2.396   5.456   6.219
10803SOL    HW233309   2.374   5.428   6.379
10804SOL     OW33310   5.738   2.863   2.635
10804SOL    HW133311   5.776   2.772   2.654
10804SOL    HW233312   5.757   2.924   2.712
10805SOL     OW33313   4.794   6.542   5.955
10805SOL    HW133314   4.702   6.578   5.971
10805SOL    HW233315   4.840   6.528   6.042
10806SOL     OW33316   4.162   4.092   5.567
10806SOL    HW133317   4.242   4.077   5.624
10806SOL    HW233318   4.180   4.167   5.503
10807SOL     OW33319   1.589   0.007   2.925
10807SOL    HW133320   1.562   6.969   2.998
10807SOL    HW233321   1.535   0.091   2.932
10808SOL     OW33322   0.063   2.948   6.217
10808SOL    HW133323   0.095   3.039   6.245
10808SOL    HW233324   6.996   2.933   6.252
10809SOL     OW33325   2.473   4.559   3.271
10809SOL    HW133326   2.514   4.581   3.360
10809SOL    HW233327   2.463   4.460   3.262
10810SOL     OW33328   1.024   0.901   3.711
10810SOL    HW133329   1.004   0.979   3.652
10810SOL    HW233330   0.954   0.831   3.699
10811SOL     OW33331   3.959   4.780   5.874
10811SOL    HW133332   3.977   4.698   5.929
10811SOL    HW233333   3.917   4.753   5.787
10812SOL     OW33334   0.177   3.867   0.861
10812SOL    HW133335   0.206   3.943   0.919
10812SOL    HW233336   0.245   3.794   0.866
10813SOL     OW33337   1.217   3.341   5.924
10813SOL    HW133338   1.307   3.356   5.884
10813SOL    HW233339   1.209   3.245   5.953
10814SOL     OW33340   1.509   6.914   6.285
10814SOL    HW133341   1.524   6.848   6.212
10814SOL    HW233342   1.424   6.892   6.333
10815SOL     OW33343   5.424   3.393   3.350
10815SOL    HW133344   5.379   3.439   3.273
10815SOL    HW233345   5.365   3.399   3.431
10816SOL     OW33346   3.312   3.538   2.300
10816SOL    HW133347   3.298   3.469   2.370
10816SOL    HW233348   3.362   3.615   2.339
10817SOL     OW33349   3.921   0.714   3.583
10817SOL    HW133350   3.889   0.792   3.637
10817SOL    HW233351   4.014   0.690   3.611
10818SOL     OW33352   5.066   4.395   5.746
10818SOL    HW133353   4.977   4.369   5.784
10818SOL    HW233354   5.071   4.494   5.739
10819SOL     OW33355   6.523   5.093   6.015
10819SOL    HW133356   6.490   5.101   6.109
10819SOL    HW233357   6.492   5.172   5.962
10820SOL     OW33358   0.003   4.688   4.559
10820SOL    HW133359   0.032   4.639   4.641
10820SOL    HW233360   6.963   4.759   4.584
10821SOL     OW33361   4.846   7.009   3.554
10821SOL    HW133362   4.762   7.020   3.500
10821SOL    HW233363   4.851   0.057   3.621
10822SOL     OW33364   6.136   2.202   2.751
10822SOL    HW133365   6.181   2.187   2.839
10822SOL    HW233366   6.041   2.170   2.757
10823SOL     OW33367   0.877   0.931   2.212
10823SOL    HW133368   0.926   1.007   2.170
10823SOL    HW233369   0.928   0.896   2.290
10824SOL     OW33370   0.251   1.297   2.665
10824SOL    HW133371   0.156   1.327   2.654
10824SOL    HW233372   0.278   1.240   2.588
10825SOL     OW33373   2.157   1.822   6.747
10825SOL    HW133374   2.210   1.867   6.675
10825SOL    HW233375   2.165   1.723   6.737
10826SOL     OW33376   0.829   1.963   3.149
10826SOL    HW133377   0.784   1.962   3.060
10826SOL    HW233378   0.813   1.875   3.195
10827SOL     OW33379   0.310   3.390   5.119
10827SOL    HW133380   0.370   3.383   5.039
10827SOL    HW233381   0.241   3.461   5.103
10828SOL     OW33382   1.357   4.273   0.556
10828SOL    HW133383   1.447   4.291   0.514
10828SOL    HW233384   1.326   4.183   0.528
10829SOL     OW33385   4.646   2.853   0.556
10829SOL    HW133386   4.663   2.829   0.651
10829SOL    HW233387   4.551   2.830   0.533
10830SOL     OW33388   4.593   1.601   3.148
10830SOL    HW133389   4.553   1.553   3.071
10830SOL    HW233390   4.689   1.620   3.130
10831SOL     OW33391   2.967   6.420   2.810
10831SOL    HW133392   2.934   6.353   2.744
10831SOL    HW233393   2.925   6.509   2.792
10832SOL     OW33394   0.070   3.819   5.990
10832SOL    HW133395   0.095   3.730   6.028
10832SOL    HW233396   0.116   3.832   5.902
10833SOL     OW33397   0.457   0.886   1.889
10833SOL    HW133398   0.487   0.837   1.808
10833SOL    HW233399   0.524   0.875   1.962
10834SOL     OW33400   6.379   1.572   0.704
10834SOL    HW133401   6.373   1.573   0.804
10834SOL    HW233402   6.465   1.530   0.676
10835SOL     OW33403   6.105   2.464   6.891
10835SOL    HW133404   6.131   2.394   6.958
10835SOL    HW233405   6.175   2.470   6.820
10836SOL     OW33406   6.919   1.894   4.356
10836SOL    HW133407   6.947   1.833   4.431
10836SOL    HW233408   6.939   1.850   4.269
10837SOL     OW33409   6.984   4.806   1.292
10837SOL    HW133410   6.997   4.898   1.329
10837SOL    HW233411   6.898   4.802   1.241
10838SOL     OW33412   0.158   6.016   3.662
10838SOL    HW133413   0.115   5.959   3.732
10838SOL    HW233414   0.175   5.961   3.580
10839SOL     OW33415   4.346   3.309   0.947
10839SOL    HW133416   4.372   3.344   0.857
10839SOL    HW233417   4.411   3.343   1.015
10840SOL     OW33418   3.074   6.201   2.289
10840SOL    HW133419   3.072   6.295   2.254
10840SOL    HW233420   2.989   6.183   2.339
10841SOL     OW33421   6.963   4.361   5.394
10841SOL    HW133422   0.006   4.338   5.463
10841SOL    HW233423   6.975   4.301   5.315
10842SOL     OW33424   4.688   2.290   1.227
10842SOL    HW133425   4.639   2.225   1.169
10842SOL    HW233426   4.707   2.247   1.315
10843SOL     OW33427   1.416   1.325   1.215
10843SOL    HW133428   1.432   1.228   1.234
10843SOL    HW233429   1.459   1.349   1.128
10844SOL     OW33430   0.547   5.260   3.360
10844SOL    HW133431   0.643   5.255   3.387
10844SOL    HW233432   0.530   5.346   3.311
10845SOL     OW33433   3.813   6.153   5.353
10845SOL    HW133434   3.834   6.238   5.401
10845SOL    HW233435   3.771   6.088   5.417
10846SOL     OW33436   5.196   0.814   6.796
10846SOL    HW133437   5.225   0.773   6.882
10846SOL    HW233438   5.258   0.787   6.723
10847SOL     OW33439   3.328   2.593   0.333
10847SOL    HW133440   3.360   2.687   0.322
10847SOL    HW233441   3.402   2.530   0.311
10848SOL     OW33442   2.002   4.374   0.637
10848SOL    HW133443   1.934   4.303   0.655
10848SOL    HW233444   2.077   4.336   0.583
10849SOL     OW33445   2.492   4.469   4.258
10849SOL    HW133446   2.446   4.401   4.314
10849SOL    HW233447   2.498   4.436   4.163
10850SOL     OW33448   3.504   6.159   6.047
10850SOL    HW133449   3.551   6.197   6.126
10850SOL    HW233450   3.552   6.077   6.015
10851SOL     OW33451   2.939   3.804   0.441
10851SOL    HW133452   2.962   3.720   0.490
10851SOL    HW233453   2.857   3.845   0.482
10852SOL     OW33454   1.829   0.540   6.643
10852SOL    HW133455   1.745   0.492   6.669
10852SOL    HW233456   1.906   0.476   6.649
10853SOL     OW33457   1.788   3.113   5.766
10853SOL    HW133458   1.856   3.115   5.693
10853SOL    HW233459   1.763   3.206   5.792
10854SOL     OW33460   4.147   4.968   5.901
10854SOL    HW133461   4.077   4.898   5.894
10854SOL    HW233462   4.120   5.035   5.970
10855SOL     OW33463   4.106   0.713   0.554
10855SOL    HW133464   4.152   0.655   0.487
10855SOL    HW233465   4.174   0.750   0.618
10856SOL     OW33466   5.218   1.124   1.314
10856SOL    HW133467   5.122   1.137   1.287
10856SOL    HW233468   5.223   1.059   1.389
10857SOL     OW33469   1.005   2.174   2.803
10857SOL    HW133470   0.910   2.202   2.784
10857SOL    HW233471   1.034   2.107   2.735
10858SOL     OW33472   1.357   1.319   0.192
10858SOL    HW133473   1.400   1.381   0.257
10858SOL    HW233474   1.378   1.350   0.099
10859SOL     OW33475   0.895   4.742   4.493
10859SOL    HW133476   0.980   4.691   4.480
10859SOL    HW233477   0.915   4.827   4.541
10860SOL     OW33478   0.249   3.157   5.246
10860SOL    HW133479   0.326   3.097   5.229
10860SOL    HW233480   0.265   3.246   5.202
10861SOL     OW33481   3.619   4.096   3.302
10861SOL    HW133482   3.531   4.128   3.267
10861SOL    HW233483   3.624   4.112   3.401
10862SOL     OW33484   2.158   1.032   6.149
10862SOL    HW133485   2.089   0.987   6.205
10862SOL    HW233486   2.113   1.077   6.071
10863SOL     OW33487   2.400   0.540   3.851
10863SOL    HW133488   2.399   0.526   3.950
10863SOL    HW233489   2.316   0.587   3.823
10864SOL     OW33490   2.362   6.313   0.214
10864SOL    HW133491   2.293   6.366   0.165
10864SOL    HW233492   2.427   6.375   0.258
10865SOL     OW33493   6.877   1.326   0.988
10865SOL    HW133494   6.892   1.227   0.990
10865SOL    HW233495   6.853   1.358   1.079
10866SOL     OW33496   5.340   4.471   0.223
10866SOL    HW133497   5.382   4.398   0.167
10866SOL    HW233498   5.247   4.488   0.191
10867SOL     OW33499   3.222   4.130   0.344
10867SOL    HW133500   3.167   4.150   0.264
10867SOL    HW233501   3.246   4.215   0.391
10868SOL     OW33502   4.943   1.153   3.972
10868SOL    HW133503   5.007   1.171   4.046
10868SOL    HW233504   4.874   1.086   4.003
10869NA      NA33505   6.173   2.849   5.420
10870NA      NA33506   4.441   4.418   5.298
10871NA      NA33507   1.707   3.091   1.917
10872NA      NA33508   5.001   3.729   5.087
10873NA      NA33509   4.171   2.315   5.331
10874NA      NA33510   3.693   4.890   1.804
10875NA      NA33511   6.857   4.836   0.041
10876NA      NA33512   3.705   3.565   4.540
10877NA      NA33513   4.712   6.037   0.131
10878NA      NA33514   4.001   6.554   5.083
10879NA      NA33515   6.010   5.046   2.143
10880NA      NA33516   2.104   0.102   3.743
10881NA      NA33517   3.935   5.400   2.640
10882NA      NA33518   3.634   3.944   2.065
   7.02517   7.02517   7.02517
