Generated by trjconv : CNT in water t= 330.00000
33518
    1C        C    1   2.846   2.772   4.746
    1C        C    2   2.901   2.722   4.867
    1C        C    3   2.842   2.770   4.984
    1C        C    4   2.849   2.776   4.260
    1C        C    5   2.903   2.729   4.382
    1C        C    6   2.848   2.774   4.504
    1C        C    7   3.016   2.644   4.627
    1C        C    8   2.898   2.721   4.625
    1C        C    9   3.081   2.609   4.747
    1C        C   10   3.009   2.631   4.866
    1C        C   11   3.181   2.489   4.976
    1C        C   12   3.061   2.561   4.976
    1C        C   13   2.853   2.777   3.769
    1C        C   14   2.906   2.730   3.892
    1C        C   15   2.854   2.776   4.015
    1C        C   16   3.017   2.645   4.137
    1C        C   17   2.903   2.728   4.139
    1C        C   18   3.083   2.622   4.259
    1C        C   19   3.022   2.653   4.383
    1C        C   20   3.206   2.552   4.501
    1C        C   21   3.076   2.606   4.505
    1C        C   22   3.278   2.531   4.622
    1C        C   23   3.212   2.552   4.745
    1C        C   24   3.413   2.488   4.867
    1C        C   25   3.271   2.507   4.866
    1C        C   26   3.492   2.481   4.982
    1C        C   27   2.853   2.771   3.280
    1C        C   28   2.902   2.721   3.403
    1C        C   29   2.852   2.771   3.526
    1C        C   30   3.019   2.641   3.649
    1C        C   31   2.909   2.730   3.648
    1C        C   32   3.078   2.605   3.772
    1C        C   33   3.017   2.642   3.894
    1C        C   34   3.211   2.555   4.017
    1C        C   35   3.079   2.606   4.016
    1C        C   36   3.280   2.537   4.138
    1C        C   37   3.210   2.560   4.259
    1C        C   38   3.417   2.513   4.381
    1C        C   39   3.278   2.538   4.380
    1C        C   40   3.487   2.503   4.503
    1C        C   41   3.417   2.509   4.626
    1C        C   42   3.630   2.483   4.744
    1C        C   43   3.488   2.489   4.746
    1C        C   44   3.708   2.483   4.862
    1C        C   45   3.631   2.468   4.978
    1C        C   46   2.839   2.755   2.794
    1C        C   47   2.896   2.712   2.915
    1C        C   48   2.846   2.765   3.036
    1C        C   49   3.020   2.642   3.161
    1C        C   50   2.903   2.721   3.157
    1C        C   51   3.080   2.609   3.285
    1C        C   52   3.021   2.645   3.407
    1C        C   53   3.214   2.551   3.529
    1C        C   54   3.084   2.608   3.528
    1C        C   55   3.279   2.522   3.651
    1C        C   56   3.209   2.552   3.770
    1C        C   57   3.415   2.509   3.893
    1C        C   58   3.276   2.534   3.893
    1C        C   59   3.488   2.501   4.014
    1C        C   60   3.418   2.508   4.137
    1C        C   61   3.630   2.495   4.260
    1C        C   62   3.488   2.499   4.259
    1C        C   63   3.700   2.503   4.382
    1C        C   64   3.628   2.497   4.503
    1C        C   65   3.837   2.541   4.622
    1C        C   66   3.702   2.499   4.624
    1C        C   67   3.903   2.569   4.743
    1C        C   68   3.841   2.529   4.864
    1C        C   69   4.052   2.588   4.980
    1C        C   70   3.926   2.526   4.975
    1C        C   71   2.827   2.736   2.308
    1C        C   72   2.890   2.699   2.429
    1C        C   73   2.838   2.751   2.550
    1C        C   74   3.010   2.629   2.673
    1C        C   75   2.890   2.704   2.672
    1C        C   76   3.075   2.597   2.794
    1C        C   77   3.012   2.630   2.916
    1C        C   78   3.207   2.547   3.038
    1C        C   79   3.078   2.604   3.038
    1C        C   80   3.275   2.528   3.161
    1C        C   81   3.209   2.551   3.284
    1C        C   82   3.416   2.499   3.403
    1C        C   83   3.277   2.526   3.405
    1C        C   84   3.486   2.490   3.526
    1C        C   85   3.418   2.496   3.649
    1C        C   86   3.629   2.492   3.770
    1C        C   87   3.488   2.500   3.772
    1C        C   88   3.699   2.507   3.892
    1C        C   89   3.629   2.504   4.014
    1C        C   90   3.833   2.544   4.137
    1C        C   91   3.699   2.500   4.137
    1C        C   92   3.901   2.574   4.257
    1C        C   93   3.836   2.543   4.379
    1C        C   94   4.028   2.634   4.500
    1C        C   95   3.905   2.564   4.500
    1C        C   96   4.089   2.674   4.621
    1C        C   97   4.029   2.635   4.742
    1C        C   98   4.194   2.764   4.864
    1C        C   99   4.100   2.657   4.863
    1C        C  100   4.216   2.840   4.980
    1C        C  101   2.823   2.732   2.072
    1C        C  102   2.990   2.588   2.192
    1C        C  103   2.879   2.678   2.189
    1C        C  104   3.065   2.571   2.312
    1C        C  105   3.009   2.622   2.431
    1C        C  106   3.206   2.541   2.549
    1C        C  107   3.075   2.594   2.552
    1C        C  108   3.274   2.524   2.672
    1C        C  109   3.207   2.547   2.794
    1C        C  110   3.412   2.496   2.913
    1C        C  111   3.273   2.521   2.916
    1C        C  112   3.484   2.495   3.035
    1C        C  113   3.413   2.500   3.157
    1C        C  114   3.624   2.503   3.279
    1C        C  115   3.483   2.490   3.279
    1C        C  116   3.694   2.510   3.402
    1C        C  117   3.627   2.493   3.525
    1C        C  118   3.834   2.541   3.645
    1C        C  119   3.699   2.500   3.647
    1C        C  120   3.899   2.566   3.768
    1C        C  121   3.836   2.543   3.893
    1C        C  122   4.025   2.637   4.012
    1C        C  123   3.900   2.569   4.016
    1C        C  124   4.086   2.674   4.134
    1C        C  125   4.029   2.635   4.257
    1C        C  126   4.193   2.769   4.377
    1C        C  127   4.089   2.674   4.379
    1C        C  128   4.241   2.822   4.499
    1C        C  129   4.197   2.765   4.621
    1C        C  130   4.326   2.935   4.740
    1C        C  131   4.244   2.819   4.742
    1C        C  132   4.354   3.003   4.861
    1C        C  133   4.286   2.959   4.976
    1C        C  134   3.174   2.467   2.085
    1C        C  135   3.040   2.508   2.085
    1C        C  136   3.264   2.476   2.193
    1C        C  137   3.197   2.517   2.310
    1C        C  138   3.410   2.482   2.427
    1C        C  139   3.271   2.503   2.430
    1C        C  140   3.484   2.477   2.548
    1C        C  141   3.411   2.490   2.668
    1C        C  142   3.622   2.490   2.792
    1C        C  143   3.481   2.484   2.791
    1C        C  144   3.696   2.499   2.912
    1C        C  145   3.625   2.490   3.034
    1C        C  146   3.831   2.539   3.157
    1C        C  147   3.694   2.503   3.156
    1C        C  148   3.901   2.558   3.278
    1C        C  149   3.832   2.538   3.400
    1C        C  150   4.025   2.628   3.522
    1C        C  151   3.899   2.564   3.522
    1C        C  152   4.087   2.663   3.644
    1C        C  153   4.026   2.628   3.767
    1C        C  154   4.192   2.761   3.887
    1C        C  155   4.085   2.668   3.888
    1C        C  156   4.246   2.809   4.008
    1C        C  157   4.197   2.761   4.132
    1C        C  158   4.334   2.924   4.253
    1C        C  159   4.243   2.815   4.254
    1C        C  160   4.372   2.985   4.375
    1C        C  161   4.333   2.929   4.498
    1C        C  162   4.438   3.116   4.616
    1C        C  163   4.372   2.991   4.619
    1C        C  164   4.464   3.185   4.736
    1C        C  165   4.422   3.126   4.858
    1C        C  166   4.514   3.321   4.973
    1C        C  167   4.473   3.188   4.972
    1C        C  168   3.480   2.433   2.073
    1C        C  169   3.403   2.451   2.188
    1C        C  170   3.622   2.468   2.306
    1C        C  171   3.480   2.463   2.306
    1C        C  172   3.697   2.483   2.425
    1C        C  173   3.626   2.480   2.547
    1C        C  174   3.829   2.535   2.667
    1C        C  175   3.694   2.493   2.670
    1C        C  176   3.895   2.562   2.789
    1C        C  177   3.832   2.536   2.913
    1C        C  178   4.025   2.624   3.033
    1C        C  179   3.899   2.561   3.035
    1C        C  180   4.087   2.662   3.155
    1C        C  181   4.028   2.620   3.276
    1C        C  182   4.193   2.752   3.398
    1C        C  183   4.084   2.663   3.399
    1C        C  184   4.240   2.808   3.519
    1C        C  185   4.192   2.757   3.643
    1C        C  186   4.334   2.917   3.762
    1C        C  187   4.242   2.810   3.764
    1C        C  188   4.375   2.974   3.885
    1C        C  189   4.339   2.915   4.009
    1C        C  190   4.438   3.105   4.127
    1C        C  191   4.375   2.979   4.130
    1C        C  192   4.465   3.173   4.248
    1C        C  193   4.432   3.113   4.372
    1C        C  194   4.510   3.313   4.491
    1C        C  195   4.465   3.179   4.492
    1C        C  196   4.526   3.387   4.610
    1C        C  197   4.514   3.318   4.733
    1C        C  198   4.556   3.533   4.851
    1C        C  199   4.532   3.392   4.853
    1C        C  200   4.582   3.617   4.964
    1C        C  201   3.619   2.416   2.074
    1C        C  202   3.828   2.517   2.178
    1C        C  203   3.696   2.463   2.185
    1C        C  204   3.901   2.540   2.299
    1C        C  205   3.833   2.520   2.421
    1C        C  206   4.021   2.617   2.542
    1C        C  207   3.895   2.552   2.544
    1C        C  208   4.083   2.658   2.662
    1C        C  209   4.020   2.627   2.785
    1C        C  210   4.192   2.749   2.907
    1C        C  211   4.080   2.663   2.908
    1C        C  212   4.245   2.798   3.028
    1C        C  213   4.197   2.750   3.153
    1C        C  214   4.334   2.910   3.272
    1C        C  215   4.245   2.800   3.276
    1C        C  216   4.371   2.971   3.393
    1C        C  217   4.333   2.914   3.517
    1C        C  218   4.430   3.103   3.640
    1C        C  219   4.372   2.974   3.639
    1C        C  220   4.458   3.170   3.761
    1C        C  221   4.434   3.102   3.883
    1C        C  222   4.504   3.304   4.004
    1C        C  223   4.465   3.168   4.004
    1C        C  224   4.515   3.376   4.125
    1C        C  225   4.508   3.308   4.249
    1C        C  226   4.529   3.523   4.364
    1C        C  227   4.524   3.382   4.368
    1C        C  228   4.528   3.598   4.483
    1C        C  229   4.537   3.528   4.605
    1C        C  230   4.507   3.738   4.726
    1C        C  231   4.542   3.600   4.726
    1C        C  232   4.499   3.818   4.842
    1C        C  233   4.546   3.752   4.957
    1C        C  234   4.018   2.616   2.057
    1C        C  235   3.901   2.540   2.061
    1C        C  236   4.082   2.652   2.177
    1C        C  237   4.025   2.609   2.299
    1C        C  238   4.199   2.734   2.420
    1C        C  239   4.086   2.647   2.421
    1C        C  240   4.253   2.783   2.540
    1C        C  241   4.195   2.744   2.663
    1C        C  242   4.335   2.905   2.783
    1C        C  243   4.245   2.795   2.785
    1C        C  244   4.378   2.963   2.904
    1C        C  245   4.335   2.906   3.026
    1C        C  246   4.439   3.090   3.147
    1C        C  247   4.376   2.964   3.148
    1C        C  248   4.455   3.161   3.268
    1C        C  249   4.428   3.101   3.393
    1C        C  250   4.495   3.301   3.513
    1C        C  251   4.454   3.166   3.516
    1C        C  252   4.510   3.371   3.635
    1C        C  253   4.503   3.304   3.759
    1C        C  254   4.522   3.514   3.878
    1C        C  255   4.519   3.373   3.881
    1C        C  256   4.518   3.588   3.998
    1C        C  257   4.515   3.517   4.120
    1C        C  258   4.490   3.730   4.243
    1C        C  259   4.514   3.591   4.241
    1C        C  260   4.479   3.803   4.363
    1C        C  261   4.499   3.736   4.487
    1C        C  262   4.436   3.942   4.602
    1C        C  263   4.481   3.809   4.607
    1C        C  264   4.401   4.010   4.721
    1C        C  265   4.435   3.944   4.841
    1C        C  266   4.326   4.130   4.960
    1C        C  267   4.393   4.009   4.958
    1C        C  268   4.264   2.777   2.062
    1C        C  269   4.196   2.735   2.177
    1C        C  270   4.352   2.883   2.299
    1C        C  271   4.255   2.778   2.298
    1C        C  272   4.384   2.952   2.418
    1C        C  273   4.340   2.894   2.539
    1C        C  274   4.443   3.084   2.659
    1C        C  275   4.373   2.961   2.659
    1C        C  276   4.475   3.151   2.780
    1C        C  277   4.446   3.087   2.902
    1C        C  278   4.496   3.293   3.024
    1C        C  279   4.465   3.155   3.024
    1C        C  280   4.504   3.365   3.146
    1C        C  281   4.493   3.297   3.269
    1C        C  282   4.520   3.509   3.388
    1C        C  283   4.514   3.368   3.390
    1C        C  284   4.519   3.579   3.510
    1C        C  285   4.519   3.512   3.634
    1C        C  286   4.487   3.723   3.752
    1C        C  287   4.513   3.584   3.756
    1C        C  288   4.475   3.792   3.875
    1C        C  289   4.491   3.727   4.000
    1C        C  290   4.424   3.931   4.116
    1C        C  291   4.473   3.798   4.120
    1C        C  292   4.393   3.998   4.237
    1C        C  293   4.424   3.933   4.358
    1C        C  294   4.323   4.121   4.480
    1C        C  295   4.398   4.002   4.479
    1C        C  296   4.280   4.183   4.600
    1C        C  297   4.323   4.129   4.723
    1C        C  298   4.197   4.309   4.840
    1C        C  299   4.283   4.194   4.843
    1C        C  300   4.168   4.402   4.945
    1C        C  301   4.354   2.883   2.065
    1C        C  302   4.470   3.071   2.176
    1C        C  303   4.402   2.945   2.181
    1C        C  304   4.480   3.146   2.297
    1C        C  305   4.450   3.077   2.417
    1C        C  306   4.508   3.284   2.536
    1C        C  307   4.477   3.146   2.537
    1C        C  308   4.512   3.357   2.657
    1C        C  309   4.503   3.289   2.780
    1C        C  310   4.523   3.501   2.897
    1C        C  311   4.517   3.360   2.902
    1C        C  312   4.517   3.573   3.018
    1C        C  313   4.512   3.506   3.143
    1C        C  314   4.488   3.718   3.262
    1C        C  315   4.509   3.578   3.265
    1C        C  316   4.476   3.784   3.386
    1C        C  317   4.492   3.718   3.510
    1C        C  318   4.431   3.926   3.625
    1C        C  319   4.476   3.792   3.629
    1C        C  320   4.395   3.987   3.747
    1C        C  321   4.427   3.925   3.870
    1C        C  322   4.318   4.109   3.990
    1C        C  323   4.394   3.990   3.991
    1C        C  324   4.273   4.168   4.110
    1C        C  325   4.316   4.116   4.235
    1C        C  326   4.184   4.280   4.354
    1C        C  327   4.280   4.176   4.357
    1C        C  328   4.129   4.329   4.474
    1C        C  329   4.189   4.291   4.596
    1C        C  330   4.023   4.430   4.718
    1C        C  331   4.139   4.348   4.716
    1C        C  332   3.968   4.491   4.833
    1C        C  333   4.052   4.479   4.945
    1C        C  334   4.557   3.268   2.062
    1C        C  335   4.536   3.130   2.064
    1C        C  336   4.547   3.353   2.173
    1C        C  337   4.519   3.282   2.292
    1C        C  338   4.528   3.495   2.410
    1C        C  339   4.523   3.354   2.414
    1C        C  340   4.523   3.568   2.531
    1C        C  341   4.520   3.498   2.654
    1C        C  342   4.494   3.711   2.771
    1C        C  343   4.516   3.571   2.775
    1C        C  344   4.480   3.780   2.893
    1C        C  345   4.494   3.712   3.016
    1C        C  346   4.426   3.915   3.137
    1C        C  347   4.472   3.782   3.137
    1C        C  348   4.398   3.981   3.259
    1C        C  349   4.427   3.916   3.381
    1C        C  350   4.321   4.103   3.503
    1C        C  351   4.398   3.985   3.501
    1C        C  352   4.277   4.164   3.623
    1C        C  353   4.316   4.104   3.745
    1C        C  354   4.174   4.262   3.867
    1C        C  355   4.273   4.161   3.867
    1C        C  356   4.119   4.311   3.987
    1C        C  357   4.174   4.268   4.111
    1C        C  358   4.010   4.403   4.230
    1C        C  359   4.125   4.321   4.232
    1C        C  360   3.952   4.445   4.352
    1C        C  361   4.014   4.411   4.474
    1C        C  362   3.829   4.515   4.593
    1C        C  363   3.957   4.455   4.595
    1C        C  364   3.762   4.550   4.712
    1C        C  365   3.836   4.540   4.832
    1C        C  366   3.628   4.588   4.947
    1C        C  367   3.765   4.568   4.949
    1C        C  368   4.519   3.566   2.049
    1C        C  369   4.533   3.493   2.167
    1C        C  370   4.503   3.706   2.286
    1C        C  371   4.516   3.565   2.288
    1C        C  372   4.487   3.777   2.407
    1C        C  373   4.505   3.708   2.528
    1C        C  374   4.427   3.908   2.649
    1C        C  375   4.486   3.780   2.648
    1C        C  376   4.399   3.975   2.770
    1C        C  377   4.435   3.914   2.892
    1C        C  378   4.320   4.094   3.011
    1C        C  379   4.401   3.978   3.013
    1C        C  380   4.267   4.142   3.133
    1C        C  381   4.314   4.095   3.258
    1C        C  382   4.171   4.251   3.379
    1C        C  383   4.273   4.153   3.380
    1C        C  384   4.116   4.298   3.500
    1C        C  385   4.176   4.262   3.623
    1C        C  386   4.004   4.388   3.742
    1C        C  387   4.122   4.310   3.744
    1C        C  388   3.941   4.424   3.863
    1C        C  389   4.001   4.389   3.986
    1C        C  390   3.814   4.485   4.108
    1C        C  391   3.944   4.430   4.108
    1C        C  392   3.750   4.516   4.230
    1C        C  393   3.824   4.505   4.350
    1C        C  394   3.619   4.555   4.474
    1C        C  395   3.758   4.532   4.472
    1C        C  396   3.545   4.561   4.594
    1C        C  397   3.621   4.564   4.713
    1C        C  398   3.409   4.551   4.839
    1C        C  399   3.548   4.578   4.833
    1C        C  400   3.341   4.517   4.956
    1C        C  401   4.504   3.705   2.049
    1C        C  402   4.459   3.917   2.165
    1C        C  403   4.494   3.781   2.166
    1C        C  404   4.416   3.978   2.285
    1C        C  405   4.437   3.909   2.406
    1C        C  406   4.326   4.093   2.526
    1C        C  407   4.404   3.975   2.527
    1C        C  408   4.275   4.146   2.647
    1C        C  409   4.318   4.091   2.769
    1C        C  410   4.171   4.248   2.887
    1C        C  411   4.272   4.148   2.890
    1C        C  412   4.119   4.292   3.011
    1C        C  413   4.169   4.244   3.134
    1C        C  414   4.000   4.374   3.253
    1C        C  415   4.115   4.292   3.256
    1C        C  416   3.938   4.410   3.375
    1C        C  417   3.998   4.376   3.498
    1C        C  418   3.810   4.475   3.619
    1C        C  419   3.939   4.417   3.619
    1C        C  420   3.745   4.500   3.742
    1C        C  421   3.812   4.483   3.864
    1C        C  422   3.608   4.533   3.985
    1C        C  423   3.747   4.511   3.986
    1C        C  424   3.540   4.539   4.109
    1C        C  425   3.611   4.542   4.231
    1C        C  426   3.402   4.548   4.356
    1C        C  427   3.543   4.552   4.354
    1C        C  428   3.330   4.548   4.478
    1C        C  429   3.404   4.556   4.598
    1C        C  430   3.193   4.527   4.723
    1C        C  431   3.333   4.548   4.720
    1C        C  432   3.125   4.498   4.844
    1C        C  433   3.205   4.489   4.959
    1C        C  434   4.390   4.128   2.049
    1C        C  435   4.447   4.000   2.053
    1C        C  436   4.308   4.164   2.161
    1C        C  437   4.339   4.098   2.283
    1C        C  438   4.182   4.246   2.400
    1C        C  439   4.285   4.150   2.403
    1C        C  440   4.123   4.291   2.520
    1C        C  441   4.176   4.247   2.644
    1C        C  442   4.001   4.372   2.765
    1C        C  443   4.118   4.292   2.764
    1C        C  444   3.941   4.409   2.888
    1C        C  445   4.002   4.371   3.009
    1C        C  446   3.810   4.466   3.132
    1C        C  447   3.939   4.408   3.130
    1C        C  448   3.743   4.498   3.253
    1C        C  449   3.812   4.474   3.374
    1C        C  450   3.607   4.530   3.496
    1C        C  451   3.744   4.495   3.496
    1C        C  452   3.540   4.547   3.619
    1C        C  453   3.610   4.541   3.742
    1C        C  454   3.397   4.547   3.863
    1C        C  455   3.538   4.553   3.863
    1C        C  456   3.329   4.542   3.987
    1C        C  457   3.399   4.541   4.110
    1C        C  458   3.194   4.508   4.234
    1C        C  459   3.332   4.538   4.234
    1C        C  460   3.128   4.488   4.358
    1C        C  461   3.192   4.518   4.480
    1C        C  462   2.998   4.435   4.601
    1C        C  463   3.125   4.496   4.603
    1C        C  464   2.933   4.402   4.722
    1C        C  465   2.992   4.445   4.844
    1C        C  466   2.802   4.336   4.956
    1C        C  467   2.909   4.426   4.959
    1C        C  468   4.124   4.282   2.040
    1C        C  469   4.192   4.248   2.158
    1C        C  470   4.013   4.372   2.279
    1C        C  471   4.134   4.298   2.278
    1C        C  472   3.942   4.400   2.398
    1C        C  473   4.005   4.368   2.520
    1C        C  474   3.813   4.460   2.644
    1C        C  475   3.944   4.407   2.641
    1C        C  476   3.743   4.488   2.764
    1C        C  477   3.812   4.467   2.885
    1C        C  478   3.607   4.515   3.010
    1C        C  479   3.745   4.483   3.008
    1C        C  480   3.532   4.525   3.129
    1C        C  481   3.603   4.516   3.251
    1C        C  482   3.394   4.531   3.376
    1C        C  483   3.536   4.531   3.374
    1C        C  484   3.324   4.533   3.499
    1C        C  485   3.399   4.546   3.618
    1C        C  486   3.190   4.506   3.744
    1C        C  487   3.328   4.536   3.740
    1C        C  488   3.129   4.477   3.868
    1C        C  489   3.193   4.506   3.991
    1C        C  490   3.002   4.415   4.115
    1C        C  491   3.125   4.485   4.113
    1C        C  492   2.943   4.383   4.239
    1C        C  493   3.001   4.425   4.360
    1C        C  494   2.832   4.297   4.482
    1C        C  495   2.937   4.392   4.481
    1C        C  496   2.775   4.254   4.604
    1C        C  497   2.820   4.315   4.724
    1C        C  498   2.671   4.158   4.844
    1C        C  499   2.756   4.270   4.841
    1C        C  500   2.597   4.115   4.955
    1C        C  501   4.000   4.346   2.044
    1C        C  502   3.817   4.464   2.157
    1C        C  503   3.944   4.402   2.159
    1C        C  504   3.743   4.476   2.277
    1C        C  505   3.808   4.444   2.398
    1C        C  506   3.608   4.507   2.520
    1C        C  507   3.746   4.477   2.520
    1C        C  508   3.535   4.522   2.640
    1C        C  509   3.604   4.514   2.763
    1C        C  510   3.396   4.529   2.887
    1C        C  511   3.537   4.520   2.887
    1C        C  512   3.321   4.532   3.007
    1C        C  513   3.391   4.533   3.129
    1C        C  514   3.186   4.499   3.255
    1C        C  515   3.324   4.532   3.254
    1C        C  516   3.123   4.469   3.378
    1C        C  517   3.187   4.498   3.500
    1C        C  518   2.998   4.411   3.623
    1C        C  519   3.121   4.480   3.623
    1C        C  520   2.942   4.374   3.748
    1C        C  521   3.004   4.412   3.869
    1C        C  522   2.835   4.286   3.994
    1C        C  523   2.945   4.374   3.992
    1C        C  524   2.789   4.236   4.118
    1C        C  525   2.833   4.294   4.240
    1C        C  526   2.701   4.129   4.364
    1C        C  527   2.780   4.246   4.362
    1C        C  528   2.656   4.073   4.486
    1C        C  529   2.689   4.142   4.605
    1C        C  530   2.581   3.958   4.731
    1C        C  531   2.642   4.086   4.726
    1C        C  532   2.540   3.898   4.853
    1C        C  533   2.523   3.996   4.956
    1C        C  534   3.621   4.561   2.042
    1C        C  535   3.752   4.510   2.042
    1C        C  536   3.536   4.541   2.156
    1C        C  537   3.605   4.510   2.276
    1C        C  538   3.394   4.511   2.399
    1C        C  539   3.535   4.511   2.398
    1C        C  540   3.322   4.514   2.521
    1C        C  541   3.394   4.519   2.642
    1C        C  542   3.188   4.484   2.766
    1C        C  543   3.326   4.513   2.765
    1C        C  544   3.116   4.470   2.888
    1C        C  545   3.183   4.500   3.008
    1C        C  546   2.997   4.408   3.134
    1C        C  547   3.120   4.478   3.132
    1C        C  548   2.941   4.367   3.257
    1C        C  549   2.996   4.406   3.381
    1C        C  550   2.829   4.277   3.506
    1C        C  551   2.935   4.370   3.503
    1C        C  552   2.780   4.232   3.631
    1C        C  553   2.833   4.284   3.750
    1C        C  554   2.700   4.121   3.875
    1C        C  555   2.784   4.234   3.873
    1C        C  556   2.664   4.063   3.999
    1C        C  557   2.706   4.122   4.120
    1C        C  558   2.602   3.938   4.243
    1C        C  559   2.670   4.063   4.243
    1C        C  560   2.567   3.880   4.367
    1C        C  561   2.592   3.948   4.488
    1C        C  562   2.533   3.747   4.614
    1C        C  563   2.564   3.884   4.611
    1C        C  564   2.519   3.679   4.738
    1C        C  565   2.517   3.757   4.857
    1C        C  566   2.528   3.543   4.975
    1C        C  567   2.515   3.681   4.975
    1C        C  568   3.328   4.478   2.040
    1C        C  569   3.396   4.516   2.156
    1C        C  570   3.184   4.477   2.280
    1C        C  571   3.322   4.507   2.278
    1C        C  572   3.115   4.462   2.403
    1C        C  573   3.184   4.484   2.524
    1C        C  574   2.989   4.402   2.648
    1C        C  575   3.116   4.465   2.646
    1C        C  576   2.932   4.361   2.771
    1C        C  577   2.992   4.403   2.892
    1C        C  578   2.828   4.273   3.016
    1C        C  579   2.933   4.367   3.015
    1C        C  580   2.781   4.221   3.139
    1C        C  581   2.836   4.273   3.258
    1C        C  582   2.696   4.116   3.384
    1C        C  583   2.785   4.226   3.382
    1C        C  584   2.661   4.056   3.507
    1C        C  585   2.698   4.116   3.629
    1C        C  586   2.605   3.930   3.753
    1C        C  587   2.665   4.058   3.754
    1C        C  588   2.578   3.869   3.878
    1C        C  589   2.605   3.935   4.000
    1C        C  590   2.539   3.734   4.126
    1C        C  591   2.579   3.869   4.122
    1C        C  592   2.521   3.669   4.250
    1C        C  593   2.531   3.743   4.370
    1C        C  594   2.512   3.534   4.494
    1C        C  595   2.520   3.675   4.493
    1C        C  596   2.520   3.463   4.616
    1C        C  597   2.516   3.537   4.736
    1C        C  598   2.533   3.326   4.861
    1C        C  599   2.526   3.466   4.857
    1C        C  600   2.533   3.248   4.977
    1C        C  601   3.196   4.436   2.041
    1C        C  602   2.985   4.394   2.162
    1C        C  603   3.121   4.440   2.158
    1C        C  604   2.923   4.363   2.285
    1C        C  605   2.990   4.396   2.405
    1C        C  606   2.824   4.267   2.529
    1C        C  607   2.932   4.357   2.527
    1C        C  608   2.771   4.220   2.652
    1C        C  609   2.824   4.271   2.773
    1C        C  610   2.686   4.113   2.897
    1C        C  611   2.772   4.225   2.896
    1C        C  612   2.645   4.055   3.019
    1C        C  613   2.691   4.111   3.140
    1C        C  614   2.591   3.928   3.265
    1C        C  615   2.653   4.054   3.264
    1C        C  616   2.568   3.865   3.389
    1C        C  617   2.594   3.932   3.511
    1C        C  618   2.527   3.730   3.640
    1C        C  619   2.569   3.865   3.633
    1C        C  620   2.517   3.661   3.763
    1C        C  621   2.530   3.736   3.883
    1C        C  622   2.512   3.523   4.008
    1C        C  623   2.522   3.664   4.004
    1C        C  624   2.516   3.454   4.131
    1C        C  625   2.506   3.528   4.251
    1C        C  626   2.528   3.319   4.376
    1C        C  627   2.511   3.459   4.374
    1C        C  628   2.550   3.250   4.498
    1C        C  629   2.538   3.322   4.618
    1C        C  630   2.595   3.118   4.742
    1C        C  631   2.551   3.254   4.741
    1C        C  632   2.622   3.050   4.863
    1C        C  633   2.563   3.111   4.979
    1C        C  634   2.786   4.299   2.055
    1C        C  635   2.890   4.393   2.054
    1C        C  636   2.754   4.227   2.170
    1C        C  637   2.814   4.271   2.290
    1C        C  638   2.679   4.105   2.410
    1C        C  639   2.765   4.216   2.411
    1C        C  640   2.645   4.046   2.534
    1C        C  641   2.688   4.106   2.654
    1C        C  642   2.583   3.922   2.778
    1C        C  643   2.648   4.048   2.777
    1C        C  644   2.561   3.857   2.901
    1C        C  645   2.583   3.928   3.020
    1C        C  646   2.530   3.724   3.149
    1C        C  647   2.563   3.861   3.143
    1C        C  648   2.515   3.658   3.273
    1C        C  649   2.529   3.729   3.394
    1C        C  650   2.505   3.521   3.520
    1C        C  651   2.516   3.662   3.517
    1C        C  652   2.506   3.449   3.642
    1C        C  653   2.511   3.520   3.764
    1C        C  654   2.525   3.310   3.888
    1C        C  655   2.513   3.451   3.887
    1C        C  656   2.544   3.241   4.010
    1C        C  657   2.530   3.313   4.130
    1C        C  658   2.600   3.117   4.257
    1C        C  659   2.550   3.249   4.255
    1C        C  660   2.628   3.053   4.379
    1C        C  661   2.595   3.116   4.501
    1C        C  662   2.713   2.938   4.622
    1C        C  663   2.628   3.050   4.622
    1C        C  664   2.752   2.879   4.744
    1C        C  665   2.696   2.928   4.865
    1C        C  666   2.745   2.870   4.983
    1C        C  667   2.679   4.026   2.050
    1C        C  668   2.687   4.103   2.166
    1C        C  669   2.594   3.910   2.292
    1C        C  670   2.650   4.040   2.287
    1C        C  671   2.557   3.849   2.414
    1C        C  672   2.580   3.921   2.534
    1C        C  673   2.519   3.719   2.659
    1C        C  674   2.555   3.856   2.657
    1C        C  675   2.516   3.649   2.781
    1C        C  676   2.529   3.719   2.903
    1C        C  677   2.499   3.512   3.032
    1C        C  678   2.517   3.652   3.027
    1C        C  679   2.504   3.443   3.155
    1C        C  680   2.504   3.517   3.275
    1C        C  681   2.532   3.309   3.402
    1C        C  682   2.507   3.448   3.399
    1C        C  683   2.548   3.240   3.525
    1C        C  684   2.529   3.310   3.646
    1C        C  685   2.595   3.110   3.769
    1C        C  686   2.535   3.238   3.767
    1C        C  687   2.626   3.048   3.892
    1C        C  688   2.584   3.105   4.014
    1C        C  689   2.708   2.932   4.136
    1C        C  690   2.630   3.050   4.136
    1C        C  691   2.746   2.873   4.259
    1C        C  692   2.703   2.933   4.380
    1C        C  693   2.753   2.879   4.500
    1C        C  694   2.625   3.897   2.055
    1C        C  695   2.523   3.706   2.174
    1C        C  696   2.578   3.836   2.173
    1C        C  697   2.508   3.637   2.296
    1C        C  698   2.520   3.713   2.415
    1C        C  699   2.484   3.506   2.543
    1C        C  700   2.502   3.646   2.539
    1C        C  701   2.496   3.437   2.665
    1C        C  702   2.503   3.508   2.787
    1C        C  703   2.521   3.301   2.910
    1C        C  704   2.497   3.440   2.910
    1C        C  705   2.537   3.232   3.033
    1C        C  706   2.524   3.303   3.154
    1C        C  707   2.602   3.111   3.277
    1C        C  708   2.549   3.242   3.279
    1C        C  709   2.636   3.050   3.400
    1C        C  710   2.603   3.110   3.524
    1C        C  711   2.713   2.931   3.647
    1C        C  712   2.632   3.047   3.647
    1C        C  713   2.757   2.880   3.771
    1C        C  714   2.715   2.938   3.894
    1C        C  715   2.759   2.880   4.015
    1C        C  716   2.447   3.499   2.060
    1C        C  717   2.484   3.634   2.061
    1C        C  718   2.458   3.423   2.181
    1C        C  719   2.482   3.498   2.299
    1C        C  720   2.510   3.292   2.424
    1C        C  721   2.484   3.430   2.424
    1C        C  722   2.535   3.226   2.547
    1C        C  723   2.521   3.298   2.667
    1C        C  724   2.592   3.098   2.789
    1C        C  725   2.540   3.230   2.790
    1C        C  726   2.624   3.037   2.912
    1C        C  727   2.591   3.102   3.034
    1C        C  728   2.711   2.929   3.159
    1C        C  729   2.629   3.043   3.156
    1C        C  730   2.763   2.879   3.281
    1C        C  731   2.719   2.936   3.403
    1C        C  732   2.757   2.875   3.525
    1C        C  733   2.494   3.195   2.072
    1C        C  734   2.487   3.282   2.182
    1C        C  735   2.585   3.091   2.305
    1C        C  736   2.525   3.219   2.304
    1C        C  737   2.620   3.026   2.425
    1C        C  738   2.588   3.095   2.544
    1C        C  739   2.705   2.919   2.669
    1C        C  740   2.625   3.035   2.667
    1C        C  741   2.748   2.864   2.792
    1C        C  742   2.707   2.923   2.914
    1C        C  743   2.753   2.872   3.037
    1C        C  744   2.546   3.067   2.071
    1C        C  745   2.683   2.897   2.187
    1C        C  746   2.610   3.018   2.186
    1C        C  747   2.729   2.838   2.307
    1C        C  748   2.692   2.904   2.426
    1C        C  749   2.742   2.855   2.549
    1C        C  750   2.732   2.837   2.071
    1C        C  751   3.656   2.285   2.015
    1C        O  752   3.661   2.187   2.093
    1C        O  753   3.644   2.261   1.877
    1C        C  754   4.622   3.040   1.983
    1C        O  755   4.607   3.020   1.860
    1C        O  756   4.734   2.977   2.038
    1C        C  757   4.460   4.221   1.958
    1C        O  758   4.542   4.311   1.991
    1C        O  759   4.432   4.221   1.821
    1C        C  760   3.584   4.660   1.940
    1C        O  761   3.583   4.781   1.976
    1C        O  762   3.596   4.634   1.803
    1C        C  763   2.842   4.521   1.997
    1C        O  764   2.878   4.558   1.882
    1C        O  765   2.791   4.632   2.065
    1C        C  766   2.381   3.446   1.938
    1C        O  767   2.455   3.428   1.838
    1C        O  768   2.254   3.492   1.901
    1C        C  769   4.684   3.584   5.066
    1C        O  770   4.660   3.549   5.184
    1C        O  771   4.820   3.604   5.041
    1C        C  772   4.275   4.476   5.015
    1C        O  773   4.287   4.487   5.140
    1C        O  774   4.341   4.581   4.949
    1C        C  775   4.147   2.528   5.076
    1C        O  776   4.211   2.424   5.042
    1C        O  777   4.117   2.511   5.211
    1C        C  778   2.893   4.531   5.063
    1C        O  779   2.903   4.655   5.046
    1C        O  780   2.940   4.485   5.186
    1C        C  781   2.458   3.041   5.055
    1C        O  782   2.349   3.008   5.002
    1C        O  783   2.463   3.028   5.194
    1C        C  784   2.391   4.003   5.022
    1C        O  785   2.300   4.083   4.989
    1C        O  786   2.382   3.968   5.158
    1C        C  787   2.946   2.423   2.007
    1C        O  788   2.933   2.426   1.882
    1C        O  789   2.903   2.296   2.044
    1C        C  790   3.175   2.363   5.055
    1C        O  791   3.151   2.252   5.000
    1C        O  792   3.134   2.366   5.189
    1C        H  793   4.269   3.026   5.058
    1C        H  794   4.202   2.800   5.078
    1C        H  795   4.464   3.148   5.071
    1C        H  796   4.521   3.372   5.067
    1C        H  797   4.552   3.816   5.042
    1C        H  798   4.399   3.959   5.053
    1C        H  799   4.265   4.145   5.047
    1C        H  800   4.031   4.543   5.028
    1C        H  801   3.821   4.620   5.024
    1C        H  802   3.588   4.651   5.025
    1C        H  803   3.374   4.562   5.047
    1C        H  804   3.176   4.416   5.032
    1C        H  805   3.897   2.467   5.060
    1C        H  806   3.682   2.459   5.071
    1C        H  807   2.986   2.525   5.042
    1C        H  808   3.452   2.468   5.080
    1C        H  809   2.885   2.739   5.077
    1C        H  810   2.751   2.944   5.059
    1C        H  811   2.582   3.298   5.058
    1C        H  812   2.594   3.509   5.052
    1C        H  813   2.498   3.732   5.067
    1C        H  814   2.602   4.170   5.047
    1C        H  815   2.767   4.298   5.050
    1C        H  816   2.685   2.855   1.976
    1C        H  817   2.861   2.703   1.976
    1C        H  818   3.197   2.381   2.026
    1C        H  819   3.435   2.423   1.976
    1C        H  820   3.880   2.472   1.982
    1C        H  821   4.061   2.628   1.960
    1C        H  822   4.249   2.726   1.969
    1C        H  823   4.390   2.918   1.971
    1C        H  824   4.618   3.302   1.981
    1C        H  825   4.546   3.527   1.953
    1C        H  826   4.549   3.754   1.965
    1C        H  827   3.806   4.507   1.950
    1C        H  828   3.937   4.326   1.960
    1C        H  829   4.188   4.300   1.957
    1C        H  830   4.496   3.966   1.964
    1C        H  831   2.580   3.861   1.965
    1C        H  832   2.734   4.048   1.960
    1C        H  833   2.730   4.281   1.966
    1C        H  834   3.380   4.457   1.949
    1C        H  835   3.173   4.353   1.977
    1C        H  836   2.504   2.995   2.004
    1C        H  837   2.426   3.215   1.992
    1C        H  838   2.458   3.696   1.978
    2V3OU   H29  839   2.802   3.557   3.487
    2V3OU   C27  840   2.791   3.504   3.585
    2V3OU   H27  841   2.738   3.571   3.658
    2V3OU   H28  842   2.742   3.405   3.569
    2V3OU   O11  843   2.913   3.472   3.653
    2V3OU   C15  844   2.928   3.395   3.766
    2V3OU   C13  845   3.056   3.371   3.822
    2V3OU   C14  846   3.078   3.265   3.910
    2V3OU   C16  847   2.978   3.183   3.961
    2V3OU    H6  848   2.997   3.104   4.035
    2V3OU   C12  849   3.215   3.223   3.946
    2V3OU    O2  850   3.234   3.121   4.016
    2V3OU   C10  851   3.329   3.313   3.921
    2V3OU    C8  852   3.457   3.272   3.954
    2V3OU   O10  853   3.486   3.155   4.017
    2V3OU   H26  854   3.401   3.112   4.035
    2V3OU    C6  855   3.568   3.354   3.915
    2V3OU    C5  856   3.541   3.471   3.845
    2V3OU    C4  857   3.705   3.297   3.915
    2V3OU    H4  858   3.722   3.225   4.001
    2V3OU    H5  859   3.712   3.229   3.825
    2V3OU    C2  860   3.820   3.398   3.907
    2V3OU    O6  861   3.812   3.479   4.025
    2V3OU   H21  862   3.767   3.558   3.991
    2V3OU    C3  863   3.783   3.492   3.792
    2V3OU    H2  864   3.861   3.572   3.788
    2V3OU    H3  865   3.784   3.437   3.695
    2V3OU   C25  866   3.954   3.325   3.897
    2V3OU    O7  867   4.009   3.298   3.790
    2V3OU   C26  868   4.029   3.288   4.024
    2V3OU   H22  869   4.068   3.378   4.079
    2V3OU   H23  870   4.115   3.222   3.999
    2V3OU    O8  871   3.959   3.203   4.112
    2V3OU   H24  872   3.924   3.261   4.182
    2V3OU    C1  873   3.651   3.567   3.811
    2V3OU    H1  874   3.627   3.620   3.715
    2V3OU    O3  875   3.658   3.655   3.923
    2V3OU   C19  876   3.615   3.791   3.907
    2V3OU    H9  877   3.520   3.797   3.847
    2V3OU    O4  878   3.712   3.844   3.820
    2V3OU   C20  879   3.841   3.871   3.876
    2V3OU   H10  880   3.903   3.777   3.883
    2V3OU   C24  881   3.614   3.850   4.048
    2V3OU   H16  882   3.539   3.791   4.106
    2V3OU   H17  883   3.571   3.953   4.036
    2V3OU   C23  884   3.752   3.870   4.110
    2V3OU   H15  885   3.794   3.766   4.128
    2V3OU    N1  886   3.734   3.951   4.229
    2V3OU   H19  887   3.811   3.928   4.289
    2V3OU   H20  888   3.644   3.933   4.268
    2V3OU   C21  889   3.848   3.944   4.011
    2V3OU   H11  890   3.956   3.927   4.042
    2V3OU    O5  891   3.825   4.084   4.009
    2V3OU   H18  892   3.765   4.102   4.084
    2V3OU   C22  893   3.910   3.950   3.766
    2V3OU   H12  894   3.851   4.040   3.738
    2V3OU   H13  895   3.909   3.889   3.672
    2V3OU   H14  896   4.015   3.967   3.800
    2V3OU   C11  897   3.163   3.470   3.808
    2V3OU    O1  898   3.132   3.580   3.757
    2V3OU    C9  899   3.300   3.430   3.846
    2V3OU    C7  900   3.409   3.507   3.805
    2V3OU    O9  901   3.391   3.624   3.733
    2V3OU   H25  902   3.295   3.631   3.724
    2V3OU   C17  903   2.828   3.312   3.820
    2V3OU    H7  904   2.731   3.353   3.792
    2V3OU   C18  905   2.850   3.216   3.918
    2V3OU    H8  906   2.792   3.172   4.000
    3SOL     OW  907   2.527   4.396   5.830
    3SOL    HW1  908   2.598   4.378   5.762
    3SOL    HW2  909   2.512   4.494   5.837
    4SOL     OW  910   6.520   6.985   6.477
    4SOL    HW1  911   6.434   6.974   6.527
    4SOL    HW2  912   6.519   0.050   6.428
    5SOL     OW  913   4.878   2.504   2.466
    5SOL    HW1  914   4.794   2.555   2.483
    5SOL    HW2  915   4.855   2.409   2.441
    6SOL     OW  916   4.794   2.197   2.454
    6SOL    HW1  917   4.704   2.171   2.420
    6SOL    HW2  918   4.801   2.177   2.552
    7SOL     OW  919   1.127   4.043   4.069
    7SOL    HW1  920   1.190   4.001   4.004
    7SOL    HW2  921   1.169   4.046   4.160
    8SOL     OW  922   2.910   1.999   5.325
    8SOL    HW1  923   2.984   1.979   5.261
    8SOL    HW2  924   2.885   2.096   5.319
    9SOL     OW  925   6.001   2.319   6.039
    9SOL    HW1  926   6.014   2.315   5.940
    9SOL    HW2  927   5.969   2.231   6.072
   10SOL     OW  928   2.729   4.649   4.584
   10SOL    HW1  929   2.659   4.577   4.588
   10SOL    HW2  930   2.752   4.678   4.677
   11SOL     OW  931   2.009   0.965   6.522
   11SOL    HW1  932   1.943   0.942   6.593
   11SOL    HW2  933   2.088   0.904   6.529
   12SOL     OW  934   2.842   4.795   3.953
   12SOL    HW1  935   2.825   4.782   3.855
   12SOL    HW2  936   2.938   4.817   3.968
   13SOL     OW  937   3.808   6.372   3.403
   13SOL    HW1  938   3.848   6.439   3.341
   13SOL    HW2  939   3.881   6.315   3.442
   14SOL     OW  940   4.108   3.926   6.386
   14SOL    HW1  941   4.107   3.896   6.291
   14SOL    HW2  942   4.168   4.005   6.396
   15SOL     OW  943   0.768   6.876   6.888
   15SOL    HW1  944   0.792   6.972   6.903
   15SOL    HW2  945   0.843   6.830   6.841
   16SOL     OW  946   5.341   2.529   6.750
   16SOL    HW1  947   5.415   2.462   6.752
   16SOL    HW2  948   5.281   2.510   6.672
   17SOL     OW  949   5.080   0.424   6.402
   17SOL    HW1  950   5.113   0.449   6.494
   17SOL    HW2  951   4.999   0.367   6.410
   18SOL     OW  952   3.829   1.010   4.681
   18SOL    HW1  953   3.751   1.016   4.619
   18SOL    HW2  954   3.800   1.034   4.774
   19SOL     OW  955   0.738   2.620   1.987
   19SOL    HW1  956   0.682   2.622   1.904
   19SOL    HW2  957   0.770   2.527   2.003
   20SOL     OW  958   4.911   2.248   5.340
   20SOL    HW1  959   5.003   2.280   5.364
   20SOL    HW2  960   4.848   2.326   5.338
   21SOL     OW  961   2.774   0.504   3.229
   21SOL    HW1  962   2.748   0.562   3.306
   21SOL    HW2  963   2.858   0.540   3.187
   22SOL     OW  964   1.025   6.456   7.001
   22SOL    HW1  965   0.978   6.468   0.066
   22SOL    HW2  966   1.045   6.359   6.987
   23SOL     OW  967   4.172   5.242   2.395
   23SOL    HW1  968   4.084   5.284   2.373
   23SOL    HW2  969   4.167   5.144   2.380
   24SOL     OW  970   3.646   0.592   2.372
   24SOL    HW1  971   3.645   0.506   2.322
   24SOL    HW2  972   3.601   0.663   2.317
   25SOL     OW  973   1.767   0.147   3.785
   25SOL    HW1  974   1.735   0.053   3.771
   25SOL    HW2  975   1.853   0.160   3.737
   26SOL     OW  976   6.907   2.140   6.893
   26SOL    HW1  977   6.833   2.086   6.932
   26SOL    HW2  978   6.925   2.220   6.951
   27SOL     OW  979   2.188   1.165   2.208
   27SOL    HW1  980   2.187   1.181   2.109
   27SOL    HW2  981   2.282   1.146   2.237
   28SOL     OW  982   0.067   1.014   4.819
   28SOL    HW1  983   6.998   0.988   4.787
   28SOL    HW2  984   0.134   0.986   4.751
   29SOL     OW  985   6.925   0.724   0.933
   29SOL    HW1  986   6.899   0.630   0.957
   29SOL    HW2  987   0.001   0.727   0.915
   30SOL     OW  988   4.287   0.636   5.132
   30SOL    HW1  989   4.368   0.581   5.114
   30SOL    HW2  990   4.227   0.634   5.051
   31SOL     OW  991   0.619   2.163   5.593
   31SOL    HW1  992   0.664   2.249   5.565
   31SOL    HW2  993   0.588   2.115   5.511
   32SOL     OW  994   1.156   1.592   2.137
   32SOL    HW1  995   1.196   1.500   2.141
   32SOL    HW2  996   1.217   1.657   2.182
   33SOL     OW  997   1.022   4.659   5.530
   33SOL    HW1  998   0.969   4.619   5.605
   33SOL    HW2  999   1.057   4.748   5.559
   34SOL     OW 1000   2.530   5.582   5.080
   34SOL    HW1 1001   2.612   5.590   5.024
   34SOL    HW2 1002   2.555   5.562   5.174
   35SOL     OW 1003   4.258   2.168   5.466
   35SOL    HW1 1004   4.178   2.115   5.493
   35SOL    HW2 1005   4.330   2.158   5.535
   36SOL     OW 1006   4.671   1.473   3.896
   36SOL    HW1 1007   4.732   1.410   3.944
   36SOL    HW2 1008   4.593   1.494   3.955
   37SOL     OW 1009   1.855   1.745   5.182
   37SOL    HW1 1010   1.939   1.746   5.237
   37SOL    HW2 1011   1.877   1.759   5.086
   38SOL     OW 1012   1.962   3.870   1.810
   38SOL    HW1 1013   1.997   3.777   1.811
   38SOL    HW2 1014   2.031   3.932   1.847
   39SOL     OW 1015   6.017   4.691   6.122
   39SOL    HW1 1016   6.101   4.638   6.133
   39SOL    HW2 1017   5.949   4.637   6.073
   40SOL     OW 1018   3.625   1.984   6.925
   40SOL    HW1 1019   3.568   1.919   6.875
   40SOL    HW2 1020   3.569   2.031   6.994
   41SOL     OW 1021   6.417   3.508   2.850
   41SOL    HW1 1022   6.389   3.416   2.821
   41SOL    HW2 1023   6.510   3.525   2.819
   42SOL     OW 1024   3.189   5.776   4.582
   42SOL    HW1 1025   3.280   5.744   4.609
   42SOL    HW2 1026   3.160   5.849   4.642
   43SOL     OW 1027   4.162   0.542   5.627
   43SOL    HW1 1028   4.226   0.515   5.555
   43SOL    HW2 1029   4.070   0.511   5.603
   44SOL     OW 1030   5.928   2.221   5.249
   44SOL    HW1 1031   5.926   2.177   5.160
   44SOL    HW2 1032   6.019   2.260   5.265
   45SOL     OW 1033   4.318   5.378   1.438
   45SOL    HW1 1034   4.390   5.436   1.474
   45SOL    HW2 1035   4.352   5.325   1.360
   46SOL     OW 1036   1.173   2.440   4.232
   46SOL    HW1 1037   1.092   2.381   4.239
   46SOL    HW2 1038   1.147   2.526   4.186
   47SOL     OW 1039   4.145   3.955   1.510
   47SOL    HW1 1040   4.154   3.874   1.453
   47SOL    HW2 1041   4.049   3.977   1.522
   48SOL     OW 1042   6.624   2.395   6.491
   48SOL    HW1 1043   6.525   2.402   6.503
   48SOL    HW2 1044   6.644   2.348   6.405
   49SOL     OW 1045   5.088   2.302   1.630
   49SOL    HW1 1046   5.006   2.356   1.608
   49SOL    HW2 1047   5.123   2.330   1.719
   50SOL     OW 1048   6.325   1.630   5.440
   50SOL    HW1 1049   6.334   1.630   5.540
   50SOL    HW2 1050   6.252   1.567   5.413
   51SOL     OW 1051   2.114   6.349   2.747
   51SOL    HW1 1052   2.208   6.359   2.714
   51SOL    HW2 1053   2.063   6.432   2.726
   52SOL     OW 1054   5.351   2.820   1.811
   52SOL    HW1 1055   5.429   2.815   1.873
   52SOL    HW2 1056   5.270   2.783   1.856
   53SOL     OW 1057   5.640   0.485   3.297
   53SOL    HW1 1058   5.723   0.513   3.346
   53SOL    HW2 1059   5.644   0.387   3.277
   54SOL     OW 1060   4.972   6.938   0.273
   54SOL    HW1 1061   5.010   6.935   0.366
   54SOL    HW2 1062   4.895   7.002   0.271
   55SOL     OW 1063   1.963   2.297   5.325
   55SOL    HW1 1064   1.961   2.198   5.316
   55SOL    HW2 1065   2.051   2.326   5.362
   56SOL     OW 1066   1.247   1.831   1.078
   56SOL    HW1 1067   1.211   1.827   0.985
   56SOL    HW2 1068   1.307   1.910   1.087
   57SOL     OW 1069   3.631   1.319   0.380
   57SOL    HW1 1070   3.671   1.238   0.422
   57SOL    HW2 1071   3.599   1.297   0.288
   58SOL     OW 1072   0.799   6.336   5.691
   58SOL    HW1 1073   0.820   6.367   5.598
   58SOL    HW2 1074   0.700   6.323   5.700
   59SOL     OW 1075   6.764   3.788   6.204
   59SOL    HW1 1076   6.823   3.710   6.224
   59SOL    HW2 1077   6.674   3.756   6.174
   60SOL     OW 1078   5.105   2.591   3.523
   60SOL    HW1 1079   5.151   2.559   3.440
   60SOL    HW2 1080   5.031   2.529   3.547
   61SOL     OW 1081   6.831   0.916   4.702
   61SOL    HW1 1082   6.800   0.998   4.654
   61SOL    HW2 1083   6.881   0.857   4.639
   62SOL     OW 1084   2.194   0.911   1.884
   62SOL    HW1 1085   2.105   0.931   1.844
   62SOL    HW2 1086   2.240   0.839   1.832
   63SOL     OW 1087   4.240   0.437   3.715
   63SOL    HW1 1088   4.307   0.494   3.761
   63SOL    HW2 1089   4.153   0.441   3.765
   64SOL     OW 1090   0.584   3.128   6.514
   64SOL    HW1 1091   0.513   3.070   6.472
   64SOL    HW2 1092   0.637   3.073   6.578
   65SOL     OW 1093   1.560   6.437   5.682
   65SOL    HW1 1094   1.465   6.462   5.699
   65SOL    HW2 1095   1.616   6.520   5.679
   66SOL     OW 1096   3.343   0.160   3.539
   66SOL    HW1 1097   3.432   0.115   3.542
   66SOL    HW2 1098   3.348   0.248   3.585
   67SOL     OW 1099   0.202   3.131   6.243
   67SOL    HW1 1100   0.129   3.199   6.252
   67SOL    HW2 1101   0.273   3.166   6.182
   68SOL     OW 1102   0.239   1.804   6.257
   68SOL    HW1 1103   0.265   1.862   6.334
   68SOL    HW2 1104   0.175   1.734   6.288
   69SOL     OW 1105   1.733   2.847   5.143
   69SOL    HW1 1106   1.799   2.778   5.171
   69SOL    HW2 1107   1.702   2.898   5.223
   70SOL     OW 1108   5.198   5.173   4.648
   70SOL    HW1 1109   5.274   5.117   4.614
   70SOL    HW2 1110   5.112   5.124   4.634
   71SOL     OW 1111   4.483   1.588   3.132
   71SOL    HW1 1112   4.516   1.575   3.039
   71SOL    HW2 1113   4.554   1.562   3.197
   72SOL     OW 1114   0.522   1.439   3.261
   72SOL    HW1 1115   0.457   1.510   3.232
   72SOL    HW2 1116   0.602   1.442   3.202
   73SOL     OW 1117   2.913   0.632   1.199
   73SOL    HW1 1118   2.973   0.593   1.128
   73SOL    HW2 1119   2.830   0.577   1.206
   74SOL     OW 1120   2.805   1.314   6.344
   74SOL    HW1 1121   2.815   1.286   6.439
   74SOL    HW2 1122   2.812   1.414   6.337
   75SOL     OW 1123   4.187   1.448   1.797
   75SOL    HW1 1124   4.123   1.513   1.755
   75SOL    HW2 1125   4.280   1.483   1.788
   76SOL     OW 1126   2.201   3.581   6.019
   76SOL    HW1 1127   2.206   3.612   6.114
   76SOL    HW2 1128   2.107   3.587   5.986
   77SOL     OW 1129   1.655   5.755   3.299
   77SOL    HW1 1130   1.682   5.700   3.378
   77SOL    HW2 1131   1.606   5.836   3.330
   78SOL     OW 1132   4.010   1.399   1.252
   78SOL    HW1 1133   4.030   1.462   1.177
   78SOL    HW2 1134   4.087   1.397   1.315
   79SOL     OW 1135   2.870   5.740   1.847
   79SOL    HW1 1136   2.773   5.764   1.844
   79SOL    HW2 1137   2.883   5.650   1.806
   80SOL     OW 1138   4.542   1.475   4.729
   80SOL    HW1 1139   4.486   1.532   4.789
   80SOL    HW2 1140   4.502   1.383   4.723
   81SOL     OW 1141   1.840   6.729   1.257
   81SOL    HW1 1142   1.768   6.782   1.213
   81SOL    HW2 1143   1.891   6.788   1.320
   82SOL     OW 1144   6.807   5.882   1.338
   82SOL    HW1 1145   6.881   5.815   1.348
   82SOL    HW2 1146   6.847   5.974   1.327
   83SOL     OW 1147   0.924   1.448   6.093
   83SOL    HW1 1148   0.949   1.482   6.002
   83SOL    HW2 1149   0.903   1.526   6.153
   84SOL     OW 1150   6.463   4.275   3.720
   84SOL    HW1 1151   6.454   4.242   3.626
   84SOL    HW2 1152   6.552   4.248   3.756
   85SOL     OW 1153   1.314   0.633   3.402
   85SOL    HW1 1154   1.410   0.661   3.404
   85SOL    HW2 1155   1.256   0.707   3.436
   86SOL     OW 1156   7.020   1.126   6.720
   86SOL    HW1 1157   7.019   1.202   6.785
   86SOL    HW2 1158   6.928   1.112   6.685
   87SOL     OW 1159   3.509   4.001   0.564
   87SOL    HW1 1160   3.444   4.031   0.494
   87SOL    HW2 1161   3.460   3.973   0.646
   88SOL     OW 1162   3.240   2.126   6.456
   88SOL    HW1 1163   3.148   2.141   6.420
   88SOL    HW2 1164   3.269   2.206   6.510
   89SOL     OW 1165   3.372   3.589   0.270
   89SOL    HW1 1166   3.298   3.625   0.326
   89SOL    HW2 1167   3.451   3.651   0.274
   90SOL     OW 1168   4.395   4.648   2.376
   90SOL    HW1 1169   4.482   4.637   2.328
   90SOL    HW2 1170   4.320   4.630   2.313
   91SOL     OW 1171   5.976   4.927   5.883
   91SOL    HW1 1172   6.047   4.997   5.873
   91SOL    HW2 1173   5.993   4.852   5.819
   92SOL     OW 1174   5.272   4.286   0.703
   92SOL    HW1 1175   5.244   4.239   0.619
   92SOL    HW2 1176   5.273   4.220   0.779
   93SOL     OW 1177   3.098   3.436   6.956
   93SOL    HW1 1178   3.016   3.424   6.900
   93SOL    HW2 1179   3.133   3.346   6.983
   94SOL     OW 1180   2.161   5.961   0.785
   94SOL    HW1 1181   2.071   5.927   0.812
   94SOL    HW2 1182   2.153   6.056   0.756
   95SOL     OW 1183   1.323   0.912   3.138
   95SOL    HW1 1184   1.311   0.971   3.218
   95SOL    HW2 1185   1.299   0.964   3.055
   96SOL     OW 1186   5.033   5.596   6.432
   96SOL    HW1 1187   5.039   5.511   6.379
   96SOL    HW2 1188   4.942   5.604   6.472
   97SOL     OW 1189   2.155   3.874   5.245
   97SOL    HW1 1190   2.236   3.921   5.210
   97SOL    HW2 1191   2.110   3.825   5.170
   98SOL     OW 1192   1.193   1.566   0.783
   98SOL    HW1 1193   1.178   1.499   0.856
   98SOL    HW2 1194   1.170   1.658   0.816
   99SOL     OW 1195   3.756   4.056   2.420
   99SOL    HW1 1196   3.806   4.123   2.365
   99SOL    HW2 1197   3.661   4.085   2.430
  100SOL     OW 1198   6.999   0.314   4.438
  100SOL    HW1 1199   0.006   0.302   4.343
  100SOL    HW2 1200   0.051   0.289   4.499
  101SOL     OW 1201   0.528   5.745   2.287
  101SOL    HW1 1202   0.432   5.765   2.304
  101SOL    HW2 1203   0.583   5.776   2.364
  102SOL     OW 1204   3.415   5.777   2.450
  102SOL    HW1 1205   3.407   5.807   2.546
  102SOL    HW2 1206   3.448   5.683   2.447
  103SOL     OW 1207   1.544   1.818   2.628
  103SOL    HW1 1208   1.543   1.911   2.664
  103SOL    HW2 1209   1.560   1.820   2.529
  104SOL     OW 1210   1.825   5.023   1.884
  104SOL    HW1 1211   1.849   5.106   1.935
  104SOL    HW2 1212   1.892   5.008   1.811
  105SOL     OW 1213   5.208   1.495   5.939
  105SOL    HW1 1214   5.260   1.540   6.011
  105SOL    HW2 1215   5.270   1.444   5.879
  106SOL     OW 1216   4.610   5.796   2.482
  106SOL    HW1 1217   4.662   5.843   2.554
  106SOL    HW2 1218   4.576   5.863   2.417
  107SOL     OW 1219   6.800   0.589   6.822
  107SOL    HW1 1220   6.725   0.584   6.888
  107SOL    HW2 1221   6.802   0.680   6.780
  108SOL     OW 1222   3.689   0.049   5.420
  108SOL    HW1 1223   3.696   7.002   5.349
  108SOL    HW2 1224   3.596   0.051   5.456
  109SOL     OW 1225   2.602   0.798   2.440
  109SOL    HW1 1226   2.566   0.705   2.447
  109SOL    HW2 1227   2.694   0.795   2.401
  110SOL     OW 1228   2.226   5.310   4.503
  110SOL    HW1 1229   2.319   5.277   4.513
  110SOL    HW2 1230   2.209   5.385   4.567
  111SOL     OW 1231   1.452   1.606   3.123
  111SOL    HW1 1232   1.551   1.602   3.139
  111SOL    HW2 1233   1.409   1.662   3.193
  112SOL     OW 1234   4.945   6.722   0.098
  112SOL    HW1 1235   4.960   6.790   0.170
  112SOL    HW2 1236   5.031   6.708   0.047
  113SOL     OW 1237   0.409   6.208   2.525
  113SOL    HW1 1238   0.477   6.266   2.571
  113SOL    HW2 1239   0.439   6.113   2.528
  114SOL     OW 1240   1.329   5.788   2.057
  114SOL    HW1 1241   1.243   5.767   2.010
  114SOL    HW2 1242   1.405   5.778   1.994
  115SOL     OW 1243   5.845   0.599   3.464
  115SOL    HW1 1244   5.927   0.614   3.521
  115SOL    HW2 1245   5.784   0.678   3.473
  116SOL     OW 1246   0.067   6.120   1.290
  116SOL    HW1 1247   0.078   6.182   1.368
  116SOL    HW2 1248   0.127   6.040   1.302
  117SOL     OW 1249   1.748   0.596   0.359
  117SOL    HW1 1250   1.687   0.603   0.438
  117SOL    HW2 1251   1.702   0.545   0.286
  118SOL     OW 1252   1.870   2.298   3.056
  118SOL    HW1 1253   1.930   2.332   2.984
  118SOL    HW2 1254   1.867   2.365   3.131
  119SOL     OW 1255   0.557   0.337   6.584
  119SOL    HW1 1256   0.517   0.344   6.492
  119SOL    HW2 1257   0.507   0.268   6.636
  120SOL     OW 1258   4.963   0.167   4.215
  120SOL    HW1 1259   5.055   0.199   4.193
  120SOL    HW2 1260   4.897   0.238   4.189
  121SOL     OW 1261   1.674   4.069   6.993
  121SOL    HW1 1262   1.691   4.155   0.018
  121SOL    HW2 1263   1.623   4.087   6.909
  122SOL     OW 1264   1.522   3.390   0.058
  122SOL    HW1 1265   1.553   3.427   6.993
  122SOL    HW2 1266   1.554   3.449   0.132
  123SOL     OW 1267   1.233   1.063   2.097
  123SOL    HW1 1268   1.325   1.046   2.061
  123SOL    HW2 1269   1.169   1.072   2.020
  124SOL     OW 1270   3.358   2.193   0.807
  124SOL    HW1 1271   3.286   2.135   0.766
  124SOL    HW2 1272   3.423   2.135   0.856
  125SOL     OW 1273   3.323   2.581   0.601
  125SOL    HW1 1274   3.323   2.678   0.579
  125SOL    HW2 1275   3.323   2.527   0.516
  126SOL     OW 1276   3.778   3.345   3.082
  126SOL    HW1 1277   3.851   3.362   3.017
  126SOL    HW2 1278   3.753   3.248   3.080
  127SOL     OW 1279   6.541   6.281   5.965
  127SOL    HW1 1280   6.585   6.273   5.876
  127SOL    HW2 1281   6.608   6.309   6.034
  128SOL     OW 1282   5.240   2.854   2.110
  128SOL    HW1 1283   5.287   2.942   2.104
  128SOL    HW2 1284   5.152   2.860   2.063
  129SOL     OW 1285   3.022   4.234   0.881
  129SOL    HW1 1286   3.096   4.299   0.898
  129SOL    HW2 1287   3.050   4.143   0.914
  130SOL     OW 1288   6.248   0.555   4.755
  130SOL    HW1 1289   6.212   0.617   4.826
  130SOL    HW2 1290   6.346   0.570   4.745
  131SOL     OW 1291   5.986   0.913   4.700
  131SOL    HW1 1292   5.887   0.910   4.709
  131SOL    HW2 1293   6.028   0.867   4.778
  132SOL     OW 1294   3.301   3.200   1.674
  132SOL    HW1 1295   3.387   3.197   1.624
  132SOL    HW2 1296   3.318   3.227   1.769
  133SOL     OW 1297   5.282   1.635   3.737
  133SOL    HW1 1298   5.284   1.536   3.723
  133SOL    HW2 1299   5.188   1.663   3.757
  134SOL     OW 1300   0.819   0.290   2.743
  134SOL    HW1 1301   0.863   0.207   2.777
  134SOL    HW2 1302   0.721   0.273   2.732
  135SOL     OW 1303   5.360   3.079   4.008
  135SOL    HW1 1304   5.407   2.998   4.044
  135SOL    HW2 1305   5.271   3.052   3.970
  136SOL     OW 1306   2.056   6.326   4.338
  136SOL    HW1 1307   2.085   6.232   4.355
  136SOL    HW2 1308   2.005   6.360   4.418
  137SOL     OW 1309   4.616   1.051   4.376
  137SOL    HW1 1310   4.651   0.985   4.442
  137SOL    HW2 1311   4.679   1.059   4.299
  138SOL     OW 1312   0.907   4.440   3.458
  138SOL    HW1 1313   0.949   4.428   3.368
  138SOL    HW2 1314   0.814   4.403   3.458
  139SOL     OW 1315   2.747   5.693   5.880
  139SOL    HW1 1316   2.774   5.600   5.904
  139SOL    HW2 1317   2.731   5.700   5.782
  140SOL     OW 1318   1.777   6.758   2.833
  140SOL    HW1 1319   1.800   6.849   2.800
  140SOL    HW2 1320   1.736   6.765   2.924
  141SOL     OW 1321   6.912   2.800   6.221
  141SOL    HW1 1322   6.818   2.820   6.193
  141SOL    HW2 1323   6.911   2.757   6.311
  142SOL     OW 1324   2.198   3.782   1.612
  142SOL    HW1 1325   2.165   3.697   1.571
  142SOL    HW2 1326   2.207   3.851   1.541
  143SOL     OW 1327   5.791   5.673   1.078
  143SOL    HW1 1328   5.833   5.606   1.017
  143SOL    HW2 1329   5.822   5.658   1.172
  144SOL     OW 1330   2.493   4.768   4.874
  144SOL    HW1 1331   2.592   4.751   4.881
  144SOL    HW2 1332   2.443   4.690   4.911
  145SOL     OW 1333   1.587   5.588   1.550
  145SOL    HW1 1334   1.487   5.579   1.554
  145SOL    HW2 1335   1.620   5.630   1.635
  146SOL     OW 1336   5.021   1.037   5.910
  146SOL    HW1 1337   4.983   1.071   5.824
  146SOL    HW2 1338   5.114   1.070   5.921
  147SOL     OW 1339   5.208   1.388   5.517
  147SOL    HW1 1340   5.134   1.408   5.582
  147SOL    HW2 1341   5.248   1.473   5.485
  148SOL     OW 1342   1.123   5.922   1.375
  148SOL    HW1 1343   1.110   5.881   1.465
  148SOL    HW2 1344   1.220   5.917   1.351
  149SOL     OW 1345   3.480   1.601   4.639
  149SOL    HW1 1346   3.479   1.514   4.590
  149SOL    HW2 1347   3.473   1.676   4.574
  150SOL     OW 1348   4.598   0.449   6.167
  150SOL    HW1 1349   4.550   0.537   6.167
  150SOL    HW2 1350   4.641   0.435   6.256
  151SOL     OW 1351   4.079   0.649   1.723
  151SOL    HW1 1352   4.117   0.585   1.657
  151SOL    HW2 1353   4.087   0.611   1.815
  152SOL     OW 1354   6.513   1.510   0.503
  152SOL    HW1 1355   6.578   1.576   0.541
  152SOL    HW2 1356   6.465   1.551   0.426
  153SOL     OW 1357   2.717   0.267   3.402
  153SOL    HW1 1358   2.798   0.208   3.399
  153SOL    HW2 1359   2.738   0.354   3.357
  154SOL     OW 1360   6.640   2.827   0.606
  154SOL    HW1 1361   6.735   2.845   0.632
  154SOL    HW2 1362   6.588   2.800   0.687
  155SOL     OW 1363   1.235   6.859   2.524
  155SOL    HW1 1364   1.311   6.916   2.493
  155SOL    HW2 1365   1.168   6.849   2.450
  156SOL     OW 1366   5.831   1.067   0.121
  156SOL    HW1 1367   5.873   1.153   0.093
  156SOL    HW2 1368   5.883   1.028   0.198
  157SOL     OW 1369   5.637   2.782   0.287
  157SOL    HW1 1370   5.639   2.812   0.191
  157SOL    HW2 1371   5.719   2.728   0.307
  158SOL     OW 1372   1.570   2.210   1.285
  158SOL    HW1 1373   1.477   2.245   1.267
  158SOL    HW2 1374   1.580   2.192   1.382
  159SOL     OW 1375   4.250   4.914   1.192
  159SOL    HW1 1376   4.156   4.946   1.205
  159SOL    HW2 1377   4.261   4.825   1.235
  160SOL     OW 1378   6.296   0.197   1.461
  160SOL    HW1 1379   6.306   0.193   1.361
  160SOL    HW2 1380   6.353   0.271   1.497
  161SOL     OW 1381   1.918   0.030   2.156
  161SOL    HW1 1382   1.981   0.094   2.200
  161SOL    HW2 1383   1.824   0.061   2.169
  162SOL     OW 1384   2.861   0.117   0.196
  162SOL    HW1 1385   2.922   0.061   0.139
  162SOL    HW2 1386   2.899   0.208   0.207
  163SOL     OW 1387   0.554   4.549   2.940
  163SOL    HW1 1388   0.500   4.632   2.954
  163SOL    HW2 1389   0.563   4.499   3.026
  164SOL     OW 1390   0.694   2.773   3.175
  164SOL    HW1 1391   0.686   2.868   3.204
  164SOL    HW2 1392   0.764   2.727   3.231
  165SOL     OW 1393   6.055   5.509   1.107
  165SOL    HW1 1394   6.034   5.605   1.124
  165SOL    HW2 1395   6.048   5.490   1.009
  166SOL     OW 1396   6.535   3.426   2.126
  166SOL    HW1 1397   6.538   3.502   2.061
  166SOL    HW2 1398   6.460   3.441   2.191
  167SOL     OW 1399   6.079   1.959   5.852
  167SOL    HW1 1400   6.177   1.948   5.840
  167SOL    HW2 1401   6.035   1.965   5.762
  168SOL     OW 1402   3.875   2.023   1.588
  168SOL    HW1 1403   3.863   2.117   1.557
  168SOL    HW2 1404   3.791   1.971   1.572
  169SOL     OW 1405   6.007   3.134   0.185
  169SOL    HW1 1406   6.103   3.125   0.211
  169SOL    HW2 1407   5.949   3.091   0.254
  170SOL     OW 1408   6.898   5.716   2.550
  170SOL    HW1 1409   6.956   5.797   2.540
  170SOL    HW2 1410   6.844   5.723   2.634
  171SOL     OW 1411   1.652   3.489   6.861
  171SOL    HW1 1412   1.631   3.539   6.778
  171SOL    HW2 1413   1.723   3.538   6.913
  172SOL     OW 1414   6.880   2.166   2.206
  172SOL    HW1 1415   6.800   2.186   2.150
  172SOL    HW2 1416   6.872   2.073   2.243
  173SOL     OW 1417   5.931   1.199   4.900
  173SOL    HW1 1418   5.845   1.200   4.849
  173SOL    HW2 1419   5.983   1.282   4.880
  174SOL     OW 1420   4.828   5.233   4.485
  174SOL    HW1 1421   4.858   5.264   4.395
  174SOL    HW2 1422   4.865   5.293   4.555
  175SOL     OW 1423   3.412   0.796   1.881
  175SOL    HW1 1424   3.510   0.776   1.884
  175SOL    HW2 1425   3.386   0.823   1.788
  176SOL     OW 1426   5.370   4.155   3.299
  176SOL    HW1 1427   5.418   4.141   3.213
  176SOL    HW2 1428   5.275   4.125   3.289
  177SOL     OW 1429   5.225   2.385   4.910
  177SOL    HW1 1430   5.263   2.350   4.824
  177SOL    HW2 1431   5.133   2.420   4.894
  178SOL     OW 1432   3.269   4.974   4.813
  178SOL    HW1 1433   3.333   4.915   4.862
  178SOL    HW2 1434   3.193   4.999   4.874
  179SOL     OW 1435   4.257   6.989   6.696
  179SOL    HW1 1436   4.346   6.943   6.694
  179SOL    HW2 1437   4.249   0.027   6.617
  180SOL     OW 1438   2.590   6.951   0.568
  180SOL    HW1 1439   2.568   6.986   0.476
  180SOL    HW2 1440   2.540   7.005   0.636
  181SOL     OW 1441   3.676   2.971   5.894
  181SOL    HW1 1442   3.608   2.899   5.904
  181SOL    HW2 1443   3.634   3.060   5.912
  182SOL     OW 1444   4.915   2.944   6.993
  182SOL    HW1 1445   4.983   3.008   0.008
  182SOL    HW2 1446   4.831   2.951   0.023
  183SOL     OW 1447   3.939   2.188   3.661
  183SOL    HW1 1448   3.946   2.274   3.711
  183SOL    HW2 1449   4.027   2.167   3.619
  184SOL     OW 1450   0.537   6.716   4.029
  184SOL    HW1 1451   0.527   6.692   3.932
  184SOL    HW2 1452   0.450   6.705   4.075
  185SOL     OW 1453   0.892   1.345   3.920
  185SOL    HW1 1454   0.938   1.417   3.972
  185SOL    HW2 1455   0.940   1.331   3.834
  186SOL     OW 1456   5.805   6.993   4.454
  186SOL    HW1 1457   5.778   0.055   4.501
  186SOL    HW2 1458   5.736   6.922   4.470
  187SOL     OW 1459   4.954   6.284   2.543
  187SOL    HW1 1460   5.030   6.222   2.523
  187SOL    HW2 1461   4.871   6.252   2.498
  188SOL     OW 1462   0.772   2.649   3.522
  188SOL    HW1 1463   0.704   2.720   3.506
  188SOL    HW2 1464   0.771   2.624   3.619
  189SOL     OW 1465   0.779   4.777   6.754
  189SOL    HW1 1466   0.753   4.695   6.805
  189SOL    HW2 1467   0.858   4.756   6.696
  190SOL     OW 1468   6.237   4.838   6.787
  190SOL    HW1 1469   6.306   4.879   6.846
  190SOL    HW2 1470   6.268   4.843   6.692
  191SOL     OW 1471   6.539   1.352   5.757
  191SOL    HW1 1472   6.615   1.417   5.756
  191SOL    HW2 1473   6.455   1.399   5.728
  192SOL     OW 1474   0.091   4.901   1.913
  192SOL    HW1 1475   0.051   4.812   1.892
  192SOL    HW2 1476   0.146   4.932   1.835
  193SOL     OW 1477   5.085   4.195   5.312
  193SOL    HW1 1478   5.152   4.170   5.242
  193SOL    HW2 1479   5.080   4.122   5.380
  194SOL     OW 1480   4.052   6.637   3.021
  194SOL    HW1 1481   4.148   6.629   3.048
  194SOL    HW2 1482   4.034   6.731   2.991
  195SOL     OW 1483   1.703   0.904   3.302
  195SOL    HW1 1484   1.781   0.939   3.354
  195SOL    HW2 1485   1.699   0.947   3.212
  196SOL     OW 1486   3.306   6.683   0.093
  196SOL    HW1 1487   3.269   6.762   0.045
  196SOL    HW2 1488   3.394   6.706   0.135
  197SOL     OW 1489   3.017   5.951   6.862
  197SOL    HW1 1490   3.084   5.992   6.800
  197SOL    HW2 1491   2.961   6.022   6.904
  198SOL     OW 1492   4.594   6.740   1.445
  198SOL    HW1 1493   4.528   6.758   1.372
  198SOL    HW2 1494   4.585   6.810   1.516
  199SOL     OW 1495   6.817   1.208   2.856
  199SOL    HW1 1496   6.908   1.249   2.850
  199SOL    HW2 1497   6.817   1.119   2.809
  200SOL     OW 1498   0.958   4.253   2.559
  200SOL    HW1 1499   1.036   4.203   2.596
  200SOL    HW2 1500   0.954   4.344   2.600
  201SOL     OW 1501   3.347   6.755   5.790
  201SOL    HW1 1502   3.410   6.720   5.721
  201SOL    HW2 1503   3.333   6.685   5.860
  202SOL     OW 1504   4.791   0.557   5.137
  202SOL    HW1 1505   4.867   0.501   5.102
  202SOL    HW2 1506   4.815   0.653   5.130
  203SOL     OW 1507   4.668   2.562   4.797
  203SOL    HW1 1508   4.705   2.480   4.841
  203SOL    HW2 1509   4.741   2.610   4.750
  204SOL     OW 1510   0.829   0.348   6.507
  204SOL    HW1 1511   0.736   0.348   6.542
  204SOL    HW2 1512   0.840   0.276   6.439
  205SOL     OW 1513   1.004   1.398   1.938
  205SOL    HW1 1514   1.007   1.299   1.954
  205SOL    HW2 1515   1.092   1.429   1.903
  206SOL     OW 1516   0.707   4.804   2.528
  206SOL    HW1 1517   0.610   4.790   2.509
  206SOL    HW2 1518   0.741   4.881   2.474
  207SOL     OW 1519   3.540   0.738   5.150
  207SOL    HW1 1520   3.610   0.808   5.163
  207SOL    HW2 1521   3.582   0.647   5.159
  208SOL     OW 1522   4.967   3.513   6.112
  208SOL    HW1 1523   4.950   3.440   6.045
  208SOL    HW2 1524   5.056   3.555   6.093
  209SOL     OW 1525   1.271   5.749   6.193
  209SOL    HW1 1526   1.205   5.822   6.210
  209SOL    HW2 1527   1.225   5.672   6.150
  210SOL     OW 1528   4.263   1.886   2.608
  210SOL    HW1 1529   4.268   1.947   2.529
  210SOL    HW2 1530   4.179   1.832   2.604
  211SOL     OW 1531   0.990   6.268   3.914
  211SOL    HW1 1532   1.010   6.312   4.001
  211SOL    HW2 1533   0.906   6.307   3.875
  212SOL     OW 1534   2.333   4.221   1.961
  212SOL    HW1 1535   2.367   4.169   1.883
  212SOL    HW2 1536   2.410   4.264   2.009
  213SOL     OW 1537   4.232   1.050   6.723
  213SOL    HW1 1538   4.275   1.079   6.809
  213SOL    HW2 1539   4.262   1.111   6.649
  214SOL     OW 1540   2.998   6.064   2.603
  214SOL    HW1 1541   3.045   6.014   2.531
  214SOL    HW2 1542   2.901   6.042   2.602
  215SOL     OW 1543   3.061   4.127   1.915
  215SOL    HW1 1544   2.982   4.121   1.854
  215SOL    HW2 1545   3.031   4.152   2.007
  216SOL     OW 1546   1.582   0.163   4.844
  216SOL    HW1 1547   1.536   0.091   4.792
  216SOL    HW2 1548   1.535   0.177   4.931
  217SOL     OW 1549   2.043   2.550   4.963
  217SOL    HW1 1550   2.070   2.600   4.881
  217SOL    HW2 1551   2.106   2.571   5.037
  218SOL     OW 1552   1.264   2.707   5.417
  218SOL    HW1 1553   1.204   2.783   5.439
  218SOL    HW2 1554   1.244   2.629   5.476
  219SOL     OW 1555   3.707   5.367   5.983
  219SOL    HW1 1556   3.749   5.390   6.071
  219SOL    HW2 1557   3.738   5.431   5.913
  220SOL     OW 1558   3.482   6.101   6.914
  220SOL    HW1 1559   3.483   6.016   6.862
  220SOL    HW2 1560   3.398   6.151   6.892
  221SOL     OW 1561   6.583   4.155   2.532
  221SOL    HW1 1562   6.620   4.139   2.440
  221SOL    HW2 1563   6.483   4.160   2.528
  222SOL     OW 1564   2.042   4.947   5.430
  222SOL    HW1 1565   2.102   4.867   5.430
  222SOL    HW2 1566   1.962   4.928   5.487
  223SOL     OW 1567   0.286   4.056   0.593
  223SOL    HW1 1568   0.354   3.983   0.592
  223SOL    HW2 1569   0.205   4.027   0.541
  224SOL     OW 1570   2.554   2.507   3.591
  224SOL    HW1 1571   2.500   2.479   3.671
  224SOL    HW2 1572   2.633   2.447   3.582
  225SOL     OW 1573   5.204   1.408   6.259
  225SOL    HW1 1574   5.264   1.476   6.217
  225SOL    HW2 1575   5.144   1.453   6.326
  226SOL     OW 1576   0.533   6.713   0.308
  226SOL    HW1 1577   0.632   6.714   0.294
  226SOL    HW2 1578   0.509   6.635   0.365
  227SOL     OW 1579   1.182   4.544   2.268
  227SOL    HW1 1580   1.156   4.612   2.337
  227SOL    HW2 1581   1.178   4.452   2.309
  228SOL     OW 1582   2.810   6.538   3.809
  228SOL    HW1 1583   2.824   6.631   3.776
  228SOL    HW2 1584   2.783   6.479   3.733
  229SOL     OW 1585   6.043   5.510   0.531
  229SOL    HW1 1586   6.079   5.567   0.457
  229SOL    HW2 1587   5.995   5.567   0.597
  230SOL     OW 1588   3.445   5.015   3.698
  230SOL    HW1 1589   3.439   5.019   3.797
  230SOL    HW2 1590   3.539   4.997   3.671
  231SOL     OW 1591   5.981   2.313   5.758
  231SOL    HW1 1592   5.910   2.358   5.703
  231SOL    HW2 1593   6.034   2.251   5.700
  232SOL     OW 1594   0.913   4.406   6.317
  232SOL    HW1 1595   0.993   4.392   6.258
  232SOL    HW2 1596   0.900   4.504   6.332
  233SOL     OW 1597   2.534   1.226   4.514
  233SOL    HW1 1598   2.471   1.153   4.489
  233SOL    HW2 1599   2.508   1.311   4.467
  234SOL     OW 1600   2.644   6.014   5.057
  234SOL    HW1 1601   2.607   5.936   5.006
  234SOL    HW2 1602   2.602   6.098   5.023
  235SOL     OW 1603   3.034   3.208   3.097
  235SOL    HW1 1604   2.978   3.192   3.015
  235SOL    HW2 1605   3.010   3.297   3.137
  236SOL     OW 1606   5.941   2.802   6.526
  236SOL    HW1 1607   5.907   2.813   6.620
  236SOL    HW2 1608   5.886   2.858   6.465
  237SOL     OW 1609   0.329   6.859   0.718
  237SOL    HW1 1610   0.326   6.859   0.618
  237SOL    HW2 1611   0.415   6.819   0.749
  238SOL     OW 1612   6.576   2.901   0.347
  238SOL    HW1 1613   6.610   2.888   0.440
  238SOL    HW2 1614   6.496   2.844   0.331
  239SOL     OW 1615   6.779   4.609   0.224
  239SOL    HW1 1616   6.792   4.521   0.177
  239SOL    HW2 1617   6.734   4.673   0.162
  240SOL     OW 1618   0.551   2.985   5.339
  240SOL    HW1 1619   0.601   3.005   5.423
  240SOL    HW2 1620   0.455   3.011   5.352
  241SOL     OW 1621   0.437   0.786   3.639
  241SOL    HW1 1622   0.373   0.861   3.623
  241SOL    HW2 1623   0.425   0.753   3.733
  242SOL     OW 1624   2.068   2.928   5.738
  242SOL    HW1 1625   2.079   2.842   5.788
  242SOL    HW2 1626   2.018   2.911   5.654
  243SOL     OW 1627   4.913   0.193   5.493
  243SOL    HW1 1628   4.937   0.125   5.424
  243SOL    HW2 1629   4.840   0.252   5.459
  244SOL     OW 1630   4.745   2.870   4.305
  244SOL    HW1 1631   4.827   2.828   4.343
  244SOL    HW2 1632   4.727   2.831   4.214
  245SOL     OW 1633   6.497   2.954   4.520
  245SOL    HW1 1634   6.566   2.976   4.589
  245SOL    HW2 1635   6.487   2.855   4.512
  246SOL     OW 1636   5.755   3.604   3.268
  246SOL    HW1 1637   5.780   3.520   3.219
  246SOL    HW2 1638   5.667   3.590   3.314
  247SOL     OW 1639   2.188   1.968   2.745
  247SOL    HW1 1640   2.091   1.947   2.758
  247SOL    HW2 1641   2.236   1.961   2.832
  248SOL     OW 1642   4.647   2.710   4.094
  248SOL    HW1 1643   4.669   2.717   3.997
  248SOL    HW2 1644   4.557   2.668   4.105
  249SOL     OW 1645   4.019   0.388   5.288
  249SOL    HW1 1646   4.052   0.474   5.326
  249SOL    HW2 1647   3.923   0.374   5.313
  250SOL     OW 1648   4.931   1.977   5.394
  250SOL    HW1 1649   4.897   1.932   5.312
  250SOL    HW2 1650   4.919   2.076   5.386
  251SOL     OW 1651   4.065   4.502   6.250
  251SOL    HW1 1652   3.983   4.556   6.271
  251SOL    HW2 1653   4.146   4.556   6.270
  252SOL     OW 1654   6.973   1.282   5.845
  252SOL    HW1 1655   6.910   1.255   5.918
  252SOL    HW2 1656   0.001   1.202   5.813
  253SOL     OW 1657   2.764   4.598   0.299
  253SOL    HW1 1658   2.842   4.587   0.237
  253SOL    HW2 1659   2.694   4.654   0.255
  254SOL     OW 1660   6.797   2.851   4.093
  254SOL    HW1 1661   6.872   2.885   4.150
  254SOL    HW2 1662   6.713   2.899   4.117
  255SOL     OW 1663   2.525   1.994   3.851
  255SOL    HW1 1664   2.539   1.918   3.787
  255SOL    HW2 1665   2.516   2.079   3.799
  256SOL     OW 1666   6.341   4.574   6.699
  256SOL    HW1 1667   6.331   4.623   6.786
  256SOL    HW2 1668   6.381   4.484   6.716
  257SOL     OW 1669   3.346   5.147   5.559
  257SOL    HW1 1670   3.326   5.049   5.559
  257SOL    HW2 1671   3.272   5.195   5.606
  258SOL     OW 1672   5.152   3.795   4.742
  258SOL    HW1 1673   5.172   3.886   4.776
  258SOL    HW2 1674   5.056   3.773   4.759
  259SOL     OW 1675   1.780   2.703   2.406
  259SOL    HW1 1676   1.775   2.627   2.470
  259SOL    HW2 1677   1.870   2.747   2.414
  260SOL     OW 1678   4.609   0.606   0.689
  260SOL    HW1 1679   4.562   0.636   0.606
  260SOL    HW2 1680   4.586   0.510   0.707
  261SOL     OW 1681   0.417   3.812   1.155
  261SOL    HW1 1682   0.471   3.871   1.095
  261SOL    HW2 1683   0.384   3.733   1.104
  262SOL     OW 1684   0.634   3.857   1.868
  262SOL    HW1 1685   0.666   3.915   1.943
  262SOL    HW2 1686   0.669   3.764   1.882
  263SOL     OW 1687   0.110   1.677   4.226
  263SOL    HW1 1688   0.043   1.673   4.300
  263SOL    HW2 1689   0.195   1.718   4.261
  264SOL     OW 1690   6.427   3.944   5.761
  264SOL    HW1 1691   6.507   3.979   5.712
  264SOL    HW2 1692   6.366   4.020   5.784
  265SOL     OW 1693   5.304   3.868   3.519
  265SOL    HW1 1694   5.367   3.818   3.579
  265SOL    HW2 1695   5.329   3.851   3.424
  266SOL     OW 1696   3.666   2.922   6.529
  266SOL    HW1 1697   3.750   2.880   6.496
  266SOL    HW2 1698   3.590   2.857   6.524
  267SOL     OW 1699   0.480   2.824   0.025
  267SOL    HW1 1700   0.572   2.799   0.056
  267SOL    HW2 1701   0.420   2.743   0.030
  268SOL     OW 1702   5.106   5.576   4.943
  268SOL    HW1 1703   5.067   5.518   5.015
  268SOL    HW2 1704   5.116   5.523   4.859
  269SOL     OW 1705   1.707   1.841   0.443
  269SOL    HW1 1706   1.725   1.811   0.349
  269SOL    HW2 1707   1.609   1.851   0.457
  270SOL     OW 1708   6.260   0.959   1.748
  270SOL    HW1 1709   6.193   0.911   1.805
  270SOL    HW2 1710   6.285   0.902   1.670
  271SOL     OW 1711   2.940   1.622   0.775
  271SOL    HW1 1712   2.972   1.709   0.737
  271SOL    HW2 1713   3.019   1.568   0.806
  272SOL     OW 1714   3.534   5.434   4.113
  272SOL    HW1 1715   3.547   5.363   4.182
  272SOL    HW2 1716   3.621   5.479   4.094
  273SOL     OW 1717   1.492   5.668   5.835
  273SOL    HW1 1718   1.467   5.762   5.854
  273SOL    HW2 1719   1.519   5.658   5.739
  274SOL     OW 1720   4.702   2.656   3.834
  274SOL    HW1 1721   4.716   2.563   3.868
  274SOL    HW2 1722   4.642   2.653   3.754
  275SOL     OW 1723   1.003   6.113   6.395
  275SOL    HW1 1724   1.051   6.086   6.478
  275SOL    HW2 1725   1.066   6.163   6.335
  276SOL     OW 1726   6.498   5.593   4.213
  276SOL    HW1 1727   6.540   5.679   4.185
  276SOL    HW2 1728   6.547   5.517   4.173
  277SOL     OW 1729   3.363   0.976   6.283
  277SOL    HW1 1730   3.279   0.988   6.336
  277SOL    HW2 1731   3.441   1.003   6.339
  278SOL     OW 1732   5.862   3.486   1.967
  278SOL    HW1 1733   5.859   3.386   1.971
  278SOL    HW2 1734   5.947   3.515   1.923
  279SOL     OW 1735   6.165   3.307   3.942
  279SOL    HW1 1736   6.160   3.341   4.036
  279SOL    HW2 1737   6.169   3.207   3.943
  280SOL     OW 1738   4.432   0.116   3.592
  280SOL    HW1 1739   4.403   0.021   3.576
  280SOL    HW2 1740   4.352   0.173   3.607
  281SOL     OW 1741   2.818   5.071   3.711
  281SOL    HW1 1742   2.737   5.116   3.750
  281SOL    HW2 1743   2.809   4.972   3.720
  282SOL     OW 1744   3.724   2.681   5.627
  282SOL    HW1 1745   3.792   2.735   5.676
  282SOL    HW2 1746   3.746   2.584   5.634
  283SOL     OW 1747   5.894   0.374   5.374
  283SOL    HW1 1748   5.820   0.308   5.384
  283SOL    HW2 1749   5.981   0.331   5.398
  284SOL     OW 1750   1.234   4.152   4.634
  284SOL    HW1 1751   1.142   4.191   4.627
  284SOL    HW2 1752   1.302   4.225   4.637
  285SOL     OW 1753   5.547   6.139   0.219
  285SOL    HW1 1754   5.498   6.122   0.305
  285SOL    HW2 1755   5.485   6.180   0.152
  286SOL     OW 1756   4.292   4.819   5.518
  286SOL    HW1 1757   4.197   4.791   5.503
  286SOL    HW2 1758   4.334   4.760   5.587
  287SOL     OW 1759   1.631   5.601   6.998
  287SOL    HW1 1760   1.555   5.551   0.017
  287SOL    HW2 1761   1.694   5.536   6.955
  288SOL     OW 1762   4.070   1.093   0.534
  288SOL    HW1 1763   4.045   1.057   0.623
  288SOL    HW2 1764   4.152   1.046   0.500
  289SOL     OW 1765   1.538   5.241   5.836
  289SOL    HW1 1766   1.509   5.145   5.830
  289SOL    HW2 1767   1.515   5.277   5.926
  290SOL     OW 1768   4.411   0.830   3.509
  290SOL    HW1 1769   4.372   0.918   3.537
  290SOL    HW2 1770   4.501   0.819   3.551
  291SOL     OW 1771   4.507   1.129   3.878
  291SOL    HW1 1772   4.481   1.225   3.870
  291SOL    HW2 1773   4.480   1.094   3.967
  292SOL     OW 1774   4.703   1.322   3.639
  292SOL    HW1 1775   4.721   1.411   3.598
  292SOL    HW2 1776   4.657   1.335   3.727
  293SOL     OW 1777   4.476   6.358   1.340
  293SOL    HW1 1778   4.531   6.295   1.285
  293SOL    HW2 1779   4.382   6.325   1.345
  294SOL     OW 1780   6.603   5.826   6.424
  294SOL    HW1 1781   6.579   5.906   6.370
  294SOL    HW2 1782   6.681   5.847   6.482
  295SOL     OW 1783   1.960   2.557   5.574
  295SOL    HW1 1784   2.039   2.604   5.535
  295SOL    HW2 1785   1.991   2.487   5.638
  296SOL     OW 1786   6.786   2.490   1.278
  296SOL    HW1 1787   6.702   2.438   1.262
  296SOL    HW2 1788   6.767   2.566   1.340
  297SOL     OW 1789   3.788   4.889   3.438
  297SOL    HW1 1790   3.693   4.920   3.443
  297SOL    HW2 1791   3.831   4.899   3.527
  298SOL     OW 1792   4.214   0.350   0.137
  298SOL    HW1 1793   4.242   0.279   0.203
  298SOL    HW2 1794   4.296   0.392   0.097
  299SOL     OW 1795   3.950   1.855   0.510
  299SOL    HW1 1796   3.937   1.947   0.545
  299SOL    HW2 1797   3.901   1.845   0.423
  300SOL     OW 1798   4.048   0.515   2.431
  300SOL    HW1 1799   3.992   0.503   2.513
  300SOL    HW2 1800   4.038   0.435   2.372
  301SOL     OW 1801   5.116   0.797   1.077
  301SOL    HW1 1802   5.182   0.726   1.052
  301SOL    HW2 1803   5.060   0.820   0.997
  302SOL     OW 1804   1.003   1.059   2.286
  302SOL    HW1 1805   1.103   1.054   2.285
  302SOL    HW2 1806   0.966   1.004   2.212
  303SOL     OW 1807   6.611   5.782   1.639
  303SOL    HW1 1808   6.607   5.881   1.623
  303SOL    HW2 1809   6.517   5.747   1.648
  304SOL     OW 1810   2.310   6.225   6.201
  304SOL    HW1 1811   2.330   6.323   6.203
  304SOL    HW2 1812   2.297   6.192   6.294
  305SOL     OW 1813   1.596   2.980   0.687
  305SOL    HW1 1814   1.529   2.908   0.670
  305SOL    HW2 1815   1.681   2.939   0.719
  306SOL     OW 1816   0.300   1.617   2.902
  306SOL    HW1 1817   0.363   1.567   2.843
  306SOL    HW2 1818   0.337   1.624   2.994
  307SOL     OW 1819   3.811   4.016   0.252
  307SOL    HW1 1820   3.722   4.018   0.296
  307SOL    HW2 1821   3.883   4.011   0.321
  308SOL     OW 1822   5.757   2.969   3.933
  308SOL    HW1 1823   5.763   2.983   3.835
  308SOL    HW2 1824   5.801   3.046   3.980
  309SOL     OW 1825   1.524   6.036   0.776
  309SOL    HW1 1826   1.622   6.055   0.783
  309SOL    HW2 1827   1.473   6.121   0.789
  310SOL     OW 1828   5.025   6.726   4.330
  310SOL    HW1 1829   5.025   6.767   4.421
  310SOL    HW2 1830   4.996   6.794   4.262
  311SOL     OW 1831   2.646   4.921   2.656
  311SOL    HW1 1832   2.686   5.003   2.616
  311SOL    HW2 1833   2.718   4.866   2.699
  312SOL     OW 1834   3.669   2.071   3.974
  312SOL    HW1 1835   3.663   2.110   4.067
  312SOL    HW2 1836   3.613   1.988   3.969
  313SOL     OW 1837   3.087   3.970   2.812
  313SOL    HW1 1838   3.175   3.942   2.853
  313SOL    HW2 1839   3.026   4.001   2.884
  314SOL     OW 1840   2.067   4.575   4.872
  314SOL    HW1 1841   1.978   4.535   4.851
  314SOL    HW2 1842   2.136   4.538   4.810
  315SOL     OW 1843   0.961   2.100   4.162
  315SOL    HW1 1844   0.906   2.018   4.178
  315SOL    HW2 1845   1.043   2.075   4.111
  316SOL     OW 1846   4.087   1.071   4.577
  316SOL    HW1 1847   4.001   1.021   4.583
  316SOL    HW2 1848   4.071   1.169   4.588
  317SOL     OW 1849   0.829   1.554   1.773
  317SOL    HW1 1850   0.815   1.520   1.680
  317SOL    HW2 1851   0.908   1.507   1.814
  318SOL     OW 1852   6.334   0.467   6.754
  318SOL    HW1 1853   6.409   0.415   6.714
  318SOL    HW2 1854   6.246   0.428   6.724
  319SOL     OW 1855   6.955   2.401   4.003
  319SOL    HW1 1856   6.961   2.415   3.904
  319SOL    HW2 1857   6.868   2.437   4.037
  320SOL     OW 1858   6.357   3.200   0.088
  320SOL    HW1 1859   6.334   3.136   0.014
  320SOL    HW2 1860   6.374   3.148   0.172
  321SOL     OW 1861   4.142   2.146   0.194
  321SOL    HW1 1862   4.046   2.169   0.178
  321SOL    HW2 1863   4.159   2.141   0.293
  322SOL     OW 1864   3.766   3.047   4.472
  322SOL    HW1 1865   3.704   2.985   4.425
  322SOL    HW2 1866   3.760   3.031   4.571
  323SOL     OW 1867   1.212   2.406   5.285
  323SOL    HW1 1868   1.278   2.457   5.231
  323SOL    HW2 1869   1.229   2.422   5.383
  324SOL     OW 1870   2.454   0.169   3.404
  324SOL    HW1 1871   2.546   0.208   3.398
  324SOL    HW2 1872   2.389   0.233   3.363
  325SOL     OW 1873   0.922   3.721   2.774
  325SOL    HW1 1874   0.990   3.687   2.708
  325SOL    HW2 1875   0.863   3.646   2.803
  326SOL     OW 1876   0.869   4.121   6.320
  326SOL    HW1 1877   0.910   4.101   6.230
  326SOL    HW2 1878   0.857   4.220   6.329
  327SOL     OW 1879   2.368   4.438   3.038
  327SOL    HW1 1880   2.448   4.485   3.075
  327SOL    HW2 1881   2.328   4.493   2.964
  328SOL     OW 1882   2.274   4.842   1.619
  328SOL    HW1 1883   2.370   4.829   1.645
  328SOL    HW2 1884   2.236   4.755   1.587
  329SOL     OW 1885   2.699   3.821   5.762
  329SOL    HW1 1886   2.617   3.801   5.816
  329SOL    HW2 1887   2.739   3.735   5.731
  330SOL     OW 1888   3.461   6.114   0.538
  330SOL    HW1 1889   3.419   6.141   0.624
  330SOL    HW2 1890   3.549   6.069   0.556
  331SOL     OW 1891   5.524   5.451   0.760
  331SOL    HW1 1892   5.573   5.522   0.711
  331SOL    HW2 1893   5.448   5.417   0.704
  332SOL     OW 1894   5.977   2.376   4.523
  332SOL    HW1 1895   6.071   2.404   4.506
  332SOL    HW2 1896   5.957   2.292   4.472
  333SOL     OW 1897   4.021   0.424   4.998
  333SOL    HW1 1898   3.971   0.511   4.994
  333SOL    HW2 1899   4.012   0.384   5.089
  334SOL     OW 1900   3.442   2.134   0.075
  334SOL    HW1 1901   3.476   2.226   0.055
  334SOL    HW2 1902   3.345   2.139   0.101
  335SOL     OW 1903   3.492   0.515   6.859
  335SOL    HW1 1904   3.430   0.526   6.781
  335SOL    HW2 1905   3.445   0.463   6.930
  336SOL     OW 1906   2.894   0.714   3.512
  336SOL    HW1 1907   2.925   0.619   3.520
  336SOL    HW2 1908   2.959   0.765   3.455
  337SOL     OW 1909   0.252   3.199   5.851
  337SOL    HW1 1910   0.171   3.213   5.793
  337SOL    HW2 1911   0.270   3.101   5.860
  338SOL     OW 1912   3.195   2.482   1.473
  338SOL    HW1 1913   3.138   2.518   1.399
  338SOL    HW2 1914   3.185   2.383   1.478
  339SOL     OW 1915   4.715   5.287   4.914
  339SOL    HW1 1916   4.693   5.319   5.006
  339SOL    HW2 1917   4.794   5.226   4.918
  340SOL     OW 1918   4.865   3.254   4.585
  340SOL    HW1 1919   4.801   3.205   4.643
  340SOL    HW2 1920   4.958   3.244   4.621
  341SOL     OW 1921   5.660   6.984   4.837
  341SOL    HW1 1922   5.634   7.000   4.932
  341SOL    HW2 1923   5.673   6.886   4.822
  342SOL     OW 1924   5.200   3.000   0.480
  342SOL    HW1 1925   5.272   2.983   0.412
  342SOL    HW2 1926   5.119   2.945   0.458
  343SOL     OW 1927   0.069   6.410   2.185
  343SOL    HW1 1928   0.079   6.475   2.109
  343SOL    HW2 1929   0.013   6.450   2.257
  344SOL     OW 1930   0.652   3.065   1.939
  344SOL    HW1 1931   0.679   2.994   2.003
  344SOL    HW2 1932   0.555   3.053   1.915
  345SOL     OW 1933   5.856   2.501   4.281
  345SOL    HW1 1934   5.815   2.592   4.271
  345SOL    HW2 1935   5.849   2.471   4.376
  346SOL     OW 1936   1.709   0.557   2.487
  346SOL    HW1 1937   1.792   0.560   2.432
  346SOL    HW2 1938   1.728   0.592   2.579
  347SOL     OW 1939   3.363   5.632   0.326
  347SOL    HW1 1940   3.331   5.724   0.348
  347SOL    HW2 1941   3.348   5.614   0.229
  348SOL     OW 1942   4.897   4.091   3.010
  348SOL    HW1 1943   4.812   4.145   3.010
  348SOL    HW2 1944   4.937   4.093   2.918
  349SOL     OW 1945   6.588   4.775   2.056
  349SOL    HW1 1946   6.628   4.862   2.029
  349SOL    HW2 1947   6.607   4.758   2.153
  350SOL     OW 1948   2.448   2.734   1.058
  350SOL    HW1 1949   2.433   2.824   1.097
  350SOL    HW2 1950   2.506   2.742   0.977
  351SOL     OW 1951   2.226   3.204   0.654
  351SOL    HW1 1952   2.313   3.172   0.615
  351SOL    HW2 1953   2.237   3.299   0.685
  352SOL     OW 1954   3.452   6.864   3.701
  352SOL    HW1 1955   3.405   6.797   3.644
  352SOL    HW2 1956   3.427   6.850   3.797
  353SOL     OW 1957   2.993   0.237   6.915
  353SOL    HW1 1958   3.026   0.328   6.888
  353SOL    HW2 1959   2.945   0.195   6.838
  354SOL     OW 1960   4.299   2.020   1.423
  354SOL    HW1 1961   4.241   1.953   1.470
  354SOL    HW2 1962   4.359   1.972   1.360
  355SOL     OW 1963   1.582   4.201   2.863
  355SOL    HW1 1964   1.669   4.187   2.815
  355SOL    HW2 1965   1.585   4.154   2.951
  356SOL     OW 1966   2.503   1.040   5.710
  356SOL    HW1 1967   2.448   1.112   5.667
  356SOL    HW2 1968   2.461   0.951   5.694
  357SOL     OW 1969   6.511   6.093   5.345
  357SOL    HW1 1970   6.567   6.013   5.324
  357SOL    HW2 1971   6.429   6.064   5.395
  358SOL     OW 1972   4.972   6.592   1.154
  358SOL    HW1 1973   4.970   6.626   1.248
  358SOL    HW2 1974   4.940   6.664   1.092
  359SOL     OW 1975   3.309   1.330   2.387
  359SOL    HW1 1976   3.252   1.410   2.406
  359SOL    HW2 1977   3.395   1.337   2.437
  360SOL     OW 1978   1.721   3.846   5.138
  360SOL    HW1 1979   1.661   3.851   5.058
  360SOL    HW2 1980   1.775   3.929   5.145
  361SOL     OW 1981   6.805   6.570   3.117
  361SOL    HW1 1982   6.713   6.607   3.131
  361SOL    HW2 1983   6.799   6.475   3.084
  362SOL     OW 1984   3.331   2.806   1.876
  362SOL    HW1 1985   3.424   2.790   1.910
  362SOL    HW2 1986   3.303   2.730   1.819
  363SOL     OW 1987   6.053   4.383   3.434
  363SOL    HW1 1988   6.151   4.391   3.450
  363SOL    HW2 1989   6.015   4.313   3.494
  364SOL     OW 1990   0.244   5.248   6.842
  364SOL    HW1 1991   0.318   5.295   6.889
  364SOL    HW2 1992   0.267   5.240   6.745
  365SOL     OW 1993   4.944   0.085   1.126
  365SOL    HW1 1994   4.846   0.106   1.134
  365SOL    HW2 1995   4.956   0.002   1.071
  366SOL     OW 1996   6.017   2.027   6.386
  366SOL    HW1 1997   5.979   2.119   6.394
  366SOL    HW2 1998   5.948   1.966   6.347
  367SOL     OW 1999   5.913   2.379   0.089
  367SOL    HW1 2000   5.943   2.393   0.183
  367SOL    HW2 2001   5.923   2.283   0.065
  368SOL     OW 2002   0.300   2.431   5.350
  368SOL    HW1 2003   0.315   2.333   5.334
  368SOL    HW2 2004   0.352   2.459   5.431
  369SOL     OW 2005   5.852   5.243   2.327
  369SOL    HW1 2006   5.904   5.162   2.353
  369SOL    HW2 2007   5.755   5.220   2.322
  370SOL     OW 2008   1.166   1.710   4.627
  370SOL    HW1 2009   1.143   1.614   4.645
  370SOL    HW2 2010   1.190   1.755   4.713
  371SOL     OW 2011   1.939   4.514   6.643
  371SOL    HW1 2012   1.985   4.578   6.582
  371SOL    HW2 2013   1.840   4.529   6.638
  372SOL     OW 2014   1.877   6.932   5.824
  372SOL    HW1 2015   1.961   6.940   5.877
  372SOL    HW2 2016   1.896   6.886   5.738
  373SOL     OW 2017   5.651   6.068   4.995
  373SOL    HW1 2018   5.633   6.121   4.912
  373SOL    HW2 2019   5.680   5.976   4.970
  374SOL     OW 2020   2.760   2.375   3.459
  374SOL    HW1 2021   2.735   2.431   3.380
  374SOL    HW2 2022   2.828   2.308   3.433
  375SOL     OW 2023   0.911   3.876   4.107
  375SOL    HW1 2024   0.916   3.796   4.167
  375SOL    HW2 2025   0.999   3.924   4.107
  376SOL     OW 2026   1.225   1.322   5.242
  376SOL    HW1 2027   1.142   1.356   5.199
  376SOL    HW2 2028   1.220   1.223   5.252
  377SOL     OW 2029   1.462   1.918   0.556
  377SOL    HW1 2030   1.366   1.902   0.534
  377SOL    HW2 2031   1.478   2.016   0.566
  378SOL     OW 2032   4.410   1.700   0.471
  378SOL    HW1 2033   4.332   1.754   0.441
  378SOL    HW2 2034   4.388   1.650   0.554
  379SOL     OW 2035   5.233   2.330   0.955
  379SOL    HW1 2036   5.141   2.305   0.925
  379SOL    HW2 2037   5.288   2.246   0.967
  380SOL     OW 2038   3.129   1.434   0.884
  380SOL    HW1 2039   3.126   1.340   0.917
  380SOL    HW2 2040   3.182   1.439   0.799
  381SOL     OW 2041   1.903   3.596   3.647
  381SOL    HW1 2042   1.858   3.671   3.694
  381SOL    HW2 2043   1.954   3.631   3.568
  382SOL     OW 2044   5.664   0.681   0.442
  382SOL    HW1 2045   5.744   0.654   0.496
  382SOL    HW2 2046   5.614   0.753   0.490
  383SOL     OW 2047   3.463   3.319   6.647
  383SOL    HW1 2048   3.562   3.327   6.647
  383SOL    HW2 2049   3.434   3.265   6.568
  384SOL     OW 2050   6.543   5.538   4.476
  384SOL    HW1 2051   6.533   5.558   4.379
  384SOL    HW2 2052   6.636   5.505   4.494
  385SOL     OW 2053   3.078   4.862   4.986
  385SOL    HW1 2054   3.164   4.811   4.988
  385SOL    HW2 2055   3.002   4.799   5.006
  386SOL     OW 2056   2.965   5.823   4.138
  386SOL    HW1 2057   3.033   5.808   4.210
  386SOL    HW2 2058   2.927   5.735   4.110
  387SOL     OW 2059   0.819   5.952   2.791
  387SOL    HW1 2060   0.881   5.973   2.867
  387SOL    HW2 2061   0.837   5.859   2.758
  388SOL     OW 2062   1.520   2.019   6.176
  388SOL    HW1 2063   1.483   1.977   6.093
  388SOL    HW2 2064   1.535   2.116   6.160
  389SOL     OW 2065   3.980   3.887   1.870
  389SOL    HW1 2066   3.956   3.905   1.965
  389SOL    HW2 2067   4.073   3.849   1.866
  390SOL     OW 2068   2.468   1.414   2.122
  390SOL    HW1 2069   2.445   1.369   2.208
  390SOL    HW2 2070   2.567   1.414   2.111
  391SOL     OW 2071   2.575   1.727   6.493
  391SOL    HW1 2072   2.648   1.794   6.510
  391SOL    HW2 2073   2.492   1.756   6.539
  392SOL     OW 2074   1.956   4.827   0.828
  392SOL    HW1 2075   1.934   4.923   0.841
  392SOL    HW2 2076   2.051   4.818   0.797
  393SOL     OW 2077   1.019   4.072   6.552
  393SOL    HW1 2078   1.010   4.164   6.590
  393SOL    HW2 2079   0.971   4.067   6.464
  394SOL     OW 2080   6.759   1.292   6.957
  394SOL    HW1 2081   6.729   1.299   0.030
  394SOL    HW2 2082   6.712   1.216   6.913
  395SOL     OW 2083   5.012   3.808   3.075
  395SOL    HW1 2084   4.950   3.798   2.997
  395SOL    HW2 2085   4.960   3.810   3.160
  396SOL     OW 2086   3.688   4.189   1.657
  396SOL    HW1 2087   3.658   4.168   1.749
  396SOL    HW2 2088   3.623   4.253   1.614
  397SOL     OW 2089   4.788   2.117   5.799
  397SOL    HW1 2090   4.779   2.209   5.760
  397SOL    HW2 2091   4.712   2.100   5.861
  398SOL     OW 2092   0.323   6.443   2.304
  398SOL    HW1 2093   0.348   6.347   2.287
  398SOL    HW2 2094   0.234   6.462   2.263
  399SOL     OW 2095   5.535   6.471   2.448
  399SOL    HW1 2096   5.493   6.396   2.396
  399SOL    HW2 2097   5.581   6.433   2.529
  400SOL     OW 2098   6.294   6.754   5.952
  400SOL    HW1 2099   6.283   6.852   5.935
  400SOL    HW2 2100   6.301   6.706   5.864
  401SOL     OW 2101   4.758   0.398   5.377
  401SOL    HW1 2102   4.784   0.428   5.285
  401SOL    HW2 2103   4.751   0.478   5.437
  402SOL     OW 2104   5.657   0.223   3.252
  402SOL    HW1 2105   5.596   0.164   3.199
  402SOL    HW2 2106   5.748   0.182   3.257
  403SOL     OW 2107   3.965   1.854   4.308
  403SOL    HW1 2108   4.035   1.897   4.364
  403SOL    HW2 2109   3.879   1.905   4.318
  404SOL     OW 2110   1.148   5.359   4.878
  404SOL    HW1 2111   1.063   5.398   4.914
  404SOL    HW2 2112   1.215   5.432   4.865
  405SOL     OW 2113   1.737   3.427   1.672
  405SOL    HW1 2114   1.661   3.372   1.637
  405SOL    HW2 2115   1.744   3.415   1.771
  406SOL     OW 2116   1.174   4.268   4.931
  406SOL    HW1 2117   1.210   4.273   4.838
  406SOL    HW2 2118   1.180   4.359   4.973
  407SOL     OW 2119   1.156   0.780   3.762
  407SOL    HW1 2120   1.243   0.777   3.811
  407SOL    HW2 2121   1.107   0.693   3.777
  408SOL     OW 2122   1.186   2.889   3.128
  408SOL    HW1 2123   1.125   2.903   3.206
  408SOL    HW2 2124   1.267   2.838   3.159
  409SOL     OW 2125   6.758   2.765   1.145
  409SOL    HW1 2126   6.752   2.850   1.196
  409SOL    HW2 2127   6.711   2.693   1.195
  410SOL     OW 2128   1.701   1.148   1.841
  410SOL    HW1 2129   1.734   1.061   1.805
  410SOL    HW2 2130   1.765   1.183   1.910
  411SOL     OW 2131   5.424   0.084   0.791
  411SOL    HW1 2132   5.362   0.134   0.852
  411SOL    HW2 2133   5.513   0.129   0.791
  412SOL     OW 2134   4.536   6.385   3.657
  412SOL    HW1 2135   4.536   6.300   3.711
  412SOL    HW2 2136   4.531   6.363   3.560
  413SOL     OW 2137   4.995   4.378   1.638
  413SOL    HW1 2138   4.938   4.384   1.721
  413SOL    HW2 2139   4.967   4.297   1.586
  414SOL     OW 2140   3.462   5.280   3.533
  414SOL    HW1 2141   3.379   5.235   3.502
  414SOL    HW2 2142   3.489   5.243   3.622
  415SOL     OW 2143   1.183   5.720   6.818
  415SOL    HW1 2144   1.172   5.628   6.780
  415SOL    HW2 2145   1.096   5.749   6.858
  416SOL     OW 2146   5.183   6.313   4.325
  416SOL    HW1 2147   5.224   6.397   4.289
  416SOL    HW2 2148   5.088   6.331   4.351
  417SOL     OW 2149   2.947   5.003   0.169
  417SOL    HW1 2150   2.996   5.091   0.167
  417SOL    HW2 2151   3.007   4.933   0.208
  418SOL     OW 2152   3.884   6.581   0.701
  418SOL    HW1 2153   3.784   6.582   0.701
  418SOL    HW2 2154   3.917   6.524   0.626
  419SOL     OW 2155   1.743   0.723   1.443
  419SOL    HW1 2156   1.717   0.757   1.352
  419SOL    HW2 2157   1.668   0.740   1.507
  420SOL     OW 2158   5.551   1.141   6.790
  420SOL    HW1 2159   5.469   1.089   6.763
  420SOL    HW2 2160   5.523   1.229   6.826
  421SOL     OW 2161   7.000   4.238   6.192
  421SOL    HW1 2162   6.907   4.207   6.214
  421SOL    HW2 2163   0.025   4.168   6.139
  422SOL     OW 2164   6.090   3.566   0.992
  422SOL    HW1 2165   6.065   3.491   0.932
  422SOL    HW2 2166   6.185   3.593   0.973
  423SOL     OW 2167   1.122   2.049   6.866
  423SOL    HW1 2168   1.202   2.052   6.806
  423SOL    HW2 2169   1.062   1.974   6.838
  424SOL     OW 2170   2.158   4.395   1.014
  424SOL    HW1 2171   2.191   4.483   0.980
  424SOL    HW2 2172   2.136   4.403   1.111
  425SOL     OW 2173   5.794   1.464   2.983
  425SOL    HW1 2174   5.771   1.367   2.978
  425SOL    HW2 2175   5.886   1.475   3.022
  426SOL     OW 2176   4.164   1.635   4.414
  426SOL    HW1 2177   4.117   1.718   4.444
  426SOL    HW2 2178   4.262   1.644   4.431
  427SOL     OW 2179   4.661   5.918   2.966
  427SOL    HW1 2180   4.750   5.873   2.970
  427SOL    HW2 2181   4.649   5.961   2.876
  428SOL     OW 2182   4.593   0.210   4.595
  428SOL    HW1 2183   4.551   0.128   4.556
  428SOL    HW2 2184   4.596   0.282   4.525
  429SOL     OW 2185   1.416   3.246   1.316
  429SOL    HW1 2186   1.468   3.330   1.327
  429SOL    HW2 2187   1.442   3.202   1.230
  430SOL     OW 2188   0.021   0.489   5.550
  430SOL    HW1 2189   6.946   0.482   5.569
  430SOL    HW2 2190   0.069   0.413   5.593
  431SOL     OW 2191   3.335   6.813   0.728
  431SOL    HW1 2192   3.286   6.774   0.650
  431SOL    HW2 2193   3.287   6.894   0.762
  432SOL     OW 2194   6.541   1.345   0.801
  432SOL    HW1 2195   6.565   1.415   0.869
  432SOL    HW2 2196   6.541   1.385   0.710
  433SOL     OW 2197   2.889   6.442   5.063
  433SOL    HW1 2198   2.964   6.451   5.129
  433SOL    HW2 2199   2.880   6.347   5.036
  434SOL     OW 2200   3.453   5.869   3.088
  434SOL    HW1 2201   3.399   5.787   3.102
  434SOL    HW2 2202   3.518   5.880   3.164
  435SOL     OW 2203   4.992   2.733   6.295
  435SOL    HW1 2204   4.988   2.645   6.246
  435SOL    HW2 2205   4.900   2.765   6.315
  436SOL     OW 2206   3.022   6.260   1.107
  436SOL    HW1 2207   3.000   6.247   1.010
  436SOL    HW2 2208   3.060   6.351   1.121
  437SOL     OW 2209   1.226   0.825   0.451
  437SOL    HW1 2210   1.149   0.889   0.453
  437SOL    HW2 2211   1.312   0.876   0.450
  438SOL     OW 2212   1.834   3.860   2.890
  438SOL    HW1 2213   1.932   3.859   2.913
  438SOL    HW2 2214   1.823   3.847   2.791
  439SOL     OW 2215   5.969   4.821   2.936
  439SOL    HW1 2216   5.951   4.836   3.033
  439SOL    HW2 2217   6.003   4.906   2.895
  440SOL     OW 2218   1.879   1.477   5.332
  440SOL    HW1 2219   1.839   1.559   5.292
  440SOL    HW2 2220   1.979   1.487   5.337
  441SOL     OW 2221   1.164   2.601   4.469
  441SOL    HW1 2222   1.205   2.538   4.403
  441SOL    HW2 2223   1.096   2.658   4.424
  442SOL     OW 2224   3.685   5.151   5.849
  442SOL    HW1 2225   3.765   5.151   5.790
  442SOL    HW2 2226   3.687   5.230   5.910
  443SOL     OW 2227   6.110   4.091   4.391
  443SOL    HW1 2228   6.022   4.133   4.412
  443SOL    HW2 2229   6.125   4.013   4.451
  444SOL     OW 2230   5.023   1.456   5.718
  444SOL    HW1 2231   5.069   1.467   5.806
  444SOL    HW2 2232   4.933   1.500   5.721
  445SOL     OW 2233   0.851   5.678   2.719
  445SOL    HW1 2234   0.836   5.593   2.769
  445SOL    HW2 2235   0.925   5.666   2.653
  446SOL     OW 2236   3.931   5.331   3.609
  446SOL    HW1 2237   3.870   5.292   3.678
  446SOL    HW2 2238   4.021   5.291   3.618
  447SOL     OW 2239   0.350   2.630   6.380
  447SOL    HW1 2240   0.334   2.724   6.409
  447SOL    HW2 2241   0.283   2.570   6.423
  448SOL     OW 2242   1.574   0.683   3.412
  448SOL    HW1 2243   1.614   0.769   3.379
  448SOL    HW2 2244   1.640   0.609   3.401
  449SOL     OW 2245   3.981   1.367   4.054
  449SOL    HW1 2246   3.976   1.437   4.125
  449SOL    HW2 2247   4.061   1.309   4.069
  450SOL     OW 2248   1.484   5.500   3.352
  450SOL    HW1 2249   1.570   5.524   3.396
  450SOL    HW2 2250   1.437   5.583   3.323
  451SOL     OW 2251   1.316   2.543   3.669
  451SOL    HW1 2252   1.374   2.619   3.640
  451SOL    HW2 2253   1.222   2.560   3.640
  452SOL     OW 2254   6.189   6.094   0.768
  452SOL    HW1 2255   6.109   6.149   0.789
  452SOL    HW2 2256   6.250   6.092   0.848
  453SOL     OW 2257   3.465   1.028   5.495
  453SOL    HW1 2258   3.452   1.127   5.488
  453SOL    HW2 2259   3.394   0.989   5.553
  454SOL     OW 2260   6.687   4.707   6.145
  454SOL    HW1 2261   6.712   4.639   6.214
  454SOL    HW2 2262   6.770   4.741   6.100
  455SOL     OW 2263   5.946   2.757   3.497
  455SOL    HW1 2264   6.033   2.748   3.448
  455SOL    HW2 2265   5.879   2.694   3.459
  456SOL     OW 2266   6.055   6.196   3.924
  456SOL    HW1 2267   5.972   6.181   3.978
  456SOL    HW2 2268   6.131   6.219   3.985
  457SOL     OW 2269   1.439   2.375   4.141
  457SOL    HW1 2270   1.340   2.382   4.141
  457SOL    HW2 2271   1.467   2.291   4.188
  458SOL     OW 2272   4.225   5.690   3.721
  458SOL    HW1 2273   4.244   5.781   3.684
  458SOL    HW2 2274   4.152   5.647   3.668
  459SOL     OW 2275   2.107   6.429   5.301
  459SOL    HW1 2276   2.195   6.450   5.344
  459SOL    HW2 2277   2.035   6.425   5.371
  460SOL     OW 2278   1.628   6.692   3.637
  460SOL    HW1 2279   1.650   6.628   3.563
  460SOL    HW2 2280   1.628   6.644   3.724
  461SOL     OW 2281   6.611   6.844   5.949
  461SOL    HW1 2282   6.610   6.851   6.049
  461SOL    HW2 2283   6.519   6.819   5.917
  462SOL     OW 2284   3.913   3.193   6.534
  462SOL    HW1 2285   3.844   3.144   6.587
  462SOL    HW2 2286   3.936   3.279   6.580
  463SOL     OW 2287   5.605   6.040   3.355
  463SOL    HW1 2288   5.632   5.960   3.410
  463SOL    HW2 2289   5.572   6.112   3.415
  464SOL     OW 2290   2.920   1.368   4.760
  464SOL    HW1 2291   2.906   1.295   4.693
  464SOL    HW2 2292   3.017   1.391   4.764
  465SOL     OW 2293   0.899   3.151   6.501
  465SOL    HW1 2294   0.956   3.214   6.448
  465SOL    HW2 2295   0.804   3.183   6.499
  466SOL     OW 2296   0.992   6.386   2.897
  466SOL    HW1 2297   1.027   6.383   2.803
  466SOL    HW2 2298   1.060   6.349   2.959
  467SOL     OW 2299   2.145   1.298   0.629
  467SOL    HW1 2300   2.121   1.203   0.648
  467SOL    HW2 2301   2.076   1.358   0.669
  468SOL     OW 2302   3.582   0.530   6.059
  468SOL    HW1 2303   3.541   0.621   6.069
  468SOL    HW2 2304   3.668   0.528   6.110
  469SOL     OW 2305   2.999   3.033   6.755
  469SOL    HW1 2306   3.037   3.121   6.725
  469SOL    HW2 2307   2.937   2.998   6.685
  470SOL     OW 2308   4.376   0.074   1.854
  470SOL    HW1 2309   4.367   7.011   1.905
  470SOL    HW2 2310   4.287   0.117   1.844
  471SOL     OW 2311   2.100   2.451   3.704
  471SOL    HW1 2312   2.040   2.484   3.778
  471SOL    HW2 2313   2.114   2.353   3.714
  472SOL     OW 2314   4.671   3.200   6.326
  472SOL    HW1 2315   4.647   3.235   6.417
  472SOL    HW2 2316   4.771   3.193   6.318
  473SOL     OW 2317   1.066   3.271   3.228
  473SOL    HW1 2318   1.084   3.359   3.271
  473SOL    HW2 2319   1.139   3.251   3.163
  474SOL     OW 2320   5.058   5.828   4.318
  474SOL    HW1 2321   5.127   5.895   4.289
  474SOL    HW2 2322   5.066   5.812   4.416
  475SOL     OW 2323   5.650   1.105   6.196
  475SOL    HW1 2324   5.591   1.173   6.240
  475SOL    HW2 2325   5.701   1.055   6.266
  476SOL     OW 2326   0.028   3.589   3.545
  476SOL    HW1 2327   7.018   3.607   3.452
  476SOL    HW2 2328   0.045   3.676   3.592
  477SOL     OW 2329   1.755   6.088   3.589
  477SOL    HW1 2330   1.833   6.036   3.554
  477SOL    HW2 2331   1.680   6.025   3.610
  478SOL     OW 2332   3.484   5.705   2.144
  478SOL    HW1 2333   3.481   5.798   2.106
  478SOL    HW2 2334   3.393   5.681   2.180
  479SOL     OW 2335   4.371   1.868   5.763
  479SOL    HW1 2336   4.424   1.810   5.824
  479SOL    HW2 2337   4.310   1.811   5.708
  480SOL     OW 2338   2.704   0.715   6.786
  480SOL    HW1 2339   2.657   0.775   6.722
  480SOL    HW2 2340   2.670   0.732   6.879
  481SOL     OW 2341   2.280   6.849   0.896
  481SOL    HW1 2342   2.267   6.947   0.876
  481SOL    HW2 2343   2.225   6.824   0.975
  482SOL     OW 2344   4.153   4.874   2.340
  482SOL    HW1 2345   4.140   4.844   2.434
  482SOL    HW2 2346   4.185   4.798   2.284
  483SOL     OW 2347   6.845   1.736   2.711
  483SOL    HW1 2348   6.791   1.708   2.632
  483SOL    HW2 2349   6.940   1.707   2.699
  484SOL     OW 2350   2.104   3.501   4.633
  484SOL    HW1 2351   2.139   3.526   4.723
  484SOL    HW2 2352   2.077   3.405   4.633
  485SOL     OW 2353   3.360   5.265   3.229
  485SOL    HW1 2354   3.331   5.180   3.272
  485SOL    HW2 2355   3.447   5.250   3.182
  486SOL     OW 2356   6.507   1.139   6.851
  486SOL    HW1 2357   6.506   1.050   6.897
  486SOL    HW2 2358   6.471   1.209   6.913
  487SOL     OW 2359   0.641   0.727   2.440
  487SOL    HW1 2360   0.679   0.637   2.422
  487SOL    HW2 2361   0.674   0.760   2.528
  488SOL     OW 2362   1.354   1.724   1.509
  488SOL    HW1 2363   1.284   1.789   1.540
  488SOL    HW2 2364   1.341   1.706   1.412
  489SOL     OW 2365   3.848   6.253   5.947
  489SOL    HW1 2366   3.795   6.334   5.921
  489SOL    HW2 2367   3.942   6.280   5.968
  490SOL     OW 2368   6.992   6.426   2.850
  490SOL    HW1 2369   7.007   6.509   2.796
  490SOL    HW2 2370   0.057   6.378   2.862
  491SOL     OW 2371   1.126   3.240   2.787
  491SOL    HW1 2372   1.204   3.254   2.726
  491SOL    HW2 2373   1.159   3.213   2.878
  492SOL     OW 2374   1.704   0.646   5.125
  492SOL    HW1 2375   1.772   0.600   5.183
  492SOL    HW2 2376   1.618   0.655   5.175
  493SOL     OW 2377   5.043   5.893   5.771
  493SOL    HW1 2378   4.983   5.937   5.838
  493SOL    HW2 2379   4.995   5.816   5.730
  494SOL     OW 2380   0.526   6.565   6.693
  494SOL    HW1 2381   0.482   6.516   6.769
  494SOL    HW2 2382   0.465   6.564   6.613
  495SOL     OW 2383   4.777   5.908   3.731
  495SOL    HW1 2384   4.797   5.811   3.719
  495SOL    HW2 2385   4.722   5.941   3.655
  496SOL     OW 2386   4.978   2.875   2.025
  496SOL    HW1 2387   4.997   2.872   1.927
  496SOL    HW2 2388   4.885   2.908   2.039
  497SOL     OW 2389   2.634   1.044   4.239
  497SOL    HW1 2390   2.728   1.045   4.272
  497SOL    HW2 2391   2.607   1.137   4.214
  498SOL     OW 2392   1.185   3.983   1.499
  498SOL    HW1 2393   1.270   4.026   1.530
  498SOL    HW2 2394   1.161   3.909   1.563
  499SOL     OW 2395   1.553   5.864   4.470
  499SOL    HW1 2396   1.476   5.803   4.451
  499SOL    HW2 2397   1.598   5.836   4.554
  500SOL     OW 2398   7.006   2.957   5.302
  500SOL    HW1 2399   6.989   2.924   5.209
  500SOL    HW2 2400   0.071   3.006   5.304
  501SOL     OW 2401   3.309   5.857   0.865
  501SOL    HW1 2402   3.339   5.826   0.775
  501SOL    HW2 2403   3.289   5.777   0.922
  502SOL     OW 2404   0.613   4.162   6.999
  502SOL    HW1 2405   0.601   4.064   7.009
  502SOL    HW2 2406   0.610   4.186   6.901
  503SOL     OW 2407   0.316   5.803   6.827
  503SOL    HW1 2408   0.353   5.724   6.876
  503SOL    HW2 2409   0.391   5.856   6.788
  504SOL     OW 2410   1.484   5.280   2.057
  504SOL    HW1 2411   1.539   5.307   2.136
  504SOL    HW2 2412   1.484   5.354   1.989
  505SOL     OW 2413   3.078   5.952   5.350
  505SOL    HW1 2414   3.014   5.906   5.288
  505SOL    HW2 2415   3.111   5.886   5.418
  506SOL     OW 2416   2.837   4.948   4.204
  506SOL    HW1 2417   2.790   4.913   4.285
  506SOL    HW2 2418   2.817   4.889   4.126
  507SOL     OW 2419   3.051   6.791   3.232
  507SOL    HW1 2420   3.002   6.865   3.187
  507SOL    HW2 2421   3.145   6.818   3.249
  508SOL     OW 2422   0.157   3.729   2.317
  508SOL    HW1 2423   0.069   3.687   2.294
  508SOL    HW2 2424   0.226   3.697   2.251
  509SOL     OW 2425   3.405   1.268   1.079
  509SOL    HW1 2426   3.397   1.198   1.149
  509SOL    HW2 2427   3.449   1.229   0.997
  510SOL     OW 2428   6.470   4.612   6.448
  510SOL    HW1 2429   6.393   4.594   6.510
  510SOL    HW2 2430   6.448   4.689   6.389
  511SOL     OW 2431   0.998   1.717   6.051
  511SOL    HW1 2432   1.094   1.721   6.022
  511SOL    HW2 2433   0.941   1.689   5.973
  512SOL     OW 2434   6.707   3.077   0.187
  512SOL    HW1 2435   6.797   3.114   0.208
  512SOL    HW2 2436   6.679   3.014   0.259
  513SOL     OW 2437   5.846   0.037   2.936
  513SOL    HW1 2438   5.789   7.000   2.880
  513SOL    HW2 2439   5.900   7.004   3.000
  514SOL     OW 2440   6.487   2.151   4.082
  514SOL    HW1 2441   6.399   2.199   4.083
  514SOL    HW2 2442   6.558   2.212   4.116
  515SOL     OW 2443   1.084   0.427   6.177
  515SOL    HW1 2444   0.985   0.426   6.188
  515SOL    HW2 2445   1.128   0.399   6.262
  516SOL     OW 2446   2.543   4.628   2.001
  516SOL    HW1 2447   2.498   4.660   2.083
  516SOL    HW2 2448   2.642   4.628   2.015
  517SOL     OW 2449   4.678   5.840   1.315
  517SOL    HW1 2450   4.605   5.906   1.336
  517SOL    HW2 2451   4.760   5.890   1.285
  518SOL     OW 2452   2.895   2.235   3.253
  518SOL    HW1 2453   2.852   2.276   3.173
  518SOL    HW2 2454   2.987   2.204   3.230
  519SOL     OW 2455   0.226   0.012   4.787
  519SOL    HW1 2456   0.301   0.039   4.848
  519SOL    HW2 2457   0.189   0.092   4.742
  520SOL     OW 2458   5.826   4.530   0.585
  520SOL    HW1 2459   5.888   4.453   0.571
  520SOL    HW2 2460   5.833   4.592   0.507
  521SOL     OW 2461   6.421   5.403   5.019
  521SOL    HW1 2462   6.378   5.492   4.999
  521SOL    HW2 2463   6.402   5.340   4.944
  522SOL     OW 2464   3.658   3.476   4.542
  522SOL    HW1 2465   3.646   3.413   4.465
  522SOL    HW2 2466   3.716   3.552   4.514
  523SOL     OW 2467   0.188   5.652   1.604
  523SOL    HW1 2468   0.147   5.738   1.572
  523SOL    HW2 2469   0.139   5.621   1.686
  524SOL     OW 2470   0.362   1.969   2.486
  524SOL    HW1 2471   0.318   2.006   2.404
  524SOL    HW2 2472   0.434   2.031   2.516
  525SOL     OW 2473   2.150   3.381   5.553
  525SOL    HW1 2474   2.085   3.451   5.524
  525SOL    HW2 2475   2.142   3.366   5.652
  526SOL     OW 2476   4.158   6.485   3.828
  526SOL    HW1 2477   4.188   6.501   3.733
  526SOL    HW2 2478   4.058   6.489   3.832
  527SOL     OW 2479   5.894   2.556   6.887
  527SOL    HW1 2480   5.885   2.507   6.800
  527SOL    HW2 2481   5.871   2.494   6.962
  528SOL     OW 2482   0.702   2.523   3.755
  528SOL    HW1 2483   0.617   2.517   3.807
  528SOL    HW2 2484   0.772   2.567   3.811
  529SOL     OW 2485   1.158   6.833   4.702
  529SOL    HW1 2486   1.251   6.846   4.668
  529SOL    HW2 2487   1.093   6.846   4.627
  530SOL     OW 2488   3.689   3.254   4.310
  530SOL    HW1 2489   3.589   3.256   4.301
  530SOL    HW2 2490   3.716   3.178   4.369
  531SOL     OW 2491   0.533   1.919   3.540
  531SOL    HW1 2492   0.518   1.889   3.634
  531SOL    HW2 2493   0.617   1.973   3.536
  532SOL     OW 2494   1.164   2.786   6.738
  532SOL    HW1 2495   1.122   2.871   6.707
  532SOL    HW2 2496   1.229   2.805   6.812
  533SOL     OW 2497   4.004   6.361   4.343
  533SOL    HW1 2498   4.023   6.272   4.386
  533SOL    HW2 2499   4.053   6.433   4.393
  534SOL     OW 2500   5.120   6.531   2.058
  534SOL    HW1 2501   5.046   6.471   2.088
  534SOL    HW2 2502   5.116   6.618   2.107
  535SOL     OW 2503   0.563   3.611   4.648
  535SOL    HW1 2504   0.572   3.522   4.693
  535SOL    HW2 2505   0.629   3.675   4.686
  536SOL     OW 2506   6.683   5.026   1.997
  536SOL    HW1 2507   6.625   5.100   2.029
  536SOL    HW2 2508   6.705   5.040   1.901
  537SOL     OW 2509   2.867   6.465   4.510
  537SOL    HW1 2510   2.943   6.498   4.566
  537SOL    HW2 2511   2.889   6.477   4.413
  538SOL     OW 2512   1.325   4.263   3.339
  538SOL    HW1 2513   1.395   4.327   3.308
  538SOL    HW2 2514   1.260   4.310   3.398
  539SOL     OW 2515   1.847   6.067   1.315
  539SOL    HW1 2516   1.933   6.082   1.267
  539SOL    HW2 2517   1.844   5.973   1.349
  540SOL     OW 2518   1.256   0.671   3.106
  540SOL    HW1 2519   1.282   0.767   3.120
  540SOL    HW2 2520   1.223   0.633   3.193
  541SOL     OW 2521   5.323   5.763   4.095
  541SOL    HW1 2522   5.320   5.710   4.180
  541SOL    HW2 2523   5.387   5.839   4.106
  542SOL     OW 2524   5.948   6.671   6.817
  542SOL    HW1 2525   5.936   6.572   6.829
  542SOL    HW2 2526   5.880   6.704   6.751
  543SOL     OW 2527   1.405   4.169   5.251
  543SOL    HW1 2528   1.438   4.172   5.157
  543SOL    HW2 2529   1.334   4.237   5.264
  544SOL     OW 2530   2.771   4.003   7.012
  544SOL    HW1 2531   2.776   3.909   6.979
  544SOL    HW2 2532   2.760   4.003   0.089
  545SOL     OW 2533   2.580   1.608   1.785
  545SOL    HW1 2534   2.533   1.664   1.853
  545SOL    HW2 2535   2.678   1.622   1.793
  546SOL     OW 2536   2.324   2.848   0.407
  546SOL    HW1 2537   2.262   2.771   0.420
  546SOL    HW2 2538   2.271   2.930   0.385
  547SOL     OW 2539   3.143   0.928   0.174
  547SOL    HW1 2540   3.144   1.024   0.200
  547SOL    HW2 2541   3.184   0.917   0.083
  548SOL     OW 2542   3.341   3.614   2.780
  548SOL    HW1 2543   3.360   3.620   2.682
  548SOL    HW2 2544   3.257   3.560   2.794
  549SOL     OW 2545   5.021   2.644   1.305
  549SOL    HW1 2546   5.023   2.548   1.278
  549SOL    HW2 2547   5.012   2.701   1.224
  550SOL     OW 2548   7.001   5.498   3.715
  550SOL    HW1 2549   6.937   5.556   3.766
  550SOL    HW2 2550   6.967   5.404   3.714
  551SOL     OW 2551   0.731   0.471   2.393
  551SOL    HW1 2552   0.805   0.409   2.417
  551SOL    HW2 2553   0.643   0.425   2.405
  552SOL     OW 2554   5.216   4.304   0.103
  552SOL    HW1 2555   5.175   4.347   0.023
  552SOL    HW2 2556   5.145   4.281   0.169
  553SOL     OW 2557   2.400   6.700   2.541
  553SOL    HW1 2558   2.481   6.687   2.484
  553SOL    HW2 2559   2.336   6.760   2.493
  554SOL     OW 2560   5.515   0.530   6.169
  554SOL    HW1 2561   5.418   0.542   6.190
  554SOL    HW2 2562   5.547   0.445   6.209
  555SOL     OW 2563   1.732   5.246   3.417
  555SOL    HW1 2564   1.713   5.160   3.465
  555SOL    HW2 2565   1.802   5.297   3.467
  556SOL     OW 2566   4.661   2.440   3.387
  556SOL    HW1 2567   4.584   2.382   3.361
  556SOL    HW2 2568   4.672   2.514   3.320
  557SOL     OW 2569   0.327   5.310   0.608
  557SOL    HW1 2570   0.255   5.379   0.598
  557SOL    HW2 2571   0.309   5.234   0.545
  558SOL     OW 2572   3.014   3.181   4.364
  558SOL    HW1 2573   2.960   3.230   4.433
  558SOL    HW2 2574   3.070   3.112   4.410
  559SOL     OW 2575   6.597   6.033   6.952
  559SOL    HW1 2576   6.625   6.084   6.870
  559SOL    HW2 2577   6.679   6.002   7.001
  560SOL     OW 2578   4.524   4.509   6.968
  560SOL    HW1 2579   4.586   4.534   0.020
  560SOL    HW2 2580   4.577   4.473   6.891
  561SOL     OW 2581   6.813   1.357   0.484
  561SOL    HW1 2582   6.792   1.434   0.544
  561SOL    HW2 2583   6.911   1.357   0.465
  562SOL     OW 2584   4.884   0.590   6.088
  562SOL    HW1 2585   4.968   0.645   6.093
  562SOL    HW2 2586   4.829   0.607   6.170
  563SOL     OW 2587   2.036   0.627   3.518
  563SOL    HW1 2588   2.071   0.534   3.530
  563SOL    HW2 2589   2.090   0.673   3.447
  564SOL     OW 2590   1.994   2.172   6.590
  564SOL    HW1 2591   1.927   2.201   6.523
  564SOL    HW2 2592   2.008   2.245   6.657
  565SOL     OW 2593   3.900   2.973   5.562
  565SOL    HW1 2594   3.826   3.039   5.560
  565SOL    HW2 2595   3.879   2.900   5.627
  566SOL     OW 2596   6.288   5.116   3.907
  566SOL    HW1 2597   6.321   5.031   3.946
  566SOL    HW2 2598   6.216   5.154   3.964
  567SOL     OW 2599   3.414   3.291   1.955
  567SOL    HW1 2600   3.453   3.204   1.925
  567SOL    HW2 2601   3.383   3.284   2.050
  568SOL     OW 2602   4.706   1.515   6.983
  568SOL    HW1 2603   4.689   1.511   6.885
  568SOL    HW2 2604   4.789   1.569   7.000
  569SOL     OW 2605   1.504   2.511   6.764
  569SOL    HW1 2606   1.539   2.469   6.848
  569SOL    HW2 2607   1.406   2.493   6.757
  570SOL     OW 2608   3.217   6.172   6.828
  570SOL    HW1 2609   3.164   6.223   6.760
  570SOL    HW2 2610   3.217   6.223   6.914
  571SOL     OW 2611   3.316   0.475   2.512
  571SOL    HW1 2612   3.399   0.431   2.477
  571SOL    HW2 2613   3.264   0.409   2.567
  572SOL     OW 2614   3.151   4.944   5.638
  572SOL    HW1 2615   3.220   4.880   5.605
  572SOL    HW2 2616   3.121   4.916   5.730
  573SOL     OW 2617   5.275   2.048   5.871
  573SOL    HW1 2618   5.182   2.015   5.886
  573SOL    HW2 2619   5.314   2.001   5.792
  574SOL     OW 2620   3.345   2.036   3.868
  574SOL    HW1 2621   3.422   2.085   3.826
  574SOL    HW2 2622   3.336   1.946   3.827
  575SOL     OW 2623   5.462   3.620   1.032
  575SOL    HW1 2624   5.477   3.525   1.003
  575SOL    HW2 2625   5.418   3.671   0.958
  576SOL     OW 2626   1.059   2.284   2.985
  576SOL    HW1 2627   1.092   2.203   2.937
  576SOL    HW2 2628   1.087   2.366   2.936
  577SOL     OW 2629   1.445   1.361   2.342
  577SOL    HW1 2630   1.367   1.393   2.396
  577SOL    HW2 2631   1.417   1.346   2.247
  578SOL     OW 2632   6.562   5.537   3.306
  578SOL    HW1 2633   6.532   5.494   3.391
  578SOL    HW2 2634   6.484   5.552   3.246
  579SOL     OW 2635   1.511   2.710   2.005
  579SOL    HW1 2636   1.499   2.777   1.932
  579SOL    HW2 2637   1.606   2.712   2.038
  580SOL     OW 2638   6.901   5.157   6.945
  580SOL    HW1 2639   6.828   5.145   6.878
  580SOL    HW2 2640   6.888   5.244   6.993
  581SOL     OW 2641   2.899   3.271   2.668
  581SOL    HW1 2642   2.802   3.274   2.644
  581SOL    HW2 2643   2.916   3.331   2.746
  582SOL     OW 2644   4.973   0.131   1.682
  582SOL    HW1 2645   5.012   0.126   1.774
  582SOL    HW2 2646   4.975   0.041   1.639
  583SOL     OW 2647   3.039   5.193   5.555
  583SOL    HW1 2648   3.048   5.094   5.570
  583SOL    HW2 2649   3.075   5.242   5.634
  584SOL     OW 2650   2.464   3.876   6.158
  584SOL    HW1 2651   2.419   3.882   6.069
  584SOL    HW2 2652   2.551   3.924   6.155
  585SOL     OW 2653   5.415   3.024   6.071
  585SOL    HW1 2654   5.461   2.955   6.127
  585SOL    HW2 2655   5.333   3.055   6.118
  586SOL     OW 2656   3.895   2.041   6.111
  586SOL    HW1 2657   3.936   2.108   6.174
  586SOL    HW2 2658   3.891   1.952   6.156
  587SOL     OW 2659   3.709   1.005   5.539
  587SOL    HW1 2660   3.614   1.013   5.510
  587SOL    HW2 2661   3.719   0.926   5.599
  588SOL     OW 2662   2.464   4.637   0.880
  588SOL    HW1 2663   2.493   4.557   0.828
  588SOL    HW2 2664   2.419   4.608   0.965
  589SOL     OW 2665   3.169   5.375   1.508
  589SOL    HW1 2666   3.193   5.368   1.605
  589SOL    HW2 2667   3.085   5.323   1.491
  590SOL     OW 2668   5.044   3.327   2.704
  590SOL    HW1 2669   4.950   3.330   2.737
  590SOL    HW2 2670   5.049   3.366   2.612
  591SOL     OW 2671   3.834   5.721   3.830
  591SOL    HW1 2672   3.914   5.716   3.771
  591SOL    HW2 2673   3.815   5.631   3.869
  592SOL     OW 2674   3.383   0.484   1.894
  592SOL    HW1 2675   3.293   0.465   1.855
  592SOL    HW2 2676   3.449   0.495   1.820
  593SOL     OW 2677   4.641   2.636   3.123
  593SOL    HW1 2678   4.574   2.584   3.070
  593SOL    HW2 2679   4.666   2.719   3.072
  594SOL     OW 2680   5.202   2.343   6.961
  594SOL    HW1 2681   5.286   2.376   7.006
  594SOL    HW2 2682   5.156   2.420   6.917
  595SOL     OW 2683   5.726   6.896   3.868
  595SOL    HW1 2684   5.664   6.971   3.845
  595SOL    HW2 2685   5.675   6.810   3.867
  596SOL     OW 2686   1.944   4.123   3.181
  596SOL    HW1 2687   1.859   4.159   3.220
  596SOL    HW2 2688   1.924   4.074   3.097
  597SOL     OW 2689   4.005   0.013   6.576
  597SOL    HW1 2690   3.964   0.098   6.609
  597SOL    HW2 2691   4.051   6.989   6.651
  598SOL     OW 2692   2.949   4.110   5.964
  598SOL    HW1 2693   2.922   4.055   5.884
  598SOL    HW2 2694   2.914   4.067   6.047
  599SOL     OW 2695   1.954   6.573   2.709
  599SOL    HW1 2696   1.884   6.633   2.748
  599SOL    HW2 2697   2.044   6.598   2.746
  600SOL     OW 2698   1.067   1.039   0.484
  600SOL    HW1 2699   1.073   1.094   0.401
  600SOL    HW2 2700   1.116   1.086   0.558
  601SOL     OW 2701   3.072   6.400   3.873
  601SOL    HW1 2702   3.145   6.467   3.887
  601SOL    HW2 2703   2.984   6.447   3.869
  602SOL     OW 2704   2.125   2.837   6.146
  602SOL    HW1 2705   2.194   2.809   6.213
  602SOL    HW2 2706   2.078   2.919   6.180
  603SOL     OW 2707   3.608   1.470   3.612
  603SOL    HW1 2708   3.673   1.518   3.554
  603SOL    HW2 2709   3.645   1.461   3.705
  604SOL     OW 2710   0.545   3.422   1.765
  604SOL    HW1 2711   0.466   3.463   1.719
  604SOL    HW2 2712   0.624   3.426   1.704
  605SOL     OW 2713   6.931   6.271   2.592
  605SOL    HW1 2714   6.914   6.327   2.674
  605SOL    HW2 2715   6.932   6.330   2.511
  606SOL     OW 2716   5.058   0.693   6.721
  606SOL    HW1 2717   5.071   0.663   6.816
  606SOL    HW2 2718   5.121   0.643   6.661
  607SOL     OW 2719   5.809   0.782   5.613
  607SOL    HW1 2720   5.726   0.798   5.667
  607SOL    HW2 2721   5.879   0.848   5.640
  608SOL     OW 2722   3.255   6.024   6.537
  608SOL    HW1 2723   3.295   6.100   6.588
  608SOL    HW2 2724   3.234   6.053   6.444
  609SOL     OW 2725   4.161   3.416   3.586
  609SOL    HW1 2726   4.186   3.339   3.528
  609SOL    HW2 2727   4.103   3.384   3.661
  610SOL     OW 2728   5.011   3.217   2.160
  610SOL    HW1 2729   4.938   3.216   2.091
  610SOL    HW2 2730   5.014   3.128   2.206
  611SOL     OW 2731   3.194   0.158   0.327
  611SOL    HW1 2732   3.290   0.160   0.353
  611SOL    HW2 2733   3.159   0.252   0.320
  612SOL     OW 2734   3.342   6.597   6.256
  612SOL    HW1 2735   3.368   6.653   6.335
  612SOL    HW2 2736   3.425   6.561   6.212
  613SOL     OW 2737   3.929   6.619   5.825
  613SOL    HW1 2738   3.954   6.672   5.906
  613SOL    HW2 2739   3.970   6.662   5.744
  614SOL     OW 2740   4.499   4.632   1.308
  614SOL    HW1 2741   4.466   4.570   1.379
  614SOL    HW2 2742   4.446   4.619   1.225
  615SOL     OW 2743   0.504   2.123   1.127
  615SOL    HW1 2744   0.500   2.172   1.040
  615SOL    HW2 2745   0.455   2.036   1.119
  616SOL     OW 2746   0.439   2.200   3.826
  616SOL    HW1 2747   0.471   2.148   3.905
  616SOL    HW2 2748   0.426   2.295   3.851
  617SOL     OW 2749   6.578   3.243   6.305
  617SOL    HW1 2750   6.588   3.150   6.341
  617SOL    HW2 2751   6.615   3.308   6.371
  618SOL     OW 2752   6.388   2.810   6.680
  618SOL    HW1 2753   6.418   2.777   6.590
  618SOL    HW2 2754   6.347   2.900   6.671
  619SOL     OW 2755   4.588   0.054   0.035
  619SOL    HW1 2756   4.598   6.983   0.071
  619SOL    HW2 2757   4.616   0.120   0.104
  620SOL     OW 2758   5.175   2.309   1.912
  620SOL    HW1 2759   5.244   2.332   1.980
  620SOL    HW2 2760   5.086   2.347   1.939
  621SOL     OW 2761   2.210   6.724   5.590
  621SOL    HW1 2762   2.225   6.681   5.679
  621SOL    HW2 2763   2.115   6.757   5.584
  622SOL     OW 2764   0.961   1.317   4.461
  622SOL    HW1 2765   1.042   1.259   4.463
  622SOL    HW2 2766   0.914   1.307   4.374
  623SOL     OW 2767   1.526   6.303   5.953
  623SOL    HW1 2768   1.594   6.271   6.019
  623SOL    HW2 2769   1.572   6.345   5.875
  624SOL     OW 2770   0.273   1.694   0.979
  624SOL    HW1 2771   0.250   1.624   0.912
  624SOL    HW2 2772   0.210   1.689   1.057
  625SOL     OW 2773   2.100   2.067   1.708
  625SOL    HW1 2774   2.058   2.124   1.638
  625SOL    HW2 2775   2.139   1.985   1.667
  626SOL     OW 2776   1.047   5.681   3.178
  626SOL    HW1 2777   1.051   5.768   3.228
  626SOL    HW2 2778   1.067   5.698   3.081
  627SOL     OW 2779   6.725   6.182   0.688
  627SOL    HW1 2780   6.729   6.218   0.781
  627SOL    HW2 2781   6.645   6.122   0.679
  628SOL     OW 2782   5.280   5.734   5.483
  628SOL    HW1 2783   5.298   5.807   5.549
  628SOL    HW2 2784   5.212   5.766   5.417
  629SOL     OW 2785   0.666   0.595   6.431
  629SOL    HW1 2786   0.666   0.560   6.524
  629SOL    HW2 2787   0.707   0.686   6.429
  630SOL     OW 2788   0.501   1.518   0.425
  630SOL    HW1 2789   0.476   1.553   0.335
  630SOL    HW2 2790   0.598   1.493   0.425
  631SOL     OW 2791   3.819   1.259   5.595
  631SOL    HW1 2792   3.782   1.308   5.516
  631SOL    HW2 2793   3.793   1.163   5.589
  632SOL     OW 2794   4.109   1.730   1.316
  632SOL    HW1 2795   4.095   1.776   1.403
  632SOL    HW2 2796   4.180   1.660   1.326
  633SOL     OW 2797   2.795   3.912   6.520
  633SOL    HW1 2798   2.790   4.001   6.565
  633SOL    HW2 2799   2.882   3.905   6.470
  634SOL     OW 2800   3.830   4.004   3.057
  634SOL    HW1 2801   3.887   4.082   3.032
  634SOL    HW2 2802   3.838   3.933   2.987
  635SOL     OW 2803   4.671   5.943   0.858
  635SOL    HW1 2804   4.677   5.859   0.911
  635SOL    HW2 2805   4.591   5.939   0.798
  636SOL     OW 2806   3.536   6.700   0.231
  636SOL    HW1 2807   3.570   6.772   0.293
  636SOL    HW2 2808   3.606   6.678   0.164
  637SOL     OW 2809   0.093   3.142   3.621
  637SOL    HW1 2810   0.065   3.077   3.691
  637SOL    HW2 2811   0.012   3.176   3.572
  638SOL     OW 2812   5.832   3.387   3.061
  638SOL    HW1 2813   5.780   3.435   2.991
  638SOL    HW2 2814   5.873   3.304   3.022
  639SOL     OW 2815   4.944   3.675   2.559
  639SOL    HW1 2816   4.902   3.594   2.518
  639SOL    HW2 2817   5.036   3.686   2.523
  640SOL     OW 2818   0.181   5.173   4.068
  640SOL    HW1 2819   0.267   5.190   4.116
  640SOL    HW2 2820   0.172   5.238   3.992
  641SOL     OW 2821   0.816   4.609   5.310
  641SOL    HW1 2822   0.725   4.642   5.334
  641SOL    HW2 2823   0.879   4.628   5.384
  642SOL     OW 2824   6.982   3.582   4.199
  642SOL    HW1 2825   0.052   3.613   4.222
  642SOL    HW2 2826   6.986   3.522   4.119
  643SOL     OW 2827   6.121   0.156   6.397
  643SOL    HW1 2828   6.194   0.207   6.351
  643SOL    HW2 2829   6.133   0.162   6.496
  644SOL     OW 2830   1.229   6.930   4.083
  644SOL    HW1 2831   1.228   6.831   4.072
  644SOL    HW2 2832   1.245   6.973   3.994
  645SOL     OW 2833   4.202   0.085   5.032
  645SOL    HW1 2834   4.257   0.011   5.072
  645SOL    HW2 2835   4.190   0.068   4.934
  646SOL     OW 2836   3.032   0.435   4.516
  646SOL    HW1 2837   2.986   0.365   4.462
  646SOL    HW2 2838   2.971   0.466   4.589
  647SOL     OW 2839   4.865   2.081   4.813
  647SOL    HW1 2840   4.819   2.108   4.898
  647SOL    HW2 2841   4.820   2.000   4.776
  648SOL     OW 2842   0.511   3.595   3.839
  648SOL    HW1 2843   0.470   3.529   3.902
  648SOL    HW2 2844   0.536   3.678   3.889
  649SOL     OW 2845   1.931   4.108   1.203
  649SOL    HW1 2846   1.930   4.008   1.202
  649SOL    HW2 2847   1.838   4.142   1.192
  650SOL     OW 2848   5.946   4.207   0.930
  650SOL    HW1 2849   5.915   4.283   0.988
  650SOL    HW2 2850   5.896   4.124   0.954
  651SOL     OW 2851   1.484   6.739   6.436
  651SOL    HW1 2852   1.421   6.795   6.383
  651SOL    HW2 2853   1.477   6.763   6.533
  652SOL     OW 2854   5.205   6.931   4.015
  652SOL    HW1 2855   5.133   6.899   4.077
  652SOL    HW2 2856   5.173   6.922   3.920
  653SOL     OW 2857   1.272   5.671   0.221
  653SOL    HW1 2858   1.302   5.736   0.151
  653SOL    HW2 2859   1.340   5.600   0.233
  654SOL     OW 2860   0.730   5.939   0.308
  654SOL    HW1 2861   0.646   5.895   0.341
  654SOL    HW2 2862   0.737   6.030   0.347
  655SOL     OW 2863   7.017   5.990   0.920
  655SOL    HW1 2864   6.921   5.967   0.939
  655SOL    HW2 2865   0.022   6.069   0.975
  656SOL     OW 2866   2.376   5.944   0.965
  656SOL    HW1 2867   2.292   5.957   0.912
  656SOL    HW2 2868   2.451   5.923   0.902
  657SOL     OW 2869   2.674   3.694   1.168
  657SOL    HW1 2870   2.712   3.622   1.111
  657SOL    HW2 2871   2.632   3.654   1.249
  658SOL     OW 2872   1.363   3.479   6.772
  658SOL    HW1 2873   1.381   3.566   6.728
  658SOL    HW2 2874   1.346   3.409   6.703
  659SOL     OW 2875   1.976   6.365   5.067
  659SOL    HW1 2876   1.885   6.363   5.108
  659SOL    HW2 2877   2.040   6.409   5.129
  660SOL     OW 2878   6.314   4.222   2.508
  660SOL    HW1 2879   6.237   4.249   2.450
  660SOL    HW2 2880   6.312   4.275   2.593
  661SOL     OW 2881   4.891   3.639   3.588
  661SOL    HW1 2882   4.844   3.709   3.642
  661SOL    HW2 2883   4.987   3.633   3.618
  662SOL     OW 2884   4.062   0.140   5.256
  662SOL    HW1 2885   4.054   0.239   5.269
  662SOL    HW2 2886   4.097   0.121   5.164
  663SOL     OW 2887   1.324   3.597   0.024
  663SOL    HW1 2888   1.276   3.683   0.006
  663SOL    HW2 2889   1.337   3.547   6.961
  664SOL     OW 2890   0.576   5.376   6.688
  664SOL    HW1 2891   0.567   5.466   6.730
  664SOL    HW2 2892   0.501   5.361   6.624
  665SOL     OW 2893   4.572   5.102   0.682
  665SOL    HW1 2894   4.480   5.070   0.660
  665SOL    HW2 2895   4.581   5.198   0.656
  666SOL     OW 2896   4.872   1.851   2.552
  666SOL    HW1 2897   4.933   1.916   2.597
  666SOL    HW2 2898   4.922   1.767   2.530
  667SOL     OW 2899   6.447   4.196   3.463
  667SOL    HW1 2900   6.370   4.133   3.454
  667SOL    HW2 2901   6.463   4.242   3.376
  668SOL     OW 2902   5.287   6.055   6.907
  668SOL    HW1 2903   5.318   5.963   6.882
  668SOL    HW2 2904   5.194   6.049   6.945
  669SOL     OW 2905   3.728   6.109   3.583
  669SOL    HW1 2906   3.749   6.205   3.562
  669SOL    HW2 2907   3.790   6.049   3.532
  670SOL     OW 2908   3.074   3.311   1.207
  670SOL    HW1 2909   3.087   3.216   1.235
  670SOL    HW2 2910   3.123   3.371   1.270
  671SOL     OW 2911   2.834   5.784   6.659
  671SOL    HW1 2912   2.763   5.760   6.593
  671SOL    HW2 2913   2.924   5.770   6.616
  672SOL     OW 2914   0.606   4.945   1.852
  672SOL    HW1 2915   0.656   5.009   1.793
  672SOL    HW2 2916   0.619   4.971   1.948
  673SOL     OW 2917   6.458   0.443   1.550
  673SOL    HW1 2918   6.545   0.400   1.524
  673SOL    HW2 2919   6.460   0.539   1.522
  674SOL     OW 2920   0.371   3.724   4.952
  674SOL    HW1 2921   0.357   3.801   4.889
  674SOL    HW2 2922   0.282   3.683   4.974
  675SOL     OW 2923   0.255   0.685   5.014
  675SOL    HW1 2924   0.260   0.606   5.074
  675SOL    HW2 2925   0.323   0.676   4.940
  676SOL     OW 2926   4.209   5.654   2.790
  676SOL    HW1 2927   4.307   5.635   2.789
  676SOL    HW2 2928   4.192   5.742   2.745
  677SOL     OW 2929   6.048   1.587   6.380
  677SOL    HW1 2930   6.004   1.621   6.463
  677SOL    HW2 2931   6.096   1.663   6.335
  678SOL     OW 2932   0.966   1.379   5.106
  678SOL    HW1 2933   0.932   1.322   5.031
  678SOL    HW2 2934   0.983   1.471   5.072
  679SOL     OW 2935   4.952   1.544   4.282
  679SOL    HW1 2936   4.934   1.601   4.202
  679SOL    HW2 2937   5.023   1.588   4.338
  680SOL     OW 2938   5.610   5.062   6.500
  680SOL    HW1 2939   5.528   5.119   6.513
  680SOL    HW2 2940   5.619   5.040   6.403
  681SOL     OW 2941   5.663   6.546   1.487
  681SOL    HW1 2942   5.621   6.456   1.474
  681SOL    HW2 2943   5.727   6.564   1.412
  682SOL     OW 2944   2.019   6.821   0.132
  682SOL    HW1 2945   2.043   6.909   0.090
  682SOL    HW2 2946   1.982   6.760   0.063
  683SOL     OW 2947   3.413   2.367   6.725
  683SOL    HW1 2948   3.465   2.420   6.658
  683SOL    HW2 2949   3.425   2.270   6.706
  684SOL     OW 2950   6.164   0.997   6.931
  684SOL    HW1 2951   6.229   0.968   6.861
  684SOL    HW2 2952   6.071   0.978   6.900
  685SOL     OW 2953   4.789   0.772   3.972
  685SOL    HW1 2954   4.876   0.753   4.018
  685SOL    HW2 2955   4.736   0.835   4.028
  686SOL     OW 2956   6.034   3.107   3.325
  686SOL    HW1 2957   6.078   3.096   3.414
  686SOL    HW2 2958   5.935   3.111   3.337
  687SOL     OW 2959   0.260   3.313   4.773
  687SOL    HW1 2960   0.291   3.270   4.688
  687SOL    HW2 2961   0.178   3.266   4.805
  688SOL     OW 2962   1.463   2.743   6.592
  688SOL    HW1 2963   1.528   2.720   6.520
  688SOL    HW2 2964   1.452   2.664   6.653
  689SOL     OW 2965   0.167   4.584   6.460
  689SOL    HW1 2966   0.162   4.542   6.369
  689SOL    HW2 2967   0.201   4.517   6.526
  690SOL     OW 2968   0.672   3.801   3.928
  690SOL    HW1 2969   0.734   3.800   4.007
  690SOL    HW2 2970   0.635   3.893   3.916
  691SOL     OW 2971   2.485   0.475   6.439
  691SOL    HW1 2972   2.424   0.508   6.367
  691SOL    HW2 2973   2.579   0.479   6.407
  692SOL     OW 2974   3.596   6.258   3.259
  692SOL    HW1 2975   3.656   6.316   3.314
  692SOL    HW2 2976   3.526   6.218   3.318
  693SOL     OW 2977   6.174   0.822   3.303
  693SOL    HW1 2978   6.236   0.860   3.234
  693SOL    HW2 2979   6.201   0.856   3.394
  694SOL     OW 2980   3.546   6.466   2.746
  694SOL    HW1 2981   3.627   6.443   2.691
  694SOL    HW2 2982   3.483   6.519   2.690
  695SOL     OW 2983   4.387   5.072   5.554
  695SOL    HW1 2984   4.344   5.130   5.485
  695SOL    HW2 2985   4.355   4.978   5.545
  696SOL     OW 2986   3.173   5.231   2.442
  696SOL    HW1 2987   3.145   5.217   2.537
  696SOL    HW2 2988   3.121   5.170   2.382
  697SOL     OW 2989   2.186   2.975   4.631
  697SOL    HW1 2990   2.144   3.034   4.701
  697SOL    HW2 2991   2.221   3.032   4.557
  698SOL     OW 2992   5.914   0.340   6.965
  698SOL    HW1 2993   5.869   0.288   0.015
  698SOL    HW2 2994   5.872   0.319   6.877
  699SOL     OW 2995   1.204   4.389   6.633
  699SOL    HW1 2996   1.107   4.368   6.642
  699SOL    HW2 2997   1.217   4.459   6.563
  700SOL     OW 2998   2.934   1.571   3.583
  700SOL    HW1 2999   2.903   1.655   3.539
  700SOL    HW2 3000   2.946   1.587   3.681
  701SOL     OW 3001   6.076   3.654   5.325
  701SOL    HW1 3002   6.085   3.555   5.319
  701SOL    HW2 3003   6.041   3.689   5.238
  702SOL     OW 3004   6.524   6.586   6.259
  702SOL    HW1 3005   6.490   6.656   6.196
  702SOL    HW2 3006   6.569   6.514   6.207
  703SOL     OW 3007   3.681   3.900   6.368
  703SOL    HW1 3008   3.711   3.807   6.386
  703SOL    HW2 3009   3.751   3.965   6.397
  704SOL     OW 3010   1.558   1.369   6.199
  704SOL    HW1 3011   1.572   1.277   6.233
  704SOL    HW2 3012   1.495   1.367   6.121
  705SOL     OW 3013   5.986   6.769   3.272
  705SOL    HW1 3014   5.967   6.797   3.366
  705SOL    HW2 3015   5.929   6.822   3.209
  706SOL     OW 3016   3.997   2.218   4.355
  706SOL    HW1 3017   4.065   2.145   4.348
  706SOL    HW2 3018   3.943   2.206   4.438
  707SOL     OW 3019   4.602   0.158   2.532
  707SOL    HW1 3020   4.560   0.172   2.622
  707SOL    HW2 3021   4.673   0.227   2.518
  708SOL     OW 3022   4.027   0.834   1.302
  708SOL    HW1 3023   3.971   0.916   1.301
  708SOL    HW2 3024   4.079   0.830   1.388
  709SOL     OW 3025   1.089   5.306   0.491
  709SOL    HW1 3026   1.123   5.246   0.564
  709SOL    HW2 3027   1.081   5.399   0.526
  710SOL     OW 3028   4.058   3.142   2.613
  710SOL    HW1 3029   4.150   3.182   2.614
  710SOL    HW2 3030   3.999   3.194   2.553
  711SOL     OW 3031   0.100   2.406   6.016
  711SOL    HW1 3032   0.051   2.374   6.098
  711SOL    HW2 3033   0.170   2.338   5.991
  712SOL     OW 3034   3.416   4.265   1.336
  712SOL    HW1 3035   3.441   4.271   1.433
  712SOL    HW2 3036   3.338   4.204   1.325
  713SOL     OW 3037   3.217   2.710   6.592
  713SOL    HW1 3038   3.209   2.803   6.556
  713SOL    HW2 3039   3.158   2.701   6.673
  714SOL     OW 3040   6.152   4.790   4.467
  714SOL    HW1 3041   6.108   4.726   4.403
  714SOL    HW2 3042   6.096   4.796   4.550
  715SOL     OW 3043   5.792   6.077   0.166
  715SOL    HW1 3044   5.836   6.167   0.165
  715SOL    HW2 3045   5.694   6.088   0.179
  716SOL     OW 3046   1.275   0.141   0.734
  716SOL    HW1 3047   1.310   0.173   0.822
  716SOL    HW2 3048   1.191   0.190   0.712
  717SOL     OW 3049   5.734   4.433   6.208
  717SOL    HW1 3050   5.734   4.497   6.285
  717SOL    HW2 3051   5.749   4.482   6.123
  718SOL     OW 3052   4.574   2.120   6.241
  718SOL    HW1 3053   4.638   2.061   6.290
  718SOL    HW2 3054   4.537   2.189   6.304
  719SOL     OW 3055   6.788   1.960   1.406
  719SOL    HW1 3056   6.806   2.043   1.459
  719SOL    HW2 3057   6.696   1.926   1.427
  720SOL     OW 3058   3.742   0.661   6.633
  720SOL    HW1 3059   3.693   0.705   6.708
  720SOL    HW2 3060   3.840   0.675   6.643
  721SOL     OW 3061   2.195   0.561   4.333
  721SOL    HW1 3062   2.143   0.601   4.259
  721SOL    HW2 3063   2.256   0.490   4.296
  722SOL     OW 3064   2.966   0.212   4.363
  722SOL    HW1 3065   3.026   0.137   4.335
  722SOL    HW2 3066   2.880   0.207   4.313
  723SOL     OW 3067   2.131   3.607   2.961
  723SOL    HW1 3068   2.156   3.701   2.979
  723SOL    HW2 3069   2.074   3.603   2.878
  724SOL     OW 3070   1.494   2.872   4.741
  724SOL    HW1 3071   1.484   2.882   4.642
  724SOL    HW2 3072   1.497   2.963   4.784
  725SOL     OW 3073   3.956   5.976   0.807
  725SOL    HW1 3074   4.026   5.954   0.875
  725SOL    HW2 3075   3.999   5.997   0.720
  726SOL     OW 3076   4.451   4.733   0.602
  726SOL    HW1 3077   4.528   4.754   0.541
  726SOL    HW2 3078   4.368   4.722   0.548
  727SOL     OW 3079   5.569   5.523   6.184
  727SOL    HW1 3080   5.504   5.478   6.246
  727SOL    HW2 3081   5.548   5.621   6.178
  728SOL     OW 3082   6.411   3.721   4.916
  728SOL    HW1 3083   6.489   3.698   4.974
  728SOL    HW2 3084   6.421   3.678   4.826
  729SOL     OW 3085   1.053   1.852   0.297
  729SOL    HW1 3086   1.009   1.767   0.326
  729SOL    HW2 3087   1.101   1.838   0.210
  730SOL     OW 3088   5.534   1.926   2.962
  730SOL    HW1 3089   5.515   2.022   2.938
  730SOL    HW2 3090   5.524   1.869   2.880
  731SOL     OW 3091   5.601   4.064   5.497
  731SOL    HW1 3092   5.605   4.089   5.594
  731SOL    HW2 3093   5.694   4.060   5.461
  732SOL     OW 3094   0.698   2.800   0.875
  732SOL    HW1 3095   0.722   2.894   0.900
  732SOL    HW2 3096   0.648   2.757   0.950
  733SOL     OW 3097   5.894   6.110   5.528
  733SOL    HW1 3098   5.887   6.044   5.604
  733SOL    HW2 3099   5.808   6.112   5.478
  734SOL     OW 3100   6.637   4.627   2.347
  734SOL    HW1 3101   6.601   4.537   2.373
  734SOL    HW2 3102   6.563   4.693   2.344
  735SOL     OW 3103   3.783   2.713   0.412
  735SOL    HW1 3104   3.686   2.737   0.407
  735SOL    HW2 3105   3.797   2.620   0.378
  736SOL     OW 3106   0.183   0.388   2.830
  736SOL    HW1 3107   0.251   0.398   2.903
  736SOL    HW2 3108   0.212   0.440   2.750
  737SOL     OW 3109   4.997   2.517   5.852
  737SOL    HW1 3110   4.968   2.471   5.935
  737SOL    HW2 3111   4.976   2.460   5.772
  738SOL     OW 3112   1.899   3.944   2.306
  738SOL    HW1 3113   1.865   3.897   2.225
  738SOL    HW2 3114   1.991   3.980   2.288
  739SOL     OW 3115   3.973   0.248   4.071
  739SOL    HW1 3116   3.895   0.295   4.113
  739SOL    HW2 3117   3.986   0.159   4.116
  740SOL     OW 3118   4.897   0.643   0.754
  740SOL    HW1 3119   4.801   0.615   0.750
  740SOL    HW2 3120   4.902   0.738   0.785
  741SOL     OW 3121   2.110   6.790   3.345
  741SOL    HW1 3122   2.143   6.876   3.385
  741SOL    HW2 3123   2.187   6.740   3.307
  742SOL     OW 3124   1.950   6.435   1.851
  742SOL    HW1 3125   1.858   6.402   1.829
  742SOL    HW2 3126   1.983   6.494   1.778
  743SOL     OW 3127   0.652   4.251   4.529
  743SOL    HW1 3128   0.563   4.229   4.569
  743SOL    HW2 3129   0.722   4.192   4.570
  744SOL     OW 3130   5.534   0.414   6.661
  744SOL    HW1 3131   5.519   0.323   6.701
  744SOL    HW2 3132   5.555   0.479   6.734
  745SOL     OW 3133   0.830   5.352   4.706
  745SOL    HW1 3134   0.746   5.366   4.654
  745SOL    HW2 3135   0.854   5.436   4.754
  746SOL     OW 3136   0.167   5.358   6.365
  746SOL    HW1 3137   0.118   5.278   6.400
  746SOL    HW2 3138   0.175   5.350   6.265
  747SOL     OW 3139   4.184   6.590   4.875
  747SOL    HW1 3140   4.127   6.508   4.877
  747SOL    HW2 3141   4.159   6.650   4.951
  748SOL     OW 3142   3.685   5.276   2.367
  748SOL    HW1 3143   3.638   5.325   2.294
  748SOL    HW2 3144   3.763   5.227   2.328
  749SOL     OW 3145   6.283   4.785   5.277
  749SOL    HW1 3146   6.360   4.799   5.339
  749SOL    HW2 3147   6.235   4.701   5.303
  750SOL     OW 3148   2.162   2.353   0.879
  750SOL    HW1 3149   2.260   2.339   0.874
  750SOL    HW2 3150   2.115   2.265   0.876
  751SOL     OW 3151   4.026   2.316   6.131
  751SOL    HW1 3152   4.111   2.353   6.093
  751SOL    HW2 3153   4.042   2.282   6.223
  752SOL     OW 3154   3.591   1.402   2.476
  752SOL    HW1 3155   3.664   1.458   2.437
  752SOL    HW2 3156   3.630   1.329   2.532
  753SOL     OW 3157   1.940   3.237   4.664
  753SOL    HW1 3158   1.966   3.188   4.747
  753SOL    HW2 3159   1.860   3.293   4.682
  754SOL     OW 3160   5.371   2.973   5.627
  754SOL    HW1 3161   5.461   3.007   5.597
  754SOL    HW2 3162   5.299   3.031   5.587
  755SOL     OW 3163   1.509   4.529   5.804
  755SOL    HW1 3164   1.563   4.613   5.817
  755SOL    HW2 3165   1.553   4.472   5.734
  756SOL     OW 3166   3.502   0.428   1.238
  756SOL    HW1 3167   3.472   0.362   1.169
  756SOL    HW2 3168   3.509   0.519   1.197
  757SOL     OW 3169   0.868   0.029   4.005
  757SOL    HW1 3170   0.967   0.040   4.017
  757SOL    HW2 3171   0.834   6.985   4.071
  758SOL     OW 3172   3.707   0.003   2.161
  758SOL    HW1 3173   3.680   6.954   2.098
  758SOL    HW2 3174   3.804   0.025   2.147
  759SOL     OW 3175   0.981   1.044   1.137
  759SOL    HW1 3176   0.945   0.960   1.098
  759SOL    HW2 3177   0.947   1.055   1.230
  760SOL     OW 3178   5.155   0.336   5.523
  760SOL    HW1 3179   5.094   0.257   5.514
  760SOL    HW2 3180   5.241   0.307   5.565
  761SOL     OW 3181   5.525   3.327   5.712
  761SOL    HW1 3182   5.437   3.281   5.713
  761SOL    HW2 3183   5.544   3.360   5.619
  762SOL     OW 3184   2.664   0.641   5.068
  762SOL    HW1 3185   2.757   0.603   5.066
  762SOL    HW2 3186   2.608   0.596   4.999
  763SOL     OW 3187   4.189   4.627   6.684
  763SOL    HW1 3188   4.163   4.530   6.684
  763SOL    HW2 3189   4.262   4.641   6.617
  764SOL     OW 3190   5.071   1.048   4.647
  764SOL    HW1 3191   5.063   1.143   4.678
  764SOL    HW2 3192   4.998   0.994   4.689
  765SOL     OW 3193   1.069   6.404   1.310
  765SOL    HW1 3194   1.021   6.316   1.308
  765SOL    HW2 3195   1.039   6.457   1.389
  766SOL     OW 3196   2.228   3.852   6.875
  766SOL    HW1 3197   2.133   3.865   6.847
  766SOL    HW2 3198   2.286   3.917   6.826
  767SOL     OW 3199   6.118   5.972   2.041
  767SOL    HW1 3200   6.110   5.964   2.140
  767SOL    HW2 3201   6.166   6.057   2.018
  768SOL     OW 3202   1.691   6.568   1.441
  768SOL    HW1 3203   1.711   6.472   1.457
  768SOL    HW2 3204   1.762   6.607   1.382
  769SOL     OW 3205   3.135   0.629   4.343
  769SOL    HW1 3206   3.057   0.641   4.282
  769SOL    HW2 3207   3.109   0.572   4.421
  770SOL     OW 3208   2.112   3.921   2.962
  770SOL    HW1 3209   2.159   3.955   3.043
  770SOL    HW2 3210   2.156   3.959   2.880
  771SOL     OW 3211   2.199   5.469   2.598
  771SOL    HW1 3212   2.125   5.536   2.587
  771SOL    HW2 3213   2.223   5.463   2.695
  772SOL     OW 3214   5.391   4.855   0.646
  772SOL    HW1 3215   5.356   4.792   0.715
  772SOL    HW2 3216   5.327   4.859   0.569
  773SOL     OW 3217   0.357   3.790   4.494
  773SOL    HW1 3218   0.422   3.831   4.431
  773SOL    HW2 3219   0.405   3.732   4.559
  774SOL     OW 3220   1.653   1.803   1.428
  774SOL    HW1 3221   1.707   1.793   1.345
  774SOL    HW2 3222   1.560   1.834   1.405
  775SOL     OW 3223   0.727   2.475   2.712
  775SOL    HW1 3224   0.645   2.418   2.723
  775SOL    HW2 3225   0.714   2.562   2.761
  776SOL     OW 3226   0.832   6.665   6.012
  776SOL    HW1 3227   0.738   6.682   5.985
  776SOL    HW2 3228   0.886   6.748   6.000
  777SOL     OW 3229   2.879   5.261   1.202
  777SOL    HW1 3230   2.943   5.257   1.125
  777SOL    HW2 3231   2.834   5.350   1.204
  778SOL     OW 3232   3.311   1.382   2.956
  778SOL    HW1 3233   3.311   1.466   3.010
  778SOL    HW2 3234   3.257   1.395   2.873
  779SOL     OW 3235   0.689   2.895   2.554
  779SOL    HW1 3236   0.760   2.966   2.559
  779SOL    HW2 3237   0.682   2.849   2.642
  780SOL     OW 3238   6.212   4.012   3.456
  780SOL    HW1 3239   6.277   3.956   3.405
  780SOL    HW2 3240   6.121   3.971   3.451
  781SOL     OW 3241   5.759   0.954   0.586
  781SOL    HW1 3242   5.804   0.872   0.552
  781SOL    HW2 3243   5.801   1.035   0.545
  782SOL     OW 3244   1.497   4.101   6.750
  782SOL    HW1 3245   1.528   4.191   6.779
  782SOL    HW2 3246   1.407   4.083   6.790
  783SOL     OW 3247   3.876   5.166   1.101
  783SOL    HW1 3248   3.821   5.134   1.024
  783SOL    HW2 3249   3.827   5.236   1.151
  784SOL     OW 3250   5.176   6.610   0.286
  784SOL    HW1 3251   5.172   6.559   0.373
  784SOL    HW2 3252   5.095   6.668   0.279
  785SOL     OW 3253   0.687   2.762   2.828
  785SOL    HW1 3254   0.609   2.824   2.832
  785SOL    HW2 3255   0.675   2.689   2.896
  786SOL     OW 3256   1.170   0.913   1.321
  786SOL    HW1 3257   1.113   0.846   1.369
  786SOL    HW2 3258   1.176   0.889   1.224
  787SOL     OW 3259   3.388   0.031   6.881
  787SOL    HW1 3260   3.338   0.094   6.939
  787SOL    HW2 3261   3.413   0.077   6.796
  788SOL     OW 3262   4.020   3.048   5.340
  788SOL    HW1 3263   3.966   3.070   5.259
  788SOL    HW2 3264   3.960   3.014   5.412
  789SOL     OW 3265   5.600   4.070   0.549
  789SOL    HW1 3266   5.550   4.016   0.617
  789SOL    HW2 3267   5.646   4.146   0.595
  790SOL     OW 3268   1.741   1.501   4.186
  790SOL    HW1 3269   1.737   1.593   4.147
  790SOL    HW2 3270   1.656   1.483   4.236
  791SOL     OW 3271   3.493   5.229   4.318
  791SOL    HW1 3272   3.421   5.180   4.269
  791SOL    HW2 3273   3.453   5.290   4.386
  792SOL     OW 3274   0.772   0.133   1.785
  792SOL    HW1 3275   0.719   0.054   1.815
  792SOL    HW2 3276   0.782   0.132   1.686
  793SOL     OW 3277   4.807   5.249   3.638
  793SOL    HW1 3278   4.903   5.250   3.665
  793SOL    HW2 3279   4.774   5.342   3.625
  794SOL     OW 3280   3.269   3.527   5.239
  794SOL    HW1 3281   3.217   3.612   5.245
  794SOL    HW2 3282   3.221   3.454   5.288
  795SOL     OW 3283   3.777   6.240   4.455
  795SOL    HW1 3284   3.839   6.306   4.413
  795SOL    HW2 3285   3.714   6.204   4.386
  796SOL     OW 3286   1.180   1.776   6.544
  796SOL    HW1 3287   1.239   1.788   6.464
  796SOL    HW2 3288   1.086   1.801   6.521
  797SOL     OW 3289   5.094   2.660   1.571
  797SOL    HW1 3290   5.051   2.635   1.484
  797SOL    HW2 3291   5.193   2.648   1.563
  798SOL     OW 3292   4.613   0.287   2.111
  798SOL    HW1 3293   4.553   0.272   2.189
  798SOL    HW2 3294   4.668   0.369   2.127
  799SOL     OW 3295   6.295   0.602   5.775
  799SOL    HW1 3296   6.292   0.701   5.793
  799SOL    HW2 3297   6.238   0.554   5.841
  800SOL     OW 3298   5.090   1.964   2.732
  800SOL    HW1 3299   5.087   1.955   2.832
  800SOL    HW2 3300   5.103   2.060   2.707
  801SOL     OW 3301   1.445   3.207   4.249
  801SOL    HW1 3302   1.360   3.240   4.208
  801SOL    HW2 3303   1.514   3.279   4.243
  802SOL     OW 3304   4.636   1.217   0.473
  802SOL    HW1 3305   4.665   1.204   0.568
  802SOL    HW2 3306   4.551   1.271   0.472
  803SOL     OW 3307   6.880   6.774   5.455
  803SOL    HW1 3308   6.951   6.764   5.525
  803SOL    HW2 3309   6.808   6.833   5.490
  804SOL     OW 3310   5.450   5.400   6.615
  804SOL    HW1 3311   5.488   5.492   6.621
  804SOL    HW2 3312   5.356   5.405   6.582
  805SOL     OW 3313   3.096   1.293   5.382
  805SOL    HW1 3314   3.131   1.368   5.439
  805SOL    HW2 3315   3.054   1.224   5.440
  806SOL     OW 3316   5.328   1.371   4.050
  806SOL    HW1 3317   5.389   1.450   4.056
  806SOL    HW2 3318   5.306   1.352   3.955
  807SOL     OW 3319   0.981   2.040   4.776
  807SOL    HW1 3320   0.940   2.098   4.847
  807SOL    HW2 3321   0.956   1.945   4.793
  808SOL     OW 3322   4.395   3.127   6.230
  808SOL    HW1 3323   4.362   3.220   6.211
  808SOL    HW2 3324   4.493   3.130   6.248
  809SOL     OW 3325   0.150   5.502   2.214
  809SOL    HW1 3326   0.190   5.592   2.194
  809SOL    HW2 3327   0.097   5.471   2.134
  810SOL     OW 3328   3.622   3.146   1.171
  810SOL    HW1 3329   3.598   3.051   1.149
  810SOL    HW2 3330   3.721   3.158   1.157
  811SOL     OW 3331   3.654   5.824   5.359
  811SOL    HW1 3332   3.665   5.726   5.374
  811SOL    HW2 3333   3.742   5.870   5.371
  812SOL     OW 3334   0.436   1.564   1.731
  812SOL    HW1 3335   0.433   1.646   1.674
  812SOL    HW2 3336   0.519   1.565   1.786
  813SOL     OW 3337   3.442   6.243   5.544
  813SOL    HW1 3338   3.368   6.246   5.477
  813SOL    HW2 3339   3.412   6.290   5.627
  814SOL     OW 3340   5.832   6.530   2.585
  814SOL    HW1 3341   5.743   6.520   2.630
  814SOL    HW2 3342   5.839   6.622   2.547
  815SOL     OW 3343   0.317   4.131   3.008
  815SOL    HW1 3344   0.336   4.221   2.969
  815SOL    HW2 3345   0.334   4.060   2.939
  816SOL     OW 3346   6.068   6.587   0.067
  816SOL    HW1 3347   6.021   6.647   0.002
  816SOL    HW2 3348   6.065   6.629   0.158
  817SOL     OW 3349   1.951   3.535   1.525
  817SOL    HW1 3350   1.867   3.505   1.569
  817SOL    HW2 3351   2.029   3.489   1.568
  818SOL     OW 3352   6.300   2.630   1.946
  818SOL    HW1 3353   6.265   2.561   2.010
  818SOL    HW2 3354   6.351   2.699   1.996
  819SOL     OW 3355   5.888   2.962   2.903
  819SOL    HW1 3356   5.973   2.916   2.881
  819SOL    HW2 3357   5.903   3.061   2.903
  820SOL     OW 3358   2.767   2.771   5.847
  820SOL    HW1 3359   2.772   2.858   5.797
  820SOL    HW2 3360   2.831   2.706   5.807
  821SOL     OW 3361   1.315   4.032   0.921
  821SOL    HW1 3362   1.401   4.039   0.972
  821SOL    HW2 3363   1.314   4.100   0.848
  822SOL     OW 3364   1.849   4.344   5.208
  822SOL    HW1 3365   1.882   4.302   5.292
  822SOL    HW2 3366   1.907   4.422   5.184
  823SOL     OW 3367   5.291   4.115   6.342
  823SOL    HW1 3368   5.267   4.131   6.246
  823SOL    HW2 3369   5.295   4.203   6.390
  824SOL     OW 3370   5.542   1.068   5.272
  824SOL    HW1 3371   5.604   1.082   5.195
  824SOL    HW2 3372   5.549   1.146   5.334
  825SOL     OW 3373   1.247   4.319   1.352
  825SOL    HW1 3374   1.236   4.228   1.313
  825SOL    HW2 3375   1.165   4.374   1.334
  826SOL     OW 3376   5.313   3.261   5.298
  826SOL    HW1 3377   5.375   3.189   5.265
  826SOL    HW2 3378   5.263   3.227   5.377
  827SOL     OW 3379   3.576   4.247   5.825
  827SOL    HW1 3380   3.492   4.230   5.876
  827SOL    HW2 3381   3.553   4.277   5.732
  828SOL     OW 3382   5.120   6.882   6.378
  828SOL    HW1 3383   5.094   6.850   6.469
  828SOL    HW2 3384   5.047   6.939   6.340
  829SOL     OW 3385   2.946   3.475   3.239
  829SOL    HW1 3386   2.998   3.432   3.312
  829SOL    HW2 3387   2.922   3.569   3.265
  830SOL     OW 3388   4.345   4.249   6.702
  830SOL    HW1 3389   4.409   4.297   6.642
  830SOL    HW2 3390   4.319   4.310   6.777
  831SOL     OW 3391   5.360   0.938   6.752
  831SOL    HW1 3392   5.327   0.890   6.834
  831SOL    HW2 3393   5.371   0.872   6.678
  832SOL     OW 3394   3.166   0.827   2.032
  832SOL    HW1 3395   3.238   0.780   1.980
  832SOL    HW2 3396   3.179   0.808   2.130
  833SOL     OW 3397   0.281   3.960   5.666
  833SOL    HW1 3398   0.374   3.927   5.654
  833SOL    HW2 3399   0.283   4.053   5.702
  834SOL     OW 3400   3.365   4.031   0.985
  834SOL    HW1 3401   3.269   4.018   1.009
  834SOL    HW2 3402   3.392   3.965   0.915
  835SOL     OW 3403   3.586   0.401   4.737
  835SOL    HW1 3404   3.503   0.412   4.791
  835SOL    HW2 3405   3.600   0.304   4.716
  836SOL     OW 3406   3.893   6.301   6.558
  836SOL    HW1 3407   3.927   6.378   6.504
  836SOL    HW2 3408   3.924   6.310   6.652
  837SOL     OW 3409   5.434   6.691   0.217
  837SOL    HW1 3410   5.471   6.642   0.138
  837SOL    HW2 3411   5.347   6.650   0.244
  838SOL     OW 3412   1.941   0.530   4.512
  838SOL    HW1 3413   2.013   0.461   4.522
  838SOL    HW2 3414   1.951   0.599   4.584
  839SOL     OW 3415   2.605   2.323   1.916
  839SOL    HW1 3416   2.606   2.422   1.900
  839SOL    HW2 3417   2.696   2.286   1.903
  840SOL     OW 3418   5.547   6.771   6.929
  840SOL    HW1 3419   5.500   6.807   7.009
  840SOL    HW2 3420   5.557   6.844   6.861
  841SOL     OW 3421   4.651   4.956   0.070
  841SOL    HW1 3422   4.606   4.980   0.156
  841SOL    HW2 3423   4.589   4.901   0.015
  842SOL     OW 3424   4.068   6.344   4.892
  842SOL    HW1 3425   4.079   6.282   4.815
  842SOL    HW2 3426   4.032   6.294   4.970
  843SOL     OW 3427   1.887   1.621   0.933
  843SOL    HW1 3428   1.883   1.713   0.894
  843SOL    HW2 3429   1.982   1.592   0.941
  844SOL     OW 3430   6.098   0.740   0.782
  844SOL    HW1 3431   6.081   0.838   0.777
  844SOL    HW2 3432   6.163   0.720   0.854
  845SOL     OW 3433   5.741   4.246   4.959
  845SOL    HW1 3434   5.734   4.152   4.925
  845SOL    HW2 3435   5.791   4.301   4.893
  846SOL     OW 3436   2.306   1.892   6.854
  846SOL    HW1 3437   2.222   1.839   6.865
  846SOL    HW2 3438   2.339   1.923   6.943
  847SOL     OW 3439   1.400   3.135   0.821
  847SOL    HW1 3440   1.469   3.074   0.783
  847SOL    HW2 3441   1.313   3.122   0.773
  848SOL     OW 3442   5.898   0.702   6.296
  848SOL    HW1 3443   5.901   0.633   6.367
  848SOL    HW2 3444   5.832   0.675   6.226
  849SOL     OW 3445   0.364   4.726   6.142
  849SOL    HW1 3446   0.333   4.803   6.087
  849SOL    HW2 3447   0.428   4.757   6.212
  850SOL     OW 3448   5.427   1.206   3.635
  850SOL    HW1 3449   5.438   1.129   3.572
  850SOL    HW2 3450   5.495   1.199   3.708
  851SOL     OW 3451   0.537   1.795   2.212
  851SOL    HW1 3452   0.444   1.804   2.178
  851SOL    HW2 3453   0.570   1.883   2.247
  852SOL     OW 3454   1.320   2.176   0.327
  852SOL    HW1 3455   1.230   2.193   0.368
  852SOL    HW2 3456   1.348   2.256   0.274
  853SOL     OW 3457   1.878   4.233   2.457
  853SOL    HW1 3458   1.904   4.231   2.361
  853SOL    HW2 3459   1.871   4.328   2.488
  854SOL     OW 3460   4.479   6.178   1.864
  854SOL    HW1 3461   4.496   6.107   1.796
  854SOL    HW2 3462   4.496   6.268   1.822
  855SOL     OW 3463   0.365   0.389   1.730
  855SOL    HW1 3464   0.334   0.472   1.778
  855SOL    HW2 3465   0.463   0.376   1.747
  856SOL     OW 3466   1.239   1.522   5.450
  856SOL    HW1 3467   1.265   1.454   5.382
  856SOL    HW2 3468   1.185   1.595   5.406
  857SOL     OW 3469   5.968   4.586   2.239
  857SOL    HW1 3470   5.971   4.491   2.205
  857SOL    HW2 3471   6.060   4.625   2.233
  858SOL     OW 3472   2.959   4.094   1.240
  858SOL    HW1 3473   2.907   4.171   1.277
  858SOL    HW2 3474   2.924   4.009   1.279
  859SOL     OW 3475   4.799   5.668   6.178
  859SOL    HW1 3476   4.864   5.629   6.113
  859SOL    HW2 3477   4.706   5.652   6.146
  860SOL     OW 3478   4.254   3.870   0.894
  860SOL    HW1 3479   4.231   3.822   0.979
  860SOL    HW2 3480   4.353   3.878   0.886
  861SOL     OW 3481   2.727   0.362   3.753
  861SOL    HW1 3482   2.758   0.268   3.763
  861SOL    HW2 3483   2.666   0.369   3.674
  862SOL     OW 3484   0.343   4.067   6.119
  862SOL    HW1 3485   0.373   4.144   6.176
  862SOL    HW2 3486   0.423   4.017   6.086
  863SOL     OW 3487   0.379   0.332   0.491
  863SOL    HW1 3488   0.294   0.369   0.454
  863SOL    HW2 3489   0.389   0.359   0.586
  864SOL     OW 3490   4.278   4.852   3.393
  864SOL    HW1 3491   4.210   4.894   3.453
  864SOL    HW2 3492   4.304   4.763   3.430
  865SOL     OW 3493   1.561   6.133   6.361
  865SOL    HW1 3494   1.596   6.195   6.290
  865SOL    HW2 3495   1.529   6.186   6.439
  866SOL     OW 3496   1.412   2.098   2.100
  866SOL    HW1 3497   1.367   2.066   2.017
  866SOL    HW2 3498   1.378   2.189   2.124
  867SOL     OW 3499   3.884   3.364   0.500
  867SOL    HW1 3500   3.865   3.429   0.574
  867SOL    HW2 3501   3.849   3.273   0.526
  868SOL     OW 3502   6.006   0.041   1.116
  868SOL    HW1 3503   6.020   0.138   1.096
  868SOL    HW2 3504   6.085   0.005   1.164
  869SOL     OW 3505   6.346   5.548   2.825
  869SOL    HW1 3506   6.315   5.501   2.742
  869SOL    HW2 3507   6.441   5.522   2.845
  870SOL     OW 3508   4.701   3.254   1.084
  870SOL    HW1 3509   4.621   3.210   1.126
  870SOL    HW2 3510   4.785   3.214   1.121
  871SOL     OW 3511   5.010   3.445   2.986
  871SOL    HW1 3512   5.002   3.532   2.938
  871SOL    HW2 3513   5.028   3.462   3.083
  872SOL     OW 3514   5.558   4.322   3.824
  872SOL    HW1 3515   5.621   4.332   3.747
  872SOL    HW2 3516   5.595   4.370   3.903
  873SOL     OW 3517   5.805   6.478   4.164
  873SOL    HW1 3518   5.762   6.556   4.210
  873SOL    HW2 3519   5.876   6.439   4.223
  874SOL     OW 3520   0.994   4.874   5.772
  874SOL    HW1 3521   0.895   4.885   5.769
  874SOL    HW2 3522   1.017   4.804   5.840
  875SOL     OW 3523   3.899   2.715   0.782
  875SOL    HW1 3524   3.845   2.772   0.721
  875SOL    HW2 3525   3.845   2.690   0.862
  876SOL     OW 3526   0.671   5.577   3.115
  876SOL    HW1 3527   0.658   5.548   3.021
  876SOL    HW2 3528   0.676   5.676   3.120
  877SOL     OW 3529   4.220   3.368   6.783
  877SOL    HW1 3530   4.142   3.379   6.722
  877SOL    HW2 3531   4.226   3.446   6.845
  878SOL     OW 3532   4.499   5.752   5.721
  878SOL    HW1 3533   4.496   5.771   5.623
  878SOL    HW2 3534   4.462   5.831   5.771
  879SOL     OW 3535   3.088   2.152   2.244
  879SOL    HW1 3536   3.020   2.101   2.295
  879SOL    HW2 3537   3.043   2.217   2.183
  880SOL     OW 3538   3.009   3.763   5.880
  880SOL    HW1 3539   3.007   3.692   5.809
  880SOL    HW2 3540   3.001   3.853   5.836
  881SOL     OW 3541   4.604   4.216   5.363
  881SOL    HW1 3542   4.668   4.259   5.299
  881SOL    HW2 3543   4.512   4.253   5.348
  882SOL     OW 3544   1.402   1.745   4.073
  882SOL    HW1 3545   1.320   1.700   4.038
  882SOL    HW2 3546   1.403   1.841   4.046
  883SOL     OW 3547   4.878   5.293   6.043
  883SOL    HW1 3548   4.832   5.290   5.954
  883SOL    HW2 3549   4.822   5.245   6.111
  884SOL     OW 3550   0.076   3.962   0.427
  884SOL    HW1 3551   0.030   4.016   0.356
  884SOL    HW2 3552   0.064   3.864   0.407
  885SOL     OW 3553   5.314   5.766   6.787
  885SOL    HW1 3554   5.375   5.758   6.708
  885SOL    HW2 3555   5.331   5.691   6.851
  886SOL     OW 3556   3.416   0.312   0.824
  886SOL    HW1 3557   3.504   0.341   0.785
  886SOL    HW2 3558   3.351   0.296   0.749
  887SOL     OW 3559   4.272   6.889   4.262
  887SOL    HW1 3560   4.370   6.909   4.269
  887SOL    HW2 3561   4.228   6.905   4.351
  888SOL     OW 3562   6.184   5.779   2.735
  888SOL    HW1 3563   6.248   5.711   2.770
  888SOL    HW2 3564   6.193   5.864   2.788
  889SOL     OW 3565   1.880   6.442   5.458
  889SOL    HW1 3566   1.845   6.350   5.473
  889SOL    HW2 3567   1.824   6.507   5.510
  890SOL     OW 3568   2.203   4.924   2.068
  890SOL    HW1 3569   2.161   4.856   2.129
  890SOL    HW2 3570   2.157   5.012   2.081
  891SOL     OW 3571   6.609   4.124   1.117
  891SOL    HW1 3572   6.640   4.059   1.186
  891SOL    HW2 3573   6.686   4.181   1.089
  892SOL     OW 3574   4.231   3.705   6.542
  892SOL    HW1 3575   4.291   3.748   6.609
  892SOL    HW2 3576   4.179   3.775   6.494
  893SOL     OW 3577   1.780   1.045   2.693
  893SOL    HW1 3578   1.829   1.038   2.780
  893SOL    HW2 3579   1.794   1.137   2.655
  894SOL     OW 3580   1.183   2.480   3.891
  894SOL    HW1 3581   1.159   2.384   3.908
  894SOL    HW2 3582   1.255   2.484   3.821
  895SOL     OW 3583   1.185   5.744   4.688
  895SOL    HW1 3584   1.134   5.676   4.635
  895SOL    HW2 3585   1.280   5.715   4.698
  896SOL     OW 3586   5.446   0.176   1.877
  896SOL    HW1 3587   5.398   0.110   1.821
  896SOL    HW2 3588   5.444   0.148   1.973
  897SOL     OW 3589   4.942   1.085   0.215
  897SOL    HW1 3590   4.891   1.140   0.280
  897SOL    HW2 3591   4.892   1.079   0.129
  898SOL     OW 3592   4.157   5.546   3.055
  898SOL    HW1 3593   4.072   5.579   3.098
  898SOL    HW2 3594   4.158   5.573   2.959
  899SOL     OW 3595   0.057   4.908   0.272
  899SOL    HW1 3596   0.129   4.887   0.206
  899SOL    HW2 3597   0.035   4.826   0.325
  900SOL     OW 3598   4.860   6.046   1.593
  900SOL    HW1 3599   4.762   6.025   1.599
  900SOL    HW2 3600   4.879   6.091   1.506
  901SOL     OW 3601   0.955   0.818   5.767
  901SOL    HW1 3602   0.886   0.795   5.835
  901SOL    HW2 3603   0.989   0.910   5.783
  902SOL     OW 3604   0.567   2.163   6.838
  902SOL    HW1 3605   0.524   2.253   6.834
  902SOL    HW2 3606   0.648   2.161   6.780
  903SOL     OW 3607   6.926   3.557   6.270
  903SOL    HW1 3608   6.876   3.493   6.329
  903SOL    HW2 3609   7.010   3.586   6.315
  904SOL     OW 3610   1.551   2.697   4.053
  904SOL    HW1 3611   1.517   2.630   3.987
  904SOL    HW2 3612   1.623   2.656   4.109
  905SOL     OW 3613   4.620   3.493   6.469
  905SOL    HW1 3614   4.665   3.501   6.380
  905SOL    HW2 3615   4.521   3.501   6.458
  906SOL     OW 3616   0.725   3.573   5.831
  906SOL    HW1 3617   0.650   3.628   5.869
  906SOL    HW2 3618   0.804   3.578   5.892
  907SOL     OW 3619   6.006   3.219   2.928
  907SOL    HW1 3620   6.086   3.205   2.985
  907SOL    HW2 3621   6.032   3.266   2.843
  908SOL     OW 3622   1.977   6.236   3.197
  908SOL    HW1 3623   1.935   6.266   3.283
  908SOL    HW2 3624   2.063   6.190   3.218
  909SOL     OW 3625   2.277   6.534   1.861
  909SOL    HW1 3626   2.371   6.543   1.830
  909SOL    HW2 3627   2.232   6.460   1.810
  910SOL     OW 3628   2.452   0.539   0.788
  910SOL    HW1 3629   2.484   0.457   0.740
  910SOL    HW2 3630   2.461   0.619   0.728
  911SOL     OW 3631   0.028   5.497   1.194
  911SOL    HW1 3632   0.072   5.413   1.227
  911SOL    HW2 3633   0.076   5.530   1.113
  912SOL     OW 3634   6.451   0.958   4.797
  912SOL    HW1 3635   6.371   0.956   4.737
  912SOL    HW2 3636   6.420   0.968   4.892
  913SOL     OW 3637   2.119   0.514   3.144
  913SOL    HW1 3638   2.152   0.598   3.188
  913SOL    HW2 3639   2.020   0.521   3.130
  914SOL     OW 3640   2.915   5.765   4.766
  914SOL    HW1 3641   2.937   5.858   4.737
  914SOL    HW2 3642   2.997   5.721   4.802
  915SOL     OW 3643   1.601   2.922   0.152
  915SOL    HW1 3644   1.563   3.002   0.105
  915SOL    HW2 3645   1.594   2.936   0.251
  916SOL     OW 3646   1.671   2.846   1.741
  916SOL    HW1 3647   1.628   2.842   1.651
  916SOL    HW2 3648   1.749   2.783   1.744
  917SOL     OW 3649   5.466   0.395   1.441
  917SOL    HW1 3650   5.547   0.454   1.442
  917SOL    HW2 3651   5.416   0.405   1.527
  918SOL     OW 3652   2.699   6.630   6.706
  918SOL    HW1 3653   2.694   6.659   6.802
  918SOL    HW2 3654   2.711   6.531   6.702
  919SOL     OW 3655   6.633   5.503   2.210
  919SOL    HW1 3656   6.572   5.542   2.279
  919SOL    HW2 3657   6.726   5.495   2.248
  920SOL     OW 3658   1.393   6.275   3.367
  920SOL    HW1 3659   1.428   6.359   3.326
  920SOL    HW2 3660   1.305   6.293   3.411
  921SOL     OW 3661   4.662   4.442   3.891
  921SOL    HW1 3662   4.683   4.499   3.971
  921SOL    HW2 3663   4.619   4.499   3.821
  922SOL     OW 3664   3.293   2.861   6.056
  922SOL    HW1 3665   3.213   2.917   6.039
  922SOL    HW2 3666   3.267   2.779   6.108
  923SOL     OW 3667   2.662   4.607   6.431
  923SOL    HW1 3668   2.748   4.591   6.480
  923SOL    HW2 3669   2.682   4.648   6.342
  924SOL     OW 3670   6.345   2.611   2.340
  924SOL    HW1 3671   6.293   2.550   2.280
  924SOL    HW2 3672   6.313   2.600   2.434
  925SOL     OW 3673   6.917   1.802   5.873
  925SOL    HW1 3674   6.854   1.727   5.891
  925SOL    HW2 3675   7.005   1.783   5.917
  926SOL     OW 3676   6.265   0.885   0.146
  926SOL    HW1 3677   6.232   0.887   0.240
  926SOL    HW2 3678   6.196   0.925   0.086
  927SOL     OW 3679   5.403   4.537   3.677
  927SOL    HW1 3680   5.456   4.468   3.725
  927SOL    HW2 3681   5.379   4.611   3.739
  928SOL     OW 3682   1.760   6.742   0.265
  928SOL    HW1 3683   1.855   6.769   0.250
  928SOL    HW2 3684   1.711   6.816   0.313
  929SOL     OW 3685   0.724   1.349   0.674
  929SOL    HW1 3686   0.751   1.426   0.616
  929SOL    HW2 3687   0.637   1.370   0.718
  930SOL     OW 3688   5.487   5.715   4.951
  930SOL    HW1 3689   5.556   5.665   4.899
  930SOL    HW2 3690   5.531   5.766   5.025
  931SOL     OW 3691   5.703   3.633   2.597
  931SOL    HW1 3692   5.680   3.639   2.500
  931SOL    HW2 3693   5.770   3.704   2.620
  932SOL     OW 3694   2.636   6.853   2.400
  932SOL    HW1 3695   2.674   6.761   2.391
  932SOL    HW2 3696   2.635   6.897   2.310
  933SOL     OW 3697   0.690   5.824   2.986
  933SOL    HW1 3698   0.598   5.861   2.996
  933SOL    HW2 3699   0.730   5.858   2.900
  934SOL     OW 3700   1.821   0.891   5.018
  934SOL    HW1 3701   1.727   0.907   4.986
  934SOL    HW2 3702   1.853   0.803   4.982
  935SOL     OW 3703   5.046   3.426   5.419
  935SOL    HW1 3704   5.135   3.470   5.410
  935SOL    HW2 3705   5.003   3.416   5.329
  936SOL     OW 3706   1.622   1.063   6.033
  936SOL    HW1 3707   1.715   1.070   6.068
  936SOL    HW2 3708   1.561   1.033   6.106
  937SOL     OW 3709   4.782   1.313   4.653
  937SOL    HW1 3710   4.782   1.339   4.556
  937SOL    HW2 3711   4.726   1.378   4.704
  938SOL     OW 3712   0.387   5.425   6.505
  938SOL    HW1 3713   0.303   5.395   6.461
  938SOL    HW2 3714   0.390   5.525   6.507
  939SOL     OW 3715   4.605   1.415   5.190
  939SOL    HW1 3716   4.568   1.323   5.178
  939SOL    HW2 3717   4.703   1.409   5.211
  940SOL     OW 3718   0.729   3.464   2.565
  940SOL    HW1 3719   0.736   3.454   2.664
  940SOL    HW2 3720   0.636   3.489   2.541
  941SOL     OW 3721   6.516   0.635   4.066
  941SOL    HW1 3722   6.561   0.676   4.145
  941SOL    HW2 3723   6.573   0.560   4.030
  942SOL     OW 3724   4.851   0.373   4.017
  942SOL    HW1 3725   4.764   0.329   4.038
  942SOL    HW2 3726   4.854   0.395   3.920
  943SOL     OW 3727   1.241   3.488   3.760
  943SOL    HW1 3728   1.272   3.556   3.693
  943SOL    HW2 3729   1.201   3.535   3.839
  944SOL     OW 3730   6.587   3.597   5.610
  944SOL    HW1 3731   6.663   3.549   5.655
  944SOL    HW2 3732   6.533   3.645   5.678
  945SOL     OW 3733   6.656   4.021   5.602
  945SOL    HW1 3734   6.723   4.043   5.672
  945SOL    HW2 3735   6.678   4.069   5.517
  946SOL     OW 3736   4.845   2.724   5.961
  946SOL    HW1 3737   4.906   2.679   5.896
  946SOL    HW2 3738   4.896   2.793   6.012
  947SOL     OW 3739   3.394   3.262   4.327
  947SOL    HW1 3740   3.427   3.245   4.420
  947SOL    HW2 3741   3.355   3.178   4.289
  948SOL     OW 3742   3.881   0.356   0.611
  948SOL    HW1 3743   3.908   0.424   0.542
  948SOL    HW2 3744   3.946   0.280   0.610
  949SOL     OW 3745   0.263   6.014   6.378
  949SOL    HW1 3746   0.278   5.974   6.468
  949SOL    HW2 3747   0.346   6.062   6.348
  950SOL     OW 3748   4.127   5.162   1.524
  950SOL    HW1 3749   4.189   5.237   1.498
  950SOL    HW2 3750   4.171   5.074   1.504
  951SOL     OW 3751   1.373   0.865   2.725
  951SOL    HW1 3752   1.397   0.828   2.635
  951SOL    HW2 3753   1.390   0.963   2.727
  952SOL     OW 3754   6.015   1.863   2.444
  952SOL    HW1 3755   6.096   1.900   2.398
  952SOL    HW2 3756   5.951   1.828   2.375
  953SOL     OW 3757   5.146   6.096   5.238
  953SOL    HW1 3758   5.125   6.062   5.329
  953SOL    HW2 3759   5.218   6.039   5.198
  954SOL     OW 3760   5.038   5.537   0.762
  954SOL    HW1 3761   4.979   5.488   0.825
  954SOL    HW2 3762   5.004   5.526   0.668
  955SOL     OW 3763   0.277   5.051   3.646
  955SOL    HW1 3764   0.372   5.027   3.664
  955SOL    HW2 3765   0.271   5.107   3.564
  956SOL     OW 3766   0.573   2.159   2.555
  956SOL    HW1 3767   0.657   2.146   2.608
  956SOL    HW2 3768   0.582   2.241   2.498
  957SOL     OW 3769   0.873   5.081   4.566
  957SOL    HW1 3770   0.828   5.161   4.606
  957SOL    HW2 3771   0.838   4.998   4.610
  958SOL     OW 3772   4.500   2.529   1.995
  958SOL    HW1 3773   4.497   2.496   1.901
  958SOL    HW2 3774   4.562   2.608   2.000
  959SOL     OW 3775   2.805   4.905   3.287
  959SOL    HW1 3776   2.875   4.931   3.353
  959SOL    HW2 3777   2.715   4.933   3.321
  960SOL     OW 3778   6.937   5.774   3.536
  960SOL    HW1 3779   6.963   5.689   3.580
  960SOL    HW2 3780   6.964   5.772   3.440
  961SOL     OW 3781   5.002   0.228   3.471
  961SOL    HW1 3782   5.045   0.310   3.431
  961SOL    HW2 3783   4.967   0.250   3.562
  962SOL     OW 3784   1.360   0.903   3.936
  962SOL    HW1 3785   1.292   0.974   3.954
  962SOL    HW2 3786   1.440   0.944   3.892
  963SOL     OW 3787   6.259   1.715   6.052
  963SOL    HW1 3788   6.235   1.636   5.995
  963SOL    HW2 3789   6.287   1.791   5.993
  964SOL     OW 3790   5.970   4.317   0.680
  964SOL    HW1 3791   5.978   4.291   0.777
  964SOL    HW2 3792   6.060   4.309   0.636
  965SOL     OW 3793   5.327   1.516   1.230
  965SOL    HW1 3794   5.231   1.499   1.207
  965SOL    HW2 3795   5.334   1.602   1.279
  966SOL     OW 3796   5.825   2.239   2.252
  966SOL    HW1 3797   5.787   2.147   2.260
  966SOL    HW2 3798   5.788   2.284   2.171
  967SOL     OW 3799   2.639   5.045   1.657
  967SOL    HW1 3800   2.639   5.088   1.747
  967SOL    HW2 3801   2.576   5.094   1.597
  968SOL     OW 3802   4.244   2.282   2.568
  968SOL    HW1 3803   4.225   2.186   2.547
  968SOL    HW2 3804   4.159   2.334   2.564
  969SOL     OW 3805   3.802   5.926   6.660
  969SOL    HW1 3806   3.784   6.001   6.596
  969SOL    HW2 3807   3.854   5.855   6.613
  970SOL     OW 3808   4.853   1.237   5.170
  970SOL    HW1 3809   4.937   1.207   5.215
  970SOL    HW2 3810   4.874   1.310   5.105
  971SOL     OW 3811   0.095   1.900   3.176
  971SOL    HW1 3812   0.190   1.899   3.145
  971SOL    HW2 3813   0.093   1.895   3.276
  972SOL     OW 3814   5.559   4.304   1.525
  972SOL    HW1 3815   5.630   4.273   1.588
  972SOL    HW2 3816   5.566   4.253   1.439
  973SOL     OW 3817   6.764   4.548   6.899
  973SOL    HW1 3818   6.740   4.500   6.814
  973SOL    HW2 3819   6.851   4.596   6.888
  974SOL     OW 3820   5.320   0.392   1.714
  974SOL    HW1 3821   5.278   0.451   1.783
  974SOL    HW2 3822   5.361   0.312   1.760
  975SOL     OW 3823   1.833   5.851   6.643
  975SOL    HW1 3824   1.759   5.816   6.701
  975SOL    HW2 3825   1.816   5.822   6.548
  976SOL     OW 3826   6.628   3.293   2.601
  976SOL    HW1 3827   6.644   3.219   2.536
  976SOL    HW2 3828   6.623   3.256   2.694
  977SOL     OW 3829   1.578   0.816   3.676
  977SOL    HW1 3830   1.573   0.915   3.661
  977SOL    HW2 3831   1.590   0.770   3.588
  978SOL     OW 3832   4.543   4.148   5.648
  978SOL    HW1 3833   4.590   4.130   5.561
  978SOL    HW2 3834   4.463   4.089   5.656
  979SOL     OW 3835   7.002   2.440   1.099
  979SOL    HW1 3836   6.924   2.481   1.145
  979SOL    HW2 3837   0.053   2.508   1.091
  980SOL     OW 3838   3.906   1.983   3.838
  980SOL    HW1 3839   3.834   2.004   3.905
  980SOL    HW2 3840   3.906   2.052   3.766
  981SOL     OW 3841   1.536   1.565   5.487
  981SOL    HW1 3842   1.446   1.521   5.485
  981SOL    HW2 3843   1.551   1.617   5.403
  982SOL     OW 3844   2.810   1.978   3.337
  982SOL    HW1 3845   2.878   1.924   3.386
  982SOL    HW2 3846   2.847   2.069   3.318
  983SOL     OW 3847   5.577   1.831   4.243
  983SOL    HW1 3848   5.533   1.864   4.326
  983SOL    HW2 3849   5.582   1.906   4.176
  984SOL     OW 3850   2.802   1.557   4.070
  984SOL    HW1 3851   2.854   1.494   4.013
  984SOL    HW2 3852   2.864   1.621   4.116
  985SOL     OW 3853   5.027   4.867   6.598
  985SOL    HW1 3854   4.995   4.809   6.523
  985SOL    HW2 3855   5.116   4.907   6.573
  986SOL     OW 3856   5.529   3.916   0.304
  986SOL    HW1 3857   5.551   3.973   0.383
  986SOL    HW2 3858   5.504   3.974   0.227
  987SOL     OW 3859   4.518   6.704   1.850
  987SOL    HW1 3860   4.426   6.738   1.836
  987SOL    HW2 3861   4.561   6.752   1.926
  988SOL     OW 3862   3.481   2.916   2.798
  988SOL    HW1 3863   3.403   2.895   2.857
  988SOL    HW2 3864   3.462   2.883   2.706
  989SOL     OW 3865   6.175   1.251   5.798
  989SOL    HW1 3866   6.251   1.235   5.736
  989SOL    HW2 3867   6.090   1.220   5.755
  990SOL     OW 3868   4.501   0.589   2.185
  990SOL    HW1 3869   4.583   0.559   2.136
  990SOL    HW2 3870   4.494   0.688   2.181
  991SOL     OW 3871   1.522   2.275   5.080
  991SOL    HW1 3872   1.447   2.340   5.092
  991SOL    HW2 3873   1.609   2.324   5.090
  992SOL     OW 3874   0.241   2.887   1.652
  992SOL    HW1 3875   0.189   2.918   1.732
  992SOL    HW2 3876   0.331   2.855   1.682
  993SOL     OW 3877   1.262   4.569   1.745
  993SOL    HW1 3878   1.231   4.573   1.840
  993SOL    HW2 3879   1.183   4.568   1.684
  994SOL     OW 3880   3.491   4.149   2.487
  994SOL    HW1 3881   3.531   4.189   2.569
  994SOL    HW2 3882   3.399   4.115   2.507
  995SOL     OW 3883   3.592   2.621   6.153
  995SOL    HW1 3884   3.560   2.656   6.065
  995SOL    HW2 3885   3.652   2.543   6.137
  996SOL     OW 3886   1.598   4.420   4.499
  996SOL    HW1 3887   1.618   4.374   4.412
  996SOL    HW2 3888   1.639   4.511   4.499
  997SOL     OW 3889   0.442   0.864   2.590
  997SOL    HW1 3890   0.509   0.936   2.571
  997SOL    HW2 3891   0.468   0.814   2.672
  998SOL     OW 3892   3.810   6.158   4.742
  998SOL    HW1 3893   3.897   6.109   4.750
  998SOL    HW2 3894   3.795   6.182   4.646
  999SOL     OW 3895   5.206   4.784   1.950
  999SOL    HW1 3896   5.267   4.803   2.027
  999SOL    HW2 3897   5.167   4.870   1.917
 1000SOL     OW 3898   0.803   0.955   1.406
 1000SOL    HW1 3899   0.844   0.865   1.417
 1000SOL    HW2 3900   0.717   0.946   1.356
 1001SOL     OW 3901   5.953   6.858   0.896
 1001SOL    HW1 3902   5.897   6.775   0.894
 1001SOL    HW2 3903   5.940   6.905   0.983
 1002SOL     OW 3904   6.218   1.643   0.198
 1002SOL    HW1 3905   6.249   1.627   0.104
 1002SOL    HW2 3906   6.218   1.742   0.216
 1003SOL     OW 3907   2.155   6.268   1.801
 1003SOL    HW1 3908   2.077   6.327   1.821
 1003SOL    HW2 3909   2.132   6.173   1.825
 1004SOL     OW 3910   0.267   0.211   1.564
 1004SOL    HW1 3911   0.306   0.280   1.626
 1004SOL    HW2 3912   0.327   0.201   1.484
 1005SOL     OW 3913   0.932   2.408   3.210
 1005SOL    HW1 3914   0.967   2.386   3.301
 1005SOL    HW2 3915   1.001   2.385   3.142
 1006SOL     OW 3916   1.303   4.761   0.878
 1006SOL    HW1 3917   1.309   4.852   0.921
 1006SOL    HW2 3918   1.394   4.720   0.874
 1007SOL     OW 3919   5.543   6.837   4.480
 1007SOL    HW1 3920   5.511   6.916   4.534
 1007SOL    HW2 3921   5.464   6.780   4.457
 1008SOL     OW 3922   2.093   3.121   4.865
 1008SOL    HW1 3923   2.026   3.147   4.935
 1008SOL    HW2 3924   2.183   3.113   4.908
 1009SOL     OW 3925   0.213   5.564   4.472
 1009SOL    HW1 3926   0.224   5.487   4.409
 1009SOL    HW2 3927   0.187   5.646   4.420
 1010SOL     OW 3928   3.854   2.534   5.864
 1010SOL    HW1 3929   3.858   2.627   5.829
 1010SOL    HW2 3930   3.803   2.533   5.950
 1011SOL     OW 3931   2.592   5.312   2.271
 1011SOL    HW1 3932   2.505   5.353   2.300
 1011SOL    HW2 3933   2.590   5.214   2.291
 1012SOL     OW 3934   0.193   0.491   0.858
 1012SOL    HW1 3935   0.192   0.590   0.875
 1012SOL    HW2 3936   0.269   0.469   0.797
 1013SOL     OW 3937   1.196   1.461   6.217
 1013SOL    HW1 3938   1.222   1.462   6.313
 1013SOL    HW2 3939   1.102   1.496   6.207
 1014SOL     OW 3940   5.144   6.059   6.533
 1014SOL    HW1 3941   5.103   5.974   6.567
 1014SOL    HW2 3942   5.128   6.132   6.598
 1015SOL     OW 3943   2.224   6.536   4.885
 1015SOL    HW1 3944   2.178   6.612   4.932
 1015SOL    HW2 3945   2.173   6.452   4.901
 1016SOL     OW 3946   3.717   3.432   6.981
 1016SOL    HW1 3947   3.749   3.507   0.016
 1016SOL    HW2 3948   3.782   3.357   6.985
 1017SOL     OW 3949   4.421   2.679   1.220
 1017SOL    HW1 3950   4.404   2.773   1.191
 1017SOL    HW2 3951   4.342   2.622   1.197
 1018SOL     OW 3952   1.225   3.309   4.136
 1018SOL    HW1 3953   1.132   3.295   4.168
 1018SOL    HW2 3954   1.233   3.281   4.040
 1019SOL     OW 3955   0.612   0.328   0.302
 1019SOL    HW1 3956   0.557   0.321   0.384
 1019SOL    HW2 3957   0.560   0.296   0.223
 1020SOL     OW 3958   0.689   6.689   1.625
 1020SOL    HW1 3959   0.762   6.699   1.692
 1020SOL    HW2 3960   0.618   6.628   1.661
 1021SOL     OW 3961   5.781   0.780   1.343
 1021SOL    HW1 3962   5.823   0.689   1.336
 1021SOL    HW2 3963   5.833   0.835   1.409
 1022SOL     OW 3964   3.431   4.321   6.174
 1022SOL    HW1 3965   3.384   4.285   6.094
 1022SOL    HW2 3966   3.480   4.405   6.149
 1023SOL     OW 3967   0.825   6.863   2.051
 1023SOL    HW1 3968   0.812   6.905   2.141
 1023SOL    HW2 3969   0.758   6.790   2.038
 1024SOL     OW 3970   6.812   3.564   4.391
 1024SOL    HW1 3971   6.730   3.531   4.346
 1024SOL    HW2 3972   6.887   3.571   4.325
 1025SOL     OW 3973   3.146   3.097   0.573
 1025SOL    HW1 3974   3.223   3.148   0.535
 1025SOL    HW2 3975   3.063   3.152   0.566
 1026SOL     OW 3976   2.433   2.616   1.448
 1026SOL    HW1 3977   2.426   2.710   1.481
 1026SOL    HW2 3978   2.515   2.607   1.391
 1027SOL     OW 3979   3.210   6.658   0.927
 1027SOL    HW1 3980   3.168   6.567   0.925
 1027SOL    HW2 3981   3.309   6.649   0.921
 1028SOL     OW 3982   3.522   6.296   0.053
 1028SOL    HW1 3983   3.529   6.204   0.016
 1028SOL    HW2 3984   3.468   6.295   0.137
 1029SOL     OW 3985   1.856   0.446   6.946
 1029SOL    HW1 3986   1.951   0.443   6.975
 1029SOL    HW2 3987   1.836   0.367   6.889
 1030SOL     OW 3988   3.417   3.452   1.740
 1030SOL    HW1 3989   3.386   3.414   1.827
 1030SOL    HW2 3990   3.484   3.390   1.699
 1031SOL     OW 3991   4.706   5.176   1.035
 1031SOL    HW1 3992   4.732   5.228   0.954
 1031SOL    HW2 3993   4.624   5.123   1.016
 1032SOL     OW 3994   2.184   1.856   5.200
 1032SOL    HW1 3995   2.183   1.952   5.171
 1032SOL    HW2 3996   2.278   1.826   5.212
 1033SOL     OW 3997   1.382   6.026   1.141
 1033SOL    HW1 3998   1.451   6.011   1.070
 1033SOL    HW2 3999   1.356   6.122   1.142
 1034SOL     OW 4000   0.545   5.526   5.057
 1034SOL    HW1 4001   0.613   5.456   5.080
 1034SOL    HW2 4002   0.520   5.517   4.961
 1035SOL     OW 4003   1.080   1.017   3.904
 1035SOL    HW1 4004   0.994   1.045   3.861
 1035SOL    HW2 4005   1.111   0.931   3.862
 1036SOL     OW 4006   2.861   1.034   2.142
 1036SOL    HW1 4007   2.934   1.046   2.075
 1036SOL    HW2 4008   2.859   1.113   2.203
 1037SOL     OW 4009   1.873   0.812   1.042
 1037SOL    HW1 4010   1.822   0.882   1.092
 1037SOL    HW2 4011   1.870   0.726   1.093
 1038SOL     OW 4012   1.438   0.042   5.414
 1038SOL    HW1 4013   1.338   0.041   5.408
 1038SOL    HW2 4014   1.467   7.022   5.500
 1039SOL     OW 4015   3.004   2.638   6.019
 1039SOL    HW1 4016   3.056   2.617   6.101
 1039SOL    HW2 4017   3.034   2.580   5.944
 1040SOL     OW 4018   4.802   2.952   2.304
 1040SOL    HW1 4019   4.894   2.914   2.310
 1040SOL    HW2 4020   4.780   2.970   2.208
 1041SOL     OW 4021   6.420   6.926   4.420
 1041SOL    HW1 4022   6.451   6.885   4.334
 1041SOL    HW2 4023   6.495   6.978   4.461
 1042SOL     OW 4024   3.865   5.003   2.601
 1042SOL    HW1 4025   3.770   5.014   2.633
 1042SOL    HW2 4026   3.871   4.922   2.543
 1043SOL     OW 4027   4.015   1.611   4.747
 1043SOL    HW1 4028   3.921   1.643   4.757
 1043SOL    HW2 4029   4.017   1.528   4.692
 1044SOL     OW 4030   4.860   4.748   2.319
 1044SOL    HW1 4031   4.871   4.749   2.220
 1044SOL    HW2 4032   4.912   4.672   2.358
 1045SOL     OW 4033   3.570   5.981   2.323
 1045SOL    HW1 4034   3.575   6.057   2.388
 1045SOL    HW2 4035   3.500   5.917   2.352
 1046SOL     OW 4036   1.319   6.874   0.746
 1046SOL    HW1 4037   1.318   6.974   0.737
 1046SOL    HW2 4038   1.289   6.833   0.660
 1047SOL     OW 4039   1.475   6.736   2.374
 1047SOL    HW1 4040   1.427   6.823   2.371
 1047SOL    HW2 4041   1.567   6.750   2.411
 1048SOL     OW 4042   4.850   6.241   5.465
 1048SOL    HW1 4043   4.837   6.293   5.381
 1048SOL    HW2 4044   4.763   6.199   5.491
 1049SOL     OW 4045   6.527   5.243   3.829
 1049SOL    HW1 4046   6.552   5.339   3.839
 1049SOL    HW2 4047   6.460   5.219   3.899
 1050SOL     OW 4048   4.105   5.500   0.816
 1050SOL    HW1 4049   4.040   5.492   0.892
 1050SOL    HW2 4050   4.178   5.563   0.841
 1051SOL     OW 4051   2.600   5.406   1.041
 1051SOL    HW1 4052   2.515   5.411   1.094
 1051SOL    HW2 4053   2.603   5.481   0.975
 1052SOL     OW 4054   3.729   0.301   4.293
 1052SOL    HW1 4055   3.708   0.216   4.342
 1052SOL    HW2 4056   3.811   0.343   4.333
 1053SOL     OW 4057   4.945   5.303   3.345
 1053SOL    HW1 4058   4.928   5.317   3.247
 1053SOL    HW2 4059   4.909   5.213   3.372
 1054SOL     OW 4060   2.242   3.683   5.404
 1054SOL    HW1 4061   2.291   3.602   5.372
 1054SOL    HW2 4062   2.249   3.755   5.335
 1055SOL     OW 4063   5.259   6.560   4.243
 1055SOL    HW1 4064   5.173   6.605   4.219
 1055SOL    HW2 4065   5.318   6.553   4.163
 1056SOL     OW 4066   1.677   4.964   6.084
 1056SOL    HW1 4067   1.755   4.965   6.146
 1056SOL    HW2 4068   1.709   4.973   5.990
 1057SOL     OW 4069   3.490   3.188   2.736
 1057SOL    HW1 4070   3.502   3.089   2.747
 1057SOL    HW2 4071   3.393   3.210   2.733
 1058SOL     OW 4072   5.090   1.583   2.121
 1058SOL    HW1 4073   4.997   1.607   2.095
 1058SOL    HW2 4074   5.121   1.643   2.195
 1059SOL     OW 4075   2.620   0.128   1.738
 1059SOL    HW1 4076   2.524   0.156   1.747
 1059SOL    HW2 4077   2.631   0.035   1.774
 1060SOL     OW 4078   6.990   4.071   4.457
 1060SOL    HW1 4079   6.918   4.002   4.459
 1060SOL    HW2 4080   0.052   4.032   4.494
 1061SOL     OW 4081   5.254   3.580   1.759
 1061SOL    HW1 4082   5.226   3.591   1.664
 1061SOL    HW2 4083   5.218   3.656   1.814
 1062SOL     OW 4084   5.912   4.589   5.449
 1062SOL    HW1 4085   5.841   4.561   5.513
 1062SOL    HW2 4086   5.901   4.686   5.426
 1063SOL     OW 4087   1.571   4.741   1.476
 1063SOL    HW1 4088   1.548   4.733   1.573
 1063SOL    HW2 4089   1.543   4.658   1.428
 1064SOL     OW 4090   1.480   4.172   2.105
 1064SOL    HW1 4091   1.543   4.223   2.046
 1064SOL    HW2 4092   1.404   4.231   2.131
 1065SOL     OW 4093   4.711   0.024   3.916
 1065SOL    HW1 4094   4.729   0.014   3.818
 1065SOL    HW2 4095   4.635   6.988   3.943
 1066SOL     OW 4096   5.168   0.289   3.756
 1066SOL    HW1 4097   5.070   0.307   3.743
 1066SOL    HW2 4098   5.186   0.271   3.853
 1067SOL     OW 4099   1.195   3.328   0.143
 1067SOL    HW1 4100   1.219   3.238   0.179
 1067SOL    HW2 4101   1.276   3.370   0.102
 1068SOL     OW 4102   5.059   4.994   3.026
 1068SOL    HW1 4103   5.011   4.938   2.959
 1068SOL    HW2 4104   5.070   5.087   2.989
 1069SOL     OW 4105   4.973   4.997   0.880
 1069SOL    HW1 4106   4.886   4.967   0.840
 1069SOL    HW2 4107   5.029   4.917   0.903
 1070SOL     OW 4108   0.742   1.020   1.939
 1070SOL    HW1 4109   0.715   1.057   1.850
 1070SOL    HW2 4110   0.751   0.920   1.931
 1071SOL     OW 4111   2.394   6.963   4.072
 1071SOL    HW1 4112   2.432   6.939   3.983
 1071SOL    HW2 4113   2.392   0.041   4.082
 1072SOL     OW 4114   1.635   6.273   1.057
 1072SOL    HW1 4115   1.557   6.320   1.016
 1072SOL    HW2 4116   1.623   6.270   1.157
 1073SOL     OW 4117   3.947   6.458   2.412
 1073SOL    HW1 4118   4.044   6.472   2.429
 1073SOL    HW2 4119   3.926   6.360   2.414
 1074SOL     OW 4120   2.801   5.349   0.374
 1074SOL    HW1 4121   2.734   5.280   0.402
 1074SOL    HW2 4122   2.889   5.330   0.418
 1075SOL     OW 4123   4.247   6.737   3.893
 1075SOL    HW1 4124   4.244   6.639   3.873
 1075SOL    HW2 4125   4.153   6.773   3.901
 1076SOL     OW 4126   6.987   4.649   5.476
 1076SOL    HW1 4127   0.002   4.558   5.495
 1076SOL    HW2 4128   6.929   4.678   5.553
 1077SOL     OW 4129   5.935   0.035   0.712
 1077SOL    HW1 4130   5.925   0.107   0.780
 1077SOL    HW2 4131   5.946   6.969   0.759
 1078SOL     OW 4132   0.888   1.282   2.407
 1078SOL    HW1 4133   0.862   1.340   2.329
 1078SOL    HW2 4134   0.908   1.190   2.374
 1079SOL     OW 4135   1.856   6.149   2.413
 1079SOL    HW1 4136   1.945   6.193   2.422
 1079SOL    HW2 4137   1.868   6.050   2.409
 1080SOL     OW 4138   1.779   4.560   3.494
 1080SOL    HW1 4139   1.831   4.581   3.411
 1080SOL    HW2 4140   1.819   4.481   3.539
 1081SOL     OW 4141   0.015   6.395   5.968
 1081SOL    HW1 4142   0.051   6.400   5.875
 1081SOL    HW2 4143   6.955   6.338   5.968
 1082SOL     OW 4144   3.733   1.869   6.299
 1082SOL    HW1 4145   3.731   1.774   6.329
 1082SOL    HW2 4146   3.763   1.927   6.374
 1083SOL     OW 4147   4.184   4.091   0.991
 1083SOL    HW1 4148   4.220   4.019   0.931
 1083SOL    HW2 4149   4.247   4.107   1.066
 1084SOL     OW 4150   6.389   5.716   1.060
 1084SOL    HW1 4151   6.380   5.654   0.983
 1084SOL    HW2 4152   6.483   5.717   1.092
 1085SOL     OW 4153   1.222   4.357   3.972
 1085SOL    HW1 4154   1.137   4.306   3.963
 1085SOL    HW2 4155   1.232   4.388   4.067
 1086SOL     OW 4156   6.759   5.832   2.245
 1086SOL    HW1 4157   6.781   5.786   2.159
 1086SOL    HW2 4158   6.762   5.766   2.320
 1087SOL     OW 4159   6.248   3.101   5.532
 1087SOL    HW1 4160   6.312   3.109   5.608
 1087SOL    HW2 4161   6.209   3.191   5.512
 1088SOL     OW 4162   5.908   4.989   3.455
 1088SOL    HW1 4163   5.839   5.058   3.476
 1088SOL    HW2 4164   5.871   4.898   3.477
 1089SOL     OW 4165   1.166   6.838   4.346
 1089SOL    HW1 4166   1.168   6.884   4.257
 1089SOL    HW2 4167   1.258   6.836   4.385
 1090SOL     OW 4168   2.239   1.678   3.792
 1090SOL    HW1 4169   2.216   1.774   3.808
 1090SOL    HW2 4170   2.155   1.623   3.790
 1091SOL     OW 4171   2.497   2.717   5.338
 1091SOL    HW1 4172   2.548   2.692   5.255
 1091SOL    HW2 4173   2.423   2.780   5.315
 1092SOL     OW 4174   1.968   3.615   0.420
 1092SOL    HW1 4175   1.909   3.646   0.345
 1092SOL    HW2 4176   1.939   3.660   0.505
 1093SOL     OW 4177   1.637   1.804   1.940
 1093SOL    HW1 4178   1.724   1.764   1.910
 1093SOL    HW2 4179   1.642   1.904   1.934
 1094SOL     OW 4180   1.145   5.990   3.661
 1094SOL    HW1 4181   1.164   6.085   3.686
 1094SOL    HW2 4182   1.085   5.988   3.580
 1095SOL     OW 4183   0.337   2.340   5.760
 1095SOL    HW1 4184   0.257   2.303   5.714
 1095SOL    HW2 4185   0.335   2.440   5.757
 1096SOL     OW 4186   3.337   4.693   1.726
 1096SOL    HW1 4187   3.434   4.680   1.749
 1096SOL    HW2 4188   3.321   4.663   1.633
 1097SOL     OW 4189   1.884   3.964   4.231
 1097SOL    HW1 4190   1.869   4.061   4.213
 1097SOL    HW2 4191   1.977   3.938   4.204
 1098SOL     OW 4192   4.952   3.156   1.160
 1098SOL    HW1 4193   5.014   3.178   1.084
 1098SOL    HW2 4194   4.986   3.199   1.244
 1099SOL     OW 4195   3.812   1.538   5.342
 1099SOL    HW1 4196   3.784   1.634   5.353
 1099SOL    HW2 4197   3.871   1.512   5.417
 1100SOL     OW 4198   3.078   1.710   6.593
 1100SOL    HW1 4199   3.177   1.700   6.586
 1100SOL    HW2 4200   3.039   1.724   6.501
 1101SOL     OW 4201   6.420   2.085   0.122
 1101SOL    HW1 4202   6.408   2.074   0.221
 1101SOL    HW2 4203   6.460   2.001   0.084
 1102SOL     OW 4204   0.303   6.005   3.943
 1102SOL    HW1 4205   0.288   5.928   4.007
 1102SOL    HW2 4206   0.400   6.031   3.946
 1103SOL     OW 4207   3.449   1.449   0.570
 1103SOL    HW1 4208   3.509   1.429   0.493
 1103SOL    HW2 4209   3.500   1.437   0.655
 1104SOL     OW 4210   2.322   3.409   5.304
 1104SOL    HW1 4211   2.293   3.348   5.230
 1104SOL    HW2 4212   2.300   3.368   5.392
 1105SOL     OW 4213   6.133   3.666   4.676
 1105SOL    HW1 4214   6.134   3.734   4.602
 1105SOL    HW2 4215   6.121   3.575   4.637
 1106SOL     OW 4216   0.439   2.116   0.633
 1106SOL    HW1 4217   0.466   2.028   0.672
 1106SOL    HW2 4218   0.519   2.177   0.630
 1107SOL     OW 4219   1.852   0.369   6.327
 1107SOL    HW1 4220   1.855   0.436   6.254
 1107SOL    HW2 4221   1.906   0.401   6.405
 1108SOL     OW 4222   3.096   0.996   5.896
 1108SOL    HW1 4223   3.188   0.960   5.884
 1108SOL    HW2 4224   3.094   1.092   5.870
 1109SOL     OW 4225   4.425   6.515   4.775
 1109SOL    HW1 4226   4.345   6.549   4.824
 1109SOL    HW2 4227   4.488   6.590   4.757
 1110SOL     OW 4228   2.993   1.946   2.694
 1110SOL    HW1 4229   2.967   1.903   2.780
 1110SOL    HW2 4230   3.093   1.945   2.685
 1111SOL     OW 4231   4.952   4.962   0.094
 1111SOL    HW1 4232   4.856   4.959   0.067
 1111SOL    HW2 4233   5.010   4.949   0.013
 1112SOL     OW 4234   6.489   1.054   2.450
 1112SOL    HW1 4235   6.463   0.992   2.376
 1112SOL    HW2 4236   6.501   1.003   2.534
 1113SOL     OW 4237   0.299   3.735   3.295
 1113SOL    HW1 4238   0.349   3.789   3.362
 1113SOL    HW2 4239   0.350   3.732   3.209
 1114SOL     OW 4240   4.572   1.552   6.354
 1114SOL    HW1 4241   4.590   1.459   6.323
 1114SOL    HW2 4242   4.640   1.614   6.314
 1115SOL     OW 4243   4.161   2.835   0.438
 1115SOL    HW1 4244   4.199   2.836   0.346
 1115SOL    HW2 4245   4.216   2.775   0.496
 1116SOL     OW 4246   5.430   6.013   5.156
 1116SOL    HW1 4247   5.505   6.044   5.098
 1116SOL    HW2 4248   5.448   5.920   5.188
 1117SOL     OW 4249   1.783   2.770   1.286
 1117SOL    HW1 4250   1.824   2.679   1.298
 1117SOL    HW2 4251   1.849   2.832   1.244
 1118SOL     OW 4252   2.331   4.259   1.520
 1118SOL    HW1 4253   2.366   4.351   1.503
 1118SOL    HW2 4254   2.304   4.251   1.616
 1119SOL     OW 4255   4.677   4.709   1.041
 1119SOL    HW1 4256   4.599   4.647   1.037
 1119SOL    HW2 4257   4.758   4.663   1.004
 1120SOL     OW 4258   5.801   6.721   5.108
 1120SOL    HW1 4259   5.760   6.630   5.105
 1120SOL    HW2 4260   5.729   6.790   5.108
 1121SOL     OW 4261   5.515   4.701   2.613
 1121SOL    HW1 4262   5.526   4.606   2.645
 1121SOL    HW2 4263   5.582   4.759   2.659
 1122SOL     OW 4264   4.449   3.236   6.758
 1122SOL    HW1 4265   4.387   3.314   6.755
 1122SOL    HW2 4266   4.416   3.166   6.695
 1123SOL     OW 4267   5.230   1.884   3.206
 1123SOL    HW1 4268   5.314   1.904   3.257
 1123SOL    HW2 4269   5.251   1.819   3.133
 1124SOL     OW 4270   6.034   4.221   5.153
 1124SOL    HW1 4271   6.047   4.123   5.138
 1124SOL    HW2 4272   5.952   4.251   5.106
 1125SOL     OW 4273   3.386   1.663   4.895
 1125SOL    HW1 4274   3.328   1.738   4.862
 1125SOL    HW2 4275   3.430   1.618   4.817
 1126SOL     OW 4276   5.423   6.483   0.555
 1126SOL    HW1 4277   5.451   6.491   0.650
 1126SOL    HW2 4278   5.471   6.552   0.500
 1127SOL     OW 4279   5.062   5.414   5.153
 1127SOL    HW1 4280   5.156   5.393   5.178
 1127SOL    HW2 4281   5.021   5.475   5.221
 1128SOL     OW 4282   5.224   2.157   5.362
 1128SOL    HW1 4283   5.266   2.241   5.395
 1128SOL    HW2 4284   5.217   2.092   5.438
 1129SOL     OW 4285   3.347   0.469   6.646
 1129SOL    HW1 4286   3.347   0.513   6.556
 1129SOL    HW2 4287   3.302   0.380   6.639
 1130SOL     OW 4288   1.917   4.716   1.099
 1130SOL    HW1 4289   1.959   4.793   1.147
 1130SOL    HW2 4290   1.941   4.721   1.001
 1131SOL     OW 4291   0.479   6.296   6.009
 1131SOL    HW1 4292   0.417   6.226   6.044
 1131SOL    HW2 4293   0.572   6.260   6.007
 1132SOL     OW 4294   5.246   0.173   0.954
 1132SOL    HW1 4295   5.173   0.241   0.954
 1132SOL    HW2 4296   5.294   0.176   1.042
 1133SOL     OW 4297   0.917   1.254   0.887
 1133SOL    HW1 4298   0.949   1.160   0.873
 1133SOL    HW2 4299   0.880   1.289   0.801
 1134SOL     OW 4300   4.712   1.322   1.689
 1134SOL    HW1 4301   4.635   1.313   1.752
 1134SOL    HW2 4302   4.679   1.352   1.600
 1135SOL     OW 4303   2.067   1.390   2.701
 1135SOL    HW1 4304   2.092   1.466   2.641
 1135SOL    HW2 4305   2.067   1.421   2.796
 1136SOL     OW 4306   3.453   5.318   4.880
 1136SOL    HW1 4307   3.515   5.392   4.903
 1136SOL    HW2 4308   3.374   5.354   4.832
 1137SOL     OW 4309   1.709   1.988   6.371
 1137SOL    HW1 4310   1.637   1.998   6.302
 1137SOL    HW2 4311   1.741   2.078   6.400
 1138SOL     OW 4312   0.553   1.362   6.373
 1138SOL    HW1 4313   0.626   1.421   6.407
 1138SOL    HW2 4314   0.506   1.319   6.450
 1139SOL     OW 4315   3.047   5.616   1.133
 1139SOL    HW1 4316   3.043   5.592   1.036
 1139SOL    HW2 4317   3.118   5.562   1.178
 1140SOL     OW 4318   3.373   1.027   2.023
 1140SOL    HW1 4319   3.408   0.939   1.992
 1140SOL    HW2 4320   3.412   1.100   1.966
 1141SOL     OW 4321   6.770   6.612   6.569
 1141SOL    HW1 4322   6.785   6.516   6.595
 1141SOL    HW2 4323   6.677   6.639   6.594
 1142SOL     OW 4324   3.587   0.423   4.087
 1142SOL    HW1 4325   3.644   0.400   4.166
 1142SOL    HW2 4326   3.519   0.491   4.114
 1143SOL     OW 4327   2.168   3.239   1.886
 1143SOL    HW1 4328   2.200   3.334   1.888
 1143SOL    HW2 4329   2.133   3.215   1.977
 1144SOL     OW 4330   6.384   4.685   5.578
 1144SOL    HW1 4331   6.425   4.612   5.524
 1144SOL    HW2 4332   6.343   4.647   5.661
 1145SOL     OW 4333   0.060   4.479   2.386
 1145SOL    HW1 4334   0.026   4.431   2.304
 1145SOL    HW2 4335   0.144   4.435   2.417
 1146SOL     OW 4336   6.373   0.723   1.585
 1146SOL    HW1 4337   6.349   0.733   1.489
 1146SOL    HW2 4338   6.303   0.669   1.631
 1147SOL     OW 4339   1.389   4.362   0.968
 1147SOL    HW1 4340   1.356   4.325   0.881
 1147SOL    HW2 4341   1.486   4.385   0.959
 1148SOL     OW 4342   4.650   6.719   6.598
 1148SOL    HW1 4343   4.700   6.724   6.685
 1148SOL    HW2 4344   4.614   6.810   6.576
 1149SOL     OW 4345   6.510   4.547   3.095
 1149SOL    HW1 4346   6.495   4.526   2.998
 1149SOL    HW2 4347   6.457   4.628   3.120
 1150SOL     OW 4348   2.806   4.194   0.723
 1150SOL    HW1 4349   2.899   4.214   0.753
 1150SOL    HW2 4350   2.761   4.135   0.791
 1151SOL     OW 4351   4.998   5.196   6.610
 1151SOL    HW1 4352   5.016   5.112   6.559
 1151SOL    HW2 4353   4.900   5.216   6.608
 1152SOL     OW 4354   0.538   5.711   5.798
 1152SOL    HW1 4355   0.588   5.787   5.756
 1152SOL    HW2 4356   0.481   5.667   5.729
 1153SOL     OW 4357   2.268   0.175   2.487
 1153SOL    HW1 4358   2.342   0.132   2.538
 1153SOL    HW2 4359   2.306   0.236   2.418
 1154SOL     OW 4360   0.318   4.057   1.616
 1154SOL    HW1 4361   0.250   4.023   1.681
 1154SOL    HW2 4362   0.334   3.988   1.545
 1155SOL     OW 4363   2.645   5.031   0.070
 1155SOL    HW1 4364   2.742   5.044   0.048
 1155SOL    HW2 4365   2.595   5.117   0.053
 1156SOL     OW 4366   2.232   0.859   5.063
 1156SOL    HW1 4367   2.184   0.778   5.096
 1156SOL    HW2 4368   2.289   0.896   5.137
 1157SOL     OW 4369   6.414   0.853   5.281
 1157SOL    HW1 4370   6.444   0.936   5.234
 1157SOL    HW2 4371   6.425   0.774   5.221
 1158SOL     OW 4372   0.338   5.617   5.643
 1158SOL    HW1 4373   0.247   5.624   5.684
 1158SOL    HW2 4374   0.329   5.594   5.546
 1159SOL     OW 4375   4.763   0.060   3.658
 1159SOL    HW1 4376   4.704   0.079   3.579
 1159SOL    HW2 4377   4.833   7.016   3.631
 1160SOL     OW 4378   3.898   3.392   1.410
 1160SOL    HW1 4379   3.879   3.364   1.316
 1160SOL    HW2 4380   3.831   3.462   1.437
 1161SOL     OW 4381   5.078   0.332   5.993
 1161SOL    HW1 4382   5.038   0.395   5.927
 1161SOL    HW2 4383   5.008   0.304   6.059
 1162SOL     OW 4384   3.082   2.433   0.064
 1162SOL    HW1 4385   3.143   2.510   0.048
 1162SOL    HW2 4386   2.987   2.464   0.062
 1163SOL     OW 4387   6.640   3.207   1.973
 1163SOL    HW1 4388   6.627   3.280   2.040
 1163SOL    HW2 4389   6.569   3.138   1.984
 1164SOL     OW 4390   5.282   2.201   4.300
 1164SOL    HW1 4391   5.193   2.240   4.324
 1164SOL    HW2 4392   5.346   2.274   4.278
 1165SOL     OW 4393   1.981   4.533   4.572
 1165SOL    HW1 4394   1.968   4.556   4.475
 1165SOL    HW2 4395   1.993   4.434   4.581
 1166SOL     OW 4396   3.664   0.440   0.777
 1166SOL    HW1 4397   3.737   0.439   0.709
 1166SOL    HW2 4398   3.650   0.533   0.811
 1167SOL     OW 4399   3.727   6.722   6.531
 1167SOL    HW1 4400   3.770   6.775   6.458
 1167SOL    HW2 4401   3.628   6.716   6.514
 1168SOL     OW 4402   6.166   1.655   3.580
 1168SOL    HW1 4403   6.260   1.677   3.554
 1168SOL    HW2 4404   6.136   1.573   3.530
 1169SOL     OW 4405   5.903   3.117   6.617
 1169SOL    HW1 4406   5.835   3.051   6.650
 1169SOL    HW2 4407   5.948   3.081   6.535
 1170SOL     OW 4408   5.506   0.892   2.139
 1170SOL    HW1 4409   5.450   0.812   2.120
 1170SOL    HW2 4410   5.496   0.958   2.065
 1171SOL     OW 4411   3.064   6.605   6.896
 1171SOL    HW1 4412   3.055   6.566   6.805
 1171SOL    HW2 4413   3.086   6.533   6.962
 1172SOL     OW 4414   3.191   3.880   1.993
 1172SOL    HW1 4415   3.144   3.966   1.973
 1172SOL    HW2 4416   3.180   3.817   1.915
 1173SOL     OW 4417   3.429   0.087   5.499
 1173SOL    HW1 4418   3.350   0.066   5.556
 1173SOL    HW2 4419   3.400   0.093   5.403
 1174SOL     OW 4420   3.076   4.305   0.344
 1174SOL    HW1 4421   2.981   4.327   0.366
 1174SOL    HW2 4422   3.137   4.371   0.387
 1175SOL     OW 4423   4.085   2.983   6.665
 1175SOL    HW1 4424   4.057   3.019   6.576
 1175SOL    HW2 4425   4.005   2.973   6.724
 1176SOL     OW 4426   5.443   4.599   1.188
 1176SOL    HW1 4427   5.346   4.578   1.182
 1176SOL    HW2 4428   5.496   4.519   1.163
 1177SOL     OW 4429   6.724   1.887   6.353
 1177SOL    HW1 4430   6.784   1.816   6.316
 1177SOL    HW2 4431   6.692   1.860   6.444
 1178SOL     OW 4432   3.630   3.721   0.966
 1178SOL    HW1 4433   3.602   3.800   1.020
 1178SOL    HW2 4434   3.553   3.657   0.958
 1179SOL     OW 4435   2.957   5.520   0.237
 1179SOL    HW1 4436   3.018   5.491   0.163
 1179SOL    HW2 4437   2.919   5.440   0.283
 1180SOL     OW 4438   2.355   6.647   3.814
 1180SOL    HW1 4439   2.398   6.736   3.830
 1180SOL    HW2 4440   2.277   6.659   3.752
 1181SOL     OW 4441   6.716   2.757   5.031
 1181SOL    HW1 4442   6.673   2.668   5.046
 1181SOL    HW2 4443   6.765   2.756   4.944
 1182SOL     OW 4444   2.511   5.213   3.537
 1182SOL    HW1 4445   2.520   5.281   3.609
 1182SOL    HW2 4446   2.488   5.124   3.578
 1183SOL     OW 4447   3.860   6.504   1.611
 1183SOL    HW1 4448   3.762   6.524   1.619
 1183SOL    HW2 4449   3.886   6.502   1.514
 1184SOL     OW 4450   4.318   0.724   5.922
 1184SOL    HW1 4451   4.383   0.738   5.848
 1184SOL    HW2 4452   4.359   0.667   5.993
 1185SOL     OW 4453   1.702   6.736   0.915
 1185SOL    HW1 4454   1.793   6.708   0.884
 1185SOL    HW2 4455   1.633   6.705   0.849
 1186SOL     OW 4456   5.982   5.934   6.510
 1186SOL    HW1 4457   6.075   5.966   6.495
 1186SOL    HW2 4458   5.922   6.011   6.530
 1187SOL     OW 4459   5.553   6.709   5.529
 1187SOL    HW1 4460   5.527   6.804   5.549
 1187SOL    HW2 4461   5.534   6.690   5.432
 1188SOL     OW 4462   3.305   5.789   6.690
 1188SOL    HW1 4463   3.320   5.730   6.610
 1188SOL    HW2 4464   3.249   5.867   6.663
 1189SOL     OW 4465   5.763   0.947   2.214
 1189SOL    HW1 4466   5.664   0.950   2.204
 1189SOL    HW2 4467   5.797   1.039   2.237
 1190SOL     OW 4468   4.003   4.795   4.326
 1190SOL    HW1 4469   4.102   4.791   4.309
 1190SOL    HW2 4470   3.961   4.855   4.259
 1191SOL     OW 4471   3.451   6.282   4.513
 1191SOL    HW1 4472   3.539   6.247   4.546
 1191SOL    HW2 4473   3.450   6.282   4.413
 1192SOL     OW 4474   5.411   6.100   3.081
 1192SOL    HW1 4475   5.377   6.157   3.155
 1192SOL    HW2 4476   5.368   6.127   2.995
 1193SOL     OW 4477   0.103   0.439   5.874
 1193SOL    HW1 4478   0.005   0.456   5.883
 1193SOL    HW2 4479   0.118   0.362   5.811
 1194SOL     OW 4480   6.787   1.755   0.975
 1194SOL    HW1 4481   6.765   1.810   0.895
 1194SOL    HW2 4482   6.804   1.815   1.053
 1195SOL     OW 4483   6.417   3.464   1.279
 1195SOL    HW1 4484   6.350   3.533   1.305
 1195SOL    HW2 4485   6.381   3.373   1.300
 1196SOL     OW 4486   6.479   4.944   1.782
 1196SOL    HW1 4487   6.464   4.851   1.747
 1196SOL    HW2 4488   6.567   4.978   1.748
 1197SOL     OW 4489   4.360   6.514   4.485
 1197SOL    HW1 4490   4.362   6.496   4.583
 1197SOL    HW2 4491   4.348   6.428   4.435
 1198SOL     OW 4492   1.577   3.090   2.477
 1198SOL    HW1 4493   1.675   3.096   2.495
 1198SOL    HW2 4494   1.526   3.116   2.559
 1199SOL     OW 4495   3.835   3.538   3.434
 1199SOL    HW1 4496   3.902   3.605   3.467
 1199SOL    HW2 4497   3.845   3.452   3.484
 1200SOL     OW 4498   3.756   4.070   4.740
 1200SOL    HW1 4499   3.819   4.010   4.690
 1200SOL    HW2 4500   3.672   4.082   4.687
 1201SOL     OW 4501   6.902   1.329   4.564
 1201SOL    HW1 4502   6.967   1.350   4.491
 1201SOL    HW2 4503   6.814   1.306   4.524
 1202SOL     OW 4504   6.188   1.108   6.038
 1202SOL    HW1 4505   6.186   1.161   5.953
 1202SOL    HW2 4506   6.268   1.134   6.092
 1203SOL     OW 4507   6.808   6.785   1.123
 1203SOL    HW1 4508   6.821   6.689   1.148
 1203SOL    HW2 4509   6.774   6.791   1.029
 1204SOL     OW 4510   4.430   1.576   1.798
 1204SOL    HW1 4511   4.499   1.645   1.773
 1204SOL    HW2 4512   4.372   1.613   1.871
 1205SOL     OW 4513   4.524   3.010   0.364
 1205SOL    HW1 4514   4.523   2.950   0.284
 1205SOL    HW2 4515   4.602   3.071   0.359
 1206SOL     OW 4516   1.215   2.426   4.846
 1206SOL    HW1 4517   1.250   2.515   4.814
 1206SOL    HW2 4518   1.116   2.423   4.834
 1207SOL     OW 4519   0.520   0.227   0.039
 1207SOL    HW1 4520   0.515   0.128   0.027
 1207SOL    HW2 4521   0.432   0.268   0.013
 1208SOL     OW 4522   3.378   3.817   1.736
 1208SOL    HW1 4523   3.312   3.743   1.724
 1208SOL    HW2 4524   3.465   3.779   1.768
 1209SOL     OW 4525   5.860   0.508   4.040
 1209SOL    HW1 4526   5.813   0.590   4.007
 1209SOL    HW2 4527   5.867   0.441   3.966
 1210SOL     OW 4528   4.109   0.154   3.477
 1210SOL    HW1 4529   4.049   0.234   3.472
 1210SOL    HW2 4530   4.122   0.127   3.572
 1211SOL     OW 4531   0.959   3.448   3.689
 1211SOL    HW1 4532   1.043   3.451   3.742
 1211SOL    HW2 4533   0.951   3.531   3.634
 1212SOL     OW 4534   6.723   1.123   5.676
 1212SOL    HW1 4535   6.792   1.168   5.619
 1212SOL    HW2 4536   6.654   1.189   5.704
 1213SOL     OW 4537   5.756   2.914   3.198
 1213SOL    HW1 4538   5.797   2.994   3.241
 1213SOL    HW2 4539   5.672   2.941   3.151
 1214SOL     OW 4540   0.476   2.327   6.182
 1214SOL    HW1 4541   0.437   2.392   6.247
 1214SOL    HW2 4542   0.410   2.254   6.164
 1215SOL     OW 4543   2.084   5.390   2.181
 1215SOL    HW1 4544   2.171   5.431   2.208
 1215SOL    HW2 4545   2.082   5.294   2.209
 1216SOL     OW 4546   0.283   0.804   6.890
 1216SOL    HW1 4547   0.190   0.811   6.853
 1216SOL    HW2 4548   0.310   0.893   6.928
 1217SOL     OW 4549   3.381   5.310   1.108
 1217SOL    HW1 4550   3.351   5.285   1.016
 1217SOL    HW2 4551   3.480   5.324   1.108
 1218SOL     OW 4552   0.873   3.950   5.828
 1218SOL    HW1 4553   0.786   3.964   5.781
 1218SOL    HW2 4554   0.868   3.869   5.886
 1219SOL     OW 4555   4.905   5.657   2.005
 1219SOL    HW1 4556   4.906   5.664   2.105
 1219SOL    HW2 4557   4.985   5.605   1.975
 1220SOL     OW 4558   6.588   4.479   2.838
 1220SOL    HW1 4559   6.650   4.433   2.775
 1220SOL    HW2 4560   6.567   4.571   2.804
 1221SOL     OW 4561   5.636   3.696   6.061
 1221SOL    HW1 4562   5.643   3.608   6.108
 1221SOL    HW2 4563   5.564   3.751   6.103
 1222SOL     OW 4564   0.747   0.767   0.265
 1222SOL    HW1 4565   0.674   0.797   0.327
 1222SOL    HW2 4566   0.811   0.709   0.314
 1223SOL     OW 4567   3.760   1.437   0.015
 1223SOL    HW1 4568   3.802   1.434   0.106
 1223SOL    HW2 4569   3.765   1.529   7.000
 1224SOL     OW 4570   2.645   5.474   0.188
 1224SOL    HW1 4571   2.706   5.515   0.120
 1224SOL    HW2 4572   2.697   5.416   0.250
 1225SOL     OW 4573   3.652   2.074   0.736
 1225SOL    HW1 4574   3.612   2.051   0.648
 1225SOL    HW2 4575   3.591   2.044   0.810
 1226SOL     OW 4576   4.581   6.283   0.732
 1226SOL    HW1 4577   4.507   6.247   0.676
 1226SOL    HW2 4578   4.666   6.234   0.712
 1227SOL     OW 4579   5.207   5.088   6.918
 1227SOL    HW1 4580   5.264   5.110   6.839
 1227SOL    HW2 4581   5.217   4.991   6.941
 1228SOL     OW 4582   3.609   3.045   0.452
 1228SOL    HW1 4583   3.593   2.948   0.470
 1228SOL    HW2 4584   3.675   3.080   0.519
 1229SOL     OW 4585   1.942   5.861   0.898
 1229SOL    HW1 4586   1.922   5.776   0.946
 1229SOL    HW2 4587   1.905   5.939   0.949
 1230SOL     OW 4588   5.673   5.655   2.556
 1230SOL    HW1 4589   5.705   5.663   2.650
 1230SOL    HW2 4590   5.736   5.597   2.504
 1231SOL     OW 4591   1.253   1.583   5.722
 1231SOL    HW1 4592   1.347   1.610   5.743
 1231SOL    HW2 4593   1.239   1.588   5.623
 1232SOL     OW 4594   5.843   1.402   5.470
 1232SOL    HW1 4595   5.802   1.385   5.380
 1232SOL    HW2 4596   5.782   1.460   5.524
 1233SOL     OW 4597   0.192   5.703   4.850
 1233SOL    HW1 4598   0.152   5.622   4.807
 1233SOL    HW2 4599   0.194   5.691   4.949
 1234SOL     OW 4600   6.196   2.287   5.308
 1234SOL    HW1 4601   6.272   2.274   5.244
 1234SOL    HW2 4602   6.209   2.372   5.359
 1235SOL     OW 4603   6.053   4.615   0.873
 1235SOL    HW1 4604   5.977   4.617   0.937
 1235SOL    HW2 4605   6.117   4.543   0.900
 1236SOL     OW 4606   3.958   1.028   2.297
 1236SOL    HW1 4607   3.967   0.967   2.376
 1236SOL    HW2 4608   3.882   0.998   2.240
 1237SOL     OW 4609   1.382   5.443   5.287
 1237SOL    HW1 4610   1.423   5.387   5.359
 1237SOL    HW2 4611   1.282   5.440   5.296
 1238SOL     OW 4612   0.908   0.360   4.851
 1238SOL    HW1 4613   1.006   0.365   4.870
 1238SOL    HW2 4614   0.877   0.447   4.813
 1239SOL     OW 4615   6.862   6.940   5.848
 1239SOL    HW1 4616   6.911   6.938   5.935
 1239SOL    HW2 4617   6.784   6.877   5.853
 1240SOL     OW 4618   6.039   5.191   1.688
 1240SOL    HW1 4619   6.051   5.092   1.676
 1240SOL    HW2 4620   6.007   5.209   1.781
 1241SOL     OW 4621   5.937   4.795   4.965
 1241SOL    HW1 4622   5.906   4.841   5.048
 1241SOL    HW2 4623   6.019   4.742   4.984
 1242SOL     OW 4624   2.225   3.491   0.725
 1242SOL    HW1 4625   2.281   3.502   0.808
 1242SOL    HW2 4626   2.129   3.500   0.749
 1243SOL     OW 4627   0.554   1.142   4.839
 1243SOL    HW1 4628   0.564   1.138   4.740
 1243SOL    HW2 4629   0.463   1.179   4.861
 1244SOL     OW 4630   5.425   6.288   5.231
 1244SOL    HW1 4631   5.381   6.298   5.320
 1244SOL    HW2 4632   5.422   6.193   5.202
 1245SOL     OW 4633   5.663   4.700   6.985
 1245SOL    HW1 4634   5.763   4.697   6.977
 1245SOL    HW2 4635   5.629   4.785   6.943
 1246SOL     OW 4636   3.121   1.421   2.705
 1246SOL    HW1 4637   3.025   1.398   2.692
 1246SOL    HW2 4638   3.147   1.493   2.641
 1247SOL     OW 4639   5.769   0.255   5.723
 1247SOL    HW1 4640   5.713   0.251   5.640
 1247SOL    HW2 4641   5.781   0.350   5.751
 1248SOL     OW 4642   1.279   6.093   4.236
 1248SOL    HW1 4643   1.258   6.035   4.316
 1248SOL    HW2 4644   1.232   6.057   4.156
 1249SOL     OW 4645   0.340   3.309   1.416
 1249SOL    HW1 4646   0.316   3.217   1.445
 1249SOL    HW2 4647   0.374   3.361   1.495
 1250SOL     OW 4648   6.212   4.122   3.718
 1250SOL    HW1 4649   6.226   4.064   3.637
 1250SOL    HW2 4650   6.288   4.187   3.726
 1251SOL     OW 4651   1.613   1.062   3.066
 1251SOL    HW1 4652   1.534   1.011   3.032
 1251SOL    HW2 4653   1.598   1.160   3.052
 1252SOL     OW 4654   3.886   4.512   6.660
 1252SOL    HW1 4655   3.964   4.456   6.634
 1252SOL    HW2 4656   3.802   4.458   6.651
 1253SOL     OW 4657   2.264   0.811   2.516
 1253SOL    HW1 4658   2.199   0.775   2.448
 1253SOL    HW2 4659   2.303   0.735   2.568
 1254SOL     OW 4660   0.159   2.519   4.157
 1254SOL    HW1 4661   0.109   2.462   4.091
 1254SOL    HW2 4662   0.097   2.547   4.230
 1255SOL     OW 4663   5.358   2.508   6.179
 1255SOL    HW1 4664   5.296   2.459   6.117
 1255SOL    HW2 4665   5.416   2.569   6.125
 1256SOL     OW 4666   0.307   6.322   3.671
 1256SOL    HW1 4667   0.264   6.264   3.740
 1256SOL    HW2 4668   0.260   6.410   3.667
 1257SOL     OW 4669   6.776   5.039   4.189
 1257SOL    HW1 4670   6.733   4.958   4.228
 1257SOL    HW2 4671   6.842   5.077   4.254
 1258SOL     OW 4672   2.273   4.751   3.029
 1258SOL    HW1 4673   2.306   4.711   2.943
 1258SOL    HW2 4674   2.209   4.825   3.008
 1259SOL     OW 4675   3.680   6.268   5.071
 1259SOL    HW1 4676   3.700   6.218   4.987
 1259SOL    HW2 4677   3.681   6.366   5.053
 1260SOL     OW 4678   2.710   1.404   1.009
 1260SOL    HW1 4679   2.746   1.387   0.917
 1260SOL    HW2 4680   2.632   1.344   1.025
 1261SOL     OW 4681   7.005   4.672   6.892
 1261SOL    HW1 4682   0.066   4.720   6.864
 1261SOL    HW2 4683   7.005   4.660   6.991
 1262SOL     OW 4684   5.244   5.434   1.214
 1262SOL    HW1 4685   5.328   5.466   1.258
 1262SOL    HW2 4686   5.258   5.342   1.177
 1263SOL     OW 4687   0.056   2.045   1.466
 1263SOL    HW1 4688   0.038   1.991   1.548
 1263SOL    HW2 4689   6.995   2.092   1.438
 1264SOL     OW 4690   6.959   3.655   1.293
 1264SOL    HW1 4691   6.899   3.639   1.372
 1264SOL    HW2 4692   6.926   3.734   1.242
 1265SOL     OW 4693   6.169   5.026   3.549
 1265SOL    HW1 4694   6.077   4.993   3.529
 1265SOL    HW2 4695   6.165   5.124   3.572
 1266SOL     OW 4696   0.804   1.207   4.164
 1266SOL    HW1 4697   0.856   1.260   4.097
 1266SOL    HW2 4698   0.840   1.114   4.167
 1267SOL     OW 4699   5.611   6.599   1.074
 1267SOL    HW1 4700   5.645   6.561   1.161
 1267SOL    HW2 4701   5.683   6.590   1.005
 1268SOL     OW 4702   4.530   2.257   0.532
 1268SOL    HW1 4703   4.522   2.265   0.631
 1268SOL    HW2 4704   4.565   2.166   0.509
 1269SOL     OW 4705   5.791   6.249   5.756
 1269SOL    HW1 4706   5.889   6.237   5.748
 1269SOL    HW2 4707   5.756   6.196   5.834
 1270SOL     OW 4708   1.978   3.567   4.384
 1270SOL    HW1 4709   2.039   3.548   4.307
 1270SOL    HW2 4710   2.029   3.568   4.469
 1271SOL     OW 4711   3.227   1.662   3.353
 1271SOL    HW1 4712   3.302   1.674   3.418
 1271SOL    HW2 4713   3.188   1.571   3.363
 1272SOL     OW 4714   5.892   5.844   0.345
 1272SOL    HW1 4715   5.948   5.919   0.381
 1272SOL    HW2 4716   5.952   5.772   0.309
 1273SOL     OW 4717   0.629   4.375   0.145
 1273SOL    HW1 4718   0.648   4.290   0.096
 1273SOL    HW2 4719   0.710   4.403   0.196
 1274SOL     OW 4720   6.433   2.780   1.525
 1274SOL    HW1 4721   6.425   2.710   1.596
 1274SOL    HW2 4722   6.399   2.743   1.438
 1275SOL     OW 4723   3.394   0.920   4.344
 1275SOL    HW1 4724   3.343   0.923   4.258
 1275SOL    HW2 4725   3.419   0.826   4.364
 1276SOL     OW 4726   6.744   0.680   4.745
 1276SOL    HW1 4727   6.771   0.776   4.752
 1276SOL    HW2 4728   6.669   0.671   4.679
 1277SOL     OW 4729   1.217   6.776   5.994
 1277SOL    HW1 4730   1.164   6.830   5.930
 1277SOL    HW2 4731   1.180   6.683   5.998
 1278SOL     OW 4732   0.956   0.323   5.238
 1278SOL    HW1 4733   0.999   0.293   5.153
 1278SOL    HW2 4734   0.859   0.343   5.221
 1279SOL     OW 4735   3.521   5.260   0.397
 1279SOL    HW1 4736   3.486   5.167   0.413
 1279SOL    HW2 4737   3.532   5.307   0.484
 1280SOL     OW 4738   3.692   6.455   4.195
 1280SOL    HW1 4739   3.601   6.424   4.222
 1280SOL    HW2 4740   3.685   6.541   4.145
 1281SOL     OW 4741   1.710   6.065   2.764
 1281SOL    HW1 4742   1.638   6.037   2.827
 1281SOL    HW2 4743   1.798   6.062   2.811
 1282SOL     OW 4744   0.643   1.108   6.294
 1282SOL    HW1 4745   0.616   1.194   6.337
 1282SOL    HW2 4746   0.691   1.127   6.209
 1283SOL     OW 4747   5.753   2.877   5.024
 1283SOL    HW1 4748   5.822   2.819   5.067
 1283SOL    HW2 4749   5.716   2.831   4.943
 1284SOL     OW 4750   4.692   1.533   2.254
 1284SOL    HW1 4751   4.691   1.622   2.299
 1284SOL    HW2 4752   4.692   1.460   2.322
 1285SOL     OW 4753   5.065   3.055   6.740
 1285SOL    HW1 4754   4.992   3.018   6.798
 1285SOL    HW2 4755   5.133   3.101   6.798
 1286SOL     OW 4756   4.905   3.333   1.899
 1286SOL    HW1 4757   4.975   3.275   1.859
 1286SOL    HW2 4758   4.828   3.341   1.835
 1287SOL     OW 4759   4.895   4.316   5.814
 1287SOL    HW1 4760   4.921   4.221   5.800
 1287SOL    HW2 4761   4.797   4.322   5.834
 1288SOL     OW 4762   5.239   3.770   0.797
 1288SOL    HW1 4763   5.290   3.694   0.758
 1288SOL    HW2 4764   5.142   3.760   0.776
 1289SOL     OW 4765   0.730   5.772   1.825
 1289SOL    HW1 4766   0.799   5.803   1.759
 1289SOL    HW2 4767   0.717   5.842   1.895
 1290SOL     OW 4768   1.158   0.552   6.753
 1290SOL    HW1 4769   1.211   0.592   6.829
 1290SOL    HW2 4770   1.219   0.500   6.694
 1291SOL     OW 4771   7.009   4.002   5.645
 1291SOL    HW1 4772   6.963   4.070   5.702
 1291SOL    HW2 4773   0.086   4.008   5.660
 1292SOL     OW 4774   0.169   6.220   2.704
 1292SOL    HW1 4775   0.242   6.266   2.654
 1292SOL    HW2 4776   0.087   6.214   2.646
 1293SOL     OW 4777   1.526   1.296   6.738
 1293SOL    HW1 4778   1.479   1.280   6.825
 1293SOL    HW2 4779   1.534   1.395   6.722
 1294SOL     OW 4780   1.196   3.825   6.933
 1294SOL    HW1 4781   1.190   3.895   7.004
 1294SOL    HW2 4782   1.234   3.864   6.850
 1295SOL     OW 4783   0.273   3.661   2.684
 1295SOL    HW1 4784   0.249   3.745   2.732
 1295SOL    HW2 4785   0.189   3.611   2.660
 1296SOL     OW 4786   3.506   0.616   5.564
 1296SOL    HW1 4787   3.561   0.613   5.481
 1296SOL    HW2 4788   3.503   0.525   5.606
 1297SOL     OW 4789   5.605   0.522   0.693
 1297SOL    HW1 4790   5.608   0.438   0.746
 1297SOL    HW2 4791   5.575   0.501   0.600
 1298SOL     OW 4792   6.680   4.950   2.640
 1298SOL    HW1 4793   6.644   5.023   2.698
 1298SOL    HW2 4794   6.757   4.906   2.685
 1299SOL     OW 4795   0.514   4.029   3.144
 1299SOL    HW1 4796   0.438   4.061   3.089
 1299SOL    HW2 4797   0.599   4.036   3.092
 1300SOL     OW 4798   3.598   3.719   1.913
 1300SOL    HW1 4799   3.639   3.629   1.926
 1300SOL    HW2 4800   3.523   3.731   1.978
 1301SOL     OW 4801   0.221   5.672   1.993
 1301SOL    HW1 4802   0.177   5.678   1.904
 1301SOL    HW2 4803   0.312   5.633   1.983
 1302SOL     OW 4804   3.755   0.301   5.310
 1302SOL    HW1 4805   3.672   0.330   5.261
 1302SOL    HW2 4806   3.740   0.210   5.349
 1303SOL     OW 4807   4.387   1.114   2.116
 1303SOL    HW1 4808   4.331   1.170   2.055
 1303SOL    HW2 4809   4.420   1.169   2.192
 1304SOL     OW 4810   1.376   1.025   6.635
 1304SOL    HW1 4811   1.286   0.984   6.629
 1304SOL    HW2 4812   1.369   1.114   6.680
 1305SOL     OW 4813   4.429   2.994   0.050
 1305SOL    HW1 4814   4.391   2.955   6.989
 1305SOL    HW2 4815   4.474   3.081   0.029
 1306SOL     OW 4816   0.983   4.326   5.549
 1306SOL    HW1 4817   0.964   4.418   5.583
 1306SOL    HW2 4818   1.050   4.331   5.475
 1307SOL     OW 4819   0.913   3.597   5.266
 1307SOL    HW1 4820   0.969   3.650   5.202
 1307SOL    HW2 4821   0.934   3.500   5.256
 1308SOL     OW 4822   4.571   6.205   5.178
 1308SOL    HW1 4823   4.502   6.270   5.146
 1308SOL    HW2 4824   4.652   6.255   5.209
 1309SOL     OW 4825   4.804   3.108   5.237
 1309SOL    HW1 4826   4.797   3.197   5.282
 1309SOL    HW2 4827   4.865   3.049   5.290
 1310SOL     OW 4828   0.286   3.959   5.263
 1310SOL    HW1 4829   0.366   3.916   5.221
 1310SOL    HW2 4830   0.286   4.057   5.242
 1311SOL     OW 4831   0.191   0.492   4.266
 1311SOL    HW1 4832   0.173   0.434   4.187
 1311SOL    HW2 4833   0.168   0.443   4.350
 1312SOL     OW 4834   0.982   0.588   6.522
 1312SOL    HW1 4835   0.919   0.512   6.506
 1312SOL    HW2 4836   1.026   0.577   6.611
 1313SOL     OW 4837   1.658   4.329   4.239
 1313SOL    HW1 4838   1.584   4.289   4.185
 1313SOL    HW2 4839   1.743   4.280   4.220
 1314SOL     OW 4840   3.740   1.251   5.896
 1314SOL    HW1 4841   3.669   1.192   5.858
 1314SOL    HW2 4842   3.810   1.269   5.826
 1315SOL     OW 4843   0.638   0.852   0.529
 1315SOL    HW1 4844   0.616   0.777   0.591
 1315SOL    HW2 4845   0.710   0.909   0.568
 1316SOL     OW 4846   1.873   6.447   4.561
 1316SOL    HW1 4847   1.894   6.453   4.659
 1316SOL    HW2 4848   1.923   6.517   4.512
 1317SOL     OW 4849   1.571   3.885   4.911
 1317SOL    HW1 4850   1.604   3.935   4.831
 1317SOL    HW2 4851   1.481   3.846   4.890
 1318SOL     OW 4852   0.889   0.944   0.817
 1318SOL    HW1 4853   0.984   0.927   0.789
 1318SOL    HW2 4854   0.837   0.980   0.739
 1319SOL     OW 4855   0.073   0.733   6.560
 1319SOL    HW1 4856   0.043   0.801   6.493
 1319SOL    HW2 4857   0.044   0.762   6.652
 1320SOL     OW 4858   5.479   3.903   0.750
 1320SOL    HW1 4859   5.385   3.873   0.760
 1320SOL    HW2 4860   5.539   3.823   0.740
 1321SOL     OW 4861   4.560   2.349   5.795
 1321SOL    HW1 4862   4.646   2.393   5.822
 1321SOL    HW2 4863   4.500   2.343   5.874
 1322SOL     OW 4864   4.043   0.577   4.098
 1322SOL    HW1 4865   4.065   0.507   4.031
 1322SOL    HW2 4866   4.041   0.537   4.190
 1323SOL     OW 4867   4.887   1.754   4.663
 1323SOL    HW1 4868   4.960   1.810   4.704
 1323SOL    HW2 4869   4.887   1.768   4.564
 1324SOL     OW 4870   1.021   2.681   6.963
 1324SOL    HW1 4871   1.025   2.685   6.863
 1324SOL    HW2 4872   1.041   2.772   7.000
 1325SOL     OW 4873   2.032   6.674   2.323
 1325SOL    HW1 4874   1.979   6.602   2.368
 1325SOL    HW2 4875   1.970   6.748   2.296
 1326SOL     OW 4876   4.907   2.857   4.702
 1326SOL    HW1 4877   4.941   2.813   4.619
 1326SOL    HW2 4878   4.975   2.923   4.735
 1327SOL     OW 4879   1.656   4.385   1.504
 1327SOL    HW1 4880   1.664   4.290   1.535
 1327SOL    HW2 4881   1.559   4.412   1.503
 1328SOL     OW 4882   1.765   2.915   0.930
 1328SOL    HW1 4883   1.687   2.862   0.963
 1328SOL    HW2 4884   1.789   2.984   0.997
 1329SOL     OW 4885   1.305   2.483   0.814
 1329SOL    HW1 4886   1.273   2.552   0.880
 1329SOL    HW2 4887   1.273   2.393   0.842
 1330SOL     OW 4888   6.708   1.057   1.544
 1330SOL    HW1 4889   6.794   1.006   1.554
 1330SOL    HW2 4890   6.726   1.155   1.553
 1331SOL     OW 4891   4.764   2.376   2.966
 1331SOL    HW1 4892   4.734   2.437   2.892
 1331SOL    HW2 4893   4.734   2.413   3.054
 1332SOL     OW 4894   2.982   6.908   0.094
 1332SOL    HW1 4895   2.926   6.826   0.085
 1332SOL    HW2 4896   3.063   6.900   0.036
 1333SOL     OW 4897   3.436   3.405   5.512
 1333SOL    HW1 4898   3.415   3.308   5.524
 1333SOL    HW2 4899   3.420   3.431   5.417
 1334SOL     OW 4900   6.268   2.404   4.477
 1334SOL    HW1 4901   6.311   2.333   4.533
 1334SOL    HW2 4902   6.313   2.492   4.496
 1335SOL     OW 4903   2.771   1.278   3.239
 1335SOL    HW1 4904   2.719   1.255   3.156
 1335SOL    HW2 4905   2.867   1.292   3.216
 1336SOL     OW 4906   2.029   1.469   5.974
 1336SOL    HW1 4907   1.944   1.487   6.024
 1336SOL    HW2 4908   2.031   1.525   5.891
 1337SOL     OW 4909   1.508   1.389   5.192
 1337SOL    HW1 4910   1.415   1.354   5.181
 1337SOL    HW2 4911   1.559   1.328   5.253
 1338SOL     OW 4912   5.414   2.842   6.700
 1338SOL    HW1 4913   5.359   2.875   6.777
 1338SOL    HW2 4914   5.429   2.743   6.710
 1339SOL     OW 4915   0.939   1.134   6.854
 1339SOL    HW1 4916   0.951   1.099   6.947
 1339SOL    HW2 4917   0.892   1.065   6.798
 1340SOL     OW 4918   0.677   2.152   1.991
 1340SOL    HW1 4919   0.717   2.067   1.960
 1340SOL    HW2 4920   0.624   2.136   2.074
 1341SOL     OW 4921   4.560   0.373   5.752
 1341SOL    HW1 4922   4.519   0.463   5.765
 1341SOL    HW2 4923   4.628   0.378   5.679
 1342SOL     OW 4924   1.690   4.631   6.632
 1342SOL    HW1 4925   1.626   4.684   6.687
 1342SOL    HW2 4926   1.745   4.692   6.575
 1343SOL     OW 4927   4.157   5.915   2.623
 1343SOL    HW1 4928   4.188   5.867   2.540
 1343SOL    HW2 4929   4.070   5.961   2.605
 1344SOL     OW 4930   6.943   4.907   3.951
 1344SOL    HW1 4931   6.910   4.937   4.040
 1344SOL    HW2 4932   0.020   4.918   3.946
 1345SOL     OW 4933   1.328   1.488   2.889
 1345SOL    HW1 4934   1.356   1.541   2.969
 1345SOL    HW2 4935   1.268   1.414   2.918
 1346SOL     OW 4936   0.851   6.447   4.447
 1346SOL    HW1 4937   0.753   6.435   4.429
 1346SOL    HW2 4938   0.887   6.518   4.385
 1347SOL     OW 4939   6.659   6.147   4.133
 1347SOL    HW1 4940   6.589   6.171   4.065
 1347SOL    HW2 4941   6.678   6.227   4.190
 1348SOL     OW 4942   5.402   4.890   2.435
 1348SOL    HW1 4943   5.413   4.822   2.507
 1348SOL    HW2 4944   5.384   4.979   2.476
 1349SOL     OW 4945   4.892   2.044   6.469
 1349SOL    HW1 4946   4.881   1.985   6.390
 1349SOL    HW2 4947   4.989   2.056   6.489
 1350SOL     OW 4948   5.121   4.026   6.758
 1350SOL    HW1 4949   5.075   4.036   6.670
 1350SOL    HW2 4950   5.053   4.023   6.831
 1351SOL     OW 4951   6.574   2.266   3.092
 1351SOL    HW1 4952   6.657   2.302   3.135
 1351SOL    HW2 4953   6.518   2.219   3.160
 1352SOL     OW 4954   6.731   0.144   2.968
 1352SOL    HW1 4955   6.796   0.203   2.920
 1352SOL    HW2 4956   6.665   0.201   3.017
 1353SOL     OW 4957   6.736   4.023   6.066
 1353SOL    HW1 4958   6.761   3.954   6.134
 1353SOL    HW2 4959   6.674   4.090   6.108
 1354SOL     OW 4960   0.526   2.088   0.364
 1354SOL    HW1 4961   0.459   2.105   0.436
 1354SOL    HW2 4962   0.508   2.148   0.287
 1355SOL     OW 4963   0.103   2.293   5.621
 1355SOL    HW1 4964   0.037   2.244   5.677
 1355SOL    HW2 4965   0.064   2.380   5.592
 1356SOL     OW 4966   3.022   3.298   3.419
 1356SOL    HW1 4967   3.053   3.205   3.398
 1356SOL    HW2 4968   3.079   3.337   3.492
 1357SOL     OW 4969   1.425   4.090   5.608
 1357SOL    HW1 4970   1.365   4.019   5.569
 1357SOL    HW2 4971   1.488   4.123   5.537
 1358SOL     OW 4972   4.151   1.212   6.083
 1358SOL    HW1 4973   4.145   1.112   6.091
 1358SOL    HW2 4974   4.241   1.242   6.115
 1359SOL     OW 4975   6.626   4.839   1.448
 1359SOL    HW1 4976   6.611   4.899   1.369
 1359SOL    HW2 4977   6.708   4.784   1.434
 1360SOL     OW 4978   4.072   3.722   1.124
 1360SOL    HW1 4979   4.002   3.732   1.053
 1360SOL    HW2 4980   4.057   3.635   1.172
 1361SOL     OW 4981   0.377   6.040   5.706
 1361SOL    HW1 4982   0.317   6.017   5.782
 1361SOL    HW2 4983   0.324   6.047   5.622
 1362SOL     OW 4984   2.914   3.668   4.443
 1362SOL    HW1 4985   2.938   3.740   4.378
 1362SOL    HW2 4986   2.909   3.706   4.535
 1363SOL     OW 4987   6.522   5.775   3.680
 1363SOL    HW1 4988   6.521   5.842   3.754
 1363SOL    HW2 4989   6.493   5.820   3.595
 1364SOL     OW 4990   6.988   2.381   0.426
 1364SOL    HW1 4991   0.017   2.334   0.354
 1364SOL    HW2 4992   0.001   2.475   0.435
 1365SOL     OW 4993   1.027   2.880   5.637
 1365SOL    HW1 4994   1.118   2.902   5.601
 1365SOL    HW2 4995   0.958   2.938   5.594
 1366SOL     OW 4996   0.537   4.224   0.514
 1366SOL    HW1 4997   0.515   4.142   0.461
 1366SOL    HW2 4998   0.488   4.302   0.477
 1367SOL     OW 4999   1.672   5.849   2.578
 1367SOL    HW1 5000   1.595   5.793   2.607
 1367SOL    HW2 5001   1.677   5.932   2.634
 1368SOL     OW 5002   0.201   6.838   3.458
 1368SOL    HW1 5003   0.128   6.781   3.422
 1368SOL    HW2 5004   0.288   6.810   3.417
 1369SOL     OW 5005   2.055   7.015   2.478
 1369SOL    HW1 5006   2.128   0.061   2.469
 1369SOL    HW2 5007   1.968   0.033   2.446
 1370SOL     OW 5008   4.493   1.885   3.086
 1370SOL    HW1 5009   4.408   1.903   3.036
 1370SOL    HW2 5010   4.504   1.786   3.098
 1371SOL     OW 5011   5.838   1.447   4.572
 1371SOL    HW1 5012   5.890   1.440   4.486
 1371SOL    HW2 5013   5.790   1.361   4.589
 1372SOL     OW 5014   1.250   2.400   0.546
 1372SOL    HW1 5015   1.290   2.453   0.621
 1372SOL    HW2 5016   1.182   2.455   0.499
 1373SOL     OW 5017   4.190   2.367   0.523
 1373SOL    HW1 5018   4.132   2.448   0.523
 1373SOL    HW2 5019   4.280   2.390   0.484
 1374SOL     OW 5020   4.181   2.034   0.877
 1374SOL    HW1 5021   4.088   2.067   0.894
 1374SOL    HW2 5022   4.234   2.106   0.831
 1375SOL     OW 5023   0.189   6.199   6.061
 1375SOL    HW1 5024   0.171   6.206   6.159
 1375SOL    HW2 5025   0.126   6.258   6.011
 1376SOL     OW 5026   4.605   4.597   5.201
 1376SOL    HW1 5027   4.655   4.534   5.142
 1376SOL    HW2 5028   4.630   4.581   5.296
 1377SOL     OW 5029   0.796   3.771   4.659
 1377SOL    HW1 5030   0.795   3.750   4.561
 1377SOL    HW2 5031   0.862   3.713   4.705
 1378SOL     OW 5032   5.655   1.696   4.513
 1378SOL    HW1 5033   5.709   1.780   4.503
 1378SOL    HW2 5034   5.716   1.617   4.509
 1379SOL     OW 5035   3.954   6.153   3.241
 1379SOL    HW1 5036   3.985   6.169   3.335
 1379SOL    HW2 5037   4.016   6.197   3.177
 1380SOL     OW 5038   0.811   0.028   3.566
 1380SOL    HW1 5039   0.849   0.088   3.495
 1380SOL    HW2 5040   0.716   0.007   3.544
 1381SOL     OW 5041   6.049   1.649   0.833
 1381SOL    HW1 5042   6.042   1.684   0.740
 1381SOL    HW2 5043   6.013   1.555   0.835
 1382SOL     OW 5044   6.073   3.470   1.238
 1382SOL    HW1 5045   6.131   3.525   1.298
 1382SOL    HW2 5046   6.077   3.506   1.145
 1383SOL     OW 5047   0.898   0.831   2.169
 1383SOL    HW1 5048   0.857   0.792   2.252
 1383SOL    HW2 5049   0.850   0.797   2.089
 1384SOL     OW 5050   4.581   0.623   1.766
 1384SOL    HW1 5051   4.581   0.723   1.771
 1384SOL    HW2 5052   4.619   0.586   1.851
 1385SOL     OW 5053   2.996   4.786   3.502
 1385SOL    HW1 5054   3.074   4.829   3.546
 1385SOL    HW2 5055   3.020   4.695   3.471
 1386SOL     OW 5056   2.981   0.907   4.169
 1386SOL    HW1 5057   2.953   0.988   4.221
 1386SOL    HW2 5058   3.077   0.915   4.143
 1387SOL     OW 5059   3.595   5.565   3.090
 1387SOL    HW1 5060   3.503   5.529   3.078
 1387SOL    HW2 5061   3.614   5.632   3.018
 1388SOL     OW 5062   0.181   0.830   2.554
 1388SOL    HW1 5063   0.281   0.828   2.558
 1388SOL    HW2 5064   0.146   0.887   2.629
 1389SOL     OW 5065   6.440   1.373   3.789
 1389SOL    HW1 5066   6.487   1.453   3.752
 1389SOL    HW2 5067   6.493   1.336   3.865
 1390SOL     OW 5068   6.452   2.492   5.956
 1390SOL    HW1 5069   6.393   2.570   5.936
 1390SOL    HW2 5070   6.546   2.524   5.971
 1391SOL     OW 5071   6.310   6.851   5.198
 1391SOL    HW1 5072   6.373   6.851   5.277
 1391SOL    HW2 5073   6.216   6.843   5.230
 1392SOL     OW 5074   5.915   6.532   5.767
 1392SOL    HW1 5075   5.912   6.511   5.865
 1392SOL    HW2 5076   5.979   6.470   5.722
 1393SOL     OW 5077   6.750   4.294   6.277
 1393SOL    HW1 5078   6.657   4.261   6.264
 1393SOL    HW2 5079   6.748   4.381   6.325
 1394SOL     OW 5080   3.955   5.383   5.710
 1394SOL    HW1 5081   3.962   5.285   5.694
 1394SOL    HW2 5082   4.010   5.432   5.643
 1395SOL     OW 5083   1.599   4.814   4.783
 1395SOL    HW1 5084   1.561   4.858   4.864
 1395SOL    HW2 5085   1.688   4.854   4.761
 1396SOL     OW 5086   6.978   1.422   5.089
 1396SOL    HW1 5087   6.911   1.439   5.161
 1396SOL    HW2 5088   0.012   1.343   5.113
 1397SOL     OW 5089   0.469   6.371   4.791
 1397SOL    HW1 5090   0.489   6.280   4.828
 1397SOL    HW2 5091   0.546   6.432   4.810
 1398SOL     OW 5092   3.116   1.015   6.443
 1398SOL    HW1 5093   3.047   0.962   6.393
 1398SOL    HW2 5094   3.081   1.037   6.534
 1399SOL     OW 5095   4.095   4.998   0.468
 1399SOL    HW1 5096   4.069   5.076   0.524
 1399SOL    HW2 5097   4.074   4.913   0.516
 1400SOL     OW 5098   0.367   1.742   4.292
 1400SOL    HW1 5099   0.377   1.815   4.225
 1400SOL    HW2 5100   0.456   1.718   4.329
 1401SOL     OW 5101   6.607   6.983   4.661
 1401SOL    HW1 5102   6.702   7.012   4.649
 1401SOL    HW2 5103   6.604   6.884   4.674
 1402SOL     OW 5104   5.155   3.885   6.423
 1402SOL    HW1 5105   5.235   3.946   6.425
 1402SOL    HW2 5106   5.165   3.815   6.494
 1403SOL     OW 5107   2.690   1.700   0.822
 1403SOL    HW1 5108   2.692   1.799   0.836
 1403SOL    HW2 5109   2.783   1.666   0.813
 1404SOL     OW 5110   6.530   0.216   6.368
 1404SOL    HW1 5111   6.599   0.243   6.301
 1404SOL    HW2 5112   6.441   0.249   6.339
 1405SOL     OW 5113   2.495   3.112   0.633
 1405SOL    HW1 5114   2.497   3.098   0.732
 1405SOL    HW2 5115   2.542   3.035   0.588
 1406SOL     OW 5116   0.732   5.849   0.763
 1406SOL    HW1 5117   0.752   5.766   0.709
 1406SOL    HW2 5118   0.804   5.863   0.830
 1407SOL     OW 5119   0.810   3.285   3.841
 1407SOL    HW1 5120   0.852   3.355   3.782
 1407SOL    HW2 5121   0.741   3.327   3.898
 1408SOL     OW 5122   5.253   1.724   5.732
 1408SOL    HW1 5123   5.211   1.669   5.660
 1408SOL    HW2 5124   5.205   1.708   5.819
 1409SOL     OW 5125   0.174   0.256   5.672
 1409SOL    HW1 5126   0.263   0.210   5.670
 1409SOL    HW2 5127   0.101   0.187   5.671
 1410SOL     OW 5128   1.663   4.429   6.437
 1410SOL    HW1 5129   1.680   4.492   6.513
 1410SOL    HW2 5130   1.583   4.373   6.457
 1411SOL     OW 5131   3.183   6.710   0.513
 1411SOL    HW1 5132   3.147   6.766   0.438
 1411SOL    HW2 5133   3.235   6.633   0.475
 1412SOL     OW 5134   1.312   2.809   1.096
 1412SOL    HW1 5135   1.258   2.887   1.127
 1412SOL    HW2 5136   1.251   2.740   1.057
 1413SOL     OW 5137   2.343   1.496   4.851
 1413SOL    HW1 5138   2.379   1.561   4.784
 1413SOL    HW2 5139   2.394   1.504   4.937
 1414SOL     OW 5140   2.047   1.872   2.246
 1414SOL    HW1 5141   1.971   1.810   2.226
 1414SOL    HW2 5142   2.035   1.911   2.337
 1415SOL     OW 5143   2.106   1.252   4.891
 1415SOL    HW1 5144   2.089   1.344   4.928
 1415SOL    HW2 5145   2.119   1.188   4.967
 1416SOL     OW 5146   4.330   5.656   4.484
 1416SOL    HW1 5147   4.395   5.584   4.506
 1416SOL    HW2 5148   4.332   5.675   4.386
 1417SOL     OW 5149   2.986   2.414   0.443
 1417SOL    HW1 5150   2.957   2.487   0.382
 1417SOL    HW2 5151   3.008   2.332   0.390
 1418SOL     OW 5152   3.420   3.804   2.550
 1418SOL    HW1 5153   3.346   3.817   2.483
 1418SOL    HW2 5154   3.465   3.717   2.532
 1419SOL     OW 5155   2.854   6.019   3.733
 1419SOL    HW1 5156   2.778   5.955   3.744
 1419SOL    HW2 5157   2.935   5.969   3.703
 1420SOL     OW 5158   2.741   6.468   2.025
 1420SOL    HW1 5159   2.811   6.456   1.954
 1420SOL    HW2 5160   2.699   6.380   2.046
 1421SOL     OW 5161   2.018   4.724   3.563
 1421SOL    HW1 5162   1.928   4.681   3.564
 1421SOL    HW2 5163   2.014   4.810   3.513
 1422SOL     OW 5164   1.236   3.947   6.699
 1422SOL    HW1 5165   1.302   3.952   6.624
 1422SOL    HW2 5166   1.143   3.955   6.662
 1423SOL     OW 5167   4.660   6.614   4.365
 1423SOL    HW1 5168   4.597   6.677   4.410
 1423SOL    HW2 5169   4.659   6.631   4.266
 1424SOL     OW 5170   6.384   3.705   6.354
 1424SOL    HW1 5171   6.287   3.701   6.329
 1424SOL    HW2 5172   6.393   3.743   6.446
 1425SOL     OW 5173   1.783   5.551   5.904
 1425SOL    HW1 5174   1.798   5.540   5.806
 1425SOL    HW2 5175   1.685   5.560   5.922
 1426SOL     OW 5176   2.644   3.078   6.853
 1426SOL    HW1 5177   2.561   3.092   6.800
 1426SOL    HW2 5178   2.695   3.163   6.859
 1427SOL     OW 5179   6.786   0.040   3.656
 1427SOL    HW1 5180   6.876   0.082   3.660
 1427SOL    HW2 5181   6.735   0.078   3.578
 1428SOL     OW 5182   0.709   1.997   0.075
 1428SOL    HW1 5183   0.667   1.935   0.141
 1428SOL    HW2 5184   0.717   1.951   7.009
 1429SOL     OW 5185   5.016   1.354   0.106
 1429SOL    HW1 5186   5.070   1.326   0.026
 1429SOL    HW2 5187   5.038   1.293   0.182
 1430SOL     OW 5188   2.032   5.172   4.109
 1430SOL    HW1 5189   2.102   5.238   4.080
 1430SOL    HW2 5190   1.954   5.221   4.146
 1431SOL     OW 5191   2.795   2.117   0.075
 1431SOL    HW1 5192   2.770   2.197   0.129
 1431SOL    HW2 5193   2.894   2.110   0.069
 1432SOL     OW 5194   2.886   1.717   1.258
 1432SOL    HW1 5195   2.798   1.687   1.222
 1432SOL    HW2 5196   2.959   1.663   1.216
 1433SOL     OW 5197   4.569   0.662   5.296
 1433SOL    HW1 5198   4.627   0.627   5.222
 1433SOL    HW2 5199   4.486   0.703   5.258
 1434SOL     OW 5200   1.555   0.005   5.681
 1434SOL    HW1 5201   1.494   0.071   5.727
 1434SOL    HW2 5202   1.646   0.010   5.721
 1435SOL     OW 5203   6.708   6.778   3.431
 1435SOL    HW1 5204   6.759   6.773   3.517
 1435SOL    HW2 5205   6.663   6.690   3.414
 1436SOL     OW 5206   4.926   3.605   6.881
 1436SOL    HW1 5207   4.860   3.680   6.870
 1436SOL    HW2 5208   5.017   3.638   6.857
 1437SOL     OW 5209   3.091   2.040   5.116
 1437SOL    HW1 5210   3.121   2.121   5.065
 1437SOL    HW2 5211   3.111   1.958   5.062
 1438SOL     OW 5212   2.633   6.854   2.121
 1438SOL    HW1 5213   2.710   6.912   2.092
 1438SOL    HW2 5214   2.560   6.859   2.053
 1439SOL     OW 5215   6.360   5.033   0.614
 1439SOL    HW1 5216   6.319   4.951   0.654
 1439SOL    HW2 5217   6.303   5.113   0.635
 1440SOL     OW 5218   3.375   3.232   6.406
 1440SOL    HW1 5219   3.404   3.319   6.367
 1440SOL    HW2 5220   3.340   3.173   6.334
 1441SOL     OW 5221   6.143   2.029   3.947
 1441SOL    HW1 5222   6.178   1.948   3.900
 1441SOL    HW2 5223   6.220   2.089   3.970
 1442SOL     OW 5224   6.780   5.444   6.756
 1442SOL    HW1 5225   6.751   5.505   6.681
 1442SOL    HW2 5226   6.880   5.443   6.761
 1443SOL     OW 5227   0.698   2.863   4.162
 1443SOL    HW1 5228   0.708   2.924   4.083
 1443SOL    HW2 5229   0.765   2.887   4.231
 1444SOL     OW 5230   4.320   5.710   0.809
 1444SOL    HW1 5231   4.400   5.654   0.787
 1444SOL    HW2 5232   4.347   5.783   0.872
 1445SOL     OW 5233   0.432   3.538   2.495
 1445SOL    HW1 5234   0.375   3.587   2.562
 1445SOL    HW2 5235   0.376   3.472   2.446
 1446SOL     OW 5236   5.138   2.523   0.749
 1446SOL    HW1 5237   5.067   2.498   0.683
 1446SOL    HW2 5238   5.214   2.459   0.743
 1447SOL     OW 5239   6.069   6.901   5.529
 1447SOL    HW1 5240   6.053   6.983   5.583
 1447SOL    HW2 5241   6.036   6.821   5.579
 1448SOL     OW 5242   7.014   1.972   6.179
 1448SOL    HW1 5243   6.970   2.029   6.249
 1448SOL    HW2 5244   6.954   1.965   6.100
 1449SOL     OW 5245   0.979   0.995   0.117
 1449SOL    HW1 5246   0.917   0.925   0.152
 1449SOL    HW2 5247   1.048   0.953   0.058
 1450SOL     OW 5248   0.921   2.374   1.376
 1450SOL    HW1 5249   0.925   2.371   1.475
 1450SOL    HW2 5250   0.826   2.387   1.346
 1451SOL     OW 5251   1.772   0.355   2.139
 1451SOL    HW1 5252   1.869   0.360   2.114
 1451SOL    HW2 5253   1.717   0.343   2.056
 1452SOL     OW 5254   4.926   0.865   4.348
 1452SOL    HW1 5255   4.976   0.951   4.346
 1452SOL    HW2 5256   4.979   0.797   4.399
 1453SOL     OW 5257   0.011   4.317   5.798
 1453SOL    HW1 5258   0.062   4.231   5.805
 1453SOL    HW2 5259   6.949   4.311   5.852
 1454SOL     OW 5260   0.408   3.318   2.097
 1454SOL    HW1 5261   0.357   3.320   2.011
 1454SOL    HW2 5262   0.404   3.227   2.137
 1455SOL     OW 5263   0.712   1.078   1.668
 1455SOL    HW1 5264   0.673   1.014   1.601
 1455SOL    HW2 5265   0.769   1.145   1.620
 1456SOL     OW 5266   6.771   6.426   5.207
 1456SOL    HW1 5267   6.807   6.487   5.136
 1456SOL    HW2 5268   6.828   6.432   5.288
 1457SOL     OW 5269   1.508   6.712   1.859
 1457SOL    HW1 5270   1.439   6.640   1.848
 1457SOL    HW2 5271   1.528   6.725   1.956
 1458SOL     OW 5272   6.194   5.598   3.313
 1458SOL    HW1 5273   6.131   5.675   3.321
 1458SOL    HW2 5274   6.247   5.607   3.229
 1459SOL     OW 5275   3.043   5.596   5.685
 1459SOL    HW1 5276   2.956   5.632   5.652
 1459SOL    HW2 5277   3.031   5.555   5.775
 1460SOL     OW 5278   0.669   6.009   5.282
 1460SOL    HW1 5279   0.663   5.938   5.212
 1460SOL    HW2 5280   0.683   5.967   5.371
 1461SOL     OW 5281   6.561   5.383   3.073
 1461SOL    HW1 5282   6.611   5.434   3.003
 1461SOL    HW2 5283   6.567   5.432   3.160
 1462SOL     OW 5284   1.365   0.100   6.745
 1462SOL    HW1 5285   1.387   0.010   6.783
 1462SOL    HW2 5286   1.386   0.171   6.811
 1463SOL     OW 5287   6.894   6.258   6.635
 1463SOL    HW1 5288   6.954   6.186   6.671
 1463SOL    HW2 5289   6.836   6.220   6.563
 1464SOL     OW 5290   0.409   0.168   1.320
 1464SOL    HW1 5291   0.320   0.122   1.324
 1464SOL    HW2 5292   0.452   0.148   1.232
 1465SOL     OW 5293   1.504   1.159   3.320
 1465SOL    HW1 5294   1.540   1.090   3.256
 1465SOL    HW2 5295   1.579   1.213   3.357
 1466SOL     OW 5296   1.279   1.845   2.187
 1466SOL    HW1 5297   1.326   1.919   2.138
 1466SOL    HW2 5298   1.346   1.777   2.217
 1467SOL     OW 5299   1.911   1.950   2.842
 1467SOL    HW1 5300   1.843   1.877   2.835
 1467SOL    HW2 5301   1.875   2.033   2.798
 1468SOL     OW 5302   4.512   5.972   2.325
 1468SOL    HW1 5303   4.427   5.967   2.272
 1468SOL    HW2 5304   4.586   6.004   2.267
 1469SOL     OW 5305   0.862   1.722   1.473
 1469SOL    HW1 5306   0.804   1.643   1.490
 1469SOL    HW2 5307   0.869   1.738   1.375
 1470SOL     OW 5308   1.076   1.885   2.549
 1470SOL    HW1 5309   1.067   1.795   2.505
 1470SOL    HW2 5310   0.990   1.910   2.591
 1471SOL     OW 5311   1.023   0.169   1.413
 1471SOL    HW1 5312   1.037   0.259   1.372
 1471SOL    HW2 5313   0.927   0.158   1.437
 1472SOL     OW 5314   3.794   5.807   5.923
 1472SOL    HW1 5315   3.762   5.901   5.933
 1472SOL    HW2 5316   3.787   5.759   6.010
 1473SOL     OW 5317   4.687   6.031   4.744
 1473SOL    HW1 5318   4.602   5.989   4.712
 1473SOL    HW2 5319   4.734   5.968   4.807
 1474SOL     OW 5320   5.440   5.358   2.225
 1474SOL    HW1 5321   5.488   5.309   2.298
 1474SOL    HW2 5322   5.506   5.410   2.171
 1475SOL     OW 5323   6.317   0.077   2.196
 1475SOL    HW1 5324   6.260   0.141   2.248
 1475SOL    HW2 5325   6.392   0.127   2.153
 1476SOL     OW 5326   2.777   1.025   1.205
 1476SOL    HW1 5327   2.736   0.966   1.275
 1476SOL    HW2 5328   2.872   1.043   1.229
 1477SOL     OW 5329   4.012   0.037   6.297
 1477SOL    HW1 5330   4.005   0.027   6.396
 1477SOL    HW2 5331   3.960   0.116   6.267
 1478SOL     OW 5332   6.416   5.551   6.459
 1478SOL    HW1 5333   6.419   5.588   6.552
 1478SOL    HW2 5334   6.471   5.609   6.398
 1479SOL     OW 5335   1.826   2.257   0.217
 1479SOL    HW1 5336   1.739   2.241   0.264
 1479SOL    HW2 5337   1.808   2.283   0.122
 1480SOL     OW 5338   3.276   0.697   5.218
 1480SOL    HW1 5339   3.293   0.795   5.216
 1480SOL    HW2 5340   3.363   0.648   5.229
 1481SOL     OW 5341   6.868   2.962   5.808
 1481SOL    HW1 5342   6.828   2.919   5.727
 1481SOL    HW2 5343   6.830   3.054   5.819
 1482SOL     OW 5344   4.474   1.831   1.219
 1482SOL    HW1 5345   4.557   1.883   1.235
 1482SOL    HW2 5346   4.466   1.758   1.287
 1483SOL     OW 5347   5.168   1.773   0.166
 1483SOL    HW1 5348   5.249   1.740   0.117
 1483SOL    HW2 5349   5.131   1.853   0.120
 1484SOL     OW 5350   5.914   4.276   4.453
 1484SOL    HW1 5351   6.002   4.321   4.465
 1484SOL    HW2 5352   5.859   4.289   4.536
 1485SOL     OW 5353   3.634   1.473   3.233
 1485SOL    HW1 5354   3.544   1.478   3.189
 1485SOL    HW2 5355   3.678   1.387   3.210
 1486SOL     OW 5356   5.252   1.762   2.601
 1486SOL    HW1 5357   5.347   1.773   2.629
 1486SOL    HW2 5358   5.199   1.842   2.631
 1487SOL     OW 5359   6.858   2.191   6.358
 1487SOL    HW1 5360   6.841   2.153   6.449
 1487SOL    HW2 5361   6.772   2.225   6.320
 1488SOL     OW 5362   4.804   1.020   3.480
 1488SOL    HW1 5363   4.846   0.963   3.409
 1488SOL    HW2 5364   4.875   1.069   3.530
 1489SOL     OW 5365   4.450   5.500   4.908
 1489SOL    HW1 5366   4.472   5.587   4.951
 1489SOL    HW2 5367   4.504   5.490   4.824
 1490SOL     OW 5368   0.961   3.100   2.198
 1490SOL    HW1 5369   0.884   3.040   2.220
 1490SOL    HW2 5370   0.926   3.190   2.172
 1491SOL     OW 5371   6.730   3.763   2.902
 1491SOL    HW1 5372   6.687   3.840   2.855
 1491SOL    HW2 5373   6.796   3.798   2.970
 1492SOL     OW 5374   5.949   0.828   2.548
 1492SOL    HW1 5375   5.907   0.770   2.479
 1492SOL    HW2 5376   5.898   0.913   2.556
 1493SOL     OW 5377   4.006   6.134   5.097
 1493SOL    HW1 5378   4.021   6.095   5.188
 1493SOL    HW2 5379   3.929   6.088   5.053
 1494SOL     OW 5380   5.102   2.107   6.261
 1494SOL    HW1 5381   5.114   2.121   6.359
 1494SOL    HW2 5382   5.085   2.195   6.217
 1495SOL     OW 5383   6.737   3.053   4.825
 1495SOL    HW1 5384   6.733   3.050   4.925
 1495SOL    HW2 5385   6.708   3.143   4.793
 1496SOL     OW 5386   0.568   1.730   1.278
 1496SOL    HW1 5387   0.527   1.642   1.302
 1496SOL    HW2 5388   0.649   1.716   1.221
 1497SOL     OW 5389   6.316   2.964   3.005
 1497SOL    HW1 5390   6.257   2.957   3.086
 1497SOL    HW2 5391   6.407   2.929   3.027
 1498SOL     OW 5392   1.865   5.122   6.812
 1498SOL    HW1 5393   1.927   5.137   6.735
 1498SOL    HW2 5394   1.772   5.148   6.785
 1499SOL     OW 5395   1.043   2.676   6.334
 1499SOL    HW1 5396   1.049   2.689   6.235
 1499SOL    HW2 5397   1.042   2.765   6.379
 1500SOL     OW 5398   0.039   0.033   6.760
 1500SOL    HW1 5399   6.996   0.088   6.708
 1500SOL    HW2 5400   7.022   0.009   6.849
 1501SOL     OW 5401   5.279   2.976   6.959
 1501SOL    HW1 5402   5.298   2.885   6.995
 1501SOL    HW2 5403   5.182   2.998   6.974
 1502SOL     OW 5404   4.237   0.032   0.605
 1502SOL    HW1 5405   4.147   0.042   0.562
 1502SOL    HW2 5406   4.294   0.110   0.581
 1503SOL     OW 5407   0.326   3.885   1.391
 1503SOL    HW1 5408   0.368   3.855   1.306
 1503SOL    HW2 5409   0.228   3.865   1.389
 1504SOL     OW 5410   0.885   0.171   5.524
 1504SOL    HW1 5411   0.915   0.244   5.463
 1504SOL    HW2 5412   0.921   0.084   5.491
 1505SOL     OW 5413   5.359   0.904   5.562
 1505SOL    HW1 5414   5.451   0.901   5.524
 1505SOL    HW2 5415   5.364   0.895   5.662
 1506SOL     OW 5416   0.734   6.487   0.849
 1506SOL    HW1 5417   0.709   6.571   0.897
 1506SOL    HW2 5418   0.677   6.411   0.881
 1507SOL     OW 5419   1.036   1.941   5.397
 1507SOL    HW1 5420   0.995   1.850   5.401
 1507SOL    HW2 5421   1.134   1.933   5.378
 1508SOL     OW 5422   6.761   1.182   1.932
 1508SOL    HW1 5423   6.737   1.279   1.931
 1508SOL    HW2 5424   6.704   1.133   1.866
 1509SOL     OW 5425   3.832   1.668   5.938
 1509SOL    HW1 5426   3.778   1.711   5.866
 1509SOL    HW2 5427   3.919   1.637   5.901
 1510SOL     OW 5428   4.523   2.189   4.713
 1510SOL    HW1 5429   4.484   2.235   4.793
 1510SOL    HW2 5430   4.477   2.222   4.630
 1511SOL     OW 5431   3.574   3.034   2.120
 1511SOL    HW1 5432   3.520   2.961   2.163
 1511SOL    HW2 5433   3.579   3.017   2.022
 1512SOL     OW 5434   0.047   5.321   1.626
 1512SOL    HW1 5435   0.136   5.304   1.585
 1512SOL    HW2 5436   0.025   5.247   1.689
 1513SOL     OW 5437   3.589   0.891   3.832
 1513SOL    HW1 5438   3.682   0.897   3.867
 1513SOL    HW2 5439   3.590   0.907   3.733
 1514SOL     OW 5440   4.435   2.118   5.653
 1514SOL    HW1 5441   4.455   2.040   5.712
 1514SOL    HW2 5442   4.472   2.202   5.694
 1515SOL     OW 5443   5.854   2.316   3.458
 1515SOL    HW1 5444   5.820   2.296   3.366
 1515SOL    HW2 5445   5.804   2.393   3.497
 1516SOL     OW 5446   6.684   6.828   0.074
 1516SOL    HW1 5447   6.623   6.826   0.153
 1516SOL    HW2 5448   6.638   6.874   7.020
 1517SOL     OW 5449   4.466   6.327   3.390
 1517SOL    HW1 5450   4.518   6.363   3.312
 1517SOL    HW2 5451   4.414   6.247   3.361
 1518SOL     OW 5452   1.264   2.532   0.082
 1518SOL    HW1 5453   1.245   2.440   0.050
 1518SOL    HW2 5454   1.211   2.598   0.028
 1519SOL     OW 5455   6.539   5.162   1.551
 1519SOL    HW1 5456   6.548   5.259   1.574
 1519SOL    HW2 5457   6.469   5.150   1.481
 1520SOL     OW 5458   0.380   3.728   1.802
 1520SOL    HW1 5459   0.467   3.770   1.826
 1520SOL    HW2 5460   0.389   3.678   1.716
 1521SOL     OW 5461   1.842   3.928   6.128
 1521SOL    HW1 5462   1.864   3.982   6.046
 1521SOL    HW2 5463   1.909   3.949   6.200
 1522SOL     OW 5464   6.407   6.426   5.542
 1522SOL    HW1 5465   6.497   6.456   5.510
 1522SOL    HW2 5466   6.342   6.430   5.466
 1523SOL     OW 5467   5.223   5.687   1.077
 1523SOL    HW1 5468   5.300   5.688   1.013
 1523SOL    HW2 5469   5.218   5.597   1.121
 1524SOL     OW 5470   2.196   1.912   2.028
 1524SOL    HW1 5471   2.135   1.893   2.105
 1524SOL    HW2 5472   2.176   2.002   1.991
 1525SOL     OW 5473   6.551   2.313   0.102
 1525SOL    HW1 5474   6.636   2.300   0.154
 1525SOL    HW2 5475   6.496   2.230   0.106
 1526SOL     OW 5476   6.153   6.923   6.321
 1526SOL    HW1 5477   6.189   6.887   6.407
 1526SOL    HW2 5478   6.131   7.020   6.332
 1527SOL     OW 5479   3.171   1.299   5.099
 1527SOL    HW1 5480   3.126   1.282   5.186
 1527SOL    HW2 5481   3.162   1.218   5.040
 1528SOL     OW 5482   4.982   5.957   2.333
 1528SOL    HW1 5483   4.955   6.001   2.248
 1528SOL    HW2 5484   5.037   6.021   2.388
 1529SOL     OW 5485   3.640   0.540   0.448
 1529SOL    HW1 5486   3.625   0.522   0.351
 1529SOL    HW2 5487   3.561   0.509   0.501
 1530SOL     OW 5488   3.528   1.614   2.176
 1530SOL    HW1 5489   3.525   1.646   2.271
 1530SOL    HW2 5490   3.480   1.679   2.118
 1531SOL     OW 5491   4.540   1.157   5.014
 1531SOL    HW1 5492   4.506   1.074   4.971
 1531SOL    HW2 5493   4.637   1.168   4.992
 1532SOL     OW 5494   2.765   3.058   6.008
 1532SOL    HW1 5495   2.695   3.063   5.937
 1532SOL    HW2 5496   2.731   3.098   6.092
 1533SOL     OW 5497   5.910   3.749   6.844
 1533SOL    HW1 5498   5.891   3.652   6.830
 1533SOL    HW2 5499   5.825   3.797   6.867
 1534SOL     OW 5500   2.225   4.638   6.452
 1534SOL    HW1 5501   2.244   4.620   6.549
 1534SOL    HW2 5502   2.129   4.665   6.441
 1535SOL     OW 5503   5.049   6.580   3.500
 1535SOL    HW1 5504   5.039   6.481   3.489
 1535SOL    HW2 5505   5.079   6.601   3.593
 1536SOL     OW 5506   4.020   4.592   5.276
 1536SOL    HW1 5507   4.073   4.512   5.250
 1536SOL    HW2 5508   3.923   4.567   5.281
 1537SOL     OW 5509   4.317   6.816   3.337
 1537SOL    HW1 5510   4.316   6.829   3.436
 1537SOL    HW2 5511   4.268   6.732   3.314
 1538SOL     OW 5512   4.286   5.601   6.095
 1538SOL    HW1 5513   4.198   5.610   6.142
 1538SOL    HW2 5514   4.280   5.532   6.023
 1539SOL     OW 5515   3.885   4.010   1.626
 1539SOL    HW1 5516   3.906   3.973   1.716
 1539SOL    HW2 5517   3.823   4.088   1.635
 1540SOL     OW 5518   1.593   5.616   6.172
 1540SOL    HW1 5519   1.511   5.667   6.196
 1540SOL    HW2 5520   1.655   5.675   6.121
 1541SOL     OW 5521   4.045   3.337   3.257
 1541SOL    HW1 5522   3.953   3.378   3.262
 1541SOL    HW2 5523   4.045   3.266   3.187
 1542SOL     OW 5524   5.799   5.967   2.241
 1542SOL    HW1 5525   5.769   5.908   2.166
 1542SOL    HW2 5526   5.878   5.926   2.287
 1543SOL     OW 5527   3.716   4.839   5.331
 1543SOL    HW1 5528   3.706   4.750   5.287
 1543SOL    HW2 5529   3.735   4.827   5.428
 1544SOL     OW 5530   3.410   3.349   2.962
 1544SOL    HW1 5531   3.483   3.331   2.895
 1544SOL    HW2 5532   3.321   3.342   2.916
 1545SOL     OW 5533   4.881   0.621   3.766
 1545SOL    HW1 5534   4.831   0.676   3.833
 1545SOL    HW2 5535   4.939   0.680   3.710
 1546SOL     OW 5536   3.794   6.027   6.118
 1546SOL    HW1 5537   3.869   5.986   6.169
 1546SOL    HW2 5538   3.826   6.110   6.071
 1547SOL     OW 5539   1.435   3.632   3.084
 1547SOL    HW1 5540   1.462   3.572   3.159
 1547SOL    HW2 5541   1.390   3.578   3.013
 1548SOL     OW 5542   5.019   3.762   5.541
 1548SOL    HW1 5543   5.045   3.704   5.619
 1548SOL    HW2 5544   4.925   3.792   5.553
 1549SOL     OW 5545   4.863   1.280   3.020
 1549SOL    HW1 5546   4.936   1.248   3.080
 1549SOL    HW2 5547   4.899   1.290   2.927
 1550SOL     OW 5548   2.956   4.195   6.944
 1550SOL    HW1 5549   2.923   4.283   6.979
 1550SOL    HW2 5550   2.904   4.121   6.986
 1551SOL     OW 5551   2.025   4.609   5.899
 1551SOL    HW1 5552   2.025   4.515   5.863
 1551SOL    HW2 5553   1.934   4.648   5.888
 1552SOL     OW 5554   0.205   6.572   6.735
 1552SOL    HW1 5555   0.268   6.563   6.812
 1552SOL    HW2 5556   0.183   6.668   6.721
 1553SOL     OW 5557   6.996   1.453   5.638
 1553SOL    HW1 5558   6.994   1.409   5.728
 1553SOL    HW2 5559   6.941   1.400   5.574
 1554SOL     OW 5560   4.526   1.259   3.040
 1554SOL    HW1 5561   4.618   1.258   3.001
 1554SOL    HW2 5562   4.466   1.312   2.981
 1555SOL     OW 5563   5.432   2.139   6.844
 1555SOL    HW1 5564   5.337   2.143   6.874
 1555SOL    HW2 5565   5.436   2.104   6.750
 1556SOL     OW 5566   3.188   0.942   1.172
 1556SOL    HW1 5567   3.261   0.973   1.234
 1556SOL    HW2 5568   3.104   0.992   1.191
 1557SOL     OW 5569   1.766   1.116   6.254
 1557SOL    HW1 5570   1.829   1.194   6.248
 1557SOL    HW2 5571   1.709   1.125   6.336
 1558SOL     OW 5572   5.195   0.641   4.912
 1558SOL    HW1 5573   5.231   0.637   4.819
 1558SOL    HW2 5574   5.147   0.728   4.926
 1559SOL     OW 5575   6.898   2.734   6.656
 1559SOL    HW1 5576   6.950   2.649   6.668
 1559SOL    HW2 5577   6.882   2.776   6.746
 1560SOL     OW 5578   2.119   1.879   5.913
 1560SOL    HW1 5579   2.188   1.865   5.842
 1560SOL    HW2 5580   2.152   1.844   6.001
 1561SOL     OW 5581   6.158   6.489   4.534
 1561SOL    HW1 5582   6.147   6.421   4.606
 1561SOL    HW2 5583   6.234   6.550   4.556
 1562SOL     OW 5584   3.800   5.963   2.917
 1562SOL    HW1 5585   3.838   5.872   2.899
 1562SOL    HW2 5586   3.784   5.973   3.015
 1563SOL     OW 5587   2.351   0.570   6.227
 1563SOL    HW1 5588   2.307   0.659   6.238
 1563SOL    HW2 5589   2.282   0.502   6.203
 1564SOL     OW 5590   1.027   3.006   3.331
 1564SOL    HW1 5591   1.038   3.104   3.319
 1564SOL    HW2 5592   0.962   2.989   3.406
 1565SOL     OW 5593   4.245   5.134   4.805
 1565SOL    HW1 5594   4.192   5.052   4.781
 1565SOL    HW2 5595   4.342   5.111   4.807
 1566SOL     OW 5596   5.157   5.357   3.493
 1566SOL    HW1 5597   5.236   5.303   3.465
 1566SOL    HW2 5598   5.077   5.329   3.439
 1567SOL     OW 5599   5.881   5.879   0.017
 1567SOL    HW1 5600   5.855   5.951   0.081
 1567SOL    HW2 5601   5.799   5.839   6.998
 1568SOL     OW 5602   1.830   5.556   1.343
 1568SOL    HW1 5603   1.820   5.649   1.380
 1568SOL    HW2 5604   1.803   5.489   1.412
 1569SOL     OW 5605   3.251   6.639   3.585
 1569SOL    HW1 5606   3.175   6.631   3.521
 1569SOL    HW2 5607   3.297   6.551   3.595
 1570SOL     OW 5608   2.054   6.731   1.057
 1570SOL    HW1 5609   2.030   6.668   0.982
 1570SOL    HW2 5610   1.987   6.721   1.130
 1571SOL     OW 5611   5.943   1.346   2.089
 1571SOL    HW1 5612   5.935   1.435   2.135
 1571SOL    HW2 5613   6.033   1.339   2.046
 1572SOL     OW 5614   0.836   6.833   0.733
 1572SOL    HW1 5615   0.857   6.930   0.730
 1572SOL    HW2 5616   0.910   6.784   0.780
 1573SOL     OW 5617   6.149   3.604   2.005
 1573SOL    HW1 5618   6.231   3.579   2.056
 1573SOL    HW2 5619   6.087   3.656   2.064
 1574SOL     OW 5620   0.293   1.062   3.206
 1574SOL    HW1 5621   0.379   1.016   3.185
 1574SOL    HW2 5622   0.236   1.002   3.262
 1575SOL     OW 5623   3.159   2.016   0.799
 1575SOL    HW1 5624   3.087   1.981   0.859
 1575SOL    HW2 5625   3.236   1.951   0.798
 1576SOL     OW 5626   0.679   0.598   3.230
 1576SOL    HW1 5627   0.619   0.521   3.209
 1576SOL    HW2 5628   0.691   0.654   3.149
 1577SOL     OW 5629   2.687   0.768   5.363
 1577SOL    HW1 5630   2.634   0.724   5.436
 1577SOL    HW2 5631   2.751   0.702   5.323
 1578SOL     OW 5632   5.611   2.641   5.832
 1578SOL    HW1 5633   5.707   2.634   5.805
 1578SOL    HW2 5634   5.554   2.646   5.750
 1579SOL     OW 5635   0.742   1.864   2.463
 1579SOL    HW1 5636   0.779   1.871   2.556
 1579SOL    HW2 5637   0.787   1.932   2.405
 1580SOL     OW 5638   3.009   3.905   4.278
 1580SOL    HW1 5639   3.095   3.931   4.323
 1580SOL    HW2 5640   2.935   3.963   4.311
 1581SOL     OW 5641   0.076   4.413   5.550
 1581SOL    HW1 5642   0.054   4.347   5.478
 1581SOL    HW2 5643   0.036   4.383   5.636
 1582SOL     OW 5644   1.972   0.053   4.031
 1582SOL    HW1 5645   1.989   0.018   4.123
 1582SOL    HW2 5646   2.027   0.001   3.965
 1583SOL     OW 5647   1.154   4.779   3.480
 1583SOL    HW1 5648   1.095   4.730   3.545
 1583SOL    HW2 5649   1.225   4.828   3.530
 1584SOL     OW 5650   1.487   6.263   6.591
 1584SOL    HW1 5651   1.487   6.359   6.563
 1584SOL    HW2 5652   1.398   6.238   6.629
 1585SOL     OW 5653   5.332   1.374   3.406
 1585SOL    HW1 5654   5.392   1.324   3.468
 1585SOL    HW2 5655   5.357   1.353   3.311
 1586SOL     OW 5656   3.687   5.000   2.085
 1586SOL    HW1 5657   3.661   4.932   2.016
 1586SOL    HW2 5658   3.605   5.047   2.118
 1587SOL     OW 5659   3.289   5.453   6.283
 1587SOL    HW1 5660   3.327   5.390   6.215
 1587SOL    HW2 5661   3.245   5.530   6.235
 1588SOL     OW 5662   4.279   0.815   2.943
 1588SOL    HW1 5663   4.271   0.720   2.972
 1588SOL    HW2 5664   4.343   0.863   3.003
 1589SOL     OW 5665   6.323   3.318   1.779
 1589SOL    HW1 5666   6.295   3.413   1.775
 1589SOL    HW2 5667   6.255   3.265   1.831
 1590SOL     OW 5668   3.869   6.210   5.658
 1590SOL    HW1 5669   3.863   6.216   5.758
 1590SOL    HW2 5670   3.942   6.271   5.626
 1591SOL     OW 5671   6.862   5.496   2.380
 1591SOL    HW1 5672   6.870   5.582   2.431
 1591SOL    HW2 5673   6.935   5.490   2.312
 1592SOL     OW 5674   2.202   4.029   6.526
 1592SOL    HW1 5675   2.261   4.005   6.604
 1592SOL    HW2 5676   2.203   4.128   6.513
 1593SOL     OW 5677   1.723   6.287   5.171
 1593SOL    HW1 5678   1.667   6.235   5.107
 1593SOL    HW2 5679   1.668   6.358   5.214
 1594SOL     OW 5680   0.082   6.153   2.130
 1594SOL    HW1 5681   0.075   6.249   2.159
 1594SOL    HW2 5682   0.177   6.123   2.136
 1595SOL     OW 5683   1.046   5.691   0.393
 1595SOL    HW1 5684   1.127   5.683   0.335
 1595SOL    HW2 5685   1.067   5.655   0.484
 1596SOL     OW 5686   0.457   2.472   3.857
 1596SOL    HW1 5687   0.433   2.485   3.953
 1596SOL    HW2 5688   0.382   2.503   3.799
 1597SOL     OW 5689   1.705   6.153   0.498
 1597SOL    HW1 5690   1.739   6.130   0.589
 1597SOL    HW2 5691   1.663   6.073   0.457
 1598SOL     OW 5692   0.634   3.944   6.258
 1598SOL    HW1 5693   0.618   3.979   6.166
 1598SOL    HW2 5694   0.723   3.978   6.291
 1599SOL     OW 5695   5.007   4.878   5.248
 1599SOL    HW1 5696   5.005   4.807   5.177
 1599SOL    HW2 5697   4.987   4.837   5.337
 1600SOL     OW 5698   4.288   1.448   3.386
 1600SOL    HW1 5699   4.289   1.387   3.307
 1600SOL    HW2 5700   4.328   1.402   3.465
 1601SOL     OW 5701   0.185   4.605   4.708
 1601SOL    HW1 5702   0.279   4.623   4.680
 1601SOL    HW2 5703   0.129   4.685   4.688
 1602SOL     OW 5704   3.544   4.987   3.373
 1602SOL    HW1 5705   3.464   5.022   3.422
 1602SOL    HW2 5706   3.524   4.983   3.275
 1603SOL     OW 5707   0.774   6.180   3.013
 1603SOL    HW1 5708   0.865   6.142   2.998
 1603SOL    HW2 5709   0.714   6.154   2.937
 1604SOL     OW 5710   5.357   4.864   1.619
 1604SOL    HW1 5711   5.311   4.779   1.646
 1604SOL    HW2 5712   5.417   4.845   1.541
 1605SOL     OW 5713   6.291   5.730   1.362
 1605SOL    HW1 5714   6.334   5.646   1.394
 1605SOL    HW2 5715   6.309   5.741   1.264
 1606SOL     OW 5716   3.300   0.931   4.790
 1606SOL    HW1 5717   3.289   0.931   4.691
 1606SOL    HW2 5718   3.302   1.025   4.824
 1607SOL     OW 5719   4.447   0.745   1.060
 1607SOL    HW1 5720   4.514   0.686   1.106
 1607SOL    HW2 5721   4.409   0.810   1.126
 1608SOL     OW 5722   0.960   0.543   3.539
 1608SOL    HW1 5723   0.949   0.570   3.443
 1608SOL    HW2 5724   0.938   0.446   3.550
 1609SOL     OW 5725   3.982   0.090   0.528
 1609SOL    HW1 5726   3.970   7.022   0.568
 1609SOL    HW2 5727   3.935   0.094   0.440
 1610SOL     OW 5728   5.970   4.721   6.886
 1610SOL    HW1 5729   5.914   4.756   6.810
 1610SOL    HW2 5730   6.057   4.769   6.887
 1611SOL     OW 5731   2.150   3.597   1.197
 1611SOL    HW1 5732   2.065   3.629   1.239
 1611SOL    HW2 5733   2.155   3.498   1.203
 1612SOL     OW 5734   2.669   0.276   6.066
 1612SOL    HW1 5735   2.614   0.198   6.096
 1612SOL    HW2 5736   2.608   0.346   6.028
 1613SOL     OW 5737   1.977   5.410   1.718
 1613SOL    HW1 5738   2.037   5.479   1.676
 1613SOL    HW2 5739   1.955   5.340   1.651
 1614SOL     OW 5740   6.174   3.435   0.057
 1614SOL    HW1 5741   6.079   3.417   0.085
 1614SOL    HW2 5742   6.225   3.349   0.059
 1615SOL     OW 5743   5.855   4.952   1.173
 1615SOL    HW1 5744   5.864   4.896   1.091
 1615SOL    HW2 5745   5.857   4.893   1.254
 1616SOL     OW 5746   2.921   0.747   4.925
 1616SOL    HW1 5747   2.941   0.731   4.829
 1616SOL    HW2 5748   2.871   0.833   4.936
 1617SOL     OW 5749   5.888   0.203   2.589
 1617SOL    HW1 5750   5.951   0.246   2.654
 1617SOL    HW2 5751   5.825   0.144   2.638
 1618SOL     OW 5752   1.854   4.388   2.212
 1618SOL    HW1 5753   1.903   4.332   2.144
 1618SOL    HW2 5754   1.769   4.422   2.172
 1619SOL     OW 5755   1.368   3.280   1.961
 1619SOL    HW1 5756   1.276   3.289   1.999
 1619SOL    HW2 5757   1.408   3.194   1.990
 1620SOL     OW 5758   2.839   4.871   1.929
 1620SOL    HW1 5759   2.901   4.841   1.857
 1620SOL    HW2 5760   2.834   4.799   1.999
 1621SOL     OW 5761   0.079   1.103   0.062
 1621SOL    HW1 5762   0.118   1.175   0.120
 1621SOL    HW2 5763   0.036   1.034   0.120
 1622SOL     OW 5764   0.381   2.859   4.751
 1622SOL    HW1 5765   0.435   2.918   4.810
 1622SOL    HW2 5766   0.432   2.838   4.667
 1623SOL     OW 5767   2.067   2.838   5.058
 1623SOL    HW1 5768   1.984   2.805   5.012
 1623SOL    HW2 5769   2.143   2.841   4.994
 1624SOL     OW 5770   2.583   0.457   4.846
 1624SOL    HW1 5771   2.618   0.363   4.854
 1624SOL    HW2 5772   2.531   0.466   4.761
 1625SOL     OW 5773   0.904   5.540   1.248
 1625SOL    HW1 5774   0.880   5.459   1.195
 1625SOL    HW2 5775   0.825   5.600   1.255
 1626SOL     OW 5776   4.348   1.899   6.640
 1626SOL    HW1 5777   4.357   1.988   6.685
 1626SOL    HW2 5778   4.439   1.864   6.618
 1627SOL     OW 5779   6.476   4.077   3.169
 1627SOL    HW1 5780   6.574   4.054   3.166
 1627SOL    HW2 5781   6.466   4.175   3.186
 1628SOL     OW 5782   4.698   4.567   0.150
 1628SOL    HW1 5783   4.724   4.503   0.222
 1628SOL    HW2 5784   4.778   4.617   0.118
 1629SOL     OW 5785   2.749   0.599   3.909
 1629SOL    HW1 5786   2.740   0.514   3.857
 1629SOL    HW2 5787   2.666   0.615   3.962
 1630SOL     OW 5788   1.788   5.170   5.717
 1630SOL    HW1 5789   1.703   5.192   5.764
 1630SOL    HW2 5790   1.788   5.212   5.626
 1631SOL     OW 5791   1.236   2.512   6.711
 1631SOL    HW1 5792   1.191   2.476   6.630
 1631SOL    HW2 5793   1.213   2.609   6.721
 1632SOL     OW 5794   0.095   1.954   6.959
 1632SOL    HW1 5795   0.184   1.985   6.991
 1632SOL    HW2 5796   0.044   2.031   6.921
 1633SOL     OW 5797   5.428   3.388   4.556
 1633SOL    HW1 5798   5.399   3.479   4.584
 1633SOL    HW2 5799   5.445   3.387   4.458
 1634SOL     OW 5800   4.353   5.476   5.430
 1634SOL    HW1 5801   4.415   5.480   5.508
 1634SOL    HW2 5802   4.388   5.535   5.357
 1635SOL     OW 5803   0.082   5.575   5.734
 1635SOL    HW1 5804   0.113   5.596   5.827
 1635SOL    HW2 5805   7.012   5.536   5.738
 1636SOL     OW 5806   3.029   4.471   1.651
 1636SOL    HW1 5807   2.990   4.505   1.737
 1636SOL    HW2 5808   3.047   4.373   1.659
 1637SOL     OW 5809   0.991   0.952   3.065
 1637SOL    HW1 5810   1.070   0.941   3.005
 1637SOL    HW2 5811   0.924   1.013   3.022
 1638SOL     OW 5812   0.803   4.180   3.223
 1638SOL    HW1 5813   0.769   4.171   3.130
 1638SOL    HW2 5814   0.895   4.218   3.223
 1639SOL     OW 5815   5.146   6.943   2.697
 1639SOL    HW1 5816   5.149   6.868   2.763
 1639SOL    HW2 5817   5.217   6.930   2.628
 1640SOL     OW 5818   5.818   1.201   0.802
 1640SOL    HW1 5819   5.766   1.181   0.885
 1640SOL    HW2 5820   5.756   1.228   0.728
 1641SOL     OW 5821   4.818   2.790   3.317
 1641SOL    HW1 5822   4.751   2.725   3.283
 1641SOL    HW2 5823   4.771   2.861   3.370
 1642SOL     OW 5824   5.950   3.413   6.476
 1642SOL    HW1 5825   5.907   3.337   6.429
 1642SOL    HW2 5826   5.883   3.487   6.487
 1643SOL     OW 5827   2.964   4.848   4.502
 1643SOL    HW1 5828   2.988   4.798   4.419
 1643SOL    HW2 5829   2.888   4.802   4.548
 1644SOL     OW 5830   6.621   3.575   0.505
 1644SOL    HW1 5831   6.637   3.603   0.410
 1644SOL    HW2 5832   6.590   3.654   0.558
 1645SOL     OW 5833   3.168   5.822   5.571
 1645SOL    HW1 5834   3.132   5.736   5.607
 1645SOL    HW2 5835   3.266   5.812   5.553
 1646SOL     OW 5836   2.999   5.980   0.322
 1646SOL    HW1 5837   2.928   5.910   0.326
 1646SOL    HW2 5838   2.979   6.051   0.390
 1647SOL     OW 5839   6.077   3.409   4.671
 1647SOL    HW1 5840   6.051   3.380   4.763
 1647SOL    HW2 5841   6.160   3.361   4.644
 1648SOL     OW 5842   5.315   5.284   0.960
 1648SOL    HW1 5843   5.350   5.227   0.887
 1648SOL    HW2 5844   5.375   5.363   0.973
 1649SOL     OW 5845   2.859   0.645   4.216
 1649SOL    HW1 5846   2.871   0.582   4.139
 1649SOL    HW2 5847   2.880   0.738   4.186
 1650SOL     OW 5848   2.101   6.410   5.674
 1650SOL    HW1 5849   2.163   6.460   5.733
 1650SOL    HW2 5850   2.014   6.460   5.666
 1651SOL     OW 5851   0.372   1.891   1.129
 1651SOL    HW1 5852   0.431   1.826   1.176
 1651SOL    HW2 5853   0.330   1.847   1.050
 1652SOL     OW 5854   0.801   4.112   2.402
 1652SOL    HW1 5855   0.873   4.046   2.380
 1652SOL    HW2 5856   0.835   4.175   2.472
 1653SOL     OW 5857   1.378   0.380   1.213
 1653SOL    HW1 5858   1.318   0.300   1.219
 1653SOL    HW2 5859   1.370   0.433   1.297
 1654SOL     OW 5860   0.100   3.443   1.207
 1654SOL    HW1 5861   0.054   3.356   1.217
 1654SOL    HW2 5862   0.043   3.517   1.242
 1655SOL     OW 5863   6.439   2.222   5.174
 1655SOL    HW1 5864   6.537   2.214   5.158
 1655SOL    HW2 5865   6.408   2.146   5.231
 1656SOL     OW 5866   2.413   4.487   1.807
 1656SOL    HW1 5867   2.344   4.455   1.872
 1656SOL    HW2 5868   2.468   4.559   1.848
 1657SOL     OW 5869   6.915   1.346   3.812
 1657SOL    HW1 5870   6.876   1.344   3.720
 1657SOL    HW2 5871   6.845   1.322   3.879
 1658SOL     OW 5872   1.089   6.916   1.486
 1658SOL    HW1 5873   1.095   7.003   1.437
 1658SOL    HW2 5874   1.106   6.931   1.583
 1659SOL     OW 5875   3.552   0.410   5.749
 1659SOL    HW1 5876   3.621   0.458   5.803
 1659SOL    HW2 5877   3.575   0.313   5.745
 1660SOL     OW 5878   1.263   5.256   4.260
 1660SOL    HW1 5879   1.207   5.272   4.178
 1660SOL    HW2 5880   1.217   5.189   4.319
 1661SOL     OW 5881   2.560   0.784   2.082
 1661SOL    HW1 5882   2.562   0.844   2.002
 1661SOL    HW2 5883   2.649   0.740   2.094
 1662SOL     OW 5884   6.666   0.351   4.153
 1662SOL    HW1 5885   6.720   0.328   4.072
 1662SOL    HW2 5886   6.653   0.268   4.208
 1663SOL     OW 5887   4.227   6.139   2.272
 1663SOL    HW1 5888   4.221   6.222   2.216
 1663SOL    HW2 5889   4.254   6.062   2.215
 1664SOL     OW 5890   1.666   6.841   4.636
 1664SOL    HW1 5891   1.687   6.938   4.639
 1664SOL    HW2 5892   1.748   6.788   4.656
 1665SOL     OW 5893   7.007   1.659   3.020
 1665SOL    HW1 5894   0.068   1.698   2.982
 1665SOL    HW2 5895   6.956   1.730   3.069
 1666SOL     OW 5896   5.272   2.693   6.966
 1666SOL    HW1 5897   5.295   2.634   6.889
 1666SOL    HW2 5898   5.296   2.647   0.029
 1667SOL     OW 5899   6.820   6.141   1.572
 1667SOL    HW1 5900   6.868   6.097   1.648
 1667SOL    HW2 5901   6.722   6.123   1.579
 1668SOL     OW 5902   5.259   6.137   5.688
 1668SOL    HW1 5903   5.341   6.081   5.673
 1668SOL    HW2 5904   5.178   6.078   5.689
 1669SOL     OW 5905   0.465   5.792   6.295
 1669SOL    HW1 5906   0.400   5.752   6.360
 1669SOL    HW2 5907   0.554   5.747   6.306
 1670SOL     OW 5908   0.212   3.759   6.088
 1670SOL    HW1 5909   0.118   3.774   6.121
 1670SOL    HW2 5910   0.276   3.787   6.159
 1671SOL     OW 5911   4.852   1.641   1.380
 1671SOL    HW1 5912   4.755   1.616   1.382
 1671SOL    HW2 5913   4.869   1.703   1.304
 1672SOL     OW 5914   1.794   3.121   1.095
 1672SOL    HW1 5915   1.888   3.155   1.093
 1672SOL    HW2 5916   1.767   3.102   1.189
 1673SOL     OW 5917   0.404   2.517   4.692
 1673SOL    HW1 5918   0.351   2.549   4.770
 1673SOL    HW2 5919   0.500   2.540   4.704
 1674SOL     OW 5920   0.355   3.676   2.151
 1674SOL    HW1 5921   0.409   3.760   2.142
 1674SOL    HW2 5922   0.416   3.598   2.161
 1675SOL     OW 5923   4.284   0.356   6.330
 1675SOL    HW1 5924   4.279   0.276   6.390
 1675SOL    HW2 5925   4.261   0.330   6.237
 1676SOL     OW 5926   2.097   2.155   1.960
 1676SOL    HW1 5927   2.106   2.128   1.864
 1676SOL    HW2 5928   2.147   2.241   1.975
 1677SOL     OW 5929   3.174   3.002   5.282
 1677SOL    HW1 5930   3.098   3.067   5.276
 1677SOL    HW2 5931   3.261   3.050   5.266
 1678SOL     OW 5932   4.750   4.449   4.475
 1678SOL    HW1 5933   4.660   4.492   4.481
 1678SOL    HW2 5934   4.821   4.519   4.475
 1679SOL     OW 5935   2.604   2.458   4.380
 1679SOL    HW1 5936   2.680   2.432   4.440
 1679SOL    HW2 5937   2.544   2.521   4.428
 1680SOL     OW 5938   0.079   3.731   4.959
 1680SOL    HW1 5939   0.070   3.817   5.008
 1680SOL    HW2 5940   0.011   3.666   4.993
 1681SOL     OW 5941   6.486   5.769   6.930
 1681SOL    HW1 5942   6.554   5.843   6.931
 1681SOL    HW2 5943   6.396   5.806   6.950
 1682SOL     OW 5944   1.046   0.893   4.590
 1682SOL    HW1 5945   1.137   0.868   4.559
 1682SOL    HW2 5946   1.051   0.975   4.646
 1683SOL     OW 5947   4.685   5.501   1.517
 1683SOL    HW1 5948   4.644   5.567   1.580
 1683SOL    HW2 5949   4.722   5.424   1.569
 1684SOL     OW 5950   1.604   6.199   2.550
 1684SOL    HW1 5951   1.656   6.179   2.633
 1684SOL    HW2 5952   1.655   6.167   2.470
 1685SOL     OW 5953   2.389   0.779   5.622
 1685SOL    HW1 5954   2.304   0.754   5.577
 1685SOL    HW2 5955   2.465   0.728   5.582
 1686SOL     OW 5956   2.774   5.662   4.977
 1686SOL    HW1 5957   2.792   5.564   4.981
 1686SOL    HW2 5958   2.836   5.705   4.911
 1687SOL     OW 5959   2.491   3.665   1.392
 1687SOL    HW1 5960   2.464   3.644   1.486
 1687SOL    HW2 5961   2.443   3.747   1.361
 1688SOL     OW 5962   2.166   2.272   4.705
 1688SOL    HW1 5963   2.134   2.354   4.658
 1688SOL    HW2 5964   2.103   2.251   4.780
 1689SOL     OW 5965   5.700   1.593   2.724
 1689SOL    HW1 5966   5.735   1.548   2.806
 1689SOL    HW2 5967   5.756   1.567   2.645
 1690SOL     OW 5968   1.512   2.919   3.847
 1690SOL    HW1 5969   1.470   2.840   3.891
 1690SOL    HW2 5970   1.451   2.998   3.855
 1691SOL     OW 5971   6.138   3.712   2.709
 1691SOL    HW1 5972   6.111   3.709   2.806
 1691SOL    HW2 5973   6.235   3.688   2.701
 1692SOL     OW 5974   6.033   6.875   1.613
 1692SOL    HW1 5975   5.955   6.821   1.647
 1692SOL    HW2 5976   6.004   6.969   1.597
 1693SOL     OW 5977   0.679   2.709   1.647
 1693SOL    HW1 5978   0.778   2.718   1.637
 1693SOL    HW2 5979   0.653   2.613   1.633
 1694SOL     OW 5980   5.361   0.638   3.183
 1694SOL    HW1 5981   5.435   0.698   3.152
 1694SOL    HW2 5982   5.367   0.550   3.134
 1695SOL     OW 5983   3.284   1.689   6.110
 1695SOL    HW1 5984   3.378   1.683   6.076
 1695SOL    HW2 5985   3.221   1.697   6.032
 1696SOL     OW 5986   4.619   4.419   0.777
 1696SOL    HW1 5987   4.582   4.348   0.837
 1696SOL    HW2 5988   4.545   4.480   0.748
 1697SOL     OW 5989   5.999   6.349   1.293
 1697SOL    HW1 5990   6.051   6.337   1.378
 1697SOL    HW2 5991   6.060   6.335   1.215
 1698SOL     OW 5992   4.126   0.438   6.701
 1698SOL    HW1 5993   4.134   0.475   6.608
 1698SOL    HW2 5994   4.167   0.501   6.766
 1699SOL     OW 5995   2.142   0.980   0.682
 1699SOL    HW1 5996   2.213   0.931   0.733
 1699SOL    HW2 5997   2.060   0.986   0.737
 1700SOL     OW 5998   5.426   2.693   3.247
 1700SOL    HW1 5999   5.393   2.608   3.206
 1700SOL    HW2 6000   5.405   2.769   3.186
 1701SOL     OW 6001   5.017   4.109   6.523
 1701SOL    HW1 6002   4.986   4.187   6.469
 1701SOL    HW2 6003   5.040   4.033   6.462
 1702SOL     OW 6004   6.714   2.661   0.122
 1702SOL    HW1 6005   6.700   2.626   0.030
 1702SOL    HW2 6006   6.639   2.632   0.181
 1703SOL     OW 6007   3.210   2.914   2.123
 1703SOL    HW1 6008   3.200   2.895   2.025
 1703SOL    HW2 6009   3.161   2.999   2.145
 1704SOL     OW 6010   1.073   2.114   1.283
 1704SOL    HW1 6011   1.108   2.151   1.197
 1704SOL    HW2 6012   1.007   2.178   1.323
 1705SOL     OW 6013   3.597   1.895   1.543
 1705SOL    HW1 6014   3.559   1.983   1.572
 1705SOL    HW2 6015   3.524   1.835   1.512
 1706SOL     OW 6016   5.010   1.187   2.181
 1706SOL    HW1 6017   5.053   1.102   2.210
 1706SOL    HW2 6018   5.022   1.256   2.252
 1707SOL     OW 6019   5.641   1.980   2.535
 1707SOL    HW1 6020   5.611   2.001   2.442
 1707SOL    HW2 6021   5.721   2.035   2.558
 1708SOL     OW 6022   5.172   5.337   2.279
 1708SOL    HW1 6023   5.124   5.306   2.196
 1708SOL    HW2 6024   5.269   5.317   2.270
 1709SOL     OW 6025   3.227   5.251   1.751
 1709SOL    HW1 6026   3.250   5.284   1.843
 1709SOL    HW2 6027   3.149   5.189   1.756
 1710SOL     OW 6028   5.054   5.423   4.015
 1710SOL    HW1 6029   5.049   5.523   4.014
 1710SOL    HW2 6030   5.058   5.390   3.920
 1711SOL     OW 6031   0.393   4.763   4.299
 1711SOL    HW1 6032   0.320   4.824   4.267
 1711SOL    HW2 6033   0.460   4.749   4.226
 1712SOL     OW 6034   0.050   2.870   5.961
 1712SOL    HW1 6035   6.989   2.889   5.910
 1712SOL    HW2 6036   0.029   2.858   6.058
 1713SOL     OW 6037   4.432   2.198   1.900
 1713SOL    HW1 6038   4.344   2.245   1.892
 1713SOL    HW2 6039   4.506   2.261   1.875
 1714SOL     OW 6040   3.507   2.022   5.550
 1714SOL    HW1 6041   3.431   2.067   5.597
 1714SOL    HW2 6042   3.476   1.988   5.461
 1715SOL     OW 6043   0.317   4.696   3.099
 1715SOL    HW1 6044   0.270   4.717   3.184
 1715SOL    HW2 6045   0.261   4.726   3.021
 1716SOL     OW 6046   4.312   6.614   3.127
 1716SOL    HW1 6047   4.320   6.627   3.028
 1716SOL    HW2 6048   4.392   6.564   3.161
 1717SOL     OW 6049   2.529   6.672   6.027
 1717SOL    HW1 6050   2.611   6.704   6.075
 1717SOL    HW2 6051   2.548   6.668   5.929
 1718SOL     OW 6052   2.364   1.940   1.300
 1718SOL    HW1 6053   2.308   1.996   1.360
 1718SOL    HW2 6054   2.461   1.955   1.321
 1719SOL     OW 6055   1.961   3.492   0.830
 1719SOL    HW1 6056   1.949   3.393   0.836
 1719SOL    HW2 6057   1.939   3.534   0.918
 1720SOL     OW 6058   0.524   2.428   6.885
 1720SOL    HW1 6059   0.487   2.420   6.978
 1720SOL    HW2 6060   0.624   2.427   6.889
 1721SOL     OW 6061   1.238   6.412   1.557
 1721SOL    HW1 6062   1.147   6.454   1.554
 1721SOL    HW2 6063   1.295   6.448   1.483
 1722SOL     OW 6064   3.926   2.181   4.096
 1722SOL    HW1 6065   3.946   2.210   4.189
 1722SOL    HW2 6066   3.828   2.168   4.085
 1723SOL     OW 6067   6.434   2.722   2.731
 1723SOL    HW1 6068   6.348   2.728   2.681
 1723SOL    HW2 6069   6.444   2.630   2.769
 1724SOL     OW 6070   6.428   2.564   0.663
 1724SOL    HW1 6071   6.477   2.512   0.593
 1724SOL    HW2 6072   6.403   2.653   0.627
 1725SOL     OW 6073   2.246   4.652   0.152
 1725SOL    HW1 6074   2.291   4.574   0.195
 1725SOL    HW2 6075   2.310   4.729   0.147
 1726SOL     OW 6076   5.282   4.389   5.539
 1726SOL    HW1 6077   5.197   4.371   5.489
 1726SOL    HW2 6078   5.359   4.350   5.488
 1727SOL     OW 6079   4.058   3.383   4.373
 1727SOL    HW1 6080   4.082   3.451   4.442
 1727SOL    HW2 6081   4.070   3.291   4.410
 1728SOL     OW 6082   4.688   4.770   5.494
 1728SOL    HW1 6083   4.637   4.687   5.517
 1728SOL    HW2 6084   4.785   4.749   5.491
 1729SOL     OW 6085   2.210   4.091   2.707
 1729SOL    HW1 6086   2.218   4.143   2.623
 1729SOL    HW2 6087   2.256   4.140   2.782
 1730SOL     OW 6088   1.162   6.991   5.840
 1730SOL    HW1 6089   1.071   7.011   5.876
 1730SOL    HW2 6090   1.161   7.001   5.740
 1731SOL     OW 6091   0.222   4.289   2.084
 1731SOL    HW1 6092   0.127   4.306   2.109
 1731SOL    HW2 6093   0.246   4.194   2.104
 1732SOL     OW 6094   2.476   5.184   5.482
 1732SOL    HW1 6095   2.573   5.183   5.460
 1732SOL    HW2 6096   2.425   5.137   5.410
 1733SOL     OW 6097   1.717   3.982   1.855
 1733SOL    HW1 6098   1.797   3.926   1.830
 1733SOL    HW2 6099   1.746   4.075   1.874
 1734SOL     OW 6100   4.854   3.333   1.516
 1734SOL    HW1 6101   4.827   3.298   1.606
 1734SOL    HW2 6102   4.913   3.266   1.471
 1735SOL     OW 6103   5.312   5.996   0.814
 1735SOL    HW1 6104   5.408   6.005   0.787
 1735SOL    HW2 6105   5.272   5.916   0.769
 1736SOL     OW 6106   3.813   3.091   0.617
 1736SOL    HW1 6107   3.892   3.039   0.649
 1736SOL    HW2 6108   3.766   3.130   0.696
 1737SOL     OW 6109   2.183   1.540   4.446
 1737SOL    HW1 6110   2.144   1.626   4.478
 1737SOL    HW2 6111   2.175   1.535   4.346
 1738SOL     OW 6112   2.294   2.233   3.779
 1738SOL    HW1 6113   2.343   2.199   3.699
 1738SOL    HW2 6114   2.350   2.301   3.827
 1739SOL     OW 6115   6.768   2.423   5.408
 1739SOL    HW1 6116   6.818   2.493   5.459
 1739SOL    HW2 6117   6.822   2.339   5.406
 1740SOL     OW 6118   6.559   1.881   5.702
 1740SOL    HW1 6119   6.549   1.979   5.720
 1740SOL    HW2 6120   6.614   1.868   5.620
 1741SOL     OW 6121   1.981   0.669   3.806
 1741SOL    HW1 6122   1.886   0.698   3.816
 1741SOL    HW2 6123   1.999   0.646   3.711
 1742SOL     OW 6124   5.366   0.982   6.262
 1742SOL    HW1 6125   5.396   1.076   6.278
 1742SOL    HW2 6126   5.405   0.949   6.176
 1743SOL     OW 6127   1.283   2.644   1.673
 1743SOL    HW1 6128   1.263   2.549   1.699
 1743SOL    HW2 6129   1.237   2.665   1.587
 1744SOL     OW 6130   0.115   1.952   2.694
 1744SOL    HW1 6131   0.086   2.033   2.745
 1744SOL    HW2 6132   0.193   1.975   2.636
 1745SOL     OW 6133   6.378   6.490   3.098
 1745SOL    HW1 6134   6.447   6.561   3.102
 1745SOL    HW2 6135   6.421   6.402   3.077
 1746SOL     OW 6136   1.959   5.236   4.506
 1746SOL    HW1 6137   1.929   5.288   4.586
 1746SOL    HW2 6138   2.058   5.234   4.502
 1747SOL     OW 6139   5.865   2.233   2.943
 1747SOL    HW1 6140   5.791   2.254   2.879
 1747SOL    HW2 6141   5.945   2.199   2.893
 1748SOL     OW 6142   0.920   0.515   4.506
 1748SOL    HW1 6143   0.971   0.553   4.584
 1748SOL    HW2 6144   0.983   0.467   4.445
 1749SOL     OW 6145   2.844   0.139   4.594
 1749SOL    HW1 6146   2.883   0.180   4.511
 1749SOL    HW2 6147   2.918   0.104   4.652
 1750SOL     OW 6148   5.483   6.772   3.907
 1750SOL    HW1 6149   5.471   6.835   3.984
 1750SOL    HW2 6150   5.414   6.792   3.837
 1751SOL     OW 6151   4.229   5.919   5.215
 1751SOL    HW1 6152   4.261   5.974   5.138
 1751SOL    HW2 6153   4.135   5.889   5.198
 1752SOL     OW 6154   6.986   2.429   1.489
 1752SOL    HW1 6155   0.029   2.505   1.489
 1752SOL    HW2 6156   6.929   2.434   1.406
 1753SOL     OW 6157   0.391   1.131   0.560
 1753SOL    HW1 6158   0.452   1.094   0.489
 1753SOL    HW2 6159   0.349   1.055   0.610
 1754SOL     OW 6160   2.130   4.143   1.022
 1754SOL    HW1 6161   2.153   4.239   1.010
 1754SOL    HW2 6162   2.084   4.130   1.110
 1755SOL     OW 6163   6.593   6.094   1.850
 1755SOL    HW1 6164   6.573   6.185   1.814
 1755SOL    HW2 6165   6.549   6.083   1.940
 1756SOL     OW 6166   4.730   5.313   6.642
 1756SOL    HW1 6167   4.746   5.307   6.740
 1756SOL    HW2 6168   4.666   5.241   6.614
 1757SOL     OW 6169   2.677   5.379   4.773
 1757SOL    HW1 6170   2.765   5.331   4.777
 1757SOL    HW2 6171   2.669   5.426   4.686
 1758SOL     OW 6172   1.516   0.478   4.039
 1758SOL    HW1 6173   1.603   0.430   4.025
 1758SOL    HW2 6174   1.480   0.508   3.951
 1759SOL     OW 6175   1.860   5.387   6.146
 1759SOL    HW1 6176   1.850   5.481   6.114
 1759SOL    HW2 6177   1.809   5.325   6.087
 1760SOL     OW 6178   5.898   1.964   3.036
 1760SOL    HW1 6179   5.897   1.923   2.945
 1760SOL    HW2 6180   5.881   2.062   3.028
 1761SOL     OW 6181   0.677   0.547   0.508
 1761SOL    HW1 6182   0.715   0.549   0.415
 1761SOL    HW2 6183   0.692   0.456   0.548
 1762SOL     OW 6184   0.199   1.602   5.121
 1762SOL    HW1 6185   0.148   1.517   5.107
 1762SOL    HW2 6186   0.144   1.665   5.176
 1763SOL     OW 6187   1.272   3.675   3.578
 1763SOL    HW1 6188   1.195   3.739   3.573
 1763SOL    HW2 6189   1.356   3.725   3.596
 1764SOL     OW 6190   2.108   3.675   2.498
 1764SOL    HW1 6191   2.170   3.683   2.420
 1764SOL    HW2 6192   2.021   3.636   2.467
 1765SOL     OW 6193   3.781   1.007   1.157
 1765SOL    HW1 6194   3.857   1.049   1.207
 1765SOL    HW2 6195   3.817   0.963   1.074
 1766SOL     OW 6196   4.964   3.659   2.842
 1766SOL    HW1 6197   5.008   3.710   2.768
 1766SOL    HW2 6198   4.885   3.610   2.806
 1767SOL     OW 6199   0.341   3.411   3.363
 1767SOL    HW1 6200   0.423   3.355   3.357
 1767SOL    HW2 6201   0.332   3.467   3.280
 1768SOL     OW 6202   4.242   1.506   5.660
 1768SOL    HW1 6203   4.239   1.597   5.619
 1768SOL    HW2 6204   4.301   1.447   5.605
 1769SOL     OW 6205   4.296   2.588   5.800
 1769SOL    HW1 6206   4.249   2.651   5.738
 1769SOL    HW2 6207   4.394   2.594   5.786
 1770SOL     OW 6208   6.663   5.004   4.788
 1770SOL    HW1 6209   6.713   5.012   4.875
 1770SOL    HW2 6210   6.684   5.082   4.731
 1771SOL     OW 6211   2.330   4.940   0.141
 1771SOL    HW1 6212   2.333   4.980   0.049
 1771SOL    HW2 6213   2.393   4.989   0.201
 1772SOL     OW 6214   3.324   6.799   3.285
 1772SOL    HW1 6215   3.407   6.761   3.326
 1772SOL    HW2 6216   3.342   6.892   3.252
 1773SOL     OW 6217   3.320   3.979   6.686
 1773SOL    HW1 6218   3.266   4.020   6.760
 1773SOL    HW2 6219   3.404   4.031   6.673
 1774SOL     OW 6220   4.387   0.346   1.628
 1774SOL    HW1 6221   4.394   0.278   1.555
 1774SOL    HW2 6222   4.469   0.342   1.685
 1775SOL     OW 6223   1.449   5.312   4.040
 1775SOL    HW1 6224   1.526   5.369   4.072
 1775SOL    HW2 6225   1.417   5.255   4.115
 1776SOL     OW 6226   3.716   0.777   5.704
 1776SOL    HW1 6227   3.780   0.713   5.746
 1776SOL    HW2 6228   3.637   0.726   5.668
 1777SOL     OW 6229   3.197   5.502   5.429
 1777SOL    HW1 6230   3.193   5.600   5.449
 1777SOL    HW2 6231   3.161   5.451   5.507
 1778SOL     OW 6232   4.308   2.302   4.527
 1778SOL    HW1 6233   4.353   2.390   4.535
 1778SOL    HW2 6234   4.292   2.281   4.431
 1779SOL     OW 6235   4.356   1.939   4.155
 1779SOL    HW1 6236   4.287   1.990   4.104
 1779SOL    HW2 6237   4.320   1.912   4.244
 1780SOL     OW 6238   2.279   4.968   5.645
 1780SOL    HW1 6239   2.368   4.926   5.628
 1780SOL    HW2 6240   2.291   5.055   5.693
 1781SOL     OW 6241   4.675   5.695   3.269
 1781SOL    HW1 6242   4.693   5.674   3.173
 1781SOL    HW2 6243   4.702   5.616   3.325
 1782SOL     OW 6244   2.928   1.790   2.894
 1782SOL    HW1 6245   2.899   1.710   2.947
 1782SOL    HW2 6246   3.027   1.799   2.898
 1783SOL     OW 6247   1.730   3.018   6.768
 1783SOL    HW1 6248   1.805   3.077   6.797
 1783SOL    HW2 6249   1.765   2.926   6.750
 1784SOL     OW 6250   2.671   0.894   3.490
 1784SOL    HW1 6251   2.584   0.885   3.538
 1784SOL    HW2 6252   2.727   0.813   3.509
 1785SOL     OW 6253   5.122   5.867   3.737
 1785SOL    HW1 6254   5.173   5.786   3.766
 1785SOL    HW2 6255   5.162   5.948   3.779
 1786SOL     OW 6256   1.859   2.876   0.688
 1786SOL    HW1 6257   1.907   2.961   0.667
 1786SOL    HW2 6258   1.824   2.880   0.782
 1787SOL     OW 6259   2.095   1.290   4.438
 1787SOL    HW1 6260   2.005   1.294   4.482
 1787SOL    HW2 6261   2.140   1.379   4.447
 1788SOL     OW 6262   2.849   3.410   0.192
 1788SOL    HW1 6263   2.860   3.392   0.094
 1788SOL    HW2 6264   2.805   3.332   0.236
 1789SOL     OW 6265   6.644   2.237   2.042
 1789SOL    HW1 6266   6.615   2.157   1.988
 1789SOL    HW2 6267   6.598   2.236   2.130
 1790SOL     OW 6268   4.037   5.923   4.296
 1790SOL    HW1 6269   4.102   5.965   4.233
 1790SOL    HW2 6270   4.043   5.823   4.288
 1791SOL     OW 6271   0.176   2.165   4.963
 1791SOL    HW1 6272   0.256   2.223   4.981
 1791SOL    HW2 6273   0.148   2.176   4.867
 1792SOL     OW 6274   1.089   2.090   4.426
 1792SOL    HW1 6275   1.048   2.103   4.336
 1792SOL    HW2 6276   1.166   2.153   4.438
 1793SOL     OW 6277   6.838   6.975   3.276
 1793SOL    HW1 6278   6.764   0.019   3.264
 1793SOL    HW2 6279   6.805   6.898   3.331
 1794SOL     OW 6280   5.083   6.177   6.303
 1794SOL    HW1 6281   5.090   6.276   6.315
 1794SOL    HW2 6282   5.063   6.134   6.392
 1795SOL     OW 6283   0.267   4.376   2.571
 1795SOL    HW1 6284   0.351   4.322   2.579
 1795SOL    HW2 6285   0.241   4.410   2.661
 1796SOL     OW 6286   1.840   1.541   4.888
 1796SOL    HW1 6287   1.765   1.489   4.929
 1796SOL    HW2 6288   1.926   1.517   4.934
 1797SOL     OW 6289   1.600   0.822   5.895
 1797SOL    HW1 6290   1.638   0.762   5.965
 1797SOL    HW2 6291   1.584   0.913   5.933
 1798SOL     OW 6292   4.547   2.740   5.400
 1798SOL    HW1 6293   4.605   2.771   5.324
 1798SOL    HW2 6294   4.452   2.731   5.368
 1799SOL     OW 6295   6.158   2.115   6.630
 1799SOL    HW1 6296   6.125   2.059   6.554
 1799SOL    HW2 6297   6.256   2.131   6.620
 1800SOL     OW 6298   4.546   4.796   3.877
 1800SOL    HW1 6299   4.553   4.756   3.969
 1800SOL    HW2 6300   4.634   4.837   3.852
 1801SOL     OW 6301   0.958   1.795   2.134
 1801SOL    HW1 6302   1.037   1.739   2.109
 1801SOL    HW2 6303   0.888   1.737   2.176
 1802SOL     OW 6304   5.674   5.043   2.598
 1802SOL    HW1 6305   5.614   5.002   2.668
 1802SOL    HW2 6306   5.743   4.976   2.570
 1803SOL     OW 6307   6.677   5.875   0.319
 1803SOL    HW1 6308   6.684   5.966   0.278
 1803SOL    HW2 6309   6.762   5.855   0.368
 1804SOL     OW 6310   3.019   2.911   6.011
 1804SOL    HW1 6311   2.928   2.948   5.994
 1804SOL    HW2 6312   3.019   2.814   5.990
 1805SOL     OW 6313   0.580   3.995   5.984
 1805SOL    HW1 6314   0.568   3.927   5.911
 1805SOL    HW2 6315   0.619   4.078   5.946
 1806SOL     OW 6316   1.935   0.983   1.767
 1806SOL    HW1 6317   1.954   0.963   1.671
 1806SOL    HW2 6318   1.886   0.906   1.808
 1807SOL     OW 6319   5.671   2.948   6.645
 1807SOL    HW1 6320   5.719   2.897   6.716
 1807SOL    HW2 6321   5.572   2.939   6.659
 1808SOL     OW 6322   6.551   4.011   4.937
 1808SOL    HW1 6323   6.595   3.987   4.851
 1808SOL    HW2 6324   6.469   3.956   4.950
 1809SOL     OW 6325   2.361   2.735   4.730
 1809SOL    HW1 6326   2.359   2.825   4.687
 1809SOL    HW2 6327   2.348   2.745   4.829
 1810SOL     OW 6328   2.575   0.193   5.664
 1810SOL    HW1 6329   2.522   0.270   5.698
 1810SOL    HW2 6330   2.596   0.207   5.567
 1811SOL     OW 6331   3.781   4.842   3.164
 1811SOL    HW1 6332   3.785   4.888   3.252
 1811SOL    HW2 6333   3.853   4.773   3.159
 1812SOL     OW 6334   4.628   0.242   5.974
 1812SOL    HW1 6335   4.597   0.287   5.891
 1812SOL    HW2 6336   4.607   0.300   6.053
 1813SOL     OW 6337   4.127   4.801   1.527
 1813SOL    HW1 6338   4.100   4.805   1.623
 1813SOL    HW2 6339   4.213   4.750   1.519
 1814SOL     OW 6340   7.001   0.380   6.895
 1814SOL    HW1 6341   0.042   0.440   6.846
 1814SOL    HW2 6342   6.913   0.427   6.906
 1815SOL     OW 6343   6.790   1.678   1.899
 1815SOL    HW1 6344   6.735   1.714   1.824
 1815SOL    HW2 6345   6.822   1.754   1.956
 1816SOL     OW 6346   1.639   4.296   0.658
 1816SOL    HW1 6347   1.645   4.381   0.605
 1816SOL    HW2 6348   1.677   4.311   0.750
 1817SOL     OW 6349   3.685   6.557   3.117
 1817SOL    HW1 6350   3.738   6.480   3.083
 1817SOL    HW2 6351   3.592   6.527   3.139
 1818SOL     OW 6352   2.613   5.839   1.840
 1818SOL    HW1 6353   2.554   5.875   1.768
 1818SOL    HW2 6354   2.568   5.761   1.884
 1819SOL     OW 6355   1.116   5.529   1.645
 1819SOL    HW1 6356   1.040   5.582   1.684
 1819SOL    HW2 6357   1.169   5.587   1.584
 1820SOL     OW 6358   2.555   0.500   2.376
 1820SOL    HW1 6359   2.654   0.511   2.364
 1820SOL    HW2 6360   2.526   0.416   2.331
 1821SOL     OW 6361   2.369   0.610   1.969
 1821SOL    HW1 6362   2.350   0.643   1.877
 1821SOL    HW2 6363   2.399   0.686   2.027
 1822SOL     OW 6364   1.564   3.370   0.784
 1822SOL    HW1 6365   1.648   3.354   0.733
 1822SOL    HW2 6366   1.516   3.283   0.796
 1823SOL     OW 6367   3.047   5.679   2.955
 1823SOL    HW1 6368   2.978   5.712   3.019
 1823SOL    HW2 6369   3.076   5.754   2.896
 1824SOL     OW 6370   3.408   3.541   0.909
 1824SOL    HW1 6371   3.426   3.525   0.812
 1824SOL    HW2 6372   3.404   3.453   0.957
 1825SOL     OW 6373   1.652   2.115   4.686
 1825SOL    HW1 6374   1.651   2.119   4.586
 1825SOL    HW2 6375   1.602   2.193   4.723
 1826SOL     OW 6376   3.549   1.298   1.530
 1826SOL    HW1 6377   3.464   1.328   1.574
 1826SOL    HW2 6378   3.622   1.362   1.552
 1827SOL     OW 6379   6.997   5.700   1.362
 1827SOL    HW1 6380   0.034   5.761   1.310
 1827SOL    HW2 6381   6.989   5.613   1.314
 1828SOL     OW 6382   2.078   2.347   0.401
 1828SOL    HW1 6383   1.983   2.338   0.373
 1828SOL    HW2 6384   2.106   2.443   0.397
 1829SOL     OW 6385   2.700   0.831   3.194
 1829SOL    HW1 6386   2.786   0.814   3.146
 1829SOL    HW2 6387   2.719   0.848   3.291
 1830SOL     OW 6388   5.772   6.352   3.457
 1830SOL    HW1 6389   5.868   6.339   3.432
 1830SOL    HW2 6390   5.762   6.435   3.511
 1831SOL     OW 6391   6.251   0.170   1.894
 1831SOL    HW1 6392   6.279   0.264   1.915
 1831SOL    HW2 6393   6.186   0.138   1.963
 1832SOL     OW 6394   4.299   1.477   1.262
 1832SOL    HW1 6395   4.309   1.474   1.362
 1832SOL    HW2 6396   4.366   1.416   1.220
 1833SOL     OW 6397   5.266   0.601   0.561
 1833SOL    HW1 6398   5.176   0.560   0.551
 1833SOL    HW2 6399   5.335   0.541   0.520
 1834SOL     OW 6400   2.589   3.389   0.806
 1834SOL    HW1 6401   2.523   3.427   0.872
 1834SOL    HW2 6402   2.539   3.333   0.739
 1835SOL     OW 6403   0.094   4.762   2.364
 1835SOL    HW1 6404   0.122   4.789   2.272
 1835SOL    HW2 6405   0.072   4.664   2.365
 1836SOL     OW 6406   5.050   1.576   1.564
 1836SOL    HW1 6407   5.037   1.481   1.591
 1836SOL    HW2 6408   4.977   1.604   1.502
 1837SOL     OW 6409   0.898   0.051   4.788
 1837SOL    HW1 6410   0.881   0.149   4.797
 1837SOL    HW2 6411   0.860   0.003   4.866
 1838SOL     OW 6412   6.469   1.581   4.872
 1838SOL    HW1 6413   6.556   1.610   4.911
 1838SOL    HW2 6414   6.444   1.642   4.797
 1839SOL     OW 6415   6.488   1.816   5.075
 1839SOL    HW1 6416   6.567   1.761   5.049
 1839SOL    HW2 6417   6.518   1.900   5.119
 1840SOL     OW 6418   3.940   0.145   1.264
 1840SOL    HW1 6419   3.898   0.088   1.193
 1840SOL    HW2 6420   3.886   0.228   1.276
 1841SOL     OW 6421   1.695   1.311   3.476
 1841SOL    HW1 6422   1.630   1.377   3.513
 1841SOL    HW2 6423   1.767   1.359   3.427
 1842SOL     OW 6424   1.613   5.794   0.325
 1842SOL    HW1 6425   1.569   5.884   0.336
 1842SOL    HW2 6426   1.560   5.740   0.259
 1843SOL     OW 6427   6.153   2.249   3.459
 1843SOL    HW1 6428   6.166   2.201   3.545
 1843SOL    HW2 6429   6.069   2.304   3.464
 1844SOL     OW 6430   3.217   6.498   5.154
 1844SOL    HW1 6431   3.163   6.515   5.236
 1844SOL    HW2 6432   3.273   6.416   5.168
 1845SOL     OW 6433   3.157   0.113   4.051
 1845SOL    HW1 6434   3.102   0.176   3.996
 1845SOL    HW2 6435   3.237   0.161   4.087
 1846SOL     OW 6436   3.487   1.277   1.885
 1846SOL    HW1 6437   3.471   1.323   1.973
 1846SOL    HW2 6438   3.400   1.252   1.844
 1847SOL     OW 6439   1.465   0.829   6.437
 1847SOL    HW1 6440   1.440   0.919   6.472
 1847SOL    HW2 6441   1.383   0.774   6.424
 1848SOL     OW 6442   1.851   6.202   3.830
 1848SOL    HW1 6443   1.935   6.153   3.851
 1848SOL    HW2 6444   1.820   6.178   3.737
 1849SOL     OW 6445   3.758   2.545   1.611
 1849SOL    HW1 6446   3.698   2.549   1.531
 1849SOL    HW2 6447   3.832   2.611   1.600
 1850SOL     OW 6448   0.421   2.752   2.041
 1850SOL    HW1 6449   0.395   2.689   2.114
 1850SOL    HW2 6450   0.484   2.821   2.077
 1851SOL     OW 6451   0.134   2.270   0.225
 1851SOL    HW1 6452   0.232   2.258   0.213
 1851SOL    HW2 6453   0.092   2.183   0.250
 1852SOL     OW 6454   6.527   4.761   2.786
 1852SOL    HW1 6455   6.564   4.806   2.706
 1852SOL    HW2 6456   6.492   4.829   2.850
 1853SOL     OW 6457   0.638   2.567   3.019
 1853SOL    HW1 6458   0.633   2.475   3.059
 1853SOL    HW2 6459   0.654   2.634   3.091
 1854SOL     OW 6460   2.555   5.841   2.746
 1854SOL    HW1 6461   2.642   5.791   2.754
 1854SOL    HW2 6462   2.509   5.842   2.835
 1855SOL     OW 6463   5.145   2.817   5.166
 1855SOL    HW1 6464   5.175   2.768   5.084
 1855SOL    HW2 6465   5.213   2.805   5.239
 1856SOL     OW 6466   5.999   4.184   5.907
 1856SOL    HW1 6467   5.986   4.174   5.808
 1856SOL    HW2 6468   5.912   4.169   5.954
 1857SOL     OW 6469   4.615   2.003   5.977
 1857SOL    HW1 6470   4.574   2.051   6.055
 1857SOL    HW2 6471   4.579   1.910   5.973
 1858SOL     OW 6472   5.753   4.316   3.626
 1858SOL    HW1 6473   5.818   4.244   3.604
 1858SOL    HW2 6474   5.772   4.397   3.570
 1859SOL     OW 6475   5.536   2.136   4.187
 1859SOL    HW1 6476   5.446   2.127   4.230
 1859SOL    HW2 6477   5.525   2.154   4.090
 1860SOL     OW 6478   0.173   0.714   5.460
 1860SOL    HW1 6479   0.253   0.688   5.513
 1860SOL    HW2 6480   0.097   0.653   5.481
 1861SOL     OW 6481   6.362   6.900   2.024
 1861SOL    HW1 6482   6.276   6.875   1.980
 1861SOL    HW2 6483   6.346   6.976   2.087
 1862SOL     OW 6484   3.694   0.015   6.570
 1862SOL    HW1 6485   3.637   6.959   6.596
 1862SOL    HW2 6486   3.790   7.015   6.585
 1863SOL     OW 6487   0.665   3.085   3.978
 1863SOL    HW1 6488   0.577   3.059   3.939
 1863SOL    HW2 6489   0.729   3.106   3.904
 1864SOL     OW 6490   1.690   6.747   5.169
 1864SOL    HW1 6491   1.652   6.718   5.082
 1864SOL    HW2 6492   1.623   6.731   5.242
 1865SOL     OW 6493   3.726   6.732   0.044
 1865SOL    HW1 6494   3.729   6.677   6.982
 1865SOL    HW2 6495   3.738   6.828   0.021
 1866SOL     OW 6496   5.336   5.032   3.458
 1866SOL    HW1 6497   5.342   5.029   3.558
 1866SOL    HW2 6498   5.244   5.005   3.429
 1867SOL     OW 6499   0.553   4.212   6.741
 1867SOL    HW1 6500   0.615   4.248   6.671
 1867SOL    HW2 6501   0.541   4.113   6.726
 1868SOL     OW 6502   4.913   2.969   6.128
 1868SOL    HW1 6503   4.900   2.931   6.220
 1868SOL    HW2 6504   4.827   3.007   6.095
 1869SOL     OW 6505   5.963   3.793   5.546
 1869SOL    HW1 6506   5.908   3.837   5.474
 1869SOL    HW2 6507   5.951   3.694   5.541
 1870SOL     OW 6508   1.724   2.396   4.831
 1870SOL    HW1 6509   1.628   2.368   4.834
 1870SOL    HW2 6510   1.760   2.400   4.924
 1871SOL     OW 6511   0.767   0.728   6.886
 1871SOL    HW1 6512   0.728   0.656   6.828
 1871SOL    HW2 6513   0.703   0.748   6.961
 1872SOL     OW 6514   4.255   1.641   6.749
 1872SOL    HW1 6515   4.292   1.651   6.842
 1872SOL    HW2 6516   4.265   1.729   6.701
 1873SOL     OW 6517   5.352   1.334   5.804
 1873SOL    HW1 6518   5.443   1.339   5.846
 1873SOL    HW2 6519   5.357   1.282   5.719
 1874SOL     OW 6520   2.635   1.068   0.722
 1874SOL    HW1 6521   2.706   1.104   0.783
 1874SOL    HW2 6522   2.546   1.101   0.753
 1875SOL     OW 6523   0.428   0.604   0.268
 1875SOL    HW1 6524   0.453   0.700   0.276
 1875SOL    HW2 6525   0.406   0.568   0.359
 1876SOL     OW 6526   3.468   6.226   6.071
 1876SOL    HW1 6527   3.400   6.174   6.019
 1876SOL    HW2 6528   3.522   6.163   6.127
 1877SOL     OW 6529   0.908   1.962   3.173
 1877SOL    HW1 6530   0.981   1.897   3.153
 1877SOL    HW2 6531   0.913   1.989   3.269
 1878SOL     OW 6532   6.338   3.364   4.152
 1878SOL    HW1 6533   6.345   3.448   4.099
 1878SOL    HW2 6534   6.410   3.300   4.123
 1879SOL     OW 6535   1.773   5.212   3.814
 1879SOL    HW1 6536   1.844   5.280   3.830
 1879SOL    HW2 6537   1.686   5.257   3.798
 1880SOL     OW 6538   6.218   1.060   3.831
 1880SOL    HW1 6539   6.138   1.025   3.880
 1880SOL    HW2 6540   6.283   1.099   3.896
 1881SOL     OW 6541   0.467   3.332   2.919
 1881SOL    HW1 6542   0.377   3.361   2.950
 1881SOL    HW2 6543   0.515   3.285   2.993
 1882SOL     OW 6544   0.897   4.065   0.154
 1882SOL    HW1 6545   0.801   4.036   0.157
 1882SOL    HW2 6546   0.927   4.089   0.247
 1883SOL     OW 6547   1.274   3.008   3.927
 1883SOL    HW1 6548   1.196   2.984   3.870
 1883SOL    HW2 6549   1.298   3.104   3.912
 1884SOL     OW 6550   5.995   3.003   6.968
 1884SOL    HW1 6551   6.007   3.047   0.034
 1884SOL    HW2 6552   6.083   2.995   6.922
 1885SOL     OW 6553   0.978   2.275   6.278
 1885SOL    HW1 6554   1.030   2.196   6.246
 1885SOL    HW2 6555   0.949   2.331   6.200
 1886SOL     OW 6556   2.287   0.686   1.723
 1886SOL    HW1 6557   2.354   0.732   1.664
 1886SOL    HW2 6558   2.231   0.624   1.668
 1887SOL     OW 6559   1.817   5.743   6.370
 1887SOL    HW1 6560   1.754   5.667   6.379
 1887SOL    HW2 6561   1.909   5.709   6.352
 1888SOL     OW 6562   3.109   2.379   6.747
 1888SOL    HW1 6563   3.100   2.415   6.654
 1888SOL    HW2 6564   3.205   2.367   6.769
 1889SOL     OW 6565   6.025   3.357   6.745
 1889SOL    HW1 6566   6.000   3.261   6.729
 1889SOL    HW2 6567   6.014   3.409   6.661
 1890SOL     OW 6568   1.378   5.667   4.420
 1890SOL    HW1 6569   1.297   5.629   4.377
 1890SOL    HW2 6570   1.454   5.603   4.410
 1891SOL     OW 6571   6.018   2.623   3.147
 1891SOL    HW1 6572   5.931   2.597   3.188
 1891SOL    HW2 6573   6.044   2.714   3.180
 1892SOL     OW 6574   3.185   1.175   0.483
 1892SOL    HW1 6575   3.102   1.224   0.510
 1892SOL    HW2 6576   3.265   1.224   0.517
 1893SOL     OW 6577   3.295   2.833   0.515
 1893SOL    HW1 6578   3.245   2.890   0.581
 1893SOL    HW2 6579   3.305   2.883   0.429
 1894SOL     OW 6580   4.070   3.843   3.515
 1894SOL    HW1 6581   4.060   3.931   3.470
 1894SOL    HW2 6582   4.084   3.772   3.447
 1895SOL     OW 6583   6.275   1.024   2.041
 1895SOL    HW1 6584   6.183   0.986   2.032
 1895SOL    HW2 6585   6.339   0.968   1.990
 1896SOL     OW 6586   6.989   0.726   1.567
 1896SOL    HW1 6587   6.938   0.784   1.630
 1896SOL    HW2 6588   6.946   0.635   1.561
 1897SOL     OW 6589   1.191   4.540   2.628
 1897SOL    HW1 6590   1.242   4.624   2.644
 1897SOL    HW2 6591   1.250   4.474   2.581
 1898SOL     OW 6592   3.143   4.835   2.642
 1898SOL    HW1 6593   3.236   4.871   2.635
 1898SOL    HW2 6594   3.108   4.848   2.735
 1899SOL     OW 6595   0.966   2.022   2.265
 1899SOL    HW1 6596   0.985   1.931   2.228
 1899SOL    HW2 6597   1.052   2.072   2.276
 1900SOL     OW 6598   1.538   0.515   6.458
 1900SOL    HW1 6599   1.535   0.481   6.364
 1900SOL    HW2 6600   1.545   0.615   6.457
 1901SOL     OW 6601   2.074   1.862   1.228
 1901SOL    HW1 6602   2.160   1.814   1.208
 1901SOL    HW2 6603   2.093   1.960   1.239
 1902SOL     OW 6604   2.491   2.052   4.989
 1902SOL    HW1 6605   2.544   2.022   5.068
 1902SOL    HW2 6606   2.526   2.008   4.907
 1903SOL     OW 6607   6.544   3.169   3.179
 1903SOL    HW1 6608   6.508   3.195   3.268
 1903SOL    HW2 6609   6.583   3.077   3.183
 1904SOL     OW 6610   5.785   6.437   4.811
 1904SOL    HW1 6611   5.709   6.459   4.872
 1904SOL    HW2 6612   5.849   6.514   4.809
 1905SOL     OW 6613   1.698   0.733   4.197
 1905SOL    HW1 6614   1.706   0.771   4.104
 1905SOL    HW2 6615   1.755   0.651   4.204
 1906SOL     OW 6616   2.345   0.495   5.021
 1906SOL    HW1 6617   2.387   0.496   4.930
 1906SOL    HW2 6618   2.248   0.519   5.013
 1907SOL     OW 6619   3.285   6.502   2.912
 1907SOL    HW1 6620   3.357   6.499   2.981
 1907SOL    HW2 6621   3.280   6.414   2.864
 1908SOL     OW 6622   3.525   0.053   5.105
 1908SOL    HW1 6623   3.621   0.074   5.091
 1908SOL    HW2 6624   3.515   6.981   5.136
 1909SOL     OW 6625   0.525   4.112   2.344
 1909SOL    HW1 6626   0.481   4.137   2.430
 1909SOL    HW2 6627   0.623   4.098   2.359
 1910SOL     OW 6628   6.689   2.947   6.101
 1910SOL    HW1 6629   6.642   2.897   6.028
 1910SOL    HW2 6630   6.769   2.993   6.062
 1911SOL     OW 6631   5.780   3.321   5.098
 1911SOL    HW1 6632   5.799   3.348   5.004
 1911SOL    HW2 6633   5.688   3.350   5.123
 1912SOL     OW 6634   3.215   6.356   0.872
 1912SOL    HW1 6635   3.141   6.354   0.805
 1912SOL    HW2 6636   3.265   6.269   0.870
 1913SOL     OW 6637   1.523   6.067   5.093
 1913SOL    HW1 6638   1.475   6.087   5.007
 1913SOL    HW2 6639   1.506   5.972   5.119
 1914SOL     OW 6640   4.150   3.318   6.383
 1914SOL    HW1 6641   4.083   3.278   6.446
 1914SOL    HW2 6642   4.102   3.350   6.301
 1915SOL     OW 6643   3.936   2.120   5.003
 1915SOL    HW1 6644   4.007   2.134   4.934
 1915SOL    HW2 6645   3.851   2.094   4.957
 1916SOL     OW 6646   3.908   5.700   1.448
 1916SOL    HW1 6647   3.939   5.606   1.433
 1916SOL    HW2 6648   3.816   5.698   1.487
 1917SOL     OW 6649   2.946   3.161   5.296
 1917SOL    HW1 6650   2.951   3.159   5.196
 1917SOL    HW2 6651   2.855   3.131   5.325
 1918SOL     OW 6652   0.687   1.069   5.549
 1918SOL    HW1 6653   0.756   1.124   5.595
 1918SOL    HW2 6654   0.651   1.001   5.613
 1919SOL     OW 6655   2.685   0.921   1.430
 1919SOL    HW1 6656   2.603   0.868   1.412
 1919SOL    HW2 6657   2.682   0.959   1.523
 1920SOL     OW 6658   1.545   4.390   2.409
 1920SOL    HW1 6659   1.450   4.406   2.383
 1920SOL    HW2 6660   1.552   4.383   2.508
 1921SOL     OW 6661   1.147   4.862   0.053
 1921SOL    HW1 6662   1.186   4.916   7.001
 1921SOL    HW2 6663   1.152   4.765   0.030
 1922SOL     OW 6664   1.830   4.323   0.901
 1922SOL    HW1 6665   1.825   4.334   1.000
 1922SOL    HW2 6666   1.861   4.231   0.879
 1923SOL     OW 6667   3.250   0.680   5.671
 1923SOL    HW1 6668   3.268   0.635   5.759
 1923SOL    HW2 6669   3.330   0.668   5.612
 1924SOL     OW 6670   4.605   5.351   1.290
 1924SOL    HW1 6671   4.671   5.392   1.227
 1924SOL    HW2 6672   4.623   5.383   1.383
 1925SOL     OW 6673   1.951   4.443   0.246
 1925SOL    HW1 6674   1.893   4.369   0.279
 1925SOL    HW2 6675   1.894   4.521   0.220
 1926SOL     OW 6676   2.216   7.009   3.459
 1926SOL    HW1 6677   2.281   0.053   3.421
 1926SOL    HW2 6678   2.229   7.002   3.557
 1927SOL     OW 6679   2.641   4.327   6.459
 1927SOL    HW1 6680   2.556   4.297   6.417
 1927SOL    HW2 6681   2.667   4.417   6.423
 1928SOL     OW 6682   6.546   4.272   5.864
 1928SOL    HW1 6683   6.461   4.276   5.811
 1928SOL    HW2 6684   6.562   4.360   5.910
 1929SOL     OW 6685   1.046   5.052   1.375
 1929SOL    HW1 6686   1.132   5.001   1.379
 1929SOL    HW2 6687   1.056   5.137   1.428
 1930SOL     OW 6688   3.412   3.811   6.456
 1930SOL    HW1 6689   3.454   3.882   6.401
 1930SOL    HW2 6690   3.373   3.851   6.539
 1931SOL     OW 6691   0.541   3.814   2.520
 1931SOL    HW1 6692   0.535   3.720   2.486
 1931SOL    HW2 6693   0.452   3.858   2.510
 1932SOL     OW 6694   5.014   3.533   3.252
 1932SOL    HW1 6695   4.943   3.505   3.316
 1932SOL    HW2 6696   5.033   3.631   3.264
 1933SOL     OW 6697   2.090   3.866   0.749
 1933SOL    HW1 6698   2.023   3.799   0.716
 1933SOL    HW2 6699   2.118   3.843   0.842
 1934SOL     OW 6700   0.233   6.933   5.235
 1934SOL    HW1 6701   0.254   6.959   5.141
 1934SOL    HW2 6702   0.136   6.911   5.243
 1935SOL     OW 6703   3.993   6.060   3.719
 1935SOL    HW1 6704   3.894   6.055   3.705
 1935SOL    HW2 6705   4.012   6.115   3.801
 1936SOL     OW 6706   5.901   3.890   3.539
 1936SOL    HW1 6707   5.873   3.854   3.628
 1936SOL    HW2 6708   5.919   3.815   3.476
 1937SOL     OW 6709   3.711   6.882   1.388
 1937SOL    HW1 6710   3.708   6.921   1.295
 1937SOL    HW2 6711   3.660   6.941   1.450
 1938SOL     OW 6712   2.146   1.650   1.943
 1938SOL    HW1 6713   2.196   1.605   2.017
 1938SOL    HW2 6714   2.151   1.749   1.955
 1939SOL     OW 6715   6.391   0.397   4.497
 1939SOL    HW1 6716   6.397   0.313   4.551
 1939SOL    HW2 6717   6.295   0.414   4.472
 1940SOL     OW 6718   5.288   4.642   0.807
 1940SOL    HW1 6719   5.358   4.576   0.836
 1940SOL    HW2 6720   5.203   4.595   0.785
 1941SOL     OW 6721   0.801   3.721   4.396
 1941SOL    HW1 6722   0.886   3.690   4.353
 1941SOL    HW2 6723   0.742   3.643   4.413
 1942SOL     OW 6724   5.270   1.626   1.702
 1942SOL    HW1 6725   5.349   1.658   1.648
 1942SOL    HW2 6726   5.192   1.613   1.641
 1943SOL     OW 6727   2.113   6.348   3.595
 1943SOL    HW1 6728   2.063   6.365   3.510
 1943SOL    HW2 6729   2.059   6.379   3.673
 1944SOL     OW 6730   6.245   2.986   0.275
 1944SOL    HW1 6731   6.222   2.938   0.360
 1944SOL    HW2 6732   6.279   2.920   0.208
 1945SOL     OW 6733   4.127   5.290   0.650
 1945SOL    HW1 6734   4.074   5.297   0.566
 1945SOL    HW2 6735   4.121   5.376   0.701
 1946SOL     OW 6736   6.438   6.748   0.602
 1946SOL    HW1 6737   6.477   6.809   0.671
 1946SOL    HW2 6738   6.378   6.799   0.542
 1947SOL     OW 6739   4.677   6.338   4.326
 1947SOL    HW1 6740   4.642   6.316   4.235
 1947SOL    HW2 6741   4.644   6.429   4.353
 1948SOL     OW 6742   5.732   5.650   3.723
 1948SOL    HW1 6743   5.681   5.599   3.655
 1948SOL    HW2 6744   5.830   5.630   3.715
 1949SOL     OW 6745   3.316   3.920   6.037
 1949SOL    HW1 6746   3.405   3.946   6.075
 1949SOL    HW2 6747   3.259   3.881   6.110
 1950SOL     OW 6748   4.177   3.330   0.585
 1950SOL    HW1 6749   4.114   3.395   0.543
 1950SOL    HW2 6750   4.171   3.242   0.537
 1951SOL     OW 6751   5.863   3.721   0.143
 1951SOL    HW1 6752   5.874   3.821   0.143
 1951SOL    HW2 6753   5.893   3.685   0.231
 1952SOL     OW 6754   4.830   3.594   1.170
 1952SOL    HW1 6755   4.904   3.545   1.123
 1952SOL    HW2 6756   4.767   3.633   1.102
 1953SOL     OW 6757   6.262   1.899   5.419
 1953SOL    HW1 6758   6.281   1.801   5.430
 1953SOL    HW2 6759   6.164   1.912   5.402
 1954SOL     OW 6760   6.881   0.736   2.704
 1954SOL    HW1 6761   6.809   0.668   2.713
 1954SOL    HW2 6762   6.965   0.703   2.747
 1955SOL     OW 6763   0.124   1.118   2.353
 1955SOL    HW1 6764   0.124   1.210   2.315
 1955SOL    HW2 6765   0.073   1.118   2.439
 1956SOL     OW 6766   5.139   0.164   2.268
 1956SOL    HW1 6767   5.064   0.131   2.326
 1956SOL    HW2 6768   5.182   0.243   2.311
 1957SOL     OW 6769   5.822   4.060   4.312
 1957SOL    HW1 6770   5.742   4.087   4.259
 1957SOL    HW2 6771   5.846   4.133   4.376
 1958SOL     OW 6772   4.844   1.640   2.056
 1958SOL    HW1 6773   4.858   1.735   2.086
 1958SOL    HW2 6774   4.789   1.591   2.124
 1959SOL     OW 6775   1.244   0.157   4.218
 1959SOL    HW1 6776   1.242   0.081   4.152
 1959SOL    HW2 6777   1.316   0.221   4.192
 1960SOL     OW 6778   7.001   4.664   1.822
 1960SOL    HW1 6779   7.013   4.667   1.723
 1960SOL    HW2 6780   6.927   4.602   1.845
 1961SOL     OW 6781   5.898   4.327   4.164
 1961SOL    HW1 6782   5.907   4.289   4.256
 1961SOL    HW2 6783   5.982   4.375   4.138
 1962SOL     OW 6784   1.081   6.570   3.151
 1962SOL    HW1 6785   1.070   6.632   3.073
 1962SOL    HW2 6786   1.013   6.497   3.144
 1963SOL     OW 6787   0.957   1.848   1.223
 1963SOL    HW1 6788   1.031   1.798   1.177
 1963SOL    HW2 6789   0.991   1.937   1.253
 1964SOL     OW 6790   4.817   4.367   1.265
 1964SOL    HW1 6791   4.813   4.460   1.302
 1964SOL    HW2 6792   4.747   4.357   1.194
 1965SOL     OW 6793   2.045   2.749   4.768
 1965SOL    HW1 6794   2.098   2.831   4.745
 1965SOL    HW2 6795   1.948   2.767   4.751
 1966SOL     OW 6796   0.416   6.243   0.566
 1966SOL    HW1 6797   0.474   6.168   0.533
 1966SOL    HW2 6798   0.403   6.235   0.665
 1967SOL     OW 6799   5.424   2.699   5.607
 1967SOL    HW1 6800   5.410   2.693   5.508
 1967SOL    HW2 6801   5.395   2.789   5.639
 1968SOL     OW 6802   1.446   6.759   5.331
 1968SOL    HW1 6803   1.396   6.757   5.417
 1968SOL    HW2 6804   1.385   6.788   5.257
 1969SOL     OW 6805   1.339   1.632   1.251
 1969SOL    HW1 6806   1.325   1.712   1.191
 1969SOL    HW2 6807   1.433   1.601   1.243
 1970SOL     OW 6808   2.823   6.430   6.323
 1970SOL    HW1 6809   2.832   6.414   6.421
 1970SOL    HW2 6810   2.734   6.394   6.292
 1971SOL     OW 6811   0.717   0.161   5.733
 1971SOL    HW1 6812   0.757   0.118   5.814
 1971SOL    HW2 6813   0.778   0.149   5.655
 1972SOL     OW 6814   5.562   2.040   2.292
 1972SOL    HW1 6815   5.469   2.010   2.274
 1972SOL    HW2 6816   5.626   1.988   2.235
 1973SOL     OW 6817   3.318   2.933   0.260
 1973SOL    HW1 6818   3.266   3.018   0.256
 1973SOL    HW2 6819   3.345   2.906   0.167
 1974SOL     OW 6820   5.557   6.705   4.823
 1974SOL    HW1 6821   5.519   6.657   4.743
 1974SOL    HW2 6822   5.583   6.638   4.892
 1975SOL     OW 6823   1.608   1.703   3.900
 1975SOL    HW1 6824   1.537   1.697   3.971
 1975SOL    HW2 6825   1.648   1.795   3.902
 1976SOL     OW 6826   6.819   0.023   0.290
 1976SOL    HW1 6827   6.805   7.003   0.200
 1976SOL    HW2 6828   6.755   0.099   0.300
 1977SOL     OW 6829   1.853   3.088   5.038
 1977SOL    HW1 6830   1.831   3.010   5.096
 1977SOL    HW2 6831   1.846   3.061   4.942
 1978SOL     OW 6832   1.691   6.175   3.137
 1978SOL    HW1 6833   1.705   6.128   3.224
 1978SOL    HW2 6834   1.772   6.227   3.113
 1979SOL     OW 6835   6.036   4.081   6.550
 1979SOL    HW1 6836   5.956   4.102   6.606
 1979SOL    HW2 6837   6.092   4.011   6.594
 1980SOL     OW 6838   3.764   6.892   4.775
 1980SOL    HW1 6839   3.715   6.834   4.711
 1980SOL    HW2 6840   3.722   6.885   4.866
 1981SOL     OW 6841   0.029   2.750   2.131
 1981SOL    HW1 6842   0.089   2.672   2.151
 1981SOL    HW2 6843   0.082   2.834   2.131
 1982SOL     OW 6844   0.806   4.125   4.192
 1982SOL    HW1 6845   0.710   4.146   4.212
 1982SOL    HW2 6846   0.811   4.046   4.131
 1983SOL     OW 6847   0.601   1.037   2.777
 1983SOL    HW1 6848   0.621   1.105   2.847
 1983SOL    HW2 6849   0.678   0.974   2.768
 1984SOL     OW 6850   4.591   1.980   4.865
 1984SOL    HW1 6851   4.578   2.066   4.815
 1984SOL    HW2 6852   4.550   1.989   4.956
 1985SOL     OW 6853   1.102   6.439   2.639
 1985SOL    HW1 6854   1.189   6.392   2.627
 1985SOL    HW2 6855   1.119   6.537   2.655
 1986SOL     OW 6856   2.596   0.845   0.006
 1986SOL    HW1 6857   2.619   0.937   6.995
 1986SOL    HW2 6858   2.497   0.837   0.014
 1987SOL     OW 6859   1.817   2.157   2.690
 1987SOL    HW1 6860   1.861   2.231   2.740
 1987SOL    HW2 6861   1.804   2.184   2.595
 1988SOL     OW 6862   6.024   3.356   0.535
 1988SOL    HW1 6863   6.009   3.440   0.485
 1988SOL    HW2 6864   6.107   3.311   0.501
 1989SOL     OW 6865   2.018   5.261   5.061
 1989SOL    HW1 6866   2.051   5.225   5.148
 1989SOL    HW2 6867   2.087   5.324   5.023
 1990SOL     OW 6868   3.914   5.739   0.677
 1990SOL    HW1 6869   3.912   5.813   0.744
 1990SOL    HW2 6870   3.966   5.662   0.714
 1991SOL     OW 6871   2.875   5.261   6.876
 1991SOL    HW1 6872   2.785   5.232   6.908
 1991SOL    HW2 6873   2.864   5.333   6.807
 1992SOL     OW 6874   0.525   1.077   0.156
 1992SOL    HW1 6875   0.483   1.068   0.065
 1992SOL    HW2 6876   0.578   1.162   0.160
 1993SOL     OW 6877   3.571   2.396   5.343
 1993SOL    HW1 6878   3.494   2.460   5.343
 1993SOL    HW2 6879   3.625   2.409   5.426
 1994SOL     OW 6880   0.733   1.659   0.106
 1994SOL    HW1 6881   0.803   1.653   0.035
 1994SOL    HW2 6882   0.775   1.687   0.192
 1995SOL     OW 6883   5.259   2.652   3.802
 1995SOL    HW1 6884   5.228   2.559   3.822
 1995SOL    HW2 6885   5.180   2.710   3.782
 1996SOL     OW 6886   2.089   2.671   0.388
 1996SOL    HW1 6887   1.993   2.691   0.409
 1996SOL    HW2 6888   2.098   2.656   0.289
 1997SOL     OW 6889   3.184   1.908   4.894
 1997SOL    HW1 6890   3.140   1.834   4.843
 1997SOL    HW2 6891   3.172   1.994   4.844
 1998SOL     OW 6892   2.946   3.809   0.216
 1998SOL    HW1 6893   2.859   3.764   0.200
 1998SOL    HW2 6894   3.010   3.787   0.142
 1999SOL     OW 6895   2.363   6.485   6.270
 1999SOL    HW1 6896   2.373   6.547   6.348
 1999SOL    HW2 6897   2.441   6.495   6.210
 2000SOL     OW 6898   4.290   2.704   5.344
 2000SOL    HW1 6899   4.219   2.635   5.326
 2000SOL    HW2 6900   4.248   2.786   5.383
 2001SOL     OW 6901   2.693   0.404   1.797
 2001SOL    HW1 6902   2.677   0.305   1.788
 2001SOL    HW2 6903   2.721   0.441   1.708
 2002SOL     OW 6904   0.600   4.744   0.330
 2002SOL    HW1 6905   0.682   4.702   0.369
 2002SOL    HW2 6906   0.589   4.836   0.367
 2003SOL     OW 6907   5.709   5.261   2.734
 2003SOL    HW1 6908   5.683   5.184   2.677
 2003SOL    HW2 6909   5.801   5.292   2.708
 2004SOL     OW 6910   5.055   1.325   4.750
 2004SOL    HW1 6911   4.964   1.311   4.712
 2004SOL    HW2 6912   5.087   1.417   4.728
 2005SOL     OW 6913   6.910   5.373   0.064
 2005SOL    HW1 6914   6.926   5.351   0.160
 2005SOL    HW2 6915   6.993   5.414   0.025
 2006SOL     OW 6916   5.680   6.812   3.360
 2006SOL    HW1 6917   5.678   6.714   3.337
 2006SOL    HW2 6918   5.718   6.824   3.451
 2007SOL     OW 6919   4.425   4.567   1.021
 2007SOL    HW1 6920   4.347   4.515   1.055
 2007SOL    HW2 6921   4.415   4.581   0.922
 2008SOL     OW 6922   2.043   4.263   3.958
 2008SOL    HW1 6923   2.143   4.266   3.965
 2008SOL    HW2 6924   2.017   4.183   3.904
 2009SOL     OW 6925   5.450   0.456   2.541
 2009SOL    HW1 6926   5.534   0.438   2.592
 2009SOL    HW2 6927   5.472   0.477   2.446
 2010SOL     OW 6928   2.560   1.937   2.208
 2010SOL    HW1 6929   2.617   1.906   2.285
 2010SOL    HW2 6930   2.555   2.037   2.209
 2011SOL     OW 6931   6.883   6.877   4.772
 2011SOL    HW1 6932   6.817   6.817   4.726
 2011SOL    HW2 6933   6.970   6.829   4.784
 2012SOL     OW 6934   1.159   4.547   1.987
 2012SOL    HW1 6935   1.173   4.542   2.086
 2012SOL    HW2 6936   1.070   4.509   1.963
 2013SOL     OW 6937   6.234   2.795   3.435
 2013SOL    HW1 6938   6.263   2.878   3.483
 2013SOL    HW2 6939   6.275   2.716   3.479
 2014SOL     OW 6940   2.447   6.261   3.491
 2014SOL    HW1 6941   2.417   6.356   3.486
 2014SOL    HW2 6942   2.460   6.225   3.399
 2015SOL     OW 6943   1.625   0.838   0.081
 2015SOL    HW1 6944   1.558   0.765   0.069
 2015SOL    HW2 6945   1.712   0.809   0.041
 2016SOL     OW 6946   1.871   5.966   5.946
 2016SOL    HW1 6947   1.896   5.897   5.878
 2016SOL    HW2 6948   1.902   5.936   6.037
 2017SOL     OW 6949   3.732   6.991   4.336
 2017SOL    HW1 6950   3.744   6.973   4.238
 2017SOL    HW2 6951   3.813   0.015   4.371
 2018SOL     OW 6952   5.144   1.939   4.608
 2018SOL    HW1 6953   5.093   1.932   4.523
 2018SOL    HW2 6954   5.147   2.034   4.638
 2019SOL     OW 6955   5.069   3.292   6.309
 2019SOL    HW1 6956   5.154   3.243   6.293
 2019SOL    HW2 6957   5.056   3.362   6.239
 2020SOL     OW 6958   1.744   0.230   5.095
 2020SOL    HW1 6959   1.669   0.292   5.120
 2020SOL    HW2 6960   1.730   0.141   5.139
 2021SOL     OW 6961   0.531   6.156   5.003
 2021SOL    HW1 6962   0.579   6.086   5.054
 2021SOL    HW2 6963   0.578   6.243   5.013
 2022SOL     OW 6964   1.553   4.343   3.190
 2022SOL    HW1 6965   1.588   4.435   3.208
 2022SOL    HW2 6966   1.473   4.349   3.130
 2023SOL     OW 6967   0.158   0.536   6.732
 2023SOL    HW1 6968   0.123   0.585   6.652
 2023SOL    HW2 6969   0.224   0.594   6.780
 2024SOL     OW 6970   0.395   6.252   3.404
 2024SOL    HW1 6971   0.343   6.243   3.489
 2024SOL    HW2 6972   0.426   6.162   3.374
 2025SOL     OW 6973   3.113   1.174   3.733
 2025SOL    HW1 6974   3.174   1.211   3.663
 2025SOL    HW2 6975   3.091   1.079   3.712
 2026SOL     OW 6976   6.589   3.163   5.469
 2026SOL    HW1 6977   6.603   3.256   5.437
 2026SOL    HW2 6978   6.579   3.102   5.391
 2027SOL     OW 6979   1.426   0.064   0.538
 2027SOL    HW1 6980   1.457   0.130   0.469
 2027SOL    HW2 6981   1.348   0.103   0.587
 2028SOL     OW 6982   2.602   6.079   4.579
 2028SOL    HW1 6983   2.540   6.062   4.502
 2028SOL    HW2 6984   2.627   6.176   4.580
 2029SOL     OW 6985   5.915   1.349   0.046
 2029SOL    HW1 6986   6.008   1.328   0.015
 2029SOL    HW2 6987   5.902   1.449   0.045
 2030SOL     OW 6988   2.969   0.790   3.918
 2030SOL    HW1 6989   2.991   0.833   4.006
 2030SOL    HW2 6990   2.874   0.759   3.919
 2031SOL     OW 6991   6.626   5.694   1.179
 2031SOL    HW1 6992   6.641   5.596   1.176
 2031SOL    HW2 6993   6.695   5.736   1.238
 2032SOL     OW 6994   4.737   0.567   2.056
 2032SOL    HW1 6995   4.751   0.664   2.034
 2032SOL    HW2 6996   4.822   0.516   2.041
 2033SOL     OW 6997   3.621   2.997   6.260
 2033SOL    HW1 6998   3.630   2.972   6.356
 2033SOL    HW2 6999   3.652   2.921   6.203
 2034SOL     OW 7000   2.339   5.418   5.543
 2034SOL    HW1 7001   2.371   5.328   5.515
 2034SOL    HW2 7002   2.418   5.476   5.565
 2035SOL     OW 7003   6.959   6.441   3.531
 2035SOL    HW1 7004   6.996   6.358   3.574
 2035SOL    HW2 7005   6.913   6.496   3.599
 2036SOL     OW 7006   1.021   4.142   2.864
 2036SOL    HW1 7007   0.992   4.080   2.792
 2036SOL    HW2 7008   1.117   4.124   2.886
 2037SOL     OW 7009   6.250   3.249   5.925
 2037SOL    HW1 7010   6.288   3.227   6.015
 2037SOL    HW2 7011   6.323   3.247   5.856
 2038SOL     OW 7012   2.083   1.858   0.110
 2038SOL    HW1 7013   2.063   1.808   0.025
 2038SOL    HW2 7014   2.172   1.829   0.145
 2039SOL     OW 7015   0.215   5.342   3.839
 2039SOL    HW1 7016   0.291   5.359   3.775
 2039SOL    HW2 7017   0.150   5.278   3.797
 2040SOL     OW 7018   2.536   3.141   5.805
 2040SOL    HW1 7019   2.576   3.138   5.713
 2040SOL    HW2 7020   2.444   3.103   5.802
 2041SOL     OW 7021   1.107   6.537   5.951
 2041SOL    HW1 7022   1.149   6.505   6.036
 2041SOL    HW2 7023   1.008   6.534   5.961
 2042SOL     OW 7024   4.808   6.371   6.735
 2042SOL    HW1 7025   4.772   6.296   6.790
 2042SOL    HW2 7026   4.732   6.422   6.694
 2043SOL     OW 7027   6.282   3.923   3.097
 2043SOL    HW1 7028   6.243   3.967   3.016
 2043SOL    HW2 7029   6.367   3.970   3.122
 2044SOL     OW 7030   6.945   0.465   1.660
 2044SOL    HW1 7031   6.913   0.489   1.752
 2044SOL    HW2 7032   7.022   0.401   1.667
 2045SOL     OW 7033   1.474   4.931   4.360
 2045SOL    HW1 7034   1.550   4.942   4.295
 2045SOL    HW2 7035   1.486   4.996   4.435
 2046SOL     OW 7036   6.728   1.906   4.419
 2046SOL    HW1 7037   6.765   1.865   4.336
 2046SOL    HW2 7038   6.668   1.840   4.464
 2047SOL     OW 7039   0.170   2.830   0.131
 2047SOL    HW1 7040   0.071   2.817   0.122
 2047SOL    HW2 7041   0.192   2.927   0.120
 2048SOL     OW 7042   1.468   6.495   6.130
 2048SOL    HW1 7043   1.481   6.588   6.097
 2048SOL    HW2 7044   1.480   6.431   6.054
 2049SOL     OW 7045   5.901   1.464   4.272
 2049SOL    HW1 7046   5.844   1.396   4.226
 2049SOL    HW2 7047   5.865   1.555   4.254
 2050SOL     OW 7048   6.035   2.780   4.254
 2050SOL    HW1 7049   6.099   2.763   4.179
 2050SOL    HW2 7050   5.941   2.772   4.220
 2051SOL     OW 7051   1.255   6.083   0.043
 2051SOL    HW1 7052   1.287   5.997   0.004
 2051SOL    HW2 7053   1.268   6.082   0.142
 2052SOL     OW 7054   1.973   3.020   1.430
 2052SOL    HW1 7055   2.049   3.012   1.366
 2052SOL    HW2 7056   2.007   3.051   1.519
 2053SOL     OW 7057   6.635   6.000   4.620
 2053SOL    HW1 7058   6.582   6.078   4.653
 2053SOL    HW2 7059   6.659   5.941   4.698
 2054SOL     OW 7060   3.294   4.083   3.526
 2054SOL    HW1 7061   3.383   4.120   3.553
 2054SOL    HW2 7062   3.233   4.082   3.605
 2055SOL     OW 7063   5.834   3.360   3.963
 2055SOL    HW1 7064   5.759   3.425   3.973
 2055SOL    HW2 7065   5.901   3.396   3.897
 2056SOL     OW 7066   4.235   5.995   1.445
 2056SOL    HW1 7067   4.269   5.910   1.486
 2056SOL    HW2 7068   4.161   6.032   1.501
 2057SOL     OW 7069   5.380   4.074   6.007
 2057SOL    HW1 7070   5.437   4.073   6.089
 2057SOL    HW2 7071   5.407   3.999   5.946
 2058SOL     OW 7072   0.256   0.500   3.345
 2058SOL    HW1 7073   0.333   0.534   3.399
 2058SOL    HW2 7074   0.175   0.491   3.404
 2059SOL     OW 7075   1.671   5.908   6.229
 2059SOL    HW1 7076   1.727   5.840   6.275
 2059SOL    HW2 7077   1.659   5.987   6.289
 2060SOL     OW 7078   0.570   4.036   1.373
 2060SOL    HW1 7079   0.597   3.972   1.300
 2060SOL    HW2 7080   0.484   4.004   1.414
 2061SOL     OW 7081   1.281   2.049   2.457
 2061SOL    HW1 7082   1.327   1.981   2.400
 2061SOL    HW2 7083   1.210   2.005   2.512
 2062SOL     OW 7084   6.962   4.865   4.973
 2062SOL    HW1 7085   6.992   4.824   5.059
 2062SOL    HW2 7086   6.881   4.922   4.989
 2063SOL     OW 7087   1.129   6.495   5.309
 2063SOL    HW1 7088   1.162   6.443   5.388
 2063SOL    HW2 7089   1.091   6.582   5.340
 2064SOL     OW 7090   6.770   2.359   4.615
 2064SOL    HW1 7091   6.777   2.338   4.517
 2064SOL    HW2 7092   6.831   2.435   4.638
 2065SOL     OW 7093   5.897   2.545   5.542
 2065SOL    HW1 7094   5.805   2.513   5.567
 2065SOL    HW2 7095   5.912   2.635   5.582
 2066SOL     OW 7096   0.197   4.800   5.135
 2066SOL    HW1 7097   0.116   4.810   5.193
 2066SOL    HW2 7098   0.174   4.741   5.057
 2067SOL     OW 7099   7.013   5.365   0.600
 2067SOL    HW1 7100   7.012   5.321   0.690
 2067SOL    HW2 7101   6.942   5.436   0.598
 2068SOL     OW 7102   2.093   0.309   4.557
 2068SOL    HW1 7103   2.006   0.261   4.549
 2068SOL    HW2 7104   2.161   0.264   4.499
 2069SOL     OW 7105   6.537   2.932   4.119
 2069SOL    HW1 7106   6.476   2.900   4.191
 2069SOL    HW2 7107   6.494   2.915   4.030
 2070SOL     OW 7108   1.102   1.454   0.562
 2070SOL    HW1 7109   1.131   1.363   0.591
 2070SOL    HW2 7110   1.139   1.523   0.624
 2071SOL     OW 7111   5.782   0.524   5.746
 2071SOL    HW1 7112   5.805   0.598   5.682
 2071SOL    HW2 7113   5.693   0.543   5.787
 2072SOL     OW 7114   4.411   5.280   4.619
 2072SOL    HW1 7115   4.489   5.219   4.633
 2072SOL    HW2 7116   4.333   5.248   4.672
 2073SOL     OW 7117   4.638   6.723   5.042
 2073SOL    HW1 7118   4.599   6.648   5.095
 2073SOL    HW2 7119   4.717   6.760   5.091
 2074SOL     OW 7120   2.173   2.037   6.346
 2074SOL    HW1 7121   2.195   2.010   6.440
 2074SOL    HW2 7122   2.258   2.050   6.295
 2075SOL     OW 7123   0.095   2.643   3.322
 2075SOL    HW1 7124   0.132   2.713   3.383
 2075SOL    HW2 7125   0.071   2.561   3.375
 2076SOL     OW 7126   5.151   6.690   6.061
 2076SOL    HW1 7127   5.194   6.778   6.042
 2076SOL    HW2 7128   5.058   6.705   6.093
 2077SOL     OW 7129   6.744   2.160   2.474
 2077SOL    HW1 7130   6.765   2.083   2.534
 2077SOL    HW2 7131   6.821   2.223   2.473
 2078SOL     OW 7132   1.888   5.369   6.419
 2078SOL    HW1 7133   1.812   5.433   6.433
 2078SOL    HW2 7134   1.901   5.354   6.321
 2079SOL     OW 7135   7.005   2.139   3.098
 2079SOL    HW1 7136   6.916   2.100   3.076
 2079SOL    HW2 7137   0.038   2.071   3.147
 2080SOL     OW 7138   1.787   0.648   4.812
 2080SOL    HW1 7139   1.705   0.615   4.766
 2080SOL    HW2 7140   1.806   0.590   4.891
 2081SOL     OW 7141   0.925   6.267   4.632
 2081SOL    HW1 7142   1.023   6.268   4.648
 2081SOL    HW2 7143   0.901   6.335   4.562
 2082SOL     OW 7144   0.831   6.848   3.079
 2082SOL    HW1 7145   0.743   6.827   3.036
 2082SOL    HW2 7146   0.836   6.801   3.167
 2083SOL     OW 7147   1.274   5.396   5.931
 2083SOL    HW1 7148   1.210   5.430   6.001
 2083SOL    HW2 7149   1.368   5.413   5.961
 2084SOL     OW 7150   0.706   4.304   2.738
 2084SOL    HW1 7151   0.796   4.274   2.708
 2084SOL    HW2 7152   0.715   4.379   2.803
 2085SOL     OW 7153   4.904   0.911   0.784
 2085SOL    HW1 7154   4.965   0.983   0.751
 2085SOL    HW2 7155   4.815   0.949   0.805
 2086SOL     OW 7156   3.607   6.411   6.441
 2086SOL    HW1 7157   3.603   6.330   6.500
 2086SOL    HW2 7158   3.669   6.478   6.480
 2087SOL     OW 7159   5.303   1.400   1.997
 2087SOL    HW1 7160   5.227   1.463   2.013
 2087SOL    HW2 7161   5.358   1.433   1.920
 2088SOL     OW 7162   1.370   5.825   6.998
 2088SOL    HW1 7163   1.469   5.831   6.985
 2088SOL    HW2 7164   1.327   5.794   6.913
 2089SOL     OW 7165   4.763   2.835   6.394
 2089SOL    HW1 7166   4.664   2.833   6.381
 2089SOL    HW2 7167   4.785   2.878   6.481
 2090SOL     OW 7168   4.202   3.317   5.889
 2090SOL    HW1 7169   4.275   3.296   5.825
 2090SOL    HW2 7170   4.242   3.339   5.979
 2091SOL     OW 7171   6.528   4.878   0.449
 2091SOL    HW1 7172   6.575   4.945   0.393
 2091SOL    HW2 7173   6.465   4.924   0.511
 2092SOL     OW 7174   5.449   3.580   0.740
 2092SOL    HW1 7175   5.453   3.490   0.783
 2092SOL    HW2 7176   5.524   3.589   0.674
 2093SOL     OW 7177   3.069   2.314   1.690
 2093SOL    HW1 7178   3.164   2.345   1.686
 2093SOL    HW2 7179   3.028   2.343   1.777
 2094SOL     OW 7180   5.700   1.382   1.596
 2094SOL    HW1 7181   5.626   1.374   1.529
 2094SOL    HW2 7182   5.666   1.355   1.686
 2095SOL     OW 7183   6.304   6.350   5.114
 2095SOL    HW1 7184   6.399   6.323   5.101
 2095SOL    HW2 7185   6.290   6.442   5.078
 2096SOL     OW 7186   4.848   5.043   3.469
 2096SOL    HW1 7187   4.780   4.972   3.450
 2096SOL    HW2 7188   4.811   5.109   3.533
 2097SOL     OW 7189   3.214   2.665   6.236
 2097SOL    HW1 7190   3.240   2.571   6.258
 2097SOL    HW2 7191   3.218   2.721   6.318
 2098SOL     OW 7192   4.842   5.905   1.859
 2098SOL    HW1 7193   4.821   5.913   1.761
 2098SOL    HW2 7194   4.815   5.814   1.891
 2099SOL     OW 7195   3.762   1.704   6.916
 2099SOL    HW1 7196   3.683   1.748   6.959
 2099SOL    HW2 7197   3.734   1.661   6.830
 2100SOL     OW 7198   5.680   1.557   0.703
 2100SOL    HW1 7199   5.609   1.591   0.765
 2100SOL    HW2 7200   5.719   1.473   0.740
 2101SOL     OW 7201   0.559   6.776   1.230
 2101SOL    HW1 7202   0.506   6.693   1.247
 2101SOL    HW2 7203   0.498   6.848   1.197
 2102SOL     OW 7204   5.187   4.434   2.262
 2102SOL    HW1 7205   5.274   4.483   2.252
 2102SOL    HW2 7206   5.202   4.336   2.248
 2103SOL     OW 7207   3.433   3.418   6.952
 2103SOL    HW1 7208   3.393   3.478   6.883
 2103SOL    HW2 7209   3.532   3.426   6.950
 2104SOL     OW 7210   1.881   4.666   2.296
 2104SOL    HW1 7211   1.835   4.666   2.385
 2104SOL    HW2 7212   1.848   4.588   2.242
 2105SOL     OW 7213   4.620   4.335   6.233
 2105SOL    HW1 7214   4.530   4.332   6.190
 2105SOL    HW2 7215   4.667   4.248   6.220
 2106SOL     OW 7216   5.652   3.623   1.227
 2106SOL    HW1 7217   5.630   3.707   1.276
 2106SOL    HW2 7218   5.587   3.610   1.153
 2107SOL     OW 7219   6.533   2.333   5.536
 2107SOL    HW1 7220   6.522   2.237   5.512
 2107SOL    HW2 7221   6.596   2.377   5.471
 2108SOL     OW 7222   5.976   5.062   5.502
 2108SOL    HW1 7223   6.020   5.089   5.588
 2108SOL    HW2 7224   6.014   5.116   5.427
 2109SOL     OW 7225   3.775   6.403   2.651
 2109SOL    HW1 7226   3.823   6.438   2.570
 2109SOL    HW2 7227   3.797   6.306   2.663
 2110SOL     OW 7228   3.002   1.006   0.642
 2110SOL    HW1 7229   3.088   1.035   0.601
 2110SOL    HW2 7230   2.927   1.061   0.604
 2111SOL     OW 7231   2.040   3.133   6.608
 2111SOL    HW1 7232   2.077   3.174   6.524
 2111SOL    HW2 7233   1.992   3.203   6.661
 2112SOL     OW 7234   5.542   1.972   0.720
 2112SOL    HW1 7235   5.457   1.968   0.668
 2112SOL    HW2 7236   5.567   2.068   0.736
 2113SOL     OW 7237   2.283   0.938   5.336
 2113SOL    HW1 7238   2.206   0.952   5.398
 2113SOL    HW2 7239   2.295   0.840   5.320
 2114SOL     OW 7240   2.471   1.705   6.766
 2114SOL    HW1 7241   2.407   1.768   6.810
 2114SOL    HW2 7242   2.420   1.630   6.724
 2115SOL     OW 7243   0.473   4.358   2.205
 2115SOL    HW1 7244   0.507   4.271   2.241
 2115SOL    HW2 7245   0.380   4.346   2.171
 2116SOL     OW 7246   1.009   3.940   2.387
 2116SOL    HW1 7247   1.051   3.979   2.305
 2116SOL    HW2 7248   0.975   3.848   2.367
 2117SOL     OW 7249   6.073   4.312   1.422
 2117SOL    HW1 7250   6.090   4.229   1.369
 2117SOL    HW2 7251   6.127   4.310   1.505
 2118SOL     OW 7252   6.260   3.749   3.294
 2118SOL    HW1 7253   6.275   3.827   3.232
 2118SOL    HW2 7254   6.284   3.664   3.246
 2119SOL     OW 7255   1.974   0.239   0.848
 2119SOL    HW1 7256   1.922   0.209   0.928
 2119SOL    HW2 7257   1.954   0.178   0.770
 2120SOL     OW 7258   0.718   4.120   2.958
 2120SOL    HW1 7259   0.688   4.174   2.880
 2120SOL    HW2 7260   0.787   4.054   2.928
 2121SOL     OW 7261   1.690   2.547   5.442
 2121SOL    HW1 7262   1.751   2.517   5.515
 2121SOL    HW2 7263   1.660   2.468   5.389
 2122SOL     OW 7264   5.975   5.665   6.421
 2122SOL    HW1 7265   5.962   5.638   6.325
 2122SOL    HW2 7266   5.951   5.761   6.431
 2123SOL     OW 7267   6.570   5.407   1.648
 2123SOL    HW1 7268   6.511   5.459   1.711
 2123SOL    HW2 7269   6.658   5.454   1.639
 2124SOL     OW 7270   3.049   1.614   0.282
 2124SOL    HW1 7271   2.962   1.612   0.332
 2124SOL    HW2 7272   3.125   1.602   0.346
 2125SOL     OW 7273   1.379   6.297   2.276
 2125SOL    HW1 7274   1.356   6.270   2.370
 2125SOL    HW2 7275   1.472   6.268   2.255
 2126SOL     OW 7276   3.567   2.489   6.535
 2126SOL    HW1 7277   3.607   2.420   6.474
 2126SOL    HW2 7278   3.567   2.578   6.489
 2127SOL     OW 7279   0.506   1.662   5.967
 2127SOL    HW1 7280   0.454   1.637   5.886
 2127SOL    HW2 7281   0.596   1.696   5.939
 2128SOL     OW 7282   6.566   2.970   2.687
 2128SOL    HW1 7283   6.518   2.912   2.754
 2128SOL    HW2 7284   6.656   2.932   2.668
 2129SOL     OW 7285   5.082   4.178   4.814
 2129SOL    HW1 7286   5.038   4.103   4.863
 2129SOL    HW2 7287   5.071   4.164   4.715
 2130SOL     OW 7288   3.092   0.253   2.296
 2130SOL    HW1 7289   3.014   0.288   2.347
 2130SOL    HW2 7290   3.090   0.153   2.296
 2131SOL     OW 7291   4.981   1.624   0.930
 2131SOL    HW1 7292   5.075   1.603   0.907
 2131SOL    HW2 7293   4.956   1.714   0.894
 2132SOL     OW 7294   3.124   1.978   6.707
 2132SOL    HW1 7295   3.126   1.882   6.680
 2132SOL    HW2 7296   3.201   2.026   6.664
 2133SOL     OW 7297   3.615   2.930   1.374
 2133SOL    HW1 7298   3.563   2.861   1.324
 2133SOL    HW2 7299   3.562   3.014   1.380
 2134SOL     OW 7300   0.546   0.862   4.461
 2134SOL    HW1 7301   0.635   0.817   4.462
 2134SOL    HW2 7302   0.514   0.869   4.367
 2135SOL     OW 7303   0.617   1.681   4.385
 2135SOL    HW1 7304   0.635   1.760   4.443
 2135SOL    HW2 7305   0.702   1.652   4.340
 2136SOL     OW 7306   1.094   3.916   4.792
 2136SOL    HW1 7307   1.131   4.000   4.752
 2136SOL    HW2 7308   1.065   3.934   4.886
 2137SOL     OW 7309   7.002   6.158   4.620
 2137SOL    HW1 7310   6.924   6.163   4.557
 2137SOL    HW2 7311   0.029   6.072   4.605
 2138SOL     OW 7312   6.888   1.319   1.268
 2138SOL    HW1 7313   6.931   1.333   1.358
 2138SOL    HW2 7314   6.791   1.302   1.281
 2139SOL     OW 7315   3.723   0.600   2.792
 2139SOL    HW1 7316   3.697   0.668   2.723
 2139SOL    HW2 7317   3.785   0.642   2.857
 2140SOL     OW 7318   2.987   5.454   3.114
 2140SOL    HW1 7319   2.968   5.372   3.060
 2140SOL    HW2 7320   3.014   5.529   3.053
 2141SOL     OW 7321   6.777   4.105   0.837
 2141SOL    HW1 7322   6.848   4.112   0.766
 2141SOL    HW2 7323   6.820   4.103   0.927
 2142SOL     OW 7324   1.214   2.063   2.931
 2142SOL    HW1 7325   1.285   1.999   2.960
 2142SOL    HW2 7326   1.245   2.113   2.850
 2143SOL     OW 7327   3.382   5.199   1.397
 2143SOL    HW1 7328   3.371   5.232   1.303
 2143SOL    HW2 7329   3.297   5.213   1.448
 2144SOL     OW 7330   1.196   6.484   3.430
 2144SOL    HW1 7331   1.209   6.501   3.333
 2144SOL    HW2 7332   1.217   6.567   3.482
 2145SOL     OW 7333   3.581   6.158   4.282
 2145SOL    HW1 7334   3.499   6.211   4.257
 2145SOL    HW2 7335   3.603   6.095   4.208
 2146SOL     OW 7336   2.973   3.283   1.964
 2146SOL    HW1 7337   2.918   3.359   1.998
 2146SOL    HW2 7338   2.995   3.221   2.040
 2147SOL     OW 7339   0.019   0.804   6.806
 2147SOL    HW1 7340   0.024   0.903   6.793
 2147SOL    HW2 7341   6.987   0.784   6.888
 2148SOL     OW 7342   5.184   2.722   4.075
 2148SOL    HW1 7343   5.259   2.688   4.018
 2148SOL    HW2 7344   5.159   2.814   4.045
 2149SOL     OW 7345   3.872   1.093   1.566
 2149SOL    HW1 7346   3.900   1.163   1.632
 2149SOL    HW2 7347   3.895   1.003   1.601
 2150SOL     OW 7348   2.072   2.526   2.525
 2150SOL    HW1 7349   1.977   2.541   2.554
 2150SOL    HW2 7350   2.082   2.433   2.490
 2151SOL     OW 7351   1.752   1.502   3.785
 2151SOL    HW1 7352   1.716   1.576   3.842
 2151SOL    HW2 7353   1.680   1.470   3.723
 2152SOL     OW 7354   3.724   5.927   1.193
 2152SOL    HW1 7355   3.753   6.020   1.171
 2152SOL    HW2 7356   3.719   5.916   1.293
 2153SOL     OW 7357   3.692   6.994   2.900
 2153SOL    HW1 7358   3.749   0.048   2.929
 2153SOL    HW2 7359   3.661   6.943   2.980
 2154SOL     OW 7360   5.059   0.642   4.416
 2154SOL    HW1 7361   5.027   0.561   4.466
 2154SOL    HW2 7362   5.145   0.674   4.456
 2155SOL     OW 7363   2.067   5.416   0.586
 2155SOL    HW1 7364   2.005   5.373   0.520
 2155SOL    HW2 7365   2.049   5.514   0.589
 2156SOL     OW 7366   2.567   0.699   2.816
 2156SOL    HW1 7367   2.512   0.664   2.741
 2156SOL    HW2 7368   2.662   0.670   2.804
 2157SOL     OW 7369   6.234   1.056   3.118
 2157SOL    HW1 7370   6.329   1.075   3.142
 2157SOL    HW2 7371   6.218   1.077   3.022
 2158SOL     OW 7372   4.274   6.350   0.886
 2158SOL    HW1 7373   4.341   6.417   0.917
 2158SOL    HW2 7374   4.182   6.383   0.905
 2159SOL     OW 7375   2.316   5.810   5.667
 2159SOL    HW1 7376   2.335   5.768   5.578
 2159SOL    HW2 7377   2.341   5.747   5.740
 2160SOL     OW 7378   4.663   3.458   1.379
 2160SOL    HW1 7379   4.728   3.402   1.430
 2160SOL    HW2 7380   4.708   3.494   1.297
 2161SOL     OW 7381   5.491   3.133   3.761
 2161SOL    HW1 7382   5.568   3.073   3.746
 2161SOL    HW2 7383   5.459   3.123   3.856
 2162SOL     OW 7384   3.020   0.690   0.129
 2162SOL    HW1 7385   3.090   0.626   0.098
 2162SOL    HW2 7386   3.062   0.772   0.166
 2163SOL     OW 7387   0.482   5.235   6.113
 2163SOL    HW1 7388   0.523   5.157   6.065
 2163SOL    HW2 7389   0.386   5.245   6.084
 2164SOL     OW 7390   1.609   2.136   0.322
 2164SOL    HW1 7391   1.631   2.063   0.257
 2164SOL    HW2 7392   1.510   2.142   0.333
 2165SOL     OW 7393   1.046   1.618   2.449
 2165SOL    HW1 7394   1.060   1.603   2.351
 2165SOL    HW2 7395   0.951   1.595   2.473
 2166SOL     OW 7396   2.341   1.920   5.471
 2166SOL    HW1 7397   2.365   1.898   5.376
 2166SOL    HW2 7398   2.242   1.917   5.482
 2167SOL     OW 7399   1.594   1.135   3.662
 2167SOL    HW1 7400   1.501   1.119   3.628
 2167SOL    HW2 7401   1.639   1.204   3.605
 2168SOL     OW 7402   0.381   2.275   3.549
 2168SOL    HW1 7403   0.411   2.218   3.626
 2168SOL    HW2 7404   0.303   2.231   3.504
 2169SOL     OW 7405   5.689   2.358   5.574
 2169SOL    HW1 7406   5.627   2.323   5.644
 2169SOL    HW2 7407   5.729   2.281   5.524
 2170SOL     OW 7408   5.425   4.814   5.727
 2170SOL    HW1 7409   5.524   4.826   5.733
 2170SOL    HW2 7410   5.386   4.881   5.664
 2171SOL     OW 7411   6.472   3.093   1.429
 2171SOL    HW1 7412   6.478   3.165   1.498
 2171SOL    HW2 7413   6.450   3.006   1.473
 2172SOL     OW 7414   2.870   1.584   0.498
 2172SOL    HW1 7415   2.912   1.607   0.585
 2172SOL    HW2 7416   2.784   1.634   0.488
 2173SOL     OW 7417   3.907   6.966   5.168
 2173SOL    HW1 7418   3.947   0.009   5.233
 2173SOL    HW2 7419   3.851   7.016   5.102
 2174SOL     OW 7420   5.774   4.992   6.040
 2174SOL    HW1 7421   5.728   5.066   5.992
 2174SOL    HW2 7422   5.853   4.962   5.987
 2175SOL     OW 7423   3.150   2.113   3.279
 2175SOL    HW1 7424   3.239   2.127   3.323
 2175SOL    HW2 7425   3.164   2.086   3.184
 2176SOL     OW 7426   1.094   2.913   0.074
 2176SOL    HW1 7427   1.097   2.964   0.160
 2176SOL    HW2 7428   1.082   2.977   7.020
 2177SOL     OW 7429   6.594   0.350   3.117
 2177SOL    HW1 7430   6.686   0.387   3.108
 2177SOL    HW2 7431   6.533   0.419   3.155
 2178SOL     OW 7432   1.779   4.234   0.217
 2178SOL    HW1 7433   1.759   4.157   0.277
 2178SOL    HW2 7434   1.704   4.301   0.223
 2179SOL     OW 7435   1.523   5.437   4.699
 2179SOL    HW1 7436   1.560   5.344   4.705
 2179SOL    HW2 7437   1.548   5.477   4.611
 2180SOL     OW 7438   2.849   3.510   2.099
 2180SOL    HW1 7439   2.901   3.595   2.101
 2180SOL    HW2 7440   2.779   3.515   2.027
 2181SOL     OW 7441   5.723   4.496   5.620
 2181SOL    HW1 7442   5.625   4.509   5.636
 2181SOL    HW2 7443   5.740   4.401   5.593
 2182SOL     OW 7444   6.200   3.089   5.049
 2182SOL    HW1 7445   6.167   3.099   5.143
 2182SOL    HW2 7446   6.182   2.995   5.018
 2183SOL     OW 7447   3.061   3.543   6.441
 2183SOL    HW1 7448   3.150   3.580   6.468
 2183SOL    HW2 7449   3.024   3.598   6.366
 2184SOL     OW 7450   3.672   1.323   5.220
 2184SOL    HW1 7451   3.734   1.400   5.236
 2184SOL    HW2 7452   3.578   1.350   5.242
 2185SOL     OW 7453   1.694   2.128   0.885
 2185SOL    HW1 7454   1.733   2.122   0.793
 2185SOL    HW2 7455   1.766   2.148   0.951
 2186SOL     OW 7456   6.880   4.572   2.198
 2186SOL    HW1 7457   6.866   4.578   2.099
 2186SOL    HW2 7458   6.798   4.602   2.246
 2187SOL     OW 7459   0.210   2.076   1.939
 2187SOL    HW1 7460   0.113   2.084   1.958
 2187SOL    HW2 7461   0.224   2.061   1.841
 2188SOL     OW 7462   5.477   6.028   4.124
 2188SOL    HW1 7463   5.487   6.115   4.075
 2188SOL    HW2 7464   5.545   6.023   4.197
 2189SOL     OW 7465   2.193   6.255   6.638
 2189SOL    HW1 7466   2.148   6.340   6.610
 2189SOL    HW2 7467   2.251   6.273   6.717
 2190SOL     OW 7468   0.422   2.646   2.351
 2190SOL    HW1 7469   0.333   2.623   2.311
 2190SOL    HW2 7470   0.433   2.746   2.352
 2191SOL     OW 7471   3.207   1.419   6.237
 2191SOL    HW1 7472   3.128   1.373   6.195
 2191SOL    HW2 7473   3.225   1.504   6.187
 2192SOL     OW 7474   3.783   6.892   4.098
 2192SOL    HW1 7475   3.716   6.820   4.084
 2192SOL    HW2 7476   3.761   6.970   4.039
 2193SOL     OW 7477   0.396   5.807   6.018
 2193SOL    HW1 7478   0.473   5.782   5.958
 2193SOL    HW2 7479   0.423   5.793   6.113
 2194SOL     OW 7480   2.506   4.563   0.002
 2194SOL    HW1 7481   2.501   4.614   6.938
 2194SOL    HW2 7482   2.518   4.627   0.078
 2195SOL     OW 7483   0.451   6.800   3.314
 2195SOL    HW1 7484   0.446   6.701   3.303
 2195SOL    HW2 7485   0.432   6.844   3.226
 2196SOL     OW 7486   3.176   0.298   5.348
 2196SOL    HW1 7487   3.110   0.312   5.274
 2196SOL    HW2 7488   3.230   0.216   5.330
 2197SOL     OW 7489   4.238   3.815   1.746
 2197SOL    HW1 7490   4.219   3.842   1.652
 2197SOL    HW2 7491   4.307   3.877   1.784
 2198SOL     OW 7492   6.630   1.717   6.832
 2198SOL    HW1 7493   6.623   1.660   6.751
 2198SOL    HW2 7494   6.708   1.687   6.888
 2199SOL     OW 7495   5.424   1.143   1.993
 2199SOL    HW1 7496   5.417   1.104   1.901
 2199SOL    HW2 7497   5.350   1.208   2.007
 2200SOL     OW 7498   4.365   0.148   4.253
 2200SOL    HW1 7499   4.409   0.107   4.333
 2200SOL    HW2 7500   4.316   0.231   4.280
 2201SOL     OW 7501   6.616   2.754   2.338
 2201SOL    HW1 7502   6.636   2.743   2.436
 2201SOL    HW2 7503   6.534   2.702   2.315
 2202SOL     OW 7504   3.609   4.876   4.102
 2202SOL    HW1 7505   3.623   4.908   4.195
 2202SOL    HW2 7506   3.642   4.782   4.093
 2203SOL     OW 7507   2.208   2.480   1.702
 2203SOL    HW1 7508   2.255   2.551   1.650
 2203SOL    HW2 7509   2.132   2.444   1.647
 2204SOL     OW 7510   3.476   1.307   6.867
 2204SOL    HW1 7511   3.448   1.281   6.774
 2204SOL    HW2 7512   3.419   1.259   6.934
 2205SOL     OW 7513   1.918   0.032   6.343
 2205SOL    HW1 7514   1.981   0.102   6.377
 2205SOL    HW2 7515   1.857   0.003   6.417
 2206SOL     OW 7516   2.864   3.859   5.426
 2206SOL    HW1 7517   2.898   3.947   5.459
 2206SOL    HW2 7518   2.771   3.871   5.392
 2207SOL     OW 7519   1.997   4.059   6.340
 2207SOL    HW1 7520   1.908   4.073   6.384
 2207SOL    HW2 7521   2.064   4.030   6.408
 2208SOL     OW 7522   2.120   4.918   2.500
 2208SOL    HW1 7523   2.036   4.954   2.459
 2208SOL    HW2 7524   2.175   4.993   2.536
 2209SOL     OW 7525   1.510   5.385   6.080
 2209SOL    HW1 7526   1.527   5.481   6.102
 2209SOL    HW2 7527   1.556   5.327   6.147
 2210SOL     OW 7528   0.290   4.567   3.597
 2210SOL    HW1 7529   0.266   4.604   3.687
 2210SOL    HW2 7530   0.337   4.480   3.607
 2211SOL     OW 7531   5.151   1.259   6.898
 2211SOL    HW1 7532   5.249   1.265   6.918
 2211SOL    HW2 7533   5.138   1.258   6.798
 2212SOL     OW 7534   1.866   6.134   0.978
 2212SOL    HW1 7535   1.780   6.161   1.023
 2212SOL    HW2 7536   1.943   6.154   1.039
 2213SOL     OW 7537   3.978   2.627   5.395
 2213SOL    HW1 7538   4.011   2.573   5.318
 2213SOL    HW2 7539   3.881   2.648   5.382
 2214SOL     OW 7540   4.803   1.630   5.297
 2214SOL    HW1 7541   4.901   1.627   5.278
 2214SOL    HW2 7542   4.758   1.690   5.232
 2215SOL     OW 7543   6.589   2.061   6.179
 2215SOL    HW1 7544   6.491   2.044   6.169
 2215SOL    HW2 7545   6.625   2.007   6.255
 2216SOL     OW 7546   1.861   0.746   6.676
 2216SOL    HW1 7547   1.928   0.672   6.673
 2216SOL    HW2 7548   1.822   0.761   6.586
 2217SOL     OW 7549   3.167   0.307   1.432
 2217SOL    HW1 7550   3.119   0.291   1.346
 2217SOL    HW2 7551   3.135   0.393   1.472
 2218SOL     OW 7552   1.309   6.921   1.100
 2218SOL    HW1 7553   1.349   6.935   1.009
 2218SOL    HW2 7554   1.372   6.868   1.156
 2219SOL     OW 7555   0.468   3.725   3.066
 2219SOL    HW1 7556   0.495   3.724   2.970
 2219SOL    HW2 7557   0.551   3.722   3.123
 2220SOL     OW 7558   0.346   1.099   4.391
 2220SOL    HW1 7559   0.304   1.180   4.433
 2220SOL    HW2 7560   0.398   1.127   4.311
 2221SOL     OW 7561   6.908   1.237   6.317
 2221SOL    HW1 7562   7.003   1.266   6.328
 2221SOL    HW2 7563   6.898   1.142   6.346
 2222SOL     OW 7564   3.614   0.683   1.093
 2222SOL    HW1 7565   3.707   0.657   1.116
 2222SOL    HW2 7566   3.567   0.717   1.175
 2223SOL     OW 7567   5.827   6.079   3.683
 2223SOL    HW1 7568   5.858   6.081   3.778
 2223SOL    HW2 7569   5.849   6.166   3.639
 2224SOL     OW 7570   2.431   4.724   2.239
 2224SOL    HW1 7571   2.483   4.680   2.312
 2224SOL    HW2 7572   2.333   4.714   2.257
 2225SOL     OW 7573   6.444   5.882   3.121
 2225SOL    HW1 7574   6.395   5.939   3.055
 2225SOL    HW2 7575   6.528   5.928   3.150
 2226SOL     OW 7576   4.114   3.958   0.673
 2226SOL    HW1 7577   4.142   3.910   0.756
 2226SOL    HW2 7578   4.042   4.024   0.695
 2227SOL     OW 7579   5.919   3.953   0.241
 2227SOL    HW1 7580   5.855   4.021   0.204
 2227SOL    HW2 7581   5.899   3.939   0.339
 2228SOL     OW 7582   2.992   5.866   0.643
 2228SOL    HW1 7583   2.975   5.946   0.586
 2228SOL    HW2 7584   3.064   5.887   0.709
 2229SOL     OW 7585   4.418   1.226   4.678
 2229SOL    HW1 7586   4.378   1.231   4.769
 2229SOL    HW2 7587   4.382   1.146   4.630
 2230SOL     OW 7588   0.551   5.794   5.119
 2230SOL    HW1 7589   0.562   5.701   5.082
 2230SOL    HW2 7590   0.534   5.788   5.217
 2231SOL     OW 7591   2.088   0.942   1.497
 2231SOL    HW1 7592   2.095   0.863   1.437
 2231SOL    HW2 7593   2.180   0.979   1.514
 2232SOL     OW 7594   1.099   2.226   3.864
 2232SOL    HW1 7595   1.110   2.130   3.890
 2232SOL    HW2 7596   1.139   2.242   3.774
 2233SOL     OW 7597   2.227   4.887   1.158
 2233SOL    HW1 7598   2.146   4.852   1.204
 2233SOL    HW2 7599   2.211   4.982   1.129
 2234SOL     OW 7600   4.523   1.764   1.506
 2234SOL    HW1 7601   4.503   1.783   1.602
 2234SOL    HW2 7602   4.566   1.674   1.498
 2235SOL     OW 7603   1.996   6.891   0.477
 2235SOL    HW1 7604   2.009   6.795   0.504
 2235SOL    HW2 7605   1.973   6.895   0.380
 2236SOL     OW 7606   0.355   4.426   0.485
 2236SOL    HW1 7607   0.314   4.378   0.408
 2236SOL    HW2 7608   0.375   4.521   0.458
 2237SOL     OW 7609   5.516   4.043   4.207
 2237SOL    HW1 7610   5.494   3.954   4.246
 2237SOL    HW2 7611   5.476   4.050   4.116
 2238SOL     OW 7612   6.157   5.677   2.367
 2238SOL    HW1 7613   6.179   5.705   2.460
 2238SOL    HW2 7614   6.239   5.639   2.324
 2239SOL     OW 7615   3.795   5.502   4.041
 2239SOL    HW1 7616   3.807   5.406   4.016
 2239SOL    HW2 7617   3.883   5.539   4.073
 2240SOL     OW 7618   5.528   6.253   3.967
 2240SOL    HW1 7619   5.493   6.210   3.883
 2240SOL    HW2 7620   5.506   6.350   3.966
 2241SOL     OW 7621   0.478   6.860   2.172
 2241SOL    HW1 7622   0.498   6.762   2.183
 2241SOL    HW2 7623   0.492   6.886   2.076
 2242SOL     OW 7624   5.489   2.559   2.836
 2242SOL    HW1 7625   5.433   2.501   2.895
 2242SOL    HW2 7626   5.560   2.602   2.892
 2243SOL     OW 7627   2.935   6.151   5.186
 2243SOL    HW1 7628   2.995   6.093   5.241
 2243SOL    HW2 7629   2.842   6.147   5.222
 2244SOL     OW 7630   3.435   0.764   3.238
 2244SOL    HW1 7631   3.452   0.751   3.140
 2244SOL    HW2 7632   3.391   0.853   3.252
 2245SOL     OW 7633   0.656   2.439   1.599
 2245SOL    HW1 7634   0.662   2.418   1.501
 2245SOL    HW2 7635   0.685   2.359   1.652
 2246SOL     OW 7636   1.516   1.456   4.322
 2246SOL    HW1 7637   1.503   1.537   4.378
 2246SOL    HW2 7638   1.428   1.427   4.283
 2247SOL     OW 7639   2.544   2.466   6.346
 2247SOL    HW1 7640   2.498   2.412   6.417
 2247SOL    HW2 7641   2.602   2.535   6.388
 2248SOL     OW 7642   4.789   3.754   6.547
 2248SOL    HW1 7643   4.745   3.664   6.548
 2248SOL    HW2 7644   4.861   3.755   6.477
 2249SOL     OW 7645   5.606   6.551   3.243
 2249SOL    HW1 7646   5.685   6.541   3.183
 2249SOL    HW2 7647   5.524   6.519   3.196
 2250SOL     OW 7648   5.552   3.879   1.111
 2250SOL    HW1 7649   5.524   3.788   1.082
 2250SOL    HW2 7650   5.471   3.936   1.125
 2251SOL     OW 7651   5.465   1.412   6.870
 2251SOL    HW1 7652   5.469   1.456   6.960
 2251SOL    HW2 7653   5.403   1.463   6.810
 2252SOL     OW 7654   6.711   2.643   4.271
 2252SOL    HW1 7655   6.623   2.607   4.241
 2252SOL    HW2 7656   6.734   2.724   4.218
 2253SOL     OW 7657   1.308   3.097   0.204
 2253SOL    HW1 7658   1.348   3.127   0.291
 2253SOL    HW2 7659   1.380   3.087   0.136
 2254SOL     OW 7660   2.317   2.982   5.635
 2254SOL    HW1 7661   2.364   2.899   5.665
 2254SOL    HW2 7662   2.223   2.981   5.671
 2255SOL     OW 7663   5.804   2.599   0.732
 2255SOL    HW1 7664   5.744   2.594   0.812
 2255SOL    HW2 7665   5.840   2.692   0.724
 2256SOL     OW 7666   4.042   6.082   1.596
 2256SOL    HW1 7667   4.078   6.159   1.648
 2256SOL    HW2 7668   3.942   6.086   1.594
 2257SOL     OW 7669   0.462   3.234   4.565
 2257SOL    HW1 7670   0.440   3.234   4.467
 2257SOL    HW2 7671   0.476   3.141   4.596
 2258SOL     OW 7672   1.372   5.675   5.108
 2258SOL    HW1 7673   1.465   5.709   5.095
 2258SOL    HW2 7674   1.374   5.587   5.156
 2259SOL     OW 7675   4.703   3.278   6.643
 2259SOL    HW1 7676   4.626   3.252   6.701
 2259SOL    HW2 7677   4.684   3.366   6.599
 2260SOL     OW 7678   5.350   4.541   3.209
 2260SOL    HW1 7679   5.290   4.620   3.195
 2260SOL    HW2 7680   5.329   4.470   3.143
 2261SOL     OW 7681   6.007   6.516   0.710
 2261SOL    HW1 7682   6.106   6.513   0.699
 2261SOL    HW2 7683   5.963   6.528   0.621
 2262SOL     OW 7684   6.038   3.064   2.652
 2262SOL    HW1 7685   6.064   2.998   2.723
 2262SOL    HW2 7686   5.947   3.041   2.617
 2263SOL     OW 7687   3.015   5.496   5.929
 2263SOL    HW1 7688   3.089   5.547   5.972
 2263SOL    HW2 7689   2.935   5.498   5.989
 2264SOL     OW 7690   3.062   3.715   2.429
 2264SOL    HW1 7691   3.119   3.779   2.378
 2264SOL    HW2 7692   3.019   3.762   2.506
 2265SOL     OW 7693   0.283   0.619   3.826
 2265SOL    HW1 7694   0.222   0.548   3.789
 2265SOL    HW2 7695   0.324   0.586   3.912
 2266SOL     OW 7696   6.433   1.355   1.169
 2266SOL    HW1 7697   6.485   1.276   1.202
 2266SOL    HW2 7698   6.492   1.411   1.110
 2267SOL     OW 7699   5.412   2.536   5.126
 2267SOL    HW1 7700   5.401   2.512   5.029
 2267SOL    HW2 7701   5.499   2.500   5.159
 2268SOL     OW 7702   6.584   4.751   6.732
 2268SOL    HW1 7703   6.569   4.691   6.653
 2268SOL    HW2 7704   6.527   4.719   6.808
 2269SOL     OW 7705   5.867   5.906   5.227
 2269SOL    HW1 7706   5.850   5.999   5.195
 2269SOL    HW2 7707   5.966   5.893   5.242
 2270SOL     OW 7708   3.810   2.981   6.741
 2270SOL    HW1 7709   3.787   2.936   6.827
 2270SOL    HW2 7710   3.746   2.951   6.670
 2271SOL     OW 7711   5.491   4.161   0.870
 2271SOL    HW1 7712   5.584   4.188   0.847
 2271SOL    HW2 7713   5.475   4.067   0.840
 2272SOL     OW 7714   5.954   2.171   4.973
 2272SOL    HW1 7715   6.012   2.089   4.974
 2272SOL    HW2 7716   5.977   2.227   4.893
 2273SOL     OW 7717   1.913   1.410   1.614
 2273SOL    HW1 7718   1.952   1.369   1.531
 2273SOL    HW2 7719   1.986   1.430   1.679
 2274SOL     OW 7720   0.690   2.882   5.807
 2274SOL    HW1 7721   0.784   2.885   5.841
 2274SOL    HW2 7722   0.667   2.788   5.782
 2275SOL     OW 7723   5.272   0.327   4.427
 2275SOL    HW1 7724   5.289   0.333   4.525
 2275SOL    HW2 7725   5.306   0.410   4.382
 2276SOL     OW 7726   3.078   5.098   1.346
 2276SOL    HW1 7727   3.014   5.170   1.319
 2276SOL    HW2 7728   3.043   5.050   1.426
 2277SOL     OW 7729   2.959   3.734   4.731
 2277SOL    HW1 7730   3.051   3.697   4.719
 2277SOL    HW2 7731   2.961   3.833   4.726
 2278SOL     OW 7732   4.969   6.850   4.588
 2278SOL    HW1 7733   4.920   6.872   4.672
 2278SOL    HW2 7734   5.003   6.934   4.546
 2279SOL     OW 7735   5.309   5.626   4.344
 2279SOL    HW1 7736   5.222   5.585   4.373
 2279SOL    HW2 7737   5.385   5.573   4.383
 2280SOL     OW 7738   6.802   6.533   4.949
 2280SOL    HW1 7739   6.735   6.559   4.880
 2280SOL    HW2 7740   6.868   6.469   4.909
 2281SOL     OW 7741   3.760   1.077   1.879
 2281SOL    HW1 7742   3.702   1.024   1.817
 2281SOL    HW2 7743   3.733   1.173   1.876
 2282SOL     OW 7744   5.395   0.381   4.669
 2282SOL    HW1 7745   5.358   0.375   4.761
 2282SOL    HW2 7746   5.487   0.341   4.666
 2283SOL     OW 7747   0.201   4.628   1.171
 2283SOL    HW1 7748   0.176   4.563   1.243
 2283SOL    HW2 7749   0.242   4.579   1.095
 2284SOL     OW 7750   2.106   1.504   0.111
 2284SOL    HW1 7751   2.171   1.580   0.101
 2284SOL    HW2 7752   2.132   1.449   0.191
 2285SOL     OW 7753   1.969   3.277   0.244
 2285SOL    HW1 7754   1.942   3.188   0.207
 2285SOL    HW2 7755   1.915   3.297   0.326
 2286SOL     OW 7756   6.469   6.527   4.285
 2286SOL    HW1 7757   6.532   6.588   4.239
 2286SOL    HW2 7758   6.376   6.564   4.278
 2287SOL     OW 7759   2.625   2.578   1.831
 2287SOL    HW1 7760   2.560   2.645   1.796
 2287SOL    HW2 7761   2.715   2.594   1.790
 2288SOL     OW 7762   6.849   4.932   4.511
 2288SOL    HW1 7763   6.761   4.913   4.468
 2288SOL    HW2 7764   6.858   5.030   4.527
 2289SOL     OW 7765   6.209   4.067   2.803
 2289SOL    HW1 7766   6.264   4.150   2.801
 2289SOL    HW2 7767   6.239   4.005   2.731
 2290SOL     OW 7768   2.011   3.609   1.927
 2290SOL    HW1 7769   1.946   3.541   1.890
 2290SOL    HW2 7770   2.102   3.569   1.929
 2291SOL     OW 7771   2.304   1.907   0.373
 2291SOL    HW1 7772   2.371   1.881   0.443
 2291SOL    HW2 7773   2.227   1.843   0.374
 2292SOL     OW 7774   5.037   2.255   3.360
 2292SOL    HW1 7775   5.072   2.173   3.407
 2292SOL    HW2 7776   4.979   2.306   3.423
 2293SOL     OW 7777   6.928   0.356   0.706
 2293SOL    HW1 7778   6.924   0.333   0.609
 2293SOL    HW2 7779   6.971   0.446   0.717
 2294SOL     OW 7780   3.561   1.676   6.046
 2294SOL    HW1 7781   3.647   1.633   6.072
 2294SOL    HW2 7782   3.577   1.745   5.976
 2295SOL     OW 7783   0.751   1.464   3.096
 2295SOL    HW1 7784   0.781   1.467   3.001
 2295SOL    HW2 7785   0.742   1.557   3.132
 2296SOL     OW 7786   2.692   4.819   3.034
 2296SOL    HW1 7787   2.743   4.853   3.113
 2296SOL    HW2 7788   2.618   4.882   3.013
 2297SOL     OW 7789   4.981   4.492   6.040
 2297SOL    HW1 7790   5.019   4.578   6.006
 2297SOL    HW2 7791   4.948   4.438   5.963
 2298SOL     OW 7792   3.569   3.948   2.730
 2298SOL    HW1 7793   3.656   3.902   2.743
 2298SOL    HW2 7794   3.518   3.903   2.656
 2299SOL     OW 7795   5.075   4.371   5.043
 2299SOL    HW1 7796   5.093   4.311   4.965
 2299SOL    HW2 7797   5.159   4.384   5.095
 2300SOL     OW 7798   2.692   6.541   3.513
 2300SOL    HW1 7799   2.751   6.496   3.446
 2300SOL    HW2 7800   2.672   6.478   3.588
 2301SOL     OW 7801   3.794   2.965   3.698
 2301SOL    HW1 7802   3.774   2.871   3.671
 2301SOL    HW2 7803   3.860   2.965   3.773
 2302SOL     OW 7804   3.311   0.599   1.400
 2302SOL    HW1 7805   3.386   0.654   1.365
 2302SOL    HW2 7806   3.318   0.506   1.364
 2303SOL     OW 7807   2.572   3.221   1.153
 2303SOL    HW1 7808   2.528   3.309   1.167
 2303SOL    HW2 7809   2.663   3.222   1.194
 2304SOL     OW 7810   5.613   5.974   4.357
 2304SOL    HW1 7811   5.689   5.984   4.422
 2304SOL    HW2 7812   5.528   5.962   4.407
 2305SOL     OW 7813   2.369   0.494   3.406
 2305SOL    HW1 7814   2.409   0.488   3.498
 2305SOL    HW2 7815   2.429   0.547   3.347
 2306SOL     OW 7816   1.724   5.337   1.541
 2306SOL    HW1 7817   1.659   5.413   1.550
 2306SOL    HW2 7818   1.683   5.254   1.578
 2307SOL     OW 7819   0.186   3.260   5.508
 2307SOL    HW1 7820   0.110   3.250   5.572
 2307SOL    HW2 7821   0.225   3.351   5.516
 2308SOL     OW 7822   2.675   4.883   1.413
 2308SOL    HW1 7823   2.629   4.810   1.362
 2308SOL    HW2 7824   2.615   4.915   1.486
 2309SOL     OW 7825   1.919   0.986   4.672
 2309SOL    HW1 7826   1.907   0.942   4.583
 2309SOL    HW2 7827   1.851   0.950   4.736
 2310SOL     OW 7828   5.687   6.129   2.054
 2310SOL    HW1 7829   5.738   6.069   2.115
 2310SOL    HW2 7830   5.600   6.086   2.030
 2311SOL     OW 7831   2.912   6.134   0.062
 2311SOL    HW1 7832   2.988   6.198   0.064
 2311SOL    HW2 7833   2.939   6.049   0.107
 2312SOL     OW 7834   4.338   5.675   3.343
 2312SOL    HW1 7835   4.363   5.582   3.368
 2312SOL    HW2 7836   4.417   5.722   3.304
 2313SOL     OW 7837   4.686   5.371   2.217
 2313SOL    HW1 7838   4.641   5.402   2.301
 2313SOL    HW2 7839   4.662   5.433   2.142
 2314SOL     OW 7840   4.524   6.477   2.623
 2314SOL    HW1 7841   4.461   6.430   2.562
 2314SOL    HW2 7842   4.565   6.411   2.686
 2315SOL     OW 7843   5.209   3.232   5.992
 2315SOL    HW1 7844   5.161   3.155   6.034
 2315SOL    HW2 7845   5.262   3.280   6.062
 2316SOL     OW 7846   5.018   2.025   4.077
 2316SOL    HW1 7847   4.937   2.074   4.109
 2316SOL    HW2 7848   5.086   2.090   4.045
 2317SOL     OW 7849   0.301   5.717   3.071
 2317SOL    HW1 7850   0.372   5.768   3.023
 2317SOL    HW2 7851   0.235   5.781   3.110
 2318SOL     OW 7852   0.417   3.220   3.728
 2318SOL    HW1 7853   0.506   3.205   3.684
 2318SOL    HW2 7854   0.381   3.309   3.700
 2319SOL     OW 7855   1.328   4.656   4.647
 2319SOL    HW1 7856   1.387   4.576   4.635
 2319SOL    HW2 7857   1.304   4.664   4.744
 2320SOL     OW 7858   0.963   2.724   4.301
 2320SOL    HW1 7859   1.030   2.738   4.228
 2320SOL    HW2 7860   0.906   2.644   4.279
 2321SOL     OW 7861   3.093   1.030   4.994
 2321SOL    HW1 7862   2.994   1.019   4.998
 2321SOL    HW2 7863   3.134   0.950   4.949
 2322SOL     OW 7864   2.511   1.575   5.090
 2322SOL    HW1 7865   2.548   1.507   5.153
 2322SOL    HW2 7866   2.580   1.598   5.021
 2323SOL     OW 7867   2.906   4.862   2.510
 2323SOL    HW1 7868   3.001   4.856   2.541
 2323SOL    HW2 7869   2.876   4.957   2.515
 2324SOL     OW 7870   0.528   6.491   3.040
 2324SOL    HW1 7871   0.453   6.551   3.012
 2324SOL    HW2 7872   0.607   6.505   2.980
 2325SOL     OW 7873   0.850   4.273   1.389
 2325SOL    HW1 7874   0.875   4.185   1.347
 2325SOL    HW2 7875   0.832   4.259   1.486
 2326SOL     OW 7876   2.698   4.013   6.140
 2326SOL    HW1 7877   2.779   4.025   6.196
 2326SOL    HW2 7878   2.657   4.103   6.121
 2327SOL     OW 7879   5.237   2.660   4.685
 2327SOL    HW1 7880   5.295   2.738   4.660
 2327SOL    HW2 7881   5.242   2.645   4.783
 2328SOL     OW 7882   4.829   1.717   3.865
 2328SOL    HW1 7883   4.759   1.645   3.861
 2328SOL    HW2 7884   4.885   1.704   3.946
 2329SOL     OW 7885   1.513   5.408   5.040
 2329SOL    HW1 7886   1.527   5.314   5.008
 2329SOL    HW2 7887   1.472   5.406   5.131
 2330SOL     OW 7888   6.990   4.340   2.168
 2330SOL    HW1 7889   6.925   4.274   2.130
 2330SOL    HW2 7890   6.943   4.427   2.183
 2331SOL     OW 7891   6.376   4.928   6.556
 2331SOL    HW1 7892   6.471   4.910   6.530
 2331SOL    HW2 7893   6.347   5.015   6.517
 2332SOL     OW 7894   4.581   2.031   5.195
 2332SOL    HW1 7895   4.672   2.000   5.169
 2332SOL    HW2 7896   4.573   2.032   5.294
 2333SOL     OW 7897   6.572   5.127   2.834
 2333SOL    HW1 7898   6.482   5.158   2.864
 2333SOL    HW2 7899   6.630   5.108   2.914
 2334SOL     OW 7900   2.763   6.926   0.337
 2334SOL    HW1 7901   2.757   6.949   0.434
 2334SOL    HW2 7902   2.781   7.009   0.284
 2335SOL     OW 7903   5.860   0.642   2.926
 2335SOL    HW1 7904   5.868   0.737   2.895
 2335SOL    HW2 7905   5.927   0.626   2.999
 2336SOL     OW 7906   4.737   1.610   5.586
 2336SOL    HW1 7907   4.744   1.693   5.641
 2336SOL    HW2 7908   4.766   1.629   5.492
 2337SOL     OW 7909   4.984   0.788   3.563
 2337SOL    HW1 7910   5.055   0.747   3.505
 2337SOL    HW2 7911   4.894   0.760   3.532
 2338SOL     OW 7912   1.103   0.112   6.625
 2338SOL    HW1 7913   1.060   0.186   6.677
 2338SOL    HW2 7914   1.191   0.089   6.667
 2339SOL     OW 7915   3.638   4.040   5.499
 2339SOL    HW1 7916   3.668   4.059   5.406
 2339SOL    HW2 7917   3.701   3.976   5.542
 2340SOL     OW 7918   4.420   6.664   5.573
 2340SOL    HW1 7919   4.440   6.580   5.521
 2340SOL    HW2 7920   4.506   6.709   5.597
 2341SOL     OW 7921   4.648   4.116   0.983
 2341SOL    HW1 7922   4.655   4.198   1.039
 2341SOL    HW2 7923   4.626   4.038   1.041
 2342SOL     OW 7924   1.034   6.177   5.669
 2342SOL    HW1 7925   0.999   6.083   5.661
 2342SOL    HW2 7926   0.958   6.241   5.656
 2343SOL     OW 7927   1.845   6.500   1.130
 2343SOL    HW1 7928   1.852   6.438   1.208
 2343SOL    HW2 7929   1.821   6.591   1.162
 2344SOL     OW 7930   2.032   1.302   1.363
 2344SOL    HW1 7931   2.127   1.334   1.372
 2344SOL    HW2 7932   2.026   1.237   1.288
 2345SOL     OW 7933   1.786   6.622   5.636
 2345SOL    HW1 7934   1.714   6.689   5.651
 2345SOL    HW2 7935   1.825   6.595   5.724
 2346SOL     OW 7936   4.691   2.871   5.180
 2346SOL    HW1 7937   4.682   2.866   5.081
 2346SOL    HW2 7938   4.686   2.967   5.208
 2347SOL     OW 7939   1.797   4.236   1.935
 2347SOL    HW1 7940   1.759   4.328   1.930
 2347SOL    HW2 7941   1.895   4.239   1.914
 2348SOL     OW 7942   2.216   6.087   3.556
 2348SOL    HW1 7943   2.166   6.163   3.597
 2348SOL    HW2 7944   2.310   6.116   3.536
 2349SOL     OW 7945   0.792   6.710   0.199
 2349SOL    HW1 7946   0.804   6.613   0.178
 2349SOL    HW2 7947   0.838   6.732   0.285
 2350SOL     OW 7948   4.061   6.835   5.667
 2350SOL    HW1 7949   3.967   6.859   5.645
 2350SOL    HW2 7950   4.086   6.873   5.755
 2351SOL     OW 7951   3.302   5.480   3.407
 2351SOL    HW1 7952   3.360   5.485   3.489
 2351SOL    HW2 7953   3.331   5.402   3.351
 2352SOL     OW 7954   0.619   4.449   3.187
 2352SOL    HW1 7955   0.652   4.355   3.181
 2352SOL    HW2 7956   0.692   4.508   3.222
 2353SOL     OW 7957   2.482   4.563   4.637
 2353SOL    HW1 7958   2.474   4.652   4.682
 2353SOL    HW2 7959   2.472   4.575   4.538
 2354SOL     OW 7960   3.490   2.122   6.625
 2354SOL    HW1 7961   3.458   2.030   6.604
 2354SOL    HW2 7962   3.580   2.117   6.668
 2355SOL     OW 7963   0.424   5.719   0.608
 2355SOL    HW1 7964   0.397   5.709   0.703
 2355SOL    HW2 7965   0.344   5.709   0.549
 2356SOL     OW 7966   2.428   3.572   1.637
 2356SOL    HW1 7967   2.346   3.626   1.659
 2356SOL    HW2 7968   2.461   3.527   1.720
 2357SOL     OW 7969   4.166   4.900   3.637
 2357SOL    HW1 7970   4.223   4.959   3.693
 2357SOL    HW2 7971   4.185   4.804   3.657
 2358SOL     OW 7972   3.152   6.241   4.197
 2358SOL    HW1 7973   3.112   6.221   4.107
 2358SOL    HW2 7974   3.081   6.236   4.267
 2359SOL     OW 7975   1.959   0.587   6.205
 2359SOL    HW1 7976   2.025   0.606   6.132
 2359SOL    HW2 7977   1.937   0.672   6.253
 2360SOL     OW 7978   4.590   4.906   6.188
 2360SOL    HW1 7979   4.582   4.832   6.122
 2360SOL    HW2 7980   4.574   4.870   6.280
 2361SOL     OW 7981   2.815   7.004   4.169
 2361SOL    HW1 7982   2.807   0.079   4.149
 2361SOL    HW2 7983   2.795   6.951   4.087
 2362SOL     OW 7984   4.816   6.368   4.897
 2362SOL    HW1 7985   4.885   6.439   4.883
 2362SOL    HW2 7986   4.763   6.356   4.813
 2363SOL     OW 7987   4.537   2.635   5.050
 2363SOL    HW1 7988   4.594   2.627   4.968
 2363SOL    HW2 7989   4.524   2.732   5.072
 2364SOL     OW 7990   6.079   2.174   2.270
 2364SOL    HW1 7991   6.094   2.153   2.173
 2364SOL    HW2 7992   5.982   2.195   2.284
 2365SOL     OW 7993   5.766   4.315   5.384
 2365SOL    HW1 7994   5.778   4.215   5.383
 2365SOL    HW2 7995   5.841   4.356   5.437
 2366SOL     OW 7996   0.952   4.445   5.920
 2366SOL    HW1 7997   0.982   4.486   6.006
 2366SOL    HW2 7998   1.015   4.373   5.893
 2367SOL     OW 7999   1.041   3.346   6.305
 2367SOL    HW1 8000   1.001   3.413   6.242
 2367SOL    HW2 8001   1.071   3.266   6.254
 2368SOL     OW 8002   4.461   0.898   5.159
 2368SOL    HW1 8003   4.550   0.924   5.196
 2368SOL    HW2 8004   4.472   0.869   5.063
 2369SOL     OW 8005   2.184   2.236   4.026
 2369SOL    HW1 8006   2.217   2.232   3.931
 2369SOL    HW2 8007   2.251   2.283   4.083
 2370SOL     OW 8008   4.301   3.595   0.723
 2370SOL    HW1 8009   4.379   3.641   0.680
 2370SOL    HW2 8010   4.231   3.577   0.654
 2371SOL     OW 8011   1.597   5.838   2.333
 2371SOL    HW1 8012   1.629   5.858   2.426
 2371SOL    HW2 8013   1.503   5.871   2.323
 2372SOL     OW 8014   0.455   1.636   0.176
 2372SOL    HW1 8015   0.537   1.647   0.121
 2372SOL    HW2 8016   0.433   1.723   0.220
 2373SOL     OW 8017   6.165   1.130   6.538
 2373SOL    HW1 8018   6.068   1.128   6.514
 2373SOL    HW2 8019   6.198   1.224   6.534
 2374SOL     OW 8020   6.295   6.156   3.572
 2374SOL    HW1 8021   6.202   6.130   3.599
 2374SOL    HW2 8022   6.323   6.238   3.623
 2375SOL     OW 8023   0.569   0.268   4.637
 2375SOL    HW1 8024   0.604   0.333   4.570
 2375SOL    HW2 8025   0.579   0.306   4.729
 2376SOL     OW 8026   6.125   2.871   3.193
 2376SOL    HW1 8027   6.078   2.957   3.212
 2376SOL    HW2 8028   6.170   2.837   3.276
 2377SOL     OW 8029   3.309   3.716   4.441
 2377SOL    HW1 8030   3.322   3.633   4.387
 2377SOL    HW2 8031   3.260   3.693   4.526
 2378SOL     OW 8032   5.494   1.825   0.150
 2378SOL    HW1 8033   5.472   1.921   0.166
 2378SOL    HW2 8034   5.499   1.777   0.237
 2379SOL     OW 8035   6.854   3.438   0.019
 2379SOL    HW1 8036   6.770   3.389   0.039
 2379SOL    HW2 8037   6.838   3.503   6.967
 2380SOL     OW 8038   6.489   0.835   5.538
 2380SOL    HW1 8039   6.465   0.753   5.591
 2380SOL    HW2 8040   6.444   0.832   5.449
 2381SOL     OW 8041   1.453   4.469   5.077
 2381SOL    HW1 8042   1.355   4.484   5.062
 2381SOL    HW2 8043   1.475   4.372   5.066
 2382SOL     OW 8044   2.260   5.457   2.864
 2382SOL    HW1 8045   2.238   5.375   2.916
 2382SOL    HW2 8046   2.222   5.537   2.910
 2383SOL     OW 8047   5.687   6.673   6.269
 2383SOL    HW1 8048   5.739   6.600   6.314
 2383SOL    HW2 8049   5.611   6.632   6.218
 2384SOL     OW 8050   1.386   2.108   1.664
 2384SOL    HW1 8051   1.397   2.191   1.609
 2384SOL    HW2 8052   1.369   2.030   1.603
 2385SOL     OW 8053   0.802   0.483   1.035
 2385SOL    HW1 8054   0.815   0.532   1.121
 2385SOL    HW2 8055   0.881   0.498   0.976
 2386SOL     OW 8056   3.021   5.372   4.173
 2386SOL    HW1 8057   2.981   5.383   4.265
 2386SOL    HW2 8058   2.967   5.424   4.107
 2387SOL     OW 8059   6.553   3.241   4.449
 2387SOL    HW1 8060   6.582   3.304   4.521
 2387SOL    HW2 8061   6.515   3.158   4.491
 2388SOL     OW 8062   0.756   1.738   5.867
 2388SOL    HW1 8063   0.816   1.702   5.796
 2388SOL    HW2 8064   0.751   1.837   5.860
 2389SOL     OW 8065   4.245   4.639   4.099
 2389SOL    HW1 8066   4.293   4.720   4.134
 2389SOL    HW2 8067   4.173   4.612   4.163
 2390SOL     OW 8068   3.575   3.958   4.938
 2390SOL    HW1 8069   3.543   3.901   4.862
 2390SOL    HW2 8070   3.656   4.008   4.909
 2391SOL     OW 8071   3.564   4.035   6.155
 2391SOL    HW1 8072   3.606   4.001   6.239
 2391SOL    HW2 8073   3.543   4.132   6.165
 2392SOL     OW 8074   3.101   4.056   6.482
 2392SOL    HW1 8075   3.156   4.017   6.556
 2392SOL    HW2 8076   3.088   4.154   6.498
 2393SOL     OW 8077   3.957   5.478   1.053
 2393SOL    HW1 8078   3.889   5.481   1.126
 2393SOL    HW2 8079   4.043   5.443   1.089
 2394SOL     OW 8080   0.546   3.829   4.299
 2394SOL    HW1 8081   0.640   3.813   4.330
 2394SOL    HW2 8082   0.515   3.752   4.244
 2395SOL     OW 8083   6.793   2.637   6.432
 2395SOL    HW1 8084   6.731   2.565   6.464
 2395SOL    HW2 8085   6.839   2.679   6.510
 2396SOL     OW 8086   5.695   6.283   0.950
 2396SOL    HW1 8087   5.706   6.235   1.038
 2396SOL    HW2 8088   5.598   6.289   0.928
 2397SOL     OW 8089   6.633   5.043   0.255
 2397SOL    HW1 8090   6.715   5.022   0.202
 2397SOL    HW2 8091   6.614   5.141   0.249
 2398SOL     OW 8092   2.765   4.744   4.838
 2398SOL    HW1 8093   2.798   4.835   4.814
 2398SOL    HW2 8094   2.821   4.707   4.912
 2399SOL     OW 8095   3.784   1.590   3.449
 2399SOL    HW1 8096   3.875   1.550   3.459
 2399SOL    HW2 8097   3.752   1.577   3.355
 2400SOL     OW 8098   2.936   3.774   0.872
 2400SOL    HW1 8099   2.888   3.687   0.886
 2400SOL    HW2 8100   2.894   3.823   0.795
 2401SOL     OW 8101   3.383   0.518   4.283
 2401SOL    HW1 8102   3.308   0.582   4.301
 2401SOL    HW2 8103   3.371   0.437   4.340
 2402SOL     OW 8104   0.123   1.449   4.057
 2402SOL    HW1 8105   0.116   1.502   3.973
 2402SOL    HW2 8106   0.099   1.506   4.135
 2403SOL     OW 8107   3.662   2.830   0.689
 2403SOL    HW1 8108   3.685   2.926   0.669
 2403SOL    HW2 8109   3.652   2.779   0.604
 2404SOL     OW 8110   5.695   1.554   2.003
 2404SOL    HW1 8111   5.760   1.571   2.077
 2404SOL    HW2 8112   5.714   1.617   1.927
 2405SOL     OW 8113   3.591   4.313   5.540
 2405SOL    HW1 8114   3.600   4.215   5.554
 2405SOL    HW2 8115   3.598   4.334   5.442
 2406SOL     OW 8116   2.320   0.267   3.770
 2406SOL    HW1 8117   2.258   0.192   3.793
 2406SOL    HW2 8118   2.329   0.329   3.848
 2407SOL     OW 8119   4.682   2.793   2.641
 2407SOL    HW1 8120   4.680   2.892   2.655
 2407SOL    HW2 8121   4.644   2.772   2.550
 2408SOL     OW 8122   3.262   4.881   3.086
 2408SOL    HW1 8123   3.355   4.912   3.071
 2408SOL    HW2 8124   3.236   4.816   3.014
 2409SOL     OW 8125   2.008   2.891   1.124
 2409SOL    HW1 8126   2.040   2.831   1.050
 2409SOL    HW2 8127   2.039   2.985   1.107
 2410SOL     OW 8128   6.235   3.587   5.535
 2410SOL    HW1 8129   6.191   3.644   5.466
 2410SOL    HW2 8130   6.257   3.498   5.495
 2411SOL     OW 8131   3.202   3.525   5.631
 2411SOL    HW1 8132   3.145   3.500   5.710
 2411SOL    HW2 8133   3.265   3.450   5.611
 2412SOL     OW 8134   3.388   3.223   0.491
 2412SOL    HW1 8135   3.347   3.244   0.403
 2412SOL    HW2 8136   3.468   3.164   0.479
 2413SOL     OW 8137   5.596   3.801   6.495
 2413SOL    HW1 8138   5.665   3.820   6.425
 2413SOL    HW2 8139   5.540   3.882   6.509
 2414SOL     OW 8140   5.458   3.806   2.967
 2414SOL    HW1 8141   5.518   3.728   2.954
 2414SOL    HW2 8142   5.389   3.785   3.036
 2415SOL     OW 8143   2.067   0.216   1.810
 2415SOL    HW1 8144   2.027   0.242   1.722
 2415SOL    HW2 8145   2.033   0.125   1.836
 2416SOL     OW 8146   1.311   1.506   5.003
 2416SOL    HW1 8147   1.371   1.581   4.972
 2416SOL    HW2 8148   1.283   1.524   5.097
 2417SOL     OW 8149   5.258   2.017   1.115
 2417SOL    HW1 8150   5.205   1.986   1.037
 2417SOL    HW2 8151   5.348   2.048   1.085
 2418SOL     OW 8152   3.018   3.433   5.094
 2418SOL    HW1 8153   3.018   3.336   5.068
 2418SOL    HW2 8154   3.033   3.440   5.192
 2419SOL     OW 8155   1.433   6.898   4.987
 2419SOL    HW1 8156   1.449   6.988   5.026
 2419SOL    HW2 8157   1.359   6.902   4.920
 2420SOL     OW 8158   3.975   0.017   2.175
 2420SOL    HW1 8159   3.959   6.986   2.259
 2420SOL    HW2 8160   4.071   0.044   2.170
 2421SOL     OW 8161   3.411   6.831   4.256
 2421SOL    HW1 8162   3.323   6.852   4.297
 2421SOL    HW2 8163   3.480   6.818   4.328
 2422SOL     OW 8164   4.862   0.387   0.372
 2422SOL    HW1 8165   4.822   0.456   0.311
 2422SOL    HW2 8166   4.943   0.424   0.417
 2423SOL     OW 8167   1.851   5.299   1.920
 2423SOL    HW1 8168   1.869   5.374   1.984
 2423SOL    HW2 8169   1.871   5.330   1.827
 2424SOL     OW 8170   5.612   6.401   6.683
 2424SOL    HW1 8171   5.531   6.458   6.694
 2424SOL    HW2 8172   5.663   6.430   6.602
 2425SOL     OW 8173   5.653   6.823   5.902
 2425SOL    HW1 8174   5.598   6.837   5.985
 2425SOL    HW2 8175   5.744   6.862   5.916
 2426SOL     OW 8176   0.924   5.767   4.463
 2426SOL    HW1 8177   0.864   5.745   4.386
 2426SOL    HW2 8178   0.874   5.757   4.548
 2427SOL     OW 8179   5.442   5.738   0.103
 2427SOL    HW1 8180   5.505   5.777   0.036
 2427SOL    HW2 8181   5.495   5.688   0.172
 2428SOL     OW 8182   0.448   0.691   2.954
 2428SOL    HW1 8183   0.365   0.740   2.927
 2428SOL    HW2 8184   0.512   0.755   2.997
 2429SOL     OW 8185   6.172   4.681   3.110
 2429SOL    HW1 8186   6.161   4.768   3.061
 2429SOL    HW2 8187   6.175   4.699   3.208
 2430SOL     OW 8188   5.208   2.781   0.712
 2430SOL    HW1 8189   5.188   2.688   0.743
 2430SOL    HW2 8190   5.299   2.808   0.742
 2431SOL     OW 8191   4.579   1.079   0.994
 2431SOL    HW1 8192   4.679   1.083   1.003
 2431SOL    HW2 8193   4.555   1.017   0.919
 2432SOL     OW 8194   3.392   6.392   2.511
 2432SOL    HW1 8195   3.321   6.340   2.463
 2432SOL    HW2 8196   3.368   6.489   2.512
 2433SOL     OW 8197   2.186   6.481   0.068
 2433SOL    HW1 8198   2.125   6.532   0.007
 2433SOL    HW2 8199   2.168   6.383   0.059
 2434SOL     OW 8200   5.194   1.627   3.086
 2434SOL    HW1 8201   5.176   1.639   3.183
 2434SOL    HW2 8202   5.109   1.604   3.038
 2435SOL     OW 8203   5.347   4.701   0.268
 2435SOL    HW1 8204   5.430   4.731   0.314
 2435SOL    HW2 8205   5.268   4.743   0.312
 2436SOL     OW 8206   2.017   6.877   1.433
 2436SOL    HW1 8207   1.988   6.885   1.528
 2436SOL    HW2 8208   2.093   6.940   1.416
 2437SOL     OW 8209   5.150   6.366   1.508
 2437SOL    HW1 8210   5.084   6.436   1.537
 2437SOL    HW2 8211   5.201   6.333   1.588
 2438SOL     OW 8212   4.209   0.987   4.357
 2438SOL    HW1 8213   4.263   0.907   4.382
 2438SOL    HW2 8214   4.164   1.023   4.439
 2439SOL     OW 8215   0.870   4.166   0.426
 2439SOL    HW1 8216   0.824   4.244   0.384
 2439SOL    HW2 8217   0.955   4.196   0.469
 2440SOL     OW 8218   3.997   6.554   5.388
 2440SOL    HW1 8219   4.070   6.622   5.383
 2440SOL    HW2 8220   4.031   6.472   5.435
 2441SOL     OW 8221   5.944   0.651   0.033
 2441SOL    HW1 8222   5.927   0.556   0.007
 2441SOL    HW2 8223   5.945   0.709   6.973
 2442SOL     OW 8224   5.453   5.589   2.827
 2442SOL    HW1 8225   5.420   5.597   2.922
 2442SOL    HW2 8226   5.551   5.607   2.825
 2443SOL     OW 8227   3.180   0.226   6.269
 2443SOL    HW1 8228   3.095   0.223   6.215
 2443SOL    HW2 8229   3.241   0.294   6.230
 2444SOL     OW 8230   3.582   3.743   0.169
 2444SOL    HW1 8231   3.529   3.736   0.084
 2444SOL    HW2 8232   3.677   3.717   0.150
 2445SOL     OW 8233   6.204   1.306   1.957
 2445SOL    HW1 8234   6.163   1.283   1.869
 2445SOL    HW2 8235   6.275   1.239   1.979
 2446SOL     OW 8236   1.035   3.105   4.785
 2446SOL    HW1 8237   1.116   3.135   4.733
 2446SOL    HW2 8238   1.060   3.094   4.881
 2447SOL     OW 8239   2.415   1.376   1.053
 2447SOL    HW1 8240   2.451   1.293   1.098
 2447SOL    HW2 8241   2.404   1.448   1.122
 2448SOL     OW 8242   6.535   1.444   4.088
 2448SOL    HW1 8243   6.531   1.544   4.089
 2448SOL    HW2 8244   6.498   1.408   4.174
 2449SOL     OW 8245   0.490   4.085   1.919
 2449SOL    HW1 8246   0.535   4.042   1.840
 2449SOL    HW2 8247   0.471   4.181   1.899
 2450SOL     OW 8248   3.537   4.670   6.416
 2450SOL    HW1 8249   3.608   4.635   6.356
 2450SOL    HW2 8250   3.447   4.647   6.379
 2451SOL     OW 8251   1.390   6.948   3.390
 2451SOL    HW1 8252   1.328   6.945   3.468
 2451SOL    HW2 8253   1.376   6.868   3.332
 2452SOL     OW 8254   3.001   1.961   3.931
 2452SOL    HW1 8255   3.082   1.916   3.970
 2452SOL    HW2 8256   3.010   2.060   3.942
 2453SOL     OW 8257   0.240   3.472   0.436
 2453SOL    HW1 8258   0.195   3.402   0.492
 2453SOL    HW2 8259   0.266   3.432   0.348
 2454SOL     OW 8260   3.216   0.505   0.009
 2454SOL    HW1 8261   3.194   0.496   6.934
 2454SOL    HW2 8262   3.233   0.415   0.048
 2455SOL     OW 8263   3.942   0.545   0.388
 2455SOL    HW1 8264   3.989   0.561   0.301
 2455SOL    HW2 8265   3.850   0.584   0.383
 2456SOL     OW 8266   6.618   2.514   6.934
 2456SOL    HW1 8267   6.647   2.496   6.840
 2456SOL    HW2 8268   6.599   2.428   6.980
 2457SOL     OW 8269   6.531   0.838   6.182
 2457SOL    HW1 8270   6.445   0.855   6.133
 2457SOL    HW2 8271   6.515   0.851   6.280
 2458SOL     OW 8272   1.599   6.579   3.892
 2458SOL    HW1 8273   1.638   6.489   3.910
 2458SOL    HW2 8274   1.573   6.623   3.978
 2459SOL     OW 8275   2.867   5.935   5.926
 2459SOL    HW1 8276   2.884   5.970   6.018
 2459SOL    HW2 8277   2.851   5.836   5.931
 2460SOL     OW 8278   1.132   1.293   1.407
 2460SOL    HW1 8279   1.176   1.327   1.490
 2460SOL    HW2 8280   1.202   1.260   1.344
 2461SOL     OW 8281   5.234   0.766   2.974
 2461SOL    HW1 8282   5.299   0.715   2.917
 2461SOL    HW2 8283   5.252   0.748   3.071
 2462SOL     OW 8284   1.856   5.330   7.013
 2462SOL    HW1 8285   1.828   5.240   6.978
 2462SOL    HW2 8286   1.928   5.368   6.955
 2463SOL     OW 8287   5.900   1.967   6.725
 2463SOL    HW1 8288   5.823   1.962   6.789
 2463SOL    HW2 8289   5.976   2.016   6.768
 2464SOL     OW 8290   2.022   3.895   2.649
 2464SOL    HW1 8291   2.095   3.959   2.676
 2464SOL    HW2 8292   2.062   3.820   2.596
 2465SOL     OW 8293   1.253   0.046   0.107
 2465SOL    HW1 8294   1.201   0.131   0.098
 2465SOL    HW2 8295   1.246   7.016   0.022
 2466SOL     OW 8296   2.695   1.919   3.052
 2466SOL    HW1 8297   2.770   1.889   2.992
 2466SOL    HW2 8298   2.727   1.919   3.146
 2467SOL     OW 8299   5.169   1.572   4.687
 2467SOL    HW1 8300   5.104   1.641   4.718
 2467SOL    HW2 8301   5.255   1.616   4.662
 2468SOL     OW 8302   4.542   6.449   1.777
 2468SOL    HW1 8303   4.577   6.438   1.684
 2468SOL    HW2 8304   4.534   6.546   1.800
 2469SOL     OW 8305   4.463   3.907   5.358
 2469SOL    HW1 8306   4.410   3.973   5.304
 2469SOL    HW2 8307   4.405   3.869   5.430
 2470SOL     OW 8308   4.741   4.074   6.157
 2470SOL    HW1 8309   4.836   4.062   6.126
 2470SOL    HW2 8310   4.732   4.037   6.249
 2471SOL     OW 8311   2.741   6.199   0.628
 2471SOL    HW1 8312   2.681   6.119   0.620
 2471SOL    HW2 8313   2.733   6.236   0.720
 2472SOL     OW 8314   4.914   2.419   3.572
 2472SOL    HW1 8315   4.825   2.463   3.565
 2472SOL    HW2 8316   4.908   2.341   3.635
 2473SOL     OW 8317   2.173   3.617   4.872
 2473SOL    HW1 8318   2.137   3.680   4.940
 2473SOL    HW2 8319   2.227   3.667   4.804
 2474SOL     OW 8320   0.190   5.840   1.274
 2474SOL    HW1 8321   0.254   5.765   1.260
 2474SOL    HW2 8322   0.198   5.874   1.367
 2475SOL     OW 8323   3.880   0.694   3.429
 2475SOL    HW1 8324   3.824   0.630   3.376
 2475SOL    HW2 8325   3.885   0.663   3.523
 2476SOL     OW 8326   6.774   1.507   2.839
 2476SOL    HW1 8327   6.794   1.590   2.788
 2476SOL    HW2 8328   6.857   1.452   2.846
 2477SOL     OW 8329   4.147   1.231   2.274
 2477SOL    HW1 8330   4.156   1.235   2.174
 2477SOL    HW2 8331   4.077   1.164   2.299
 2478SOL     OW 8332   6.363   1.231   1.676
 2478SOL    HW1 8333   6.316   1.253   1.590
 2478SOL    HW2 8334   6.315   1.156   1.722
 2479SOL     OW 8335   1.409   3.670   1.810
 2479SOL    HW1 8336   1.437   3.745   1.750
 2479SOL    HW2 8337   1.319   3.689   1.848
 2480SOL     OW 8338   4.890   4.120   0.792
 2480SOL    HW1 8339   4.854   4.132   0.700
 2480SOL    HW2 8340   4.815   4.094   0.854
 2481SOL     OW 8341   2.737   6.782   0.725
 2481SOL    HW1 8342   2.836   6.785   0.714
 2481SOL    HW2 8343   2.695   6.844   0.659
 2482SOL     OW 8344   5.384   3.388   6.170
 2482SOL    HW1 8345   5.374   3.348   6.261
 2482SOL    HW2 8346   5.481   3.411   6.155
 2483SOL     OW 8347   1.864   1.400   0.750
 2483SOL    HW1 8348   1.769   1.405   0.782
 2483SOL    HW2 8349   1.920   1.466   0.800
 2484SOL     OW 8350   3.472   0.922   0.185
 2484SOL    HW1 8351   3.473   1.013   0.143
 2484SOL    HW2 8352   3.531   0.922   0.265
 2485SOL     OW 8353   6.416   3.697   1.588
 2485SOL    HW1 8354   6.428   3.676   1.491
 2485SOL    HW2 8355   6.339   3.645   1.625
 2486SOL     OW 8356   1.880   4.793   4.567
 2486SOL    HW1 8357   1.936   4.714   4.591
 2486SOL    HW2 8358   1.786   4.764   4.552
 2487SOL     OW 8359   4.066   6.016   0.559
 2487SOL    HW1 8360   4.133   5.942   0.553
 2487SOL    HW2 8361   4.114   6.103   0.575
 2488SOL     OW 8362   1.611   4.520   2.169
 2488SOL    HW1 8363   1.549   4.598   2.156
 2488SOL    HW2 8364   1.590   4.477   2.257
 2489SOL     OW 8365   1.363   5.540   2.843
 2489SOL    HW1 8366   1.363   5.445   2.812
 2489SOL    HW2 8367   1.439   5.554   2.908
 2490SOL     OW 8368   6.729   4.777   1.711
 2490SOL    HW1 8369   6.670   4.768   1.631
 2490SOL    HW2 8370   6.729   4.691   1.762
 2491SOL     OW 8371   1.944   5.326   0.813
 2491SOL    HW1 8372   1.852   5.350   0.783
 2491SOL    HW2 8373   2.011   5.361   0.747
 2492SOL     OW 8374   4.341   2.190   1.147
 2492SOL    HW1 8375   4.276   2.171   1.220
 2492SOL    HW2 8376   4.294   2.194   1.059
 2493SOL     OW 8377   6.002   0.557   2.298
 2493SOL    HW1 8378   5.970   0.476   2.249
 2493SOL    HW2 8379   5.975   0.550   2.394
 2494SOL     OW 8380   5.912   4.102   2.271
 2494SOL    HW1 8381   5.843   4.125   2.203
 2494SOL    HW2 8382   5.871   4.044   2.341
 2495SOL     OW 8383   5.615   0.424   4.342
 2495SOL    HW1 8384   5.665   0.393   4.261
 2495SOL    HW2 8385   5.528   0.465   4.313
 2496SOL     OW 8386   6.495   3.397   5.851
 2496SOL    HW1 8387   6.466   3.398   5.946
 2496SOL    HW2 8388   6.550   3.479   5.832
 2497SOL     OW 8389   0.688   0.287   0.651
 2497SOL    HW1 8390   0.593   0.282   0.682
 2497SOL    HW2 8391   0.710   0.205   0.598
 2498SOL     OW 8392   2.621   1.813   4.463
 2498SOL    HW1 8393   2.614   1.789   4.559
 2498SOL    HW2 8394   2.629   1.730   4.408
 2499SOL     OW 8395   6.434   1.978   2.731
 2499SOL    HW1 8396   6.396   1.928   2.653
 2499SOL    HW2 8397   6.530   1.997   2.714
 2500SOL     OW 8398   4.310   2.817   0.205
 2500SOL    HW1 8399   4.234   2.785   0.149
 2500SOL    HW2 8400   4.364   2.884   0.153
 2501SOL     OW 8401   5.700   5.390   0.076
 2501SOL    HW1 8402   5.752   5.346   0.149
 2501SOL    HW2 8403   5.749   5.470   0.044
 2502SOL     OW 8404   1.346   5.396   3.577
 2502SOL    HW1 8405   1.263   5.390   3.632
 2502SOL    HW2 8406   1.323   5.423   3.483
 2503SOL     OW 8407   2.914   5.555   4.008
 2503SOL    HW1 8408   2.997   5.524   3.962
 2503SOL    HW2 8409   2.839   5.559   3.942
 2504SOL     OW 8410   3.826   5.274   4.232
 2504SOL    HW1 8411   3.760   5.328   4.285
 2504SOL    HW2 8412   3.790   5.182   4.218
 2505SOL     OW 8413   1.404   6.134   3.135
 2505SOL    HW1 8414   1.501   6.131   3.112
 2505SOL    HW2 8415   1.391   6.191   3.216
 2506SOL     OW 8416   6.752   3.880   5.338
 2506SOL    HW1 8417   6.845   3.882   5.303
 2506SOL    HW2 8418   6.752   3.840   5.430
 2507SOL     OW 8419   1.187   4.078   1.190
 2507SOL    HW1 8420   1.226   4.053   1.101
 2507SOL    HW2 8421   1.211   4.010   1.258
 2508SOL     OW 8422   2.212   1.463   2.415
 2508SOL    HW1 8423   2.193   1.366   2.428
 2508SOL    HW2 8424   2.201   1.486   2.318
 2509SOL     OW 8425   0.092   2.679   1.438
 2509SOL    HW1 8426   7.020   2.712   1.449
 2509SOL    HW2 8427   0.152   2.727   1.501
 2510SOL     OW 8428   2.859   4.485   1.433
 2510SOL    HW1 8429   2.763   4.497   1.458
 2510SOL    HW2 8430   2.915   4.480   1.516
 2511SOL     OW 8431   2.952   2.244   4.031
 2511SOL    HW1 8432   2.906   2.205   4.110
 2511SOL    HW2 8433   2.909   2.332   4.008
 2512SOL     OW 8434   5.442   4.212   4.927
 2512SOL    HW1 8435   5.524   4.265   4.946
 2512SOL    HW2 8436   5.373   4.272   4.886
 2513SOL     OW 8437   1.103   4.012   5.066
 2513SOL    HW1 8438   1.176   3.990   5.130
 2513SOL    HW2 8439   1.076   4.107   5.077
 2514SOL     OW 8440   6.135   3.740   4.260
 2514SOL    HW1 8441   6.208   3.711   4.199
 2514SOL    HW2 8442   6.071   3.799   4.211
 2515SOL     OW 8443   1.487   6.370   0.575
 2515SOL    HW1 8444   1.571   6.325   0.545
 2515SOL    HW2 8445   1.430   6.391   0.496
 2516SOL     OW 8446   6.177   1.151   2.875
 2516SOL    HW1 8447   6.111   1.222   2.853
 2516SOL    HW2 8448   6.174   1.079   2.805
 2517SOL     OW 8449   1.338   5.904   5.877
 2517SOL    HW1 8450   1.424   5.943   5.911
 2517SOL    HW2 8451   1.261   5.943   5.927
 2518SOL     OW 8452   1.318   4.265   0.121
 2518SOL    HW1 8453   1.367   4.323   0.186
 2518SOL    HW2 8454   1.384   4.224   0.057
 2519SOL     OW 8455   4.732   6.676   3.073
 2519SOL    HW1 8456   4.791   6.661   3.153
 2519SOL    HW2 8457   4.786   6.662   2.990
 2520SOL     OW 8458   2.641   1.886   0.074
 2520SOL    HW1 8459   2.704   1.963   0.087
 2520SOL    HW2 8460   2.689   1.812   0.026
 2521SOL     OW 8461   1.163   0.107   5.061
 2521SOL    HW1 8462   1.155   0.050   4.979
 2521SOL    HW2 8463   1.171   0.203   5.034
 2522SOL     OW 8464   0.628   3.564   5.234
 2522SOL    HW1 8465   0.644   3.549   5.136
 2522SOL    HW2 8466   0.716   3.573   5.281
 2523SOL     OW 8467   0.331   3.047   1.458
 2523SOL    HW1 8468   0.303   2.970   1.516
 2523SOL    HW2 8469   0.273   3.051   1.377
 2524SOL     OW 8470   1.472   6.200   5.355
 2524SOL    HW1 8471   1.500   6.294   5.334
 2524SOL    HW2 8472   1.513   6.138   5.288
 2525SOL     OW 8473   1.162   2.226   5.094
 2525SOL    HW1 8474   1.164   2.283   5.177
 2525SOL    HW2 8475   1.158   2.285   5.014
 2526SOL     OW 8476   1.618   3.846   5.561
 2526SOL    HW1 8477   1.628   3.775   5.631
 2526SOL    HW2 8478   1.547   3.910   5.589
 2527SOL     OW 8479   5.149   6.268   4.760
 2527SOL    HW1 8480   5.106   6.181   4.782
 2527SOL    HW2 8481   5.112   6.303   4.674
 2528SOL     OW 8482   5.300   5.038   1.151
 2528SOL    HW1 8483   5.317   5.099   1.073
 2528SOL    HW2 8484   5.384   5.028   1.204
 2529SOL     OW 8485   0.107   6.529   6.489
 2529SOL    HW1 8486   0.158   6.528   6.575
 2529SOL    HW2 8487   0.106   6.622   6.452
 2530SOL     OW 8488   2.522   6.941   5.716
 2530SOL    HW1 8489   2.538   0.014   5.688
 2530SOL    HW2 8490   2.470   6.894   5.644
 2531SOL     OW 8491   4.885   6.130   4.313
 2531SOL    HW1 8492   4.886   6.089   4.404
 2531SOL    HW2 8493   4.795   6.167   4.294
 2532SOL     OW 8494   1.247   0.148   1.253
 2532SOL    HW1 8495   1.149   0.141   1.276
 2532SOL    HW2 8496   1.273   0.070   1.197
 2533SOL     OW 8497   2.945   0.181   2.777
 2533SOL    HW1 8498   2.884   0.180   2.856
 2533SOL    HW2 8499   2.946   0.090   2.734
 2534SOL     OW 8500   3.248   0.436   3.340
 2534SOL    HW1 8501   3.280   0.404   3.429
 2534SOL    HW2 8502   3.150   0.456   3.345
 2535SOL     OW 8503   3.195   2.188   5.652
 2535SOL    HW1 8504   3.152   2.101   5.629
 2535SOL    HW2 8505   3.154   2.224   5.736
 2536SOL     OW 8506   0.317   2.247   4.604
 2536SOL    HW1 8507   0.222   2.235   4.631
 2536SOL    HW2 8508   0.345   2.341   4.623
 2537SOL     OW 8509   3.745   6.976   6.017
 2537SOL    HW1 8510   3.652   6.964   5.983
 2537SOL    HW2 8511   3.804   7.010   5.944
 2538SOL     OW 8512   1.352   4.947   5.408
 2538SOL    HW1 8513   1.391   4.856   5.397
 2538SOL    HW2 8514   1.323   4.960   5.504
 2539SOL     OW 8515   4.759   0.618   5.627
 2539SOL    HW1 8516   4.858   0.616   5.615
 2539SOL    HW2 8517   4.721   0.700   5.584
 2540SOL     OW 8518   3.711   0.794   2.562
 2540SOL    HW1 8519   3.806   0.821   2.580
 2540SOL    HW2 8520   3.708   0.729   2.486
 2541SOL     OW 8521   1.893   6.729   4.755
 2541SOL    HW1 8522   1.988   6.706   4.733
 2541SOL    HW2 8523   1.875   6.707   4.850
 2542SOL     OW 8524   4.665   0.695   5.896
 2542SOL    HW1 8525   4.661   0.679   5.797
 2542SOL    HW2 8526   4.737   0.639   5.936
 2543SOL     OW 8527   1.756   1.744   2.866
 2543SOL    HW1 8528   1.752   1.717   2.962
 2543SOL    HW2 8529   1.697   1.683   2.812
 2544SOL     OW 8530   0.382   6.219   0.835
 2544SOL    HW1 8531   0.374   6.139   0.895
 2544SOL    HW2 8532   0.309   6.284   0.856
 2545SOL     OW 8533   2.343   1.041   1.515
 2545SOL    HW1 8534   2.378   1.047   1.422
 2545SOL    HW2 8535   2.362   1.126   1.564
 2546SOL     OW 8536   0.248   2.241   1.470
 2546SOL    HW1 8537   0.206   2.151   1.482
 2546SOL    HW2 8538   0.176   2.310   1.456
 2547SOL     OW 8539   5.865   4.007   0.507
 2547SOL    HW1 8540   5.897   4.098   0.483
 2547SOL    HW2 8541   5.767   4.011   0.528
 2548SOL     OW 8542   2.656   6.485   5.449
 2548SOL    HW1 8543   2.726   6.418   5.473
 2548SOL    HW2 8544   2.666   6.511   5.353
 2549SOL     OW 8545   1.893   0.978   0.817
 2549SOL    HW1 8546   1.908   0.909   0.888
 2549SOL    HW2 8547   1.858   1.062   0.859
 2550SOL     OW 8548   6.918   0.431   6.215
 2550SOL    HW1 8549   6.930   0.501   6.145
 2550SOL    HW2 8550   6.968   0.458   6.298
 2551SOL     OW 8551   3.841   4.675   0.262
 2551SOL    HW1 8552   3.781   4.751   0.288
 2551SOL    HW2 8553   3.787   4.592   0.251
 2552SOL     OW 8554   2.171   5.810   6.114
 2552SOL    HW1 8555   2.130   5.801   6.023
 2552SOL    HW2 8556   2.150   5.901   6.151
 2553SOL     OW 8557   4.196   2.986   6.361
 2553SOL    HW1 8558   4.268   3.050   6.332
 2553SOL    HW2 8559   4.113   3.004   6.310
 2554SOL     OW 8560   2.237   5.991   0.425
 2554SOL    HW1 8561   2.154   6.043   0.445
 2554SOL    HW2 8562   2.213   5.894   0.411
 2555SOL     OW 8563   6.201   0.096   6.918
 2555SOL    HW1 8564   6.130   0.070   6.984
 2555SOL    HW2 8565   6.160   0.111   6.828
 2556SOL     OW 8566   4.616   5.464   0.268
 2556SOL    HW1 8567   4.648   5.378   0.307
 2556SOL    HW2 8568   4.567   5.516   0.338
 2557SOL     OW 8569   2.661   2.972   6.469
 2557SOL    HW1 8570   2.616   3.007   6.551
 2557SOL    HW2 8571   2.632   3.025   6.390
 2558SOL     OW 8572   4.519   2.889   6.199
 2558SOL    HW1 8573   4.490   2.795   6.184
 2558SOL    HW2 8574   4.439   2.949   6.203
 2559SOL     OW 8575   6.128   4.164   3.960
 2559SOL    HW1 8576   6.192   4.147   3.885
 2559SOL    HW2 8577   6.040   4.194   3.924
 2560SOL     OW 8578   5.654   3.067   4.255
 2560SOL    HW1 8579   5.746   3.087   4.220
 2560SOL    HW2 8580   5.610   3.000   4.196
 2561SOL     OW 8581   2.761   6.793   4.324
 2561SOL    HW1 8582   2.807   6.869   4.278
 2561SOL    HW2 8583   2.667   6.786   4.291
 2562SOL     OW 8584   1.246   5.663   2.497
 2562SOL    HW1 8585   1.149   5.683   2.514
 2562SOL    HW2 8586   1.254   5.570   2.461
 2563SOL     OW 8587   3.908   1.981   0.920
 2563SOL    HW1 8588   3.814   1.976   0.886
 2563SOL    HW2 8589   3.908   2.008   1.016
 2564SOL     OW 8590   2.063   6.053   6.189
 2564SOL    HW1 8591   2.151   6.091   6.160
 2564SOL    HW2 8592   2.028   6.106   6.266
 2565SOL     OW 8593   0.342   0.111   0.265
 2565SOL    HW1 8594   0.318   0.137   0.359
 2565SOL    HW2 8595   0.332   0.191   0.205
 2566SOL     OW 8596   2.225   0.066   1.358
 2566SOL    HW1 8597   2.207   0.130   1.433
 2566SOL    HW2 8598   2.218   0.114   1.271
 2567SOL     OW 8599   1.089   1.502   1.217
 2567SOL    HW1 8600   1.169   1.560   1.203
 2567SOL    HW2 8601   1.091   1.465   1.310
 2568SOL     OW 8602   3.083   6.501   0.145
 2568SOL    HW1 8603   3.167   6.552   0.130
 2568SOL    HW2 8604   3.016   6.559   0.192
 2569SOL     OW 8605   2.839   1.210   1.645
 2569SOL    HW1 8606   2.906   1.162   1.702
 2569SOL    HW2 8607   2.762   1.150   1.627
 2570SOL     OW 8608   5.851   0.487   6.475
 2570SOL    HW1 8609   5.859   0.431   6.557
 2570SOL    HW2 8610   5.868   0.431   6.394
 2571SOL     OW 8611   2.266   4.302   5.094
 2571SOL    HW1 8612   2.283   4.302   5.192
 2571SOL    HW2 8613   2.284   4.211   5.057
 2572SOL     OW 8614   2.053   5.136   0.303
 2572SOL    HW1 8615   2.013   5.091   0.223
 2572SOL    HW2 8616   2.108   5.071   0.355
 2573SOL     OW 8617   6.648   2.040   1.818
 2573SOL    HW1 8618   6.628   1.948   1.785
 2573SOL    HW2 8619   6.585   2.105   1.775
 2574SOL     OW 8620   6.494   3.827   6.669
 2574SOL    HW1 8621   6.477   3.836   6.767
 2574SOL    HW2 8622   6.477   3.915   6.624
 2575SOL     OW 8623   5.360   5.546   6.952
 2575SOL    HW1 8624   5.358   5.460   7.003
 2575SOL    HW2 8625   5.390   5.620   7.012
 2576SOL     OW 8626   3.419   0.180   4.160
 2576SOL    HW1 8627   3.482   0.156   4.234
 2576SOL    HW2 8628   3.457   0.256   4.107
 2577SOL     OW 8629   3.464   6.823   1.762
 2577SOL    HW1 8630   3.416   6.793   1.679
 2577SOL    HW2 8631   3.429   6.772   1.841
 2578SOL     OW 8632   5.165   2.053   3.509
 2578SOL    HW1 8633   5.104   2.045   3.588
 2578SOL    HW2 8634   5.217   1.968   3.498
 2579SOL     OW 8635   1.342   6.281   2.560
 2579SOL    HW1 8636   1.285   6.205   2.528
 2579SOL    HW2 8637   1.434   6.247   2.582
 2580SOL     OW 8638   2.527   2.733   6.665
 2580SOL    HW1 8639   2.569   2.747   6.576
 2580SOL    HW2 8640   2.446   2.792   6.674
 2581SOL     OW 8641   0.805   4.132   0.778
 2581SOL    HW1 8642   0.777   4.072   0.703
 2581SOL    HW2 8643   0.752   4.216   0.776
 2582SOL     OW 8644   0.837   4.943   2.067
 2582SOL    HW1 8645   0.764   4.881   2.094
 2582SOL    HW2 8646   0.893   4.901   1.995
 2583SOL     OW 8647   0.813   1.133   0.314
 2583SOL    HW1 8648   0.851   1.147   0.223
 2583SOL    HW2 8649   0.746   1.204   0.334
 2584SOL     OW 8650   4.275   5.618   0.366
 2584SOL    HW1 8651   4.176   5.599   0.362
 2584SOL    HW2 8652   4.314   5.607   0.274
 2585SOL     OW 8653   5.043   2.154   0.705
 2585SOL    HW1 8654   4.943   2.151   0.707
 2585SOL    HW2 8655   5.072   2.237   0.657
 2586SOL     OW 8656   3.685   1.165   3.464
 2586SOL    HW1 8657   3.691   1.213   3.377
 2586SOL    HW2 8658   3.752   1.204   3.528
 2587SOL     OW 8659   0.388   1.253   3.430
 2587SOL    HW1 8660   0.351   1.199   3.354
 2587SOL    HW2 8661   0.457   1.317   3.396
 2588SOL     OW 8662   4.171   0.573   6.448
 2588SOL    HW1 8663   4.217   0.493   6.411
 2588SOL    HW2 8664   4.108   0.610   6.380
 2589SOL     OW 8665   0.519   6.059   6.212
 2589SOL    HW1 8666   0.581   6.075   6.135
 2589SOL    HW2 8667   0.514   5.961   6.231
 2590SOL     OW 8668   3.748   5.846   0.936
 2590SOL    HW1 8669   3.722   5.875   1.029
 2590SOL    HW2 8670   3.810   5.914   0.897
 2591SOL     OW 8671   0.100   5.906   2.538
 2591SOL    HW1 8672   0.132   5.971   2.607
 2591SOL    HW2 8673   0.100   5.949   2.448
 2592SOL     OW 8674   3.830   5.356   0.444
 2592SOL    HW1 8675   3.782   5.284   0.394
 2592SOL    HW2 8676   3.783   5.375   0.530
 2593SOL     OW 8677   3.255   5.427   0.458
 2593SOL    HW1 8678   3.311   5.473   0.390
 2593SOL    HW2 8679   3.202   5.354   0.414
 2594SOL     OW 8680   1.421   5.288   6.402
 2594SOL    HW1 8681   1.346   5.221   6.394
 2594SOL    HW2 8682   1.502   5.252   6.355
 2595SOL     OW 8683   6.339   1.847   4.327
 2595SOL    HW1 8684   6.378   1.783   4.394
 2595SOL    HW2 8685   6.386   1.837   4.240
 2596SOL     OW 8686   3.260   1.650   1.906
 2596SOL    HW1 8687   3.313   1.610   1.831
 2596SOL    HW2 8688   3.318   1.715   1.956
 2597SOL     OW 8689   1.756   4.765   5.885
 2597SOL    HW1 8690   1.816   4.845   5.888
 2597SOL    HW2 8691   1.711   4.760   5.795
 2598SOL     OW 8692   6.349   1.408   3.385
 2598SOL    HW1 8693   6.323   1.342   3.456
 2598SOL    HW2 8694   6.447   1.428   3.392
 2599SOL     OW 8695   2.396   6.734   1.480
 2599SOL    HW1 8696   2.371   6.789   1.400
 2599SOL    HW2 8697   2.358   6.642   1.470
 2600SOL     OW 8698   5.592   3.080   4.939
 2600SOL    HW1 8699   5.640   3.006   4.985
 2600SOL    HW2 8700   5.653   3.124   4.873
 2601SOL     OW 8701   2.346   1.677   1.044
 2601SOL    HW1 8702   2.348   1.673   1.144
 2601SOL    HW2 8703   2.436   1.703   1.009
 2602SOL     OW 8704   0.913   4.100   4.433
 2602SOL    HW1 8705   0.940   4.004   4.441
 2602SOL    HW2 8706   0.878   4.117   4.341
 2603SOL     OW 8707   2.465   1.299   3.841
 2603SOL    HW1 8708   2.451   1.389   3.883
 2603SOL    HW2 8709   2.456   1.306   3.742
 2604SOL     OW 8710   4.700   1.814   2.773
 2604SOL    HW1 8711   4.632   1.886   2.787
 2604SOL    HW2 8712   4.740   1.823   2.681
 2605SOL     OW 8713   2.005   3.554   2.735
 2605SOL    HW1 8714   2.073   3.588   2.671
 2605SOL    HW2 8715   1.914   3.584   2.708
 2606SOL     OW 8716   5.684   4.307   2.008
 2606SOL    HW1 8717   5.676   4.394   2.057
 2606SOL    HW2 8718   5.602   4.252   2.023
 2607SOL     OW 8719   1.428   1.525   0.929
 2607SOL    HW1 8720   1.345   1.485   0.968
 2607SOL    HW2 8721   1.408   1.557   0.836
 2608SOL     OW 8722   4.468   5.085   1.634
 2608SOL    HW1 8723   4.479   5.039   1.546
 2608SOL    HW2 8724   4.506   5.028   1.707
 2609SOL     OW 8725   6.626   1.006   1.103
 2609SOL    HW1 8726   6.713   0.965   1.131
 2609SOL    HW2 8727   6.575   0.940   1.048
 2610SOL     OW 8728   1.132   4.657   5.285
 2610SOL    HW1 8729   1.067   4.719   5.240
 2610SOL    HW2 8730   1.086   4.612   5.362
 2611SOL     OW 8731   4.453   6.867   1.248
 2611SOL    HW1 8732   4.375   6.922   1.277
 2611SOL    HW2 8733   4.423   6.774   1.228
 2612SOL     OW 8734   6.382   0.242   5.998
 2612SOL    HW1 8735   6.473   0.225   5.961
 2612SOL    HW2 8736   6.319   0.265   5.924
 2613SOL     OW 8737   2.871   6.042   6.227
 2613SOL    HW1 8738   2.784   6.080   6.259
 2613SOL    HW2 8739   2.947   6.088   6.274
 2614SOL     OW 8740   6.893   0.770   5.697
 2614SOL    HW1 8741   6.986   0.794   5.669
 2614SOL    HW2 8742   6.851   0.711   5.628
 2615SOL     OW 8743   6.965   3.132   2.986
 2615SOL    HW1 8744   6.984   3.135   2.888
 2615SOL    HW2 8745   0.028   3.119   3.037
 2616SOL     OW 8746   3.420   3.095   5.493
 2616SOL    HW1 8747   3.428   3.110   5.395
 2616SOL    HW2 8748   3.503   3.052   5.527
 2617SOL     OW 8749   3.737   6.347   0.430
 2617SOL    HW1 8750   3.721   6.352   0.332
 2617SOL    HW2 8751   3.761   6.253   0.455
 2618SOL     OW 8752   6.975   0.651   4.284
 2618SOL    HW1 8753   0.038   0.613   4.250
 2618SOL    HW2 8754   6.918   0.577   4.319
 2619SOL     OW 8755   3.923   1.846   3.098
 2619SOL    HW1 8756   3.892   1.936   3.068
 2619SOL    HW2 8757   3.994   1.857   3.168
 2620SOL     OW 8758   6.437   6.912   3.634
 2620SOL    HW1 8759   6.365   6.887   3.699
 2620SOL    HW2 8760   6.434   6.850   3.555
 2621SOL     OW 8761   0.916   5.344   2.428
 2621SOL    HW1 8762   0.925   5.257   2.477
 2621SOL    HW2 8763   0.826   5.384   2.448
 2622SOL     OW 8764   1.970   3.573   5.358
 2622SOL    HW1 8765   2.064   3.605   5.370
 2622SOL    HW2 8766   1.957   3.542   5.264
 2623SOL     OW 8767   1.227   0.772   5.678
 2623SOL    HW1 8768   1.133   0.793   5.706
 2623SOL    HW2 8769   1.281   0.857   5.677
 2624SOL     OW 8770   6.505   1.347   5.127
 2624SOL    HW1 8771   6.534   1.392   5.042
 2624SOL    HW2 8772   6.462   1.414   5.188
 2625SOL     OW 8773   2.206   3.195   5.126
 2625SOL    HW1 8774   2.173   3.168   5.217
 2625SOL    HW2 8775   2.250   3.117   5.082
 2626SOL     OW 8776   0.546   0.319   6.070
 2626SOL    HW1 8777   0.447   0.301   6.075
 2626SOL    HW2 8778   0.560   0.416   6.051
 2627SOL     OW 8779   0.778   1.199   5.869
 2627SOL    HW1 8780   0.819   1.249   5.792
 2627SOL    HW2 8781   0.705   1.255   5.909
 2628SOL     OW 8782   2.063   4.832   5.755
 2628SOL    HW1 8783   2.148   4.873   5.721
 2628SOL    HW2 8784   2.085   4.746   5.802
 2629SOL     OW 8785   3.455   3.160   2.451
 2629SOL    HW1 8786   3.537   3.144   2.396
 2629SOL    HW2 8787   3.481   3.180   2.545
 2630SOL     OW 8788   3.276   1.913   2.659
 2630SOL    HW1 8789   3.250   1.853   2.583
 2630SOL    HW2 8790   3.332   1.989   2.623
 2631SOL     OW 8791   5.089   0.727   5.830
 2631SOL    HW1 8792   5.124   0.816   5.800
 2631SOL    HW2 8793   5.075   0.669   5.750
 2632SOL     OW 8794   5.371   3.247   6.413
 2632SOL    HW1 8795   5.323   3.160   6.429
 2632SOL    HW2 8796   5.431   3.267   6.490
 2633SOL     OW 8797   6.996   2.542   4.656
 2633SOL    HW1 8798   0.058   2.512   4.611
 2633SOL    HW2 8799   7.019   2.587   4.743
 2634SOL     OW 8800   0.670   4.777   3.629
 2634SOL    HW1 8801   0.598   4.770   3.559
 2634SOL    HW2 8802   0.659   4.703   3.695
 2635SOL     OW 8803   6.874   5.454   5.721
 2635SOL    HW1 8804   6.811   5.475   5.647
 2635SOL    HW2 8805   6.841   5.376   5.773
 2636SOL     OW 8806   3.866   0.485   4.744
 2636SOL    HW1 8807   3.768   0.500   4.752
 2636SOL    HW2 8808   3.911   0.567   4.709
 2637SOL     OW 8809   5.136   1.608   3.372
 2637SOL    HW1 8810   5.209   1.675   3.389
 2637SOL    HW2 8811   5.173   1.516   3.381
 2638SOL     OW 8812   6.780   0.252   3.908
 2638SOL    HW1 8813   6.721   0.171   3.899
 2638SOL    HW2 8814   6.871   0.231   3.873
 2639SOL     OW 8815   0.334   6.055   1.055
 2639SOL    HW1 8816   0.363   6.087   1.146
 2639SOL    HW2 8817   0.321   5.956   1.058
 2640SOL     OW 8818   0.636   5.977   5.745
 2640SOL    HW1 8819   0.686   6.002   5.828
 2640SOL    HW2 8820   0.545   6.018   5.748
 2641SOL     OW 8821   5.890   2.824   2.235
 2641SOL    HW1 8822   5.900   2.875   2.321
 2641SOL    HW2 8823   5.979   2.785   2.209
 2642SOL     OW 8824   4.890   6.804   3.606
 2642SOL    HW1 8825   4.977   6.802   3.558
 2642SOL    HW2 8826   4.899   6.758   3.694
 2643SOL     OW 8827   0.630   3.610   3.599
 2643SOL    HW1 8828   0.643   3.707   3.581
 2643SOL    HW2 8829   0.577   3.599   3.683
 2644SOL     OW 8830   4.869   6.559   5.396
 2644SOL    HW1 8831   4.824   6.474   5.368
 2644SOL    HW2 8832   4.965   6.541   5.415
 2645SOL     OW 8833   4.084   5.792   3.955
 2645SOL    HW1 8834   4.143   5.754   3.883
 2645SOL    HW2 8835   3.994   5.748   3.950
 2646SOL     OW 8836   5.867   0.923   6.877
 2646SOL    HW1 8837   5.833   0.965   6.793
 2646SOL    HW2 8838   5.853   0.985   6.954
 2647SOL     OW 8839   6.737   7.015   2.189
 2647SOL    HW1 8840   6.669   6.987   2.256
 2647SOL    HW2 8841   6.706   6.990   2.097
 2648SOL     OW 8842   0.675   7.020   3.825
 2648SOL    HW1 8843   0.721   0.004   3.737
 2648SOL    HW2 8844   0.742   0.006   3.899
 2649SOL     OW 8845   6.604   3.350   0.149
 2649SOL    HW1 8846   6.512   3.321   0.123
 2649SOL    HW2 8847   6.659   3.271   0.174
 2650SOL     OW 8848   0.807   4.868   3.960
 2650SOL    HW1 8849   0.862   4.836   4.037
 2650SOL    HW2 8850   0.860   4.859   3.876
 2651SOL     OW 8851   2.136   1.516   0.931
 2651SOL    HW1 8852   2.222   1.566   0.935
 2651SOL    HW2 8853   2.151   1.421   0.957
 2652SOL     OW 8854   3.934   3.857   5.085
 2652SOL    HW1 8855   3.962   3.951   5.069
 2652SOL    HW2 8856   3.890   3.821   5.002
 2653SOL     OW 8857   4.736   6.969   5.517
 2653SOL    HW1 8858   4.831   6.993   5.497
 2653SOL    HW2 8859   4.725   6.870   5.509
 2654SOL     OW 8860   4.194   0.234   2.433
 2654SOL    HW1 8861   4.165   0.280   2.517
 2654SOL    HW2 8862   4.113   0.208   2.380
 2655SOL     OW 8863   4.859   6.568   3.779
 2655SOL    HW1 8864   4.856   6.537   3.874
 2655SOL    HW2 8865   4.766   6.575   3.744
 2656SOL     OW 8866   3.627   4.906   4.590
 2656SOL    HW1 8867   3.595   4.990   4.634
 2656SOL    HW2 8868   3.697   4.863   4.647
 2657SOL     OW 8869   0.952   4.176   6.893
 2657SOL    HW1 8870   0.983   4.085   6.866
 2657SOL    HW2 8871   0.908   4.171   6.982
 2658SOL     OW 8872   4.869   4.543   0.938
 2658SOL    HW1 8873   4.820   4.479   0.879
 2658SOL    HW2 8874   4.968   4.533   0.923
 2659SOL     OW 8875   5.191   3.193   4.598
 2659SOL    HW1 8876   5.168   3.130   4.673
 2659SOL    HW2 8877   5.279   3.237   4.617
 2660SOL     OW 8878   2.052   6.965   1.944
 2660SOL    HW1 8879   1.982   6.988   2.011
 2660SOL    HW2 8880   2.087   6.873   1.962
 2661SOL     OW 8881   2.332   0.151   1.789
 2661SOL    HW1 8882   2.245   0.180   1.831
 2661SOL    HW2 8883   2.321   0.060   1.750
 2662SOL     OW 8884   4.332   6.340   5.093
 2662SOL    HW1 8885   4.233   6.321   5.096
 2662SOL    HW2 8886   4.361   6.348   4.998
 2663SOL     OW 8887   3.001   4.286   6.628
 2663SOL    HW1 8888   3.016   4.215   6.697
 2663SOL    HW2 8889   2.913   4.270   6.582
 2664SOL     OW 8890   4.384   3.510   5.625
 2664SOL    HW1 8891   4.370   3.558   5.538
 2664SOL    HW2 8892   4.477   3.474   5.630
 2665SOL     OW 8893   2.709   2.996   5.319
 2665SOL    HW1 8894   2.616   3.013   5.286
 2665SOL    HW2 8895   2.724   2.898   5.327
 2666SOL     OW 8896   6.625   5.030   1.240
 2666SOL    HW1 8897   6.537   5.075   1.254
 2666SOL    HW2 8898   6.653   5.042   1.145
 2667SOL     OW 8899   0.488   5.621   4.546
 2667SOL    HW1 8900   0.389   5.614   4.561
 2667SOL    HW2 8901   0.524   5.700   4.595
 2668SOL     OW 8902   0.611   3.539   4.955
 2668SOL    HW1 8903   0.528   3.594   4.945
 2668SOL    HW2 8904   0.613   3.468   4.885
 2669SOL     OW 8905   2.747   4.848   5.782
 2669SOL    HW1 8906   2.782   4.892   5.700
 2669SOL    HW2 8907   2.801   4.766   5.802
 2670SOL     OW 8908   5.250   3.283   5.733
 2670SOL    HW1 8909   5.224   3.371   5.694
 2670SOL    HW2 8910   5.221   3.278   5.828
 2671SOL     OW 8911   4.875   5.146   6.351
 2671SOL    HW1 8912   4.935   5.226   6.349
 2671SOL    HW2 8913   4.783   5.174   6.325
 2672SOL     OW 8914   2.088   4.713   0.444
 2672SOL    HW1 8915   2.115   4.660   0.363
 2672SOL    HW2 8916   1.994   4.745   0.433
 2673SOL     OW 8917   6.267   1.189   2.244
 2673SOL    HW1 8918   6.229   1.139   2.322
 2673SOL    HW2 8919   6.267   1.130   2.163
 2674SOL     OW 8920   1.223   4.720   3.911
 2674SOL    HW1 8921   1.190   4.663   3.986
 2674SOL    HW2 8922   1.271   4.799   3.948
 2675SOL     OW 8923   6.104   5.166   4.179
 2675SOL    HW1 8924   6.195   5.194   4.209
 2675SOL    HW2 8925   6.104   5.067   4.160
 2676SOL     OW 8926   3.834   2.662   1.053
 2676SOL    HW1 8927   3.821   2.564   1.039
 2676SOL    HW2 8928   3.781   2.692   1.132
 2677SOL     OW 8929   2.528   3.868   0.270
 2677SOL    HW1 8930   2.471   3.882   0.189
 2677SOL    HW2 8931   2.587   3.789   0.256
 2678SOL     OW 8932   0.252   2.566   1.260
 2678SOL    HW1 8933   0.308   2.509   1.321
 2678SOL    HW2 8934   0.194   2.626   1.315
 2679SOL     OW 8935   1.868   4.540   1.569
 2679SOL    HW1 8936   1.898   4.501   1.656
 2679SOL    HW2 8937   1.773   4.515   1.552
 2680SOL     OW 8938   1.431   1.655   0.640
 2680SOL    HW1 8939   1.444   1.745   0.599
 2680SOL    HW2 8940   1.346   1.654   0.693
 2681SOL     OW 8941   1.504   1.995   5.021
 2681SOL    HW1 8942   1.497   2.093   5.043
 2681SOL    HW2 8943   1.584   1.981   4.962
 2682SOL     OW 8944   4.741   4.351   3.302
 2682SOL    HW1 8945   4.744   4.430   3.240
 2682SOL    HW2 8946   4.835   4.324   3.325
 2683SOL     OW 8947   2.969   5.538   1.687
 2683SOL    HW1 8948   2.895   5.476   1.713
 2683SOL    HW2 8949   3.027   5.493   1.618
 2684SOL     OW 8950   4.519   5.996   1.674
 2684SOL    HW1 8951   4.529   6.049   1.590
 2684SOL    HW2 8952   4.518   5.898   1.651
 2685SOL     OW 8953   5.697   6.113   6.032
 2685SOL    HW1 8954   5.666   6.122   6.127
 2685SOL    HW2 8955   5.650   6.036   5.989
 2686SOL     OW 8956   2.017   1.599   5.699
 2686SOL    HW1 8957   2.060   1.666   5.638
 2686SOL    HW2 8958   1.924   1.582   5.669
 2687SOL     OW 8959   5.092   5.103   1.314
 2687SOL    HW1 8960   5.085   5.024   1.375
 2687SOL    HW2 8961   5.172   5.092   1.255
 2688SOL     OW 8962   3.122   3.619   0.415
 2688SOL    HW1 8963   3.056   3.543   0.411
 2688SOL    HW2 8964   3.084   3.698   0.367
 2689SOL     OW 8965   1.352   4.337   2.967
 2689SOL    HW1 8966   1.293   4.410   2.934
 2689SOL    HW2 8967   1.308   4.249   2.952
 2690SOL     OW 8968   3.721   2.851   5.093
 2690SOL    HW1 8969   3.785   2.928   5.095
 2690SOL    HW2 8970   3.727   2.800   5.178
 2691SOL     OW 8971   1.474   5.095   3.484
 2691SOL    HW1 8972   1.467   5.184   3.438
 2691SOL    HW2 8973   1.453   5.022   3.418
 2692SOL     OW 8974   2.819   5.873   3.091
 2692SOL    HW1 8975   2.863   5.905   3.175
 2692SOL    HW2 8976   2.777   5.950   3.043
 2693SOL     OW 8977   2.122   5.004   3.687
 2693SOL    HW1 8978   2.060   4.995   3.765
 2693SOL    HW2 8979   2.073   4.985   3.603
 2694SOL     OW 8980   4.254   6.230   3.140
 2694SOL    HW1 8981   4.312   6.223   3.059
 2694SOL    HW2 8982   4.289   6.169   3.211
 2695SOL     OW 8983   5.827   1.198   1.866
 2695SOL    HW1 8984   5.751   1.261   1.848
 2695SOL    HW2 8985   5.870   1.222   1.953
 2696SOL     OW 8986   3.475   3.205   5.841
 2696SOL    HW1 8987   3.462   3.169   5.749
 2696SOL    HW2 8988   3.516   3.296   5.836
 2697SOL     OW 8989   3.599   1.291   2.902
 2697SOL    HW1 8990   3.603   1.231   2.822
 2697SOL    HW2 8991   3.503   1.309   2.925
 2698SOL     OW 8992   1.648   5.324   0.630
 2698SOL    HW1 8993   1.584   5.388   0.586
 2698SOL    HW2 8994   1.714   5.291   0.562
 2699SOL     OW 8995   2.258   5.681   0.808
 2699SOL    HW1 8996   2.290   5.656   0.717
 2699SOL    HW2 8997   2.233   5.777   0.810
 2700SOL     OW 8998   3.220   3.185   0.217
 2700SOL    HW1 8999   3.310   3.226   0.203
 2700SOL    HW2 9000   3.163   3.203   0.136
 2701SOL     OW 9001   5.514   1.721   5.773
 2701SOL    HW1 9002   5.415   1.731   5.759
 2701SOL    HW2 9003   5.535   1.729   5.870
 2702SOL     OW 9004   0.215   3.164   3.371
 2702SOL    HW1 9005   0.178   3.121   3.453
 2702SOL    HW2 9006   0.254   3.253   3.395
 2703SOL     OW 9007   1.406   0.638   0.835
 2703SOL    HW1 9008   1.498   0.626   0.797
 2703SOL    HW2 9009   1.343   0.576   0.789
 2704SOL     OW 9010   6.850   5.377   1.865
 2704SOL    HW1 9011   6.766   5.430   1.875
 2704SOL    HW2 9012   6.831   5.296   1.809
 2705SOL     OW 9013   0.089   5.906   4.565
 2705SOL    HW1 9014   0.171   5.901   4.623
 2705SOL    HW2 9015   0.108   5.864   4.477
 2706SOL     OW 9016   6.395   5.263   2.501
 2706SOL    HW1 9017   6.421   5.258   2.405
 2706SOL    HW2 9018   6.477   5.276   2.557
 2707SOL     OW 9019   4.328   0.161   3.984
 2707SOL    HW1 9020   4.299   0.144   4.079
 2707SOL    HW2 9021   4.389   0.240   3.982
 2708SOL     OW 9022   0.196   3.366   0.778
 2708SOL    HW1 9023   0.131   3.430   0.820
 2708SOL    HW2 9024   0.190   3.278   0.826
 2709SOL     OW 9025   4.902   0.126   6.704
 2709SOL    HW1 9026   4.839   0.155   6.776
 2709SOL    HW2 9027   4.997   0.143   6.733
 2710SOL     OW 9028   1.044   3.677   4.291
 2710SOL    HW1 9029   1.129   3.643   4.253
 2710SOL    HW2 9030   1.062   3.726   4.377
 2711SOL     OW 9031   2.266   0.545   3.840
 2711SOL    HW1 9032   2.321   0.628   3.847
 2711SOL    HW2 9033   2.169   0.570   3.838
 2712SOL     OW 9034   2.639   4.262   1.730
 2712SOL    HW1 9035   2.685   4.349   1.750
 2712SOL    HW2 9036   2.551   4.280   1.687
 2713SOL     OW 9037   2.259   2.512   5.175
 2713SOL    HW1 9038   2.350   2.512   5.133
 2713SOL    HW2 9039   2.261   2.459   5.259
 2714SOL     OW 9040   3.684   2.637   0.070
 2714SOL    HW1 9041   3.596   2.617   0.114
 2714SOL    HW2 9042   3.674   2.630   6.993
 2715SOL     OW 9043   4.835   1.840   1.177
 2715SOL    HW1 9044   4.853   1.820   1.081
 2715SOL    HW2 9045   4.848   1.938   1.193
 2716SOL     OW 9046   5.426   3.388   2.554
 2716SOL    HW1 9047   5.480   3.342   2.625
 2716SOL    HW2 9048   5.411   3.483   2.580
 2717SOL     OW 9049   0.537   0.268   2.712
 2717SOL    HW1 9050   0.544   0.367   2.724
 2717SOL    HW2 9051   0.448   0.245   2.671
 2718SOL     OW 9052   1.608   1.366   4.947
 2718SOL    HW1 9053   1.551   1.425   4.890
 2718SOL    HW2 9054   1.582   1.377   5.043
 2719SOL     OW 9055   0.318   5.024   1.747
 2719SOL    HW1 9056   0.314   5.097   1.815
 2719SOL    HW2 9057   0.383   5.049   1.675
 2720SOL     OW 9058   2.056   6.002   1.842
 2720SOL    HW1 9059   1.962   5.973   1.863
 2720SOL    HW2 9060   2.119   5.927   1.865
 2721SOL     OW 9061   3.072   6.873   3.525
 2721SOL    HW1 9062   3.018   6.881   3.441
 2721SOL    HW2 9063   3.165   6.844   3.501
 2722SOL     OW 9064   6.727   5.158   0.536
 2722SOL    HW1 9065   6.677   5.131   0.453
 2722SOL    HW2 9066   6.820   5.122   0.531
 2723SOL     OW 9067   0.697   6.422   6.461
 2723SOL    HW1 9068   0.668   6.443   6.554
 2723SOL    HW2 9069   0.734   6.504   6.418
 2724SOL     OW 9070   2.570   6.245   0.057
 2724SOL    HW1 9071   2.503   6.176   0.084
 2724SOL    HW2 9072   2.626   6.209   7.005
 2725SOL     OW 9073   4.879   4.688   4.543
 2725SOL    HW1 9074   4.827   4.720   4.622
 2725SOL    HW2 9075   4.960   4.746   4.530
 2726SOL     OW 9076   0.097   2.198   1.027
 2726SOL    HW1 9077   0.055   2.129   1.085
 2726SOL    HW2 9078   0.058   2.287   1.047
 2727SOL     OW 9079   0.826   5.384   3.483
 2727SOL    HW1 9080   0.839   5.374   3.384
 2727SOL    HW2 9081   0.790   5.299   3.521
 2728SOL     OW 9082   4.117   6.321   5.527
 2728SOL    HW1 9083   4.135   6.310   5.625
 2728SOL    HW2 9084   4.201   6.302   5.475
 2729SOL     OW 9085   0.029   6.401   0.442
 2729SOL    HW1 9086   0.078   6.463   0.381
 2729SOL    HW2 9087   0.015   6.313   0.396
 2730SOL     OW 9088   2.104   5.917   1.497
 2730SOL    HW1 9089   2.161   5.851   1.448
 2730SOL    HW2 9090   2.115   5.904   1.596
 2731SOL     OW 9091   3.139   3.562   3.011
 2731SOL    HW1 9092   3.095   3.524   3.093
 2731SOL    HW2 9093   3.238   3.562   3.024
 2732SOL     OW 9094   5.397   2.362   2.068
 2732SOL    HW1 9095   5.391   2.321   2.159
 2732SOL    HW2 9096   5.493   2.370   2.041
 2733SOL     OW 9097   6.117   1.980   4.481
 2733SOL    HW1 9098   6.129   1.997   4.579
 2733SOL    HW2 9099   6.196   1.930   4.446
 2734SOL     OW 9100   3.279   5.518   0.713
 2734SOL    HW1 9101   3.323   5.605   0.694
 2734SOL    HW2 9102   3.264   5.470   0.626
 2735SOL     OW 9103   1.204   3.662   1.454
 2735SOL    HW1 9104   1.291   3.709   1.468
 2735SOL    HW2 9105   1.221   3.564   1.446
 2736SOL     OW 9106   5.571   6.470   4.970
 2736SOL    HW1 9107   5.487   6.422   4.948
 2736SOL    HW2 9108   5.607   6.436   5.056
 2737SOL     OW 9109   2.433   3.938   5.675
 2737SOL    HW1 9110   2.530   3.918   5.666
 2737SOL    HW2 9111   2.390   3.872   5.737
 2738SOL     OW 9112   5.020   6.732   1.871
 2738SOL    HW1 9113   5.048   6.671   1.945
 2738SOL    HW2 9114   5.070   6.709   1.788
 2739SOL     OW 9115   1.299   4.621   1.313
 2739SOL    HW1 9116   1.357   4.542   1.334
 2739SOL    HW2 9117   1.204   4.592   1.306
 2740SOL     OW 9118   0.289   4.028   2.093
 2740SOL    HW1 9119   0.331   4.038   2.003
 2740SOL    HW2 9120   0.316   3.940   2.132
 2741SOL     OW 9121   6.107   0.734   4.949
 2741SOL    HW1 9122   6.035   0.696   5.008
 2741SOL    HW2 9123   6.143   0.818   4.991
 2742SOL     OW 9124   2.225   4.968   0.461
 2742SOL    HW1 9125   2.324   4.956   0.456
 2742SOL    HW2 9126   2.180   4.879   0.453
 2743SOL     OW 9127   6.203   4.714   2.186
 2743SOL    HW1 9128   6.250   4.657   2.119
 2743SOL    HW2 9129   6.256   4.798   2.202
 2744SOL     OW 9130   4.269   2.096   0.457
 2744SOL    HW1 9131   4.231   2.018   0.506
 2744SOL    HW2 9132   4.295   2.168   0.522
 2745SOL     OW 9133   6.758   0.400   5.305
 2745SOL    HW1 9134   6.834   0.434   5.250
 2745SOL    HW2 9135   6.694   0.474   5.324
 2746SOL     OW 9136   1.570   1.866   4.776
 2746SOL    HW1 9137   1.618   1.946   4.741
 2746SOL    HW2 9138   1.476   1.867   4.745
 2747SOL     OW 9139   5.618   4.157   6.817
 2747SOL    HW1 9140   5.623   4.255   6.837
 2747SOL    HW2 9141   5.576   4.143   6.727
 2748SOL     OW 9142   4.935   1.325   1.949
 2748SOL    HW1 9143   4.958   1.422   1.951
 2748SOL    HW2 9144   4.977   1.279   2.027
 2749SOL     OW 9145   0.377   4.488   1.677
 2749SOL    HW1 9146   0.329   4.502   1.764
 2749SOL    HW2 9147   0.375   4.572   1.624
 2750SOL     OW 9148   1.032   4.484   1.321
 2750SOL    HW1 9149   0.977   4.516   1.244
 2750SOL    HW2 9150   0.988   4.407   1.365
 2751SOL     OW 9151   1.077   3.784   1.666
 2751SOL    HW1 9152   1.083   3.737   1.754
 2751SOL    HW2 9153   1.100   3.720   1.593
 2752SOL     OW 9154   3.712   5.315   5.481
 2752SOL    HW1 9155   3.743   5.223   5.456
 2752SOL    HW2 9156   3.762   5.345   5.562
 2753SOL     OW 9157   0.445   6.619   5.465
 2753SOL    HW1 9158   0.524   6.621   5.525
 2753SOL    HW2 9159   0.476   6.613   5.370
 2754SOL     OW 9160   0.768   0.741   1.948
 2754SOL    HW1 9161   0.757   0.732   1.849
 2754SOL    HW2 9162   0.689   0.700   1.994
 2755SOL     OW 9163   2.315   0.090   2.940
 2755SOL    HW1 9164   2.293   0.149   3.017
 2755SOL    HW2 9165   2.286   0.134   2.855
 2756SOL     OW 9166   5.810   5.607   6.932
 2756SOL    HW1 9167   5.887   5.644   6.880
 2756SOL    HW2 9168   5.726   5.619   6.879
 2757SOL     OW 9169   2.333   0.286   6.585
 2757SOL    HW1 9170   2.371   0.353   6.520
 2757SOL    HW2 9171   2.332   0.325   6.677
 2758SOL     OW 9172   3.926   6.482   4.072
 2758SOL    HW1 9173   3.996   6.476   4.144
 2758SOL    HW2 9174   3.835   6.481   4.114
 2759SOL     OW 9175   5.338   0.331   5.886
 2759SOL    HW1 9176   5.344   0.243   5.839
 2759SOL    HW2 9177   5.256   0.333   5.942
 2760SOL     OW 9178   0.374   6.135   1.888
 2760SOL    HW1 9179   0.415   6.158   1.800
 2760SOL    HW2 9180   0.436   6.075   1.939
 2761SOL     OW 9181   1.817   5.473   5.065
 2761SOL    HW1 9182   1.860   5.390   5.028
 2761SOL    HW2 9183   1.720   5.473   5.042
 2762SOL     OW 9184   1.084   1.130   4.723
 2762SOL    HW1 9185   1.005   1.191   4.731
 2762SOL    HW2 9186   1.165   1.177   4.758
 2763SOL     OW 9187   4.895   1.772   3.441
 2763SOL    HW1 9188   4.886   1.851   3.380
 2763SOL    HW2 9189   4.953   1.703   3.397
 2764SOL     OW 9190   5.899   0.498   1.186
 2764SOL    HW1 9191   5.885   0.539   1.096
 2764SOL    HW2 9192   5.817   0.448   1.213
 2765SOL     OW 9193   6.267   0.337   0.634
 2765SOL    HW1 9194   6.225   0.383   0.713
 2765SOL    HW2 9195   6.238   0.241   0.633
 2766SOL     OW 9196   5.100   2.390   1.206
 2766SOL    HW1 9197   5.177   2.356   1.153
 2766SOL    HW2 9198   5.016   2.345   1.176
 2767SOL     OW 9199   6.887   5.676   6.963
 2767SOL    HW1 9200   6.840   5.590   6.940
 2767SOL    HW2 9201   6.986   5.662   6.956
 2768SOL     OW 9202   4.245   0.537   0.972
 2768SOL    HW1 9203   4.309   0.598   0.925
 2768SOL    HW2 9204   4.239   0.564   1.068
 2769SOL     OW 9205   2.409   4.868   4.466
 2769SOL    HW1 9206   2.376   4.930   4.396
 2769SOL    HW2 9207   2.382   4.902   4.556
 2770SOL     OW 9208   4.858   6.260   6.151
 2770SOL    HW1 9209   4.781   6.207   6.186
 2770SOL    HW2 9210   4.935   6.255   6.214
 2771SOL     OW 9211   6.660   1.007   4.081
 2771SOL    HW1 9212   6.657   0.927   4.021
 2771SOL    HW2 9213   6.710   0.983   4.165
 2772SOL     OW 9214   3.745   1.623   0.559
 2772SOL    HW1 9215   3.801   1.690   0.512
 2772SOL    HW2 9216   3.800   1.543   0.582
 2773SOL     OW 9217   6.251   1.733   5.134
 2773SOL    HW1 9218   6.239   1.728   5.233
 2773SOL    HW2 9219   6.344   1.762   5.113
 2774SOL     OW 9220   5.533   3.286   2.806
 2774SOL    HW1 9221   5.461   3.319   2.866
 2774SOL    HW2 9222   5.582   3.211   2.851
 2775SOL     OW 9223   6.332   5.020   5.853
 2775SOL    HW1 9224   6.426   5.043   5.828
 2775SOL    HW2 9225   6.331   4.974   5.941
 2776SOL     OW 9226   4.540   4.954   5.756
 2776SOL    HW1 9227   4.484   5.005   5.690
 2776SOL    HW2 9228   4.564   4.865   5.717
 2777SOL     OW 9229   3.061   1.702   2.099
 2777SOL    HW1 9230   3.018   1.772   2.041
 2777SOL    HW2 9231   3.144   1.668   2.054
 2778SOL     OW 9232   1.893   0.075   5.434
 2778SOL    HW1 9233   1.867   0.105   5.525
 2778SOL    HW2 9234   1.849   0.133   5.366
 2779SOL     OW 9235   4.649   6.494   1.534
 2779SOL    HW1 9236   4.595   6.430   1.480
 2779SOL    HW2 9237   4.627   6.588   1.508
 2780SOL     OW 9238   6.406   6.783   6.948
 2780SOL    HW1 9239   6.444   6.871   6.919
 2780SOL    HW2 9240   6.319   6.768   6.902
 2781SOL     OW 9241   5.658   6.312   1.723
 2781SOL    HW1 9242   5.691   6.273   1.809
 2781SOL    HW2 9243   5.730   6.307   1.654
 2782SOL     OW 9244   4.803   1.648   6.222
 2782SOL    HW1 9245   4.885   1.608   6.264
 2782SOL    HW2 9246   4.797   1.618   6.126
 2783SOL     OW 9247   5.256   4.249   3.526
 2783SOL    HW1 9248   5.306   4.210   3.448
 2783SOL    HW2 9249   5.259   4.348   3.521
 2784SOL     OW 9250   3.422   1.720   2.401
 2784SOL    HW1 9251   3.336   1.772   2.400
 2784SOL    HW2 9252   3.431   1.673   2.489
 2785SOL     OW 9253   5.322   2.071   0.486
 2785SOL    HW1 9254   5.378   2.080   0.404
 2785SOL    HW2 9255   5.236   2.027   0.464
 2786SOL     OW 9256   4.905   0.012   2.330
 2786SOL    HW1 9257   4.842   0.038   2.403
 2786SOL    HW2 9258   4.956   6.953   2.357
 2787SOL     OW 9259   4.637   1.193   6.007
 2787SOL    HW1 9260   4.710   1.259   6.017
 2787SOL    HW2 9261   4.672   1.101   6.024
 2788SOL     OW 9262   2.157   5.435   6.037
 2788SOL    HW1 9263   2.150   5.429   5.938
 2788SOL    HW2 9264   2.065   5.434   6.077
 2789SOL     OW 9265   1.426   2.735   3.529
 2789SOL    HW1 9266   1.335   2.771   3.507
 2789SOL    HW2 9267   1.486   2.810   3.557
 2790SOL     OW 9268   3.529   5.515   2.413
 2790SOL    HW1 9269   3.584   5.591   2.378
 2790SOL    HW2 9270   3.590   5.446   2.454
 2791SOL     OW 9271   0.323   2.977   3.659
 2791SOL    HW1 9272   0.346   3.074   3.653
 2791SOL    HW2 9273   0.246   2.964   3.721
 2792SOL     OW 9274   1.614   6.924   3.806
 2792SOL    HW1 9275   1.526   6.941   3.850
 2792SOL    HW2 9276   1.601   6.867   3.725
 2793SOL     OW 9277   5.821   4.130   1.482
 2793SOL    HW1 9278   5.817   4.140   1.582
 2793SOL    HW2 9279   5.819   4.033   1.458
 2794SOL     OW 9280   0.012   2.897   6.439
 2794SOL    HW1 9281   6.961   2.836   6.470
 2794SOL    HW2 9282   0.006   2.910   6.340
 2795SOL     OW 9283   1.386   3.270   0.485
 2795SOL    HW1 9284   1.322   3.194   0.497
 2795SOL    HW2 9285   1.338   3.357   0.496
 2796SOL     OW 9286   6.934   6.247   3.334
 2796SOL    HW1 9287   6.919   6.326   3.394
 2796SOL    HW2 9288   6.886   6.167   3.371
 2797SOL     OW 9289   5.062   5.520   4.307
 2797SOL    HW1 9290   5.035   5.616   4.313
 2797SOL    HW2 9291   4.995   5.470   4.252
 2798SOL     OW 9292   0.631   5.510   1.715
 2798SOL    HW1 9293   0.642   5.596   1.765
 2798SOL    HW2 9294   0.691   5.441   1.754
 2799SOL     OW 9295   6.040   5.257   6.568
 2799SOL    HW1 9296   6.081   5.348   6.575
 2799SOL    HW2 9297   5.942   5.262   6.589
 2800SOL     OW 9298   4.823   6.261   0.276
 2800SOL    HW1 9299   4.726   6.277   0.294
 2800SOL    HW2 9300   4.857   6.328   0.210
 2801SOL     OW 9301   6.617   5.604   6.235
 2801SOL    HW1 9302   6.687   5.602   6.163
 2801SOL    HW2 9303   6.631   5.685   6.292
 2802SOL     OW 9304   4.789   0.885   5.061
 2802SOL    HW1 9305   4.768   0.925   5.149
 2802SOL    HW2 9306   4.731   0.925   4.990
 2803SOL     OW 9307   3.935   5.703   6.616
 2803SOL    HW1 9308   3.849   5.665   6.652
 2803SOL    HW2 9309   4.004   5.704   6.688
 2804SOL     OW 9310   0.381   5.012   5.386
 2804SOL    HW1 9311   0.375   5.021   5.287
 2804SOL    HW2 9312   0.336   4.927   5.414
 2805SOL     OW 9313   5.880   2.729   1.953
 2805SOL    HW1 9314   5.888   2.699   2.048
 2805SOL    HW2 9315   5.784   2.733   1.926
 2806SOL     OW 9316   0.159   4.408   6.238
 2806SOL    HW1 9317   0.239   4.358   6.272
 2806SOL    HW2 9318   0.083   4.345   6.226
 2807SOL     OW 9319   4.069   6.122   4.463
 2807SOL    HW1 9320   4.063   6.099   4.560
 2807SOL    HW2 9321   4.032   6.046   4.409
 2808SOL     OW 9322   6.391   4.756   1.547
 2808SOL    HW1 9323   6.331   4.751   1.468
 2808SOL    HW2 9324   6.480   4.792   1.518
 2809SOL     OW 9325   5.616   2.876   1.174
 2809SOL    HW1 9326   5.708   2.880   1.212
 2809SOL    HW2 9327   5.565   2.957   1.203
 2810SOL     OW 9328   3.430   5.008   3.962
 2810SOL    HW1 9329   3.360   5.032   4.030
 2810SOL    HW2 9330   3.496   4.946   4.003
 2811SOL     OW 9331   1.068   2.399   3.467
 2811SOL    HW1 9332   1.089   2.326   3.531
 2811SOL    HW2 9333   1.058   2.485   3.517
 2812SOL     OW 9334   5.508   3.624   6.798
 2812SOL    HW1 9335   5.576   3.696   6.814
 2812SOL    HW2 9336   5.527   3.546   6.857
 2813SOL     OW 9337   0.613   0.519   6.778
 2813SOL    HW1 9338   0.622   0.424   6.746
 2813SOL    HW2 9339   0.529   0.558   6.742
 2814SOL     OW 9340   3.960   3.749   5.515
 2814SOL    HW1 9341   4.008   3.674   5.560
 2814SOL    HW2 9342   4.018   3.788   5.443
 2815SOL     OW 9343   6.419   0.235   5.593
 2815SOL    HW1 9344   6.508   0.237   5.547
 2815SOL    HW2 9345   6.385   0.141   5.597
 2816SOL     OW 9346   6.490   5.424   3.531
 2816SOL    HW1 9347   6.402   5.463   3.556
 2816SOL    HW2 9348   6.517   5.356   3.599
 2817SOL     OW 9349   3.124   6.569   2.019
 2817SOL    HW1 9350   3.051   6.572   1.950
 2817SOL    HW2 9351   3.144   6.661   2.051
 2818SOL     OW 9352   0.650   0.422   1.807
 2818SOL    HW1 9353   0.738   0.444   1.765
 2818SOL    HW2 9354   0.663   0.396   1.902
 2819SOL     OW 9355   0.744   0.722   1.685
 2819SOL    HW1 9356   0.662   0.686   1.640
 2819SOL    HW2 9357   0.824   0.667   1.658
 2820SOL     OW 9358   0.961   2.835   2.932
 2820SOL    HW1 9359   0.876   2.787   2.911
 2820SOL    HW2 9360   1.011   2.785   3.003
 2821SOL     OW 9361   4.318   3.760   6.283
 2821SOL    HW1 9362   4.381   3.831   6.314
 2821SOL    HW2 9363   4.308   3.690   6.354
 2822SOL     OW 9364   3.883   2.174   0.194
 2822SOL    HW1 9365   3.833   2.229   0.261
 2822SOL    HW2 9366   3.840   2.184   0.104
 2823SOL     OW 9367   4.233   0.523   0.520
 2823SOL    HW1 9368   4.217   0.607   0.570
 2823SOL    HW2 9369   4.172   0.519   0.440
 2824SOL     OW 9370   1.823   1.640   3.413
 2824SOL    HW1 9371   1.895   1.585   3.457
 2824SOL    HW2 9372   1.812   1.726   3.463
 2825SOL     OW 9373   5.803   0.280   6.705
 2825SOL    HW1 9374   5.722   0.339   6.706
 2825SOL    HW2 9375   5.791   0.208   6.637
 2826SOL     OW 9376   4.572   1.096   6.667
 2826SOL    HW1 9377   4.525   1.055   6.589
 2826SOL    HW2 9378   4.641   1.033   6.702
 2827SOL     OW 9379   0.373   1.068   5.573
 2827SOL    HW1 9380   0.430   0.994   5.609
 2827SOL    HW2 9381   0.369   1.142   5.640
 2828SOL     OW 9382   2.127   0.989   0.193
 2828SOL    HW1 9383   2.048   0.927   0.193
 2828SOL    HW2 9384   2.108   1.066   0.132
 2829SOL     OW 9385   3.320   3.311   4.962
 2829SOL    HW1 9386   3.241   3.341   5.015
 2829SOL    HW2 9387   3.390   3.383   4.963
 2830SOL     OW 9388   1.905   2.847   5.542
 2830SOL    HW1 9389   1.902   2.747   5.545
 2830SOL    HW2 9390   1.933   2.876   5.451
 2831SOL     OW 9391   0.792   4.439   4.001
 2831SOL    HW1 9392   0.864   4.369   3.993
 2831SOL    HW2 9393   0.736   4.419   4.081
 2832SOL     OW 9394   1.113   3.369   1.972
 2832SOL    HW1 9395   1.105   3.460   1.933
 2832SOL    HW2 9396   1.023   3.341   2.008
 2833SOL     OW 9397   3.160   1.834   2.433
 2833SOL    HW1 9398   3.124   1.926   2.421
 2833SOL    HW2 9399   3.101   1.768   2.386
 2834SOL     OW 9400   4.012   5.894   6.179
 2834SOL    HW1 9401   4.067   5.874   6.260
 2834SOL    HW2 9402   4.064   5.870   6.097
 2835SOL     OW 9403   0.543   6.597   2.273
 2835SOL    HW1 9404   0.457   6.549   2.286
 2835SOL    HW2 9405   0.605   6.541   2.218
 2836SOL     OW 9406   6.976   0.120   2.220
 2836SOL    HW1 9407   6.896   0.062   2.208
 2836SOL    HW2 9408   7.000   0.164   2.134
 2837SOL     OW 9409   4.805   4.928   2.503
 2837SOL    HW1 9410   4.760   5.006   2.461
 2837SOL    HW2 9411   4.841   4.867   2.432
 2838SOL     OW 9412   3.099   3.951   1.014
 2838SOL    HW1 9413   3.048   3.994   1.089
 2838SOL    HW2 9414   3.040   3.887   0.966
 2839SOL     OW 9415   6.746   2.526   3.117
 2839SOL    HW1 9416   6.780   2.586   3.190
 2839SOL    HW2 9417   6.659   2.561   3.083
 2840SOL     OW 9418   1.100   0.170   3.037
 2840SOL    HW1 9419   1.173   0.109   3.008
 2840SOL    HW2 9420   1.095   0.171   3.137
 2841SOL     OW 9421   0.431   0.934   6.283
 2841SOL    HW1 9422   0.511   0.982   6.319
 2841SOL    HW2 9423   0.458   0.844   6.250
 2842SOL     OW 9424   0.140   4.091   4.060
 2842SOL    HW1 9425   0.196   4.009   4.054
 2842SOL    HW2 9426   0.179   4.153   4.128
 2843SOL     OW 9427   2.352   2.566   2.504
 2843SOL    HW1 9428   2.258   2.561   2.539
 2843SOL    HW2 9429   2.359   2.640   2.437
 2844SOL     OW 9430   6.840   4.961   0.124
 2844SOL    HW1 9431   6.921   4.932   0.174
 2844SOL    HW2 9432   6.866   5.024   0.051
 2845SOL     OW 9433   5.919   2.862   1.683
 2845SOL    HW1 9434   5.992   2.929   1.672
 2845SOL    HW2 9435   5.931   2.814   1.770
 2846SOL     OW 9436   4.097   1.486   0.079
 2846SOL    HW1 9437   4.084   1.476   0.177
 2846SOL    HW2 9438   4.185   1.531   0.061
 2847SOL     OW 9439   5.162   3.619   3.604
 2847SOL    HW1 9440   5.237   3.554   3.588
 2847SOL    HW2 9441   5.180   3.672   3.686
 2848SOL     OW 9442   1.793   2.383   5.119
 2848SOL    HW1 9443   1.837   2.320   5.184
 2848SOL    HW2 9444   1.833   2.474   5.129
 2849SOL     OW 9445   3.986   6.839   0.621
 2849SOL    HW1 9446   4.076   6.810   0.654
 2849SOL    HW2 9447   3.916   6.784   0.666
 2850SOL     OW 9448   1.647   0.278   2.642
 2850SOL    HW1 9449   1.573   0.338   2.612
 2850SOL    HW2 9450   1.714   0.331   2.694
 2851SOL     OW 9451   5.975   1.420   6.003
 2851SOL    HW1 9452   5.901   1.414   5.936
 2851SOL    HW2 9453   5.939   1.400   6.094
 2852SOL     OW 9454   6.158   3.873   6.687
 2852SOL    HW1 9455   6.096   3.828   6.750
 2852SOL    HW2 9456   6.251   3.870   6.723
 2853SOL     OW 9457   1.596   1.133   6.471
 2853SOL    HW1 9458   1.503   1.106   6.498
 2853SOL    HW2 9459   1.653   1.138   6.553
 2854SOL     OW 9460   4.344   1.316   4.932
 2854SOL    HW1 9461   4.273   1.303   5.002
 2854SOL    HW2 9462   4.426   1.265   4.958
 2855SOL     OW 9463   2.293   1.492   6.108
 2855SOL    HW1 9464   2.215   1.482   6.045
 2855SOL    HW2 9465   2.259   1.522   6.198
 2856SOL     OW 9466   0.457   2.750   5.437
 2856SOL    HW1 9467   0.504   2.824   5.389
 2856SOL    HW2 9468   0.380   2.717   5.382
 2857SOL     OW 9469   2.052   2.625   2.176
 2857SOL    HW1 9470   2.107   2.578   2.107
 2857SOL    HW2 9471   2.112   2.678   2.237
 2858SOL     OW 9472   4.754   4.179   2.143
 2858SOL    HW1 9473   4.663   4.207   2.113
 2858SOL    HW2 9474   4.812   4.260   2.150
 2859SOL     OW 9475   5.797   0.671   6.740
 2859SOL    HW1 9476   5.836   0.686   6.650
 2859SOL    HW2 9477   5.788   0.758   6.788
 2860SOL     OW 9478   2.979   1.422   1.492
 2860SOL    HW1 9479   2.903   1.392   1.549
 2860SOL    HW2 9480   2.950   1.424   1.396
 2861SOL     OW 9481   3.885   4.686   6.036
 2861SOL    HW1 9482   3.929   4.597   6.024
 2861SOL    HW2 9483   3.850   4.718   5.948
 2862SOL     OW 9484   5.507   1.788   2.687
 2862SOL    HW1 9485   5.567   1.711   2.711
 2862SOL    HW2 9486   5.560   1.857   2.637
 2863SOL     OW 9487   4.824   1.231   6.710
 2863SOL    HW1 9488   4.908   1.178   6.719
 2863SOL    HW2 9489   4.760   1.182   6.651
 2864SOL     OW 9490   4.272   1.651   2.020
 2864SOL    HW1 9491   4.177   1.638   2.047
 2864SOL    HW2 9492   4.325   1.680   2.100
 2865SOL     OW 9493   3.924   5.059   6.238
 2865SOL    HW1 9494   3.946   5.116   6.317
 2865SOL    HW2 9495   3.825   5.047   6.232
 2866SOL     OW 9496   6.732   5.594   6.543
 2866SOL    HW1 9497   6.800   5.663   6.518
 2866SOL    HW2 9498   6.640   5.631   6.527
 2867SOL     OW 9499   0.159   6.023   2.945
 2867SOL    HW1 9500   0.162   6.074   3.031
 2867SOL    HW2 9501   0.154   6.087   2.869
 2868SOL     OW 9502   0.990   1.089   5.421
 2868SOL    HW1 9503   1.033   1.179   5.424
 2868SOL    HW2 9504   0.918   1.089   5.352
 2869SOL     OW 9505   6.765   1.480   3.639
 2869SOL    HW1 9506   6.691   1.534   3.680
 2869SOL    HW2 9507   6.837   1.542   3.607
 2870SOL     OW 9508   0.635   1.102   5.084
 2870SOL    HW1 9509   0.627   1.195   5.120
 2870SOL    HW2 9510   0.613   1.102   4.986
 2871SOL     OW 9511   0.187   1.882   6.561
 2871SOL    HW1 9512   0.250   1.906   6.634
 2871SOL    HW2 9513   0.106   1.941   6.566
 2872SOL     OW 9514   2.528   2.204   2.160
 2872SOL    HW1 9515   2.459   2.266   2.196
 2872SOL    HW2 9516   2.560   2.238   2.072
 2873SOL     OW 9517   0.106   5.623   2.870
 2873SOL    HW1 9518   0.044   5.546   2.868
 2873SOL    HW2 9519   0.121   5.653   2.964
 2874SOL     OW 9520   4.557   6.454   3.148
 2874SOL    HW1 9521   4.647   6.498   3.147
 2874SOL    HW2 9522   4.549   6.394   3.069
 2875SOL     OW 9523   4.708   0.250   0.946
 2875SOL    HW1 9524   4.663   0.165   0.974
 2875SOL    HW2 9525   4.675   0.325   1.003
 2876SOL     OW 9526   1.822   0.148   2.433
 2876SOL    HW1 9527   1.736   0.170   2.478
 2876SOL    HW2 9528   1.889   0.220   2.451
 2877SOL     OW 9529   2.855   2.152   5.552
 2877SOL    HW1 9530   2.920   2.209   5.503
 2877SOL    HW2 9531   2.860   2.058   5.518
 2878SOL     OW 9532   3.403   4.752   5.281
 2878SOL    HW1 9533   3.319   4.700   5.273
 2878SOL    HW2 9534   3.428   4.761   5.377
 2879SOL     OW 9535   5.461   5.026   0.109
 2879SOL    HW1 9536   5.533   5.054   0.173
 2879SOL    HW2 9537   5.502   5.002   0.021
 2880SOL     OW 9538   7.016   1.053   1.773
 2880SOL    HW1 9539   0.006   1.090   1.865
 2880SOL    HW2 9540   6.947   0.981   1.774
 2881SOL     OW 9541   5.384   6.125   6.393
 2881SOL    HW1 9542   5.379   6.158   6.299
 2881SOL    HW2 9543   5.291   6.113   6.429
 2882SOL     OW 9544   0.539   5.275   2.499
 2882SOL    HW1 9545   0.452   5.266   2.451
 2882SOL    HW2 9546   0.524   5.268   2.598
 2883SOL     OW 9547   5.423   0.086   3.100
 2883SOL    HW1 9548   5.359   0.106   3.026
 2883SOL    HW2 9549   5.473   0.002   3.079
 2884SOL     OW 9550   0.914   0.195   2.202
 2884SOL    HW1 9551   0.918   0.251   2.285
 2884SOL    HW2 9552   0.838   0.131   2.208
 2885SOL     OW 9553   1.134   3.909   3.605
 2885SOL    HW1 9554   1.043   3.875   3.583
 2885SOL    HW2 9555   1.173   3.956   3.526
 2886SOL     OW 9556   1.423   3.931   6.064
 2886SOL    HW1 9557   1.516   3.947   6.097
 2886SOL    HW2 9558   1.426   3.882   5.977
 2887SOL     OW 9559   0.467   0.441   5.103
 2887SOL    HW1 9560   0.457   0.522   5.160
 2887SOL    HW2 9561   0.381   0.389   5.103
 2888SOL     OW 9562   0.290   4.101   0.105
 2888SOL    HW1 9563   0.253   4.008   0.108
 2888SOL    HW2 9564   0.328   4.118   0.014
 2889SOL     OW 9565   2.737   5.999   2.576
 2889SOL    HW1 9566   2.717   5.973   2.482
 2889SOL    HW2 9567   2.680   5.946   2.639
 2890SOL     OW 9568   2.118   6.233   0.749
 2890SOL    HW1 9569   2.141   6.310   0.688
 2890SOL    HW2 9570   2.019   6.224   0.755
 2891SOL     OW 9571   0.944   4.664   3.635
 2891SOL    HW1 9572   0.856   4.711   3.642
 2891SOL    HW2 9573   0.932   4.577   3.587
 2892SOL     OW 9574   5.704   3.373   0.405
 2892SOL    HW1 9575   5.657   3.318   0.336
 2892SOL    HW2 9576   5.769   3.315   0.455
 2893SOL     OW 9577   6.912   5.698   4.623
 2893SOL    HW1 9578   6.994   5.650   4.654
 2893SOL    HW2 9579   6.935   5.793   4.603
 2894SOL     OW 9580   1.350   3.653   2.285
 2894SOL    HW1 9581   1.425   3.587   2.290
 2894SOL    HW2 9582   1.386   3.740   2.250
 2895SOL     OW 9583   4.903   2.725   5.266
 2895SOL    HW1 9584   4.837   2.785   5.221
 2895SOL    HW2 9585   4.994   2.740   5.226
 2896SOL     OW 9586   4.919   5.367   5.664
 2896SOL    HW1 9587   4.845   5.311   5.627
 2896SOL    HW2 9588   4.880   5.449   5.707
 2897SOL     OW 9589   4.405   5.127   2.936
 2897SOL    HW1 9590   4.471   5.058   2.907
 2897SOL    HW2 9591   4.395   5.196   2.864
 2898SOL     OW 9592   4.510   4.791   4.416
 2898SOL    HW1 9593   4.579   4.803   4.487
 2898SOL    HW2 9594   4.420   4.784   4.458
 2899SOL     OW 9595   1.002   1.608   6.680
 2899SOL    HW1 9596   0.971   1.524   6.637
 2899SOL    HW2 9597   1.082   1.644   6.632
 2900SOL     OW 9598   2.024   3.232   5.802
 2900SOL    HW1 9599   1.976   3.205   5.719
 2900SOL    HW2 9600   2.097   3.166   5.822
 2901SOL     OW 9601   2.922   5.116   3.450
 2901SOL    HW1 9602   2.994   5.186   3.447
 2901SOL    HW2 9603   2.882   5.114   3.541
 2902SOL     OW 9604   5.372   6.518   3.094
 2902SOL    HW1 9605   5.318   6.494   3.013
 2902SOL    HW2 9606   5.354   6.612   3.120
 2903SOL     OW 9607   2.942   0.469   0.455
 2903SOL    HW1 9608   3.020   0.425   0.498
 2903SOL    HW2 9609   2.927   0.559   0.497
 2904SOL     OW 9610   2.245   4.376   4.384
 2904SOL    HW1 9611   2.263   4.379   4.482
 2904SOL    HW2 9612   2.248   4.281   4.352
 2905SOL     OW 9613   1.733   2.724   4.747
 2905SOL    HW1 9614   1.638   2.755   4.734
 2905SOL    HW2 9615   1.733   2.628   4.774
 2906SOL     OW 9616   4.123   5.784   1.621
 2906SOL    HW1 9617   4.079   5.871   1.643
 2906SOL    HW2 9618   4.061   5.728   1.566
 2907SOL     OW 9619   0.987   1.460   3.454
 2907SOL    HW1 9620   0.922   1.387   3.435
 2907SOL    HW2 9621   1.029   1.490   3.369
 2908SOL     OW 9622   4.942   6.196   3.470
 2908SOL    HW1 9623   5.035   6.160   3.460
 2908SOL    HW2 9624   4.933   6.237   3.561
 2909SOL     OW 9625   1.529   5.312   3.775
 2909SOL    HW1 9626   1.461   5.325   3.702
 2909SOL    HW2 9627   1.481   5.303   3.863
 2910SOL     OW 9628   4.888   0.413   4.488
 2910SOL    HW1 9629   4.796   0.391   4.458
 2910SOL    HW2 9630   4.929   0.334   4.534
 2911SOL     OW 9631   0.520   5.480   3.321
 2911SOL    HW1 9632   0.558   5.470   3.413
 2911SOL    HW2 9633   0.587   5.526   3.263
 2912SOL     OW 9634   4.842   0.590   6.546
 2912SOL    HW1 9635   4.909   0.635   6.606
 2912SOL    HW2 9636   4.854   0.491   6.550
 2913SOL     OW 9637   2.954   4.919   2.815
 2913SOL    HW1 9638   2.886   4.847   2.804
 2913SOL    HW2 9639   2.967   4.937   2.913
 2914SOL     OW 9640   6.362   6.533   6.698
 2914SOL    HW1 9641   6.425   6.602   6.663
 2914SOL    HW2 9642   6.409   6.445   6.704
 2915SOL     OW 9643   5.063   1.728   4.050
 2915SOL    HW1 9644   5.161   1.722   4.031
 2915SOL    HW2 9645   5.040   1.820   4.080
 2916SOL     OW 9646   1.122   6.550   0.612
 2916SOL    HW1 9647   1.102   6.582   0.704
 2916SOL    HW2 9648   1.084   6.458   0.600
 2917SOL     OW 9649   2.888   0.044   3.348
 2917SOL    HW1 9650   2.798   0.002   3.341
 2917SOL    HW2 9651   2.932   0.045   3.259
 2918SOL     OW 9652   6.333   4.940   4.780
 2918SOL    HW1 9653   6.241   4.970   4.754
 2918SOL    HW2 9654   6.329   4.891   4.867
 2919SOL     OW 9655   6.781   1.056   2.353
 2919SOL    HW1 9656   6.769   1.116   2.432
 2919SOL    HW2 9657   6.705   0.991   2.348
 2920SOL     OW 9658   2.847   1.677   1.769
 2920SOL    HW1 9659   2.855   1.686   1.670
 2920SOL    HW2 9660   2.915   1.735   1.813
 2921SOL     OW 9661   0.701   0.222   4.295
 2921SOL    HW1 9662   0.672   0.302   4.348
 2921SOL    HW2 9663   0.686   0.239   4.198
 2922SOL     OW 9664   4.863   1.308   0.361
 2922SOL    HW1 9665   4.858   1.387   0.300
 2922SOL    HW2 9666   4.771   1.288   0.397
 2923SOL     OW 9667   6.541   5.146   2.267
 2923SOL    HW1 9668   6.567   5.202   2.189
 2923SOL    HW2 9669   6.623   5.122   2.320
 2924SOL     OW 9670   6.686   2.347   5.764
 2924SOL    HW1 9671   6.638   2.356   5.677
 2924SOL    HW2 9672   6.709   2.438   5.799
 2925SOL     OW 9673   5.033   1.404   2.355
 2925SOL    HW1 9674   5.074   1.465   2.288
 2925SOL    HW2 9675   4.943   1.438   2.381
 2926SOL     OW 9676   0.210   2.116   4.162
 2926SOL    HW1 9677   0.216   2.106   4.261
 2926SOL    HW2 9678   0.280   2.060   4.118
 2927SOL     OW 9679   1.311   3.402   1.687
 2927SOL    HW1 9680   1.370   3.482   1.691
 2927SOL    HW2 9681   1.290   3.371   1.780
 2928SOL     OW 9682   6.859   1.651   6.323
 2928SOL    HW1 9683   6.955   1.630   6.345
 2928SOL    HW2 9684   6.800   1.605   6.389
 2929SOL     OW 9685   6.954   2.373   0.045
 2929SOL    HW1 9686   6.918   2.432   0.117
 2929SOL    HW2 9687   0.024   2.342   0.070
 2930SOL     OW 9688   4.183   0.579   4.850
 2930SOL    HW1 9689   4.133   0.665   4.859
 2930SOL    HW2 9690   4.126   0.504   4.886
 2931SOL     OW 9691   5.765   4.847   0.513
 2931SOL    HW1 9692   5.830   4.809   0.448
 2931SOL    HW2 9693   5.684   4.788   0.518
 2932SOL     OW 9694   0.920   5.926   1.686
 2932SOL    HW1 9695   0.870   5.899   1.604
 2932SOL    HW2 9696   0.965   6.014   1.671
 2933SOL     OW 9697   7.019   5.374   3.226
 2933SOL    HW1 9698   0.092   5.371   3.255
 2933SOL    HW2 9699   7.013   5.354   3.128
 2934SOL     OW 9700   4.386   1.107   0.253
 2934SOL    HW1 9701   4.368   1.045   0.329
 2934SOL    HW2 9702   4.463   1.072   0.199
 2935SOL     OW 9703   6.152   3.661   6.936
 2935SOL    HW1 9704   6.150   3.570   6.978
 2935SOL    HW2 9705   6.061   3.702   6.941
 2936SOL     OW 9706   3.736   6.567   1.170
 2936SOL    HW1 9707   3.650   6.606   1.137
 2936SOL    HW2 9708   3.811   6.627   1.146
 2937SOL     OW 9709   5.073   4.477   0.773
 2937SOL    HW1 9710   5.124   4.392   0.762
 2937SOL    HW2 9711   4.994   4.477   0.711
 2938SOL     OW 9712   5.081   4.484   6.411
 2938SOL    HW1 9713   5.112   4.565   6.361
 2938SOL    HW2 9714   5.067   4.409   6.346
 2939SOL     OW 9715   1.201   1.003   2.919
 2939SOL    HW1 9716   1.213   0.970   2.825
 2939SOL    HW2 9717   1.209   1.103   2.920
 2940SOL     OW 9718   5.118   4.832   6.112
 2940SOL    HW1 9719   5.034   4.886   6.115
 2940SOL    HW2 9720   5.154   4.832   6.018
 2941SOL     OW 9721   1.742   2.224   4.448
 2941SOL    HW1 9722   1.759   2.316   4.483
 2941SOL    HW2 9723   1.825   2.190   4.402
 2942SOL     OW 9724   2.856   2.708   0.384
 2942SOL    HW1 9725   2.927   2.746   0.324
 2942SOL    HW2 9726   2.788   2.660   0.328
 2943SOL     OW 9727   4.633   4.269   3.534
 2943SOL    HW1 9728   4.641   4.257   3.435
 2943SOL    HW2 9729   4.536   4.278   3.559
 2944SOL     OW 9730   2.903   6.101   4.140
 2944SOL    HW1 9731   2.907   6.152   4.226
 2944SOL    HW2 9732   2.929   6.006   4.158
 2945SOL     OW 9733   3.551   4.107   3.674
 2945SOL    HW1 9734   3.517   4.159   3.751
 2945SOL    HW2 9735   3.611   4.033   3.707
 2946SOL     OW 9736   1.179   5.062   6.077
 2946SOL    HW1 9737   1.147   5.079   5.983
 2946SOL    HW2 9738   1.269   5.020   6.074
 2947SOL     OW 9739   0.540   3.643   0.771
 2947SOL    HW1 9740   0.508   3.606   0.859
 2947SOL    HW2 9741   0.625   3.694   0.786
 2948SOL     OW 9742   0.745   4.197   5.919
 2948SOL    HW1 9743   0.776   4.284   5.880
 2948SOL    HW2 9744   0.810   4.125   5.895
 2949SOL     OW 9745   2.711   5.668   0.911
 2949SOL    HW1 9746   2.635   5.728   0.887
 2949SOL    HW2 9747   2.748   5.626   0.829
 2950SOL     OW 9748   5.088   4.156   4.244
 2950SOL    HW1 9749   5.096   4.163   4.344
 2950SOL    HW2 9750   5.177   4.131   4.206
 2951SOL     OW 9751   5.505   0.829   0.659
 2951SOL    HW1 9752   5.588   0.878   0.685
 2951SOL    HW2 9753   5.505   0.738   0.701
 2952SOL     OW 9754   0.724   4.867   5.492
 2952SOL    HW1 9755   0.715   4.956   5.447
 2952SOL    HW2 9756   0.663   4.801   5.448
 2953SOL     OW 9757   5.062   2.960   2.285
 2953SOL    HW1 9758   5.120   2.946   2.205
 2953SOL    HW2 9759   5.094   2.901   2.360
 2954SOL     OW 9760   0.927   5.571   1.857
 2954SOL    HW1 9761   0.915   5.472   1.849
 2954SOL    HW2 9762   0.838   5.616   1.856
 2955SOL     OW 9763   0.525   4.253   1.681
 2955SOL    HW1 9764   0.467   4.335   1.677
 2955SOL    HW2 9765   0.471   4.173   1.655
 2956SOL     OW 9766   5.336   6.274   3.293
 2956SOL    HW1 9767   5.408   6.272   3.362
 2956SOL    HW2 9768   5.314   6.369   3.270
 2957SOL     OW 9769   6.117   3.061   1.642
 2957SOL    HW1 9770   6.093   3.114   1.560
 2957SOL    HW2 9771   6.100   3.115   1.723
 2958SOL     OW 9772   2.535   5.205   4.371
 2958SOL    HW1 9773   2.523   5.194   4.469
 2958SOL    HW2 9774   2.509   5.298   4.344
 2959SOL     OW 9775   4.833   4.428   0.623
 2959SOL    HW1 9776   4.858   4.346   0.573
 2959SOL    HW2 9777   4.762   4.406   0.690
 2960SOL     OW 9778   3.102   0.463   6.805
 2960SOL    HW1 9779   3.014   0.468   6.759
 2960SOL    HW2 9780   3.172   0.503   6.746
 2961SOL     OW 9781   5.314   3.894   2.744
 2961SOL    HW1 9782   5.220   3.926   2.756
 2961SOL    HW2 9783   5.358   3.886   2.833
 2962SOL     OW 9784   4.905   0.264   3.189
 2962SOL    HW1 9785   4.812   0.300   3.201
 2962SOL    HW2 9786   4.933   0.218   3.273
 2963SOL     OW 9787   2.152   0.534   5.955
 2963SOL    HW1 9788   2.205   0.451   5.934
 2963SOL    HW2 9789   2.210   0.614   5.943
 2964SOL     OW 9790   0.552   0.364   3.204
 2964SOL    HW1 9791   0.468   0.378   3.151
 2964SOL    HW2 9792   0.571   0.266   3.209
 2965SOL     OW 9793   6.938   1.695   4.431
 2965SOL    HW1 9794   6.894   1.691   4.342
 2965SOL    HW2 9795   6.934   1.789   4.466
 2966SOL     OW 9796   5.489   6.130   3.728
 2966SOL    HW1 9797   5.518   6.043   3.688
 2966SOL    HW2 9798   5.389   6.137   3.724
 2967SOL     OW 9799   6.479   0.685   4.859
 2967SOL    HW1 9800   6.435   0.763   4.814
 2967SOL    HW2 9801   6.578   0.695   4.854
 2968SOL     OW 9802   1.268   2.906   6.468
 2968SOL    HW1 9803   1.346   2.858   6.509
 2968SOL    HW2 9804   1.254   2.993   6.516
 2969SOL     OW 9805   4.776   1.340   4.362
 2969SOL    HW1 9806   4.818   1.426   4.333
 2969SOL    HW2 9807   4.842   1.266   4.355
 2970SOL     OW 9808   1.771   4.714   6.192
 2970SOL    HW1 9809   1.809   4.636   6.141
 2970SOL    HW2 9810   1.739   4.784   6.128
 2971SOL     OW 9811   4.842   4.172   0.529
 2971SOL    HW1 9812   4.766   4.183   0.465
 2971SOL    HW2 9813   4.927   4.158   0.478
 2972SOL     OW 9814   6.195   4.680   6.504
 2972SOL    HW1 9815   6.228   4.643   6.591
 2972SOL    HW2 9816   6.184   4.779   6.512
 2973SOL     OW 9817   5.600   6.708   2.373
 2973SOL    HW1 9818   5.534   6.740   2.305
 2973SOL    HW2 9819   5.573   6.617   2.406
 2974SOL     OW 9820   0.897   4.711   2.694
 2974SOL    HW1 9821   0.989   4.713   2.655
 2974SOL    HW2 9822   0.833   4.759   2.634
 2975SOL     OW 9823   5.574   3.328   4.295
 2975SOL    HW1 9824   5.611   3.236   4.288
 2975SOL    HW2 9825   5.493   3.336   4.237
 2976SOL     OW 9826   4.464   2.269   3.253
 2976SOL    HW1 9827   4.472   2.310   3.162
 2976SOL    HW2 9828   4.521   2.187   3.259
 2977SOL     OW 9829   2.518   0.067   2.704
 2977SOL    HW1 9830   2.511   6.995   2.734
 2977SOL    HW2 9831   2.603   0.079   2.652
 2978SOL     OW 9832   4.996   4.245   0.245
 2978SOL    HW1 9833   4.901   4.218   0.257
 2978SOL    HW2 9834   5.015   4.328   0.298
 2979SOL     OW 9835   3.857   0.787   4.039
 2979SOL    HW1 9836   3.926   0.717   4.058
 2979SOL    HW2 9837   3.814   0.815   4.125
 2980SOL     OW 9838   1.147   5.926   4.391
 2980SOL    HW1 9839   1.231   5.891   4.433
 2980SOL    HW2 9840   1.076   5.855   4.396
 2981SOL     OW 9841   1.929   1.160   5.983
 2981SOL    HW1 9842   1.886   1.162   5.893
 2981SOL    HW2 9843   1.966   1.250   6.004
 2982SOL     OW 9844   4.073   4.833   2.866
 2982SOL    HW1 9845   3.973   4.837   2.859
 2982SOL    HW2 9846   4.101   4.834   2.962
 2983SOL     OW 9847   0.797   1.268   2.657
 2983SOL    HW1 9848   0.714   1.219   2.629
 2983SOL    HW2 9849   0.832   1.321   2.581
 2984SOL     OW 9850   5.524   5.622   0.995
 2984SOL    HW1 9851   5.619   5.652   0.992
 2984SOL    HW2 9852   5.515   5.535   0.947
 2985SOL     OW 9853   1.399   2.501   5.789
 2985SOL    HW1 9854   1.358   2.484   5.878
 2985SOL    HW2 9855   1.460   2.425   5.766
 2986SOL     OW 9856   3.074   3.997   4.684
 2986SOL    HW1 9857   3.065   4.091   4.718
 2986SOL    HW2 9858   3.167   3.966   4.697
 2987SOL     OW 9859   6.404   1.329   4.326
 2987SOL    HW1 9860   6.359   1.286   4.248
 2987SOL    HW2 9861   6.339   1.336   4.402
 2988SOL     OW 9862   1.490   5.889   2.885
 2988SOL    HW1 9863   1.502   5.826   2.961
 2988SOL    HW2 9864   1.393   5.900   2.865
 2989SOL     OW 9865   6.150   5.518   6.577
 2989SOL    HW1 9866   6.102   5.574   6.510
 2989SOL    HW2 9867   6.248   5.526   6.564
 2990SOL     OW 9868   3.796   1.849   4.541
 2990SOL    HW1 9869   3.838   1.938   4.561
 2990SOL    HW2 9870   3.786   1.797   4.626
 2991SOL     OW 9871   6.715   4.416   5.640
 2991SOL    HW1 9872   6.693   4.379   5.731
 2991SOL    HW2 9873   6.700   4.346   5.571
 2992SOL     OW 9874   2.860   6.026   4.662
 2992SOL    HW1 9875   2.869   6.052   4.759
 2992SOL    HW2 9876   2.765   6.031   4.635
 2993SOL     OW 9877   0.489   5.070   1.489
 2993SOL    HW1 9878   0.551   5.147   1.496
 2993SOL    HW2 9879   0.534   4.994   1.442
 2994SOL     OW 9880   4.591   6.502   6.950
 2994SOL    HW1 9881   4.534   6.518   0.009
 2994SOL    HW2 9882   4.637   6.587   6.925
 2995SOL     OW 9883   2.867   2.374   5.832
 2995SOL    HW1 9884   2.833   2.318   5.757
 2995SOL    HW2 9885   2.837   2.336   5.919
 2996SOL     OW 9886   1.338   1.064   3.539
 2996SOL    HW1 9887   1.262   1.000   3.527
 2996SOL    HW2 9888   1.372   1.091   3.449
 2997SOL     OW 9889   6.271   0.330   2.870
 2997SOL    HW1 9890   6.354   0.276   2.883
 2997SOL    HW2 9891   6.192   0.269   2.869
 2998SOL     OW 9892   4.483   6.754   4.503
 2998SOL    HW1 9893   4.421   6.676   4.497
 2998SOL    HW2 9894   4.513   6.766   4.598
 2999SOL     OW 9895   2.825   5.011   4.791
 2999SOL    HW1 9896   2.905   5.040   4.843
 2999SOL    HW2 9897   2.835   5.041   4.696
 3000SOL     OW 9898   2.193   3.568   6.718
 3000SOL    HW1 9899   2.125   3.624   6.671
 3000SOL    HW2 9900   2.147   3.500   6.775
 3001SOL     OW 9901   5.506   0.328   6.375
 3001SOL    HW1 9902   5.486   0.332   6.473
 3001SOL    HW2 9903   5.562   0.247   6.356
 3002SOL     OW 9904   3.613   1.531   6.719
 3002SOL    HW1 9905   3.660   1.471   6.655
 3002SOL    HW2 9906   3.573   1.475   6.792
 3003SOL     OW 9907   2.045   6.185   0.436
 3003SOL    HW1 9908   1.954   6.223   0.450
 3003SOL    HW2 9909   2.111   6.259   0.423
 3004SOL     OW 9910   1.350   4.785   2.616
 3004SOL    HW1 9911   1.406   4.770   2.535
 3004SOL    HW2 9912   1.320   4.881   2.619
 3005SOL     OW 9913   3.261   1.727   0.442
 3005SOL    HW1 9914   3.278   1.789   0.365
 3005SOL    HW2 9915   3.345   1.712   0.493
 3006SOL     OW 9916   5.286   1.627   5.409
 3006SOL    HW1 9917   5.238   1.606   5.324
 3006SOL    HW2 9918   5.324   1.720   5.404
 3007SOL     OW 9919   5.551   5.259   1.385
 3007SOL    HW1 9920   5.582   5.172   1.346
 3007SOL    HW2 9921   5.458   5.249   1.420
 3008SOL     OW 9922   3.976   1.953   5.856
 3008SOL    HW1 9923   3.948   1.978   5.948
 3008SOL    HW2 9924   4.014   1.860   5.857
 3009SOL     OW 9925   0.449   1.723   2.522
 3009SOL    HW1 9926   0.383   1.797   2.508
 3009SOL    HW2 9927   0.527   1.737   2.462
 3010SOL     OW 9928   3.683   5.429   3.451
 3010SOL    HW1 9929   3.608   5.364   3.467
 3010SOL    HW2 9930   3.769   5.388   3.480
 3011SOL     OW 9931   6.176   1.535   1.617
 3011SOL    HW1 9932   6.118   1.466   1.661
 3011SOL    HW2 9933   6.123   1.582   1.546
 3012SOL     OW 9934   1.701   3.729   6.029
 3012SOL    HW1 9935   1.766   3.803   6.047
 3012SOL    HW2 9936   1.711   3.698   5.934
 3013SOL     OW 9937   5.818   6.001   4.537
 3013SOL    HW1 9938   5.833   6.100   4.539
 3013SOL    HW2 9939   5.832   5.963   4.628
 3014SOL     OW 9940   4.329   2.287   4.244
 3014SOL    HW1 9941   4.255   2.250   4.187
 3014SOL    HW2 9942   4.366   2.369   4.200
 3015SOL     OW 9943   3.519   1.794   0.558
 3015SOL    HW1 9944   3.604   1.742   0.571
 3015SOL    HW2 9945   3.538   1.877   0.506
 3016SOL     OW 9946   2.369   6.223   3.774
 3016SOL    HW1 9947   2.382   6.305   3.829
 3016SOL    HW2 9948   2.413   6.235   3.685
 3017SOL     OW 9949   6.488   4.852   2.460
 3017SOL    HW1 9950   6.483   4.909   2.378
 3017SOL    HW2 9951   6.557   4.888   2.522
 3018SOL     OW 9952   2.989   6.429   6.076
 3018SOL    HW1 9953   2.928   6.391   6.008
 3018SOL    HW2 9954   2.955   6.407   6.168
 3019SOL     OW 9955   0.837   0.118   6.943
 3019SOL    HW1 9956   0.809   0.117   0.017
 3019SOL    HW2 9957   0.849   0.213   6.913
 3020SOL     OW 9958   4.015   2.846   1.623
 3020SOL    HW1 9959   3.978   2.874   1.535
 3020SOL    HW2 9960   4.062   2.758   1.613
 3021SOL     OW 9961   3.037   6.595   6.610
 3021SOL    HW1 9962   3.095   6.637   6.541
 3021SOL    HW2 9963   2.964   6.660   6.635
 3022SOL     OW 9964   3.646   5.761   4.249
 3022SOL    HW1 9965   3.726   5.718   4.205
 3022SOL    HW2 9966   3.608   5.831   4.189
 3023SOL     OW 9967   3.866   0.416   2.640
 3023SOL    HW1 9968   3.816   0.476   2.702
 3023SOL    HW2 9969   3.823   0.325   2.641
 3024SOL     OW 9970   4.477   6.942   4.948
 3024SOL    HW1 9971   4.518   0.006   4.977
 3024SOL    HW2 9972   4.518   6.867   4.999
 3025SOL     OW 9973   3.227   0.808   0.468
 3025SOL    HW1 9974   3.209   0.864   0.387
 3025SOL    HW2 9975   3.140   0.788   0.514
 3026SOL     OW 9976   1.406   0.310   6.918
 3026SOL    HW1 9977   1.320   0.314   6.969
 3026SOL    HW2 9978   1.394   0.356   6.830
 3027SOL     OW 9979   4.023   0.404   3.056
 3027SOL    HW1 9980   3.976   0.492   3.052
 3027SOL    HW2 9981   4.094   0.407   3.127
 3028SOL     OW 9982   1.284   3.848   5.539
 3028SOL    HW1 9983   1.212   3.790   5.578
 3028SOL    HW2 9984   1.270   3.856   5.441
 3029SOL     OW 9985   0.056   2.698   5.439
 3029SOL    HW1 9986   0.019   2.786   5.408
 3029SOL    HW2 9987   0.120   2.663   5.371
 3030SOL     OW 9988   0.233   3.310   6.859
 3030SOL    HW1 9989   0.146   3.271   6.889
 3030SOL    HW2 9990   0.234   3.408   6.879
 3031SOL     OW 9991   0.461   4.030   0.320
 3031SOL    HW1 9992   0.422   4.086   0.246
 3031SOL    HW2 9993   0.421   3.939   0.318
 3032SOL     OW 9994   3.125   0.222   1.062
 3032SOL    HW1 9995   3.160   0.158   1.130
 3032SOL    HW2 9996   3.186   0.302   1.057
 3033SOL     OW 9997   6.254   2.109   1.666
 3033SOL    HW1 9998   6.244   2.029   1.607
 3033SOL    HW2 9999   6.164   2.138   1.698
 3034SOL     OW10000   1.522   5.682   3.043
 3034SOL    HW110001   1.574   5.717   3.121
 3034SOL    HW210002   1.518   5.582   3.047
 3035SOL     OW10003   0.504   3.269   6.808
 3035SOL    HW110004   0.404   3.265   6.808
 3035SOL    HW210005   0.540   3.208   6.738
 3036SOL     OW10006   1.805   1.338   6.537
 3036SOL    HW110007   1.820   1.265   6.604
 3036SOL    HW210008   1.712   1.333   6.502
 3037SOL     OW10009   6.146   5.877   5.205
 3037SOL    HW110010   6.156   5.961   5.258
 3037SOL    HW210011   6.200   5.804   5.247
 3038SOL     OW10012   5.351   6.291   5.903
 3038SOL    HW110013   5.323   6.229   5.830
 3038SOL    HW210014   5.443   6.325   5.885
 3039SOL     OW10015   6.710   3.864   0.553
 3039SOL    HW110016   6.628   3.871   0.610
 3039SOL    HW210017   6.791   3.855   0.611
 3040SOL     OW10018   3.775   3.736   5.957
 3040SOL    HW110019   3.871   3.758   5.940
 3040SOL    HW210020   3.718   3.816   5.939
 3041SOL     OW10021   2.217   2.718   4.315
 3041SOL    HW110022   2.228   2.698   4.218
 3041SOL    HW210023   2.151   2.792   4.327
 3042SOL     OW10024   4.657   5.826   2.082
 3042SOL    HW110025   4.686   5.916   2.049
 3042SOL    HW210026   4.712   5.799   2.160
 3043SOL     OW10027   2.534   4.802   1.744
 3043SOL    HW110028   2.595   4.881   1.736
 3043SOL    HW210029   2.550   4.755   1.831
 3044SOL     OW10030   3.632   3.964   5.919
 3044SOL    HW110031   3.606   3.981   6.014
 3044SOL    HW210032   3.613   4.046   5.864
 3045SOL     OW10033   4.825   0.611   2.971
 3045SOL    HW110034   4.802   0.703   2.940
 3045SOL    HW210035   4.744   0.569   3.011
 3046SOL     OW10036   2.583   0.854   6.328
 3046SOL    HW110037   2.622   0.792   6.260
 3046SOL    HW210038   2.539   0.931   6.282
 3047SOL     OW10039   6.589   0.592   2.015
 3047SOL    HW110040   6.532   0.674   2.018
 3047SOL    HW210041   6.533   0.514   1.988
 3048SOL     OW10042   3.902   2.150   1.834
 3048SOL    HW110043   3.813   2.192   1.851
 3048SOL    HW210044   3.896   2.089   1.755
 3049SOL     OW10045   1.695   6.833   2.505
 3049SOL    HW110046   1.638   6.779   2.567
 3049SOL    HW210047   1.714   6.922   2.547
 3050SOL     OW10048   3.067   1.449   1.827
 3050SOL    HW110049   3.031   1.482   1.740
 3050SOL    HW210050   3.119   1.522   1.871
 3051SOL     OW10051   2.324   3.878   0.099
 3051SOL    HW110052   2.277   3.847   0.017
 3051SOL    HW210053   2.269   3.854   0.179
 3052SOL     OW10054   5.367   6.559   1.390
 3052SOL    HW110055   5.310   6.486   1.426
 3052SOL    HW210056   5.463   6.537   1.407
 3053SOL     OW10057   6.944   1.757   0.019
 3053SOL    HW110058   6.990   1.834   6.997
 3053SOL    HW210059   7.006   1.679   0.024
 3054SOL     OW10060   6.518   1.862   0.522
 3054SOL    HW110061   6.609   1.833   0.554
 3054SOL    HW210062   6.485   1.797   0.453
 3055SOL     OW10063   5.330   0.506   4.236
 3055SOL    HW110064   5.353   0.599   4.206
 3055SOL    HW210065   5.257   0.470   4.178
 3056SOL     OW10066   6.153   0.298   4.852
 3056SOL    HW110067   6.171   0.388   4.813
 3056SOL    HW210068   6.230   0.269   4.908
 3057SOL     OW10069   3.922   6.088   2.689
 3057SOL    HW110070   3.880   6.041   2.611
 3057SOL    HW210071   3.889   6.047   2.774
 3058SOL     OW10072   0.356   4.770   1.619
 3058SOL    HW110073   0.322   4.799   1.530
 3058SOL    HW210074   0.340   4.843   1.686
 3059SOL     OW10075   2.666   2.367   4.101
 3059SOL    HW110076   2.683   2.272   4.077
 3059SOL    HW210077   2.658   2.377   4.200
 3060SOL     OW10078   0.755   5.598   0.307
 3060SOL    HW110079   0.708   5.583   0.394
 3060SOL    HW210080   0.854   5.599   0.322
 3061SOL     OW10081   6.878   6.990   5.042
 3061SOL    HW110082   6.918   6.930   5.111
 3061SOL    HW210083   6.896   6.953   4.951
 3062SOL     OW10084   2.045   0.270   0.284
 3062SOL    HW110085   1.967   0.219   0.320
 3062SOL    HW210086   2.012   0.356   0.244
 3063SOL     OW10087   2.687   5.078   1.928
 3063SOL    HW110088   2.751   5.004   1.948
 3063SOL    HW210089   2.594   5.047   1.944
 3064SOL     OW10090   5.924   4.069   2.838
 3064SOL    HW110091   5.898   4.159   2.873
 3064SOL    HW210092   6.022   4.069   2.817
 3065SOL     OW10093   2.214   0.815   0.414
 3065SOL    HW110094   2.142   0.746   0.419
 3065SOL    HW210095   2.250   0.819   0.321
 3066SOL     OW10096   4.891   5.331   0.862
 3066SOL    HW110097   4.909   5.295   0.770
 3066SOL    HW210098   4.938   5.275   0.929
 3067SOL     OW10099   3.330   2.230   5.294
 3067SOL    HW110100   3.408   2.289   5.314
 3067SOL    HW210101   3.263   2.280   5.239
 3068SOL     OW10102   6.656   0.261   0.526
 3068SOL    HW110103   6.600   0.304   0.456
 3068SOL    HW210104   6.621   0.284   0.616
 3069SOL     OW10105   6.570   6.596   1.696
 3069SOL    HW110106   6.595   6.589   1.792
 3069SOL    HW210107   6.527   6.684   1.678
 3070SOL     OW10108   2.523   1.568   0.643
 3070SOL    HW110109   2.425   1.574   0.661
 3070SOL    HW210110   2.573   1.616   0.716
 3071SOL     OW10111   5.782   6.265   3.172
 3071SOL    HW110112   5.768   6.166   3.164
 3071SOL    HW210113   5.755   6.295   3.263
 3072SOL     OW10114   2.049   6.243   0.129
 3072SOL    HW110115   2.070   6.216   0.223
 3072SOL    HW210116   2.088   6.176   0.066
 3073SOL     OW10117   5.871   3.163   4.147
 3073SOL    HW110118   5.943   3.181   4.214
 3073SOL    HW210119   5.864   3.241   4.084
 3074SOL     OW10120   5.839   4.290   1.213
 3074SOL    HW110121   5.801   4.204   1.180
 3074SOL    HW210122   5.857   4.284   1.311
 3075SOL     OW10123   2.831   6.187   1.788
 3075SOL    HW110124   2.747   6.172   1.840
 3075SOL    HW210125   2.808   6.210   1.694
 3076SOL     OW10126   6.780   0.474   4.382
 3076SOL    HW110127   6.740   0.441   4.297
 3076SOL    HW210128   6.834   0.401   4.424
 3077SOL     OW10129   5.172   5.923   1.816
 3077SOL    HW110130   5.094   5.956   1.870
 3077SOL    HW210131   5.151   5.931   1.719
 3078SOL     OW10132   0.237   2.835   2.782
 3078SOL    HW110133   0.300   2.772   2.737
 3078SOL    HW210134   0.145   2.820   2.748
 3079SOL     OW10135   2.259   2.775   2.807
 3079SOL    HW110136   2.228   2.805   2.897
 3079SOL    HW210137   2.326   2.702   2.817
 3080SOL     OW10138   4.730   4.270   2.639
 3080SOL    HW110139   4.738   4.176   2.606
 3080SOL    HW210140   4.689   4.269   2.731
 3081SOL     OW10141   0.621   2.341   5.330
 3081SOL    HW110142   0.568   2.393   5.263
 3081SOL    HW210143   0.699   2.396   5.361
 3082SOL     OW10144   3.081   6.127   3.876
 3082SOL    HW110145   2.988   6.095   3.860
 3082SOL    HW210146   3.084   6.227   3.866
 3083SOL     OW10147   3.339   5.852   4.047
 3083SOL    HW110148   3.329   5.764   4.000
 3083SOL    HW210149   3.306   5.842   4.141
 3084SOL     OW10150   6.782   4.165   4.912
 3084SOL    HW110151   6.734   4.100   4.971
 3084SOL    HW210152   6.728   4.180   4.829
 3085SOL     OW10153   6.209   4.151   0.939
 3085SOL    HW110154   6.259   4.104   0.865
 3085SOL    HW210155   6.113   4.162   0.912
 3086SOL     OW10156   4.438   1.242   1.181
 3086SOL    HW110157   4.466   1.222   1.274
 3086SOL    HW210158   4.481   1.177   1.118
 3087SOL     OW10159   0.628   5.335   3.956
 3087SOL    HW110160   0.609   5.431   3.936
 3087SOL    HW210161   0.717   5.309   3.917
 3088SOL     OW10162   1.867   5.047   4.988
 3088SOL    HW110163   1.923   5.126   5.014
 3088SOL    HW210164   1.895   4.968   5.043
 3089SOL     OW10165   1.235   3.117   6.709
 3089SOL    HW110166   1.265   3.198   6.660
 3089SOL    HW210167   1.314   3.059   6.731
 3090SOL     OW10168   2.315   2.169   1.476
 3090SOL    HW110169   2.304   2.257   1.430
 3090SOL    HW210170   2.311   2.183   1.575
 3091SOL     OW10171   1.360   0.722   1.096
 3091SOL    HW110172   1.387   0.818   1.098
 3091SOL    HW210173   1.385   0.682   1.008
 3092SOL     OW10174   4.681   0.835   0.303
 3092SOL    HW110175   4.658   0.922   0.260
 3092SOL    HW210176   4.748   0.850   0.376
 3093SOL     OW10177   5.557   6.461   5.847
 3093SOL    HW110178   5.578   6.559   5.844
 3093SOL    HW210179   5.641   6.408   5.836
 3094SOL     OW10180   1.934   6.679   4.434
 3094SOL    HW110181   2.022   6.724   4.451
 3094SOL    HW210182   1.875   6.740   4.381
 3095SOL     OW10183   2.088   5.187   5.329
 3095SOL    HW110184   2.039   5.112   5.372
 3095SOL    HW210185   2.182   5.190   5.362
 3096SOL     OW10186   1.806   6.046   5.285
 3096SOL    HW110187   1.896   6.021   5.248
 3096SOL    HW210188   1.763   6.113   5.225
 3097SOL     OW10189   6.018   1.880   0.079
 3097SOL    HW110190   6.065   1.908   0.163
 3097SOL    HW210191   6.038   1.947   0.007
 3098SOL     OW10192   2.504   3.093   0.898
 3098SOL    HW110193   2.409   3.065   0.909
 3098SOL    HW210194   2.537   3.136   0.982
 3099SOL     OW10195   0.550   0.075   3.277
 3099SOL    HW110196   0.456   0.072   3.243
 3099SOL    HW210197   0.609   0.023   3.216
 3100SOL     OW10198   6.452   5.962   4.378
 3100SOL    HW110199   6.490   5.980   4.468
 3100SOL    HW210200   6.437   6.048   4.329
 3101SOL     OW10201   5.594   6.967   6.704
 3101SOL    HW110202   5.539   6.924   6.633
 3101SOL    HW210203   5.689   6.939   6.694
 3102SOL     OW10204   6.935   5.072   2.094
 3102SOL    HW110205   6.844   5.072   2.052
 3102SOL    HW210206   6.998   5.018   2.038
 3103SOL     OW10207   4.386   0.837   2.579
 3103SOL    HW110208   4.318   0.804   2.514
 3103SOL    HW210209   4.381   0.781   2.663
 3104SOL     OW10210   5.074   0.451   5.095
 3104SOL    HW110211   5.130   0.458   5.178
 3104SOL    HW210212   5.104   0.519   5.029
 3105SOL     OW10213   6.500   4.499   1.537
 3105SOL    HW110214   6.455   4.588   1.529
 3105SOL    HW210215   6.587   4.502   1.488
 3106SOL     OW10216   6.383   0.982   3.407
 3106SOL    HW110217   6.361   1.049   3.478
 3106SOL    HW210218   6.426   1.028   3.329
 3107SOL     OW10219   4.788   1.088   4.859
 3107SOL    HW110220   4.795   1.158   4.788
 3107SOL    HW210221   4.714   1.025   4.838
 3108SOL     OW10222   0.916   6.100   4.252
 3108SOL    HW110223   0.984   6.026   4.257
 3108SOL    HW210224   0.960   6.183   4.216
 3109SOL     OW10225   5.583   6.314   2.949
 3109SOL    HW110226   5.620   6.238   3.001
 3109SOL    HW210227   5.502   6.350   2.995
 3110SOL     OW10228   1.487   2.560   2.302
 3110SOL    HW110229   1.523   2.651   2.280
 3110SOL    HW210230   1.447   2.520   2.220
 3111SOL     OW10231   6.594   5.517   3.812
 3111SOL    HW110232   6.596   5.582   3.736
 3111SOL    HW210233   6.502   5.511   3.849
 3112SOL     OW10234   4.709   2.941   0.132
 3112SOL    HW110235   4.693   2.842   0.126
 3112SOL    HW210236   4.632   2.989   0.088
 3113SOL     OW10237   2.618   5.737   3.423
 3113SOL    HW110238   2.603   5.759   3.519
 3113SOL    HW210239   2.692   5.670   3.416
 3114SOL     OW10240   4.112   1.540   1.034
 3114SOL    HW110241   4.111   1.604   0.958
 3114SOL    HW210242   4.204   1.535   1.072
 3115SOL     OW10243   3.829   3.646   6.416
 3115SOL    HW110244   3.894   3.610   6.349
 3115SOL    HW210245   3.743   3.595   6.410
 3116SOL     OW10246   0.716   2.939   6.672
 3116SOL    HW110247   0.681   2.846   6.657
 3116SOL    HW210248   0.803   2.935   6.721
 3117SOL     OW10249   4.465   3.618   5.337
 3117SOL    HW110250   4.493   3.714   5.337
 3117SOL    HW210251   4.529   3.564   5.282
 3118SOL     OW10252   0.959   5.655   2.228
 3118SOL    HW110253   0.902   5.705   2.163
 3118SOL    HW210254   0.954   5.557   2.209
 3119SOL     OW10255   1.901   3.434   5.943
 3119SOL    HW110256   1.944   3.372   5.878
 3119SOL    HW210257   1.848   3.503   5.892
 3120SOL     OW10258   2.921   6.749   4.524
 3120SOL    HW110259   2.850   6.755   4.453
 3120SOL    HW210260   2.878   6.743   4.614
 3121SOL     OW10261   0.321   1.050   3.614
 3121SOL    HW110262   0.337   1.123   3.548
 3121SOL    HW210263   0.267   1.085   3.690
 3122SOL     OW10264   4.092   6.384   6.007
 3122SOL    HW110265   4.147   6.331   6.072
 3122SOL    HW210266   4.062   6.468   6.050
 3123SOL     OW10267   2.855   1.824   3.586
 3123SOL    HW110268   2.944   1.808   3.543
 3123SOL    HW210269   2.848   1.920   3.614
 3124SOL     OW10270   4.082   0.011   4.788
 3124SOL    HW110271   4.156   6.970   4.764
 3124SOL    HW210272   3.997   7.004   4.744
 3125SOL     OW10273   6.715   2.240   5.062
 3125SOL    HW110274   6.737   2.168   5.127
 3125SOL    HW210275   6.728   2.207   4.969
 3126SOL     OW10276   4.968   4.719   5.471
 3126SOL    HW110277   5.021   4.749   5.550
 3126SOL    HW210278   4.969   4.619   5.466
 3127SOL     OW10279   1.560   3.088   4.938
 3127SOL    HW110280   1.557   3.068   5.036
 3127SOL    HW210281   1.654   3.075   4.905
 3128SOL     OW10282   2.516   0.509   5.976
 3128SOL    HW110283   2.468   0.532   6.060
 3128SOL    HW210284   2.573   0.586   5.948
 3129SOL     OW10285   6.041   3.611   5.966
 3129SOL    HW110286   6.015   3.705   5.944
 3129SOL    HW210287   6.131   3.591   5.927
 3130SOL     OW10288   1.612   4.083   1.536
 3130SOL    HW110289   1.613   4.072   1.437
 3130SOL    HW210290   1.518   4.076   1.569
 3131SOL     OW10291   0.395   2.487   1.022
 3131SOL    HW110292   0.375   2.397   0.982
 3131SOL    HW210293   0.341   2.498   1.106
 3132SOL     OW10294   4.211   5.410   5.883
 3132SOL    HW110295   4.188   5.329   5.937
 3132SOL    HW210296   4.138   5.429   5.818
 3133SOL     OW10297   3.554   1.839   4.028
 3133SOL    HW110298   3.622   1.772   3.997
 3133SOL    HW210299   3.519   1.812   4.118
 3134SOL     OW10300   4.750   4.129   1.773
 3134SOL    HW110301   4.659   4.156   1.805
 3134SOL    HW210302   4.743   4.093   1.680
 3135SOL     OW10303   4.674   0.820   5.481
 3135SOL    HW110304   4.646   0.764   5.403
 3135SOL    HW210305   4.613   0.899   5.488
 3136SOL     OW10306   5.513   0.558   1.034
 3136SOL    HW110307   5.437   0.560   0.969
 3136SOL    HW210308   5.557   0.648   1.038
 3137SOL     OW10309   6.793   0.721   3.138
 3137SOL    HW110310   6.729   0.769   3.079
 3137SOL    HW210311   6.798   0.625   3.110
 3138SOL     OW10312   6.088   4.487   3.851
 3138SOL    HW110313   6.049   4.396   3.862
 3138SOL    HW210314   6.035   4.539   3.783
 3139SOL     OW10315   5.171   6.421   0.502
 3139SOL    HW110316   5.270   6.436   0.508
 3139SOL    HW210317   5.128   6.442   0.590
 3140SOL     OW10318   6.618   0.236   0.207
 3140SOL    HW110319   6.575   0.223   0.118
 3140SOL    HW210320   6.558   0.291   0.265
 3141SOL     OW10321   0.040   6.196   6.306
 3141SOL    HW110322   0.015   6.259   6.379
 3141SOL    HW210323   0.103   6.127   6.342
 3142SOL     OW10324   4.002   6.587   2.031
 3142SOL    HW110325   3.975   6.652   1.960
 3142SOL    HW210326   3.947   6.602   2.113
 3143SOL     OW10327   6.307   1.615   6.563
 3143SOL    HW110328   6.273   1.648   6.650
 3143SOL    HW210329   6.273   1.673   6.489
 3144SOL     OW10330   4.432   4.005   1.663
 3144SOL    HW110331   4.433   4.084   1.725
 3144SOL    HW210332   4.355   4.013   1.601
 3145SOL     OW10333   2.094   6.180   1.152
 3145SOL    HW110334   2.163   6.202   1.083
 3145SOL    HW210335   2.127   6.208   1.242
 3146SOL     OW10336   1.111   0.142   3.330
 3146SOL    HW110337   1.165   0.226   3.325
 3146SOL    HW210338   1.154   0.079   3.395
 3147SOL     OW10339   3.665   5.118   0.915
 3147SOL    HW110340   3.645   5.058   0.992
 3147SOL    HW210341   3.604   5.095   0.839
 3148SOL     OW10342   5.561   6.237   4.575
 3148SOL    HW110343   5.530   6.172   4.644
 3148SOL    HW210344   5.660   6.249   4.582
 3149SOL     OW10345   2.272   1.010   5.933
 3149SOL    HW110346   2.250   1.048   5.843
 3149SOL    HW210347   2.322   1.079   5.986
 3150SOL     OW10348   6.062   5.615   4.001
 3150SOL    HW110349   5.971   5.634   4.038
 3150SOL    HW210350   6.077   5.516   3.999
 3151SOL     OW10351   5.681   1.594   5.251
 3151SOL    HW110352   5.667   1.682   5.205
 3151SOL    HW210353   5.611   1.529   5.221
 3152SOL     OW10354   1.121   5.542   0.631
 3152SOL    HW110355   1.071   5.554   0.716
 3152SOL    HW210356   1.216   5.520   0.651
 3153SOL     OW10357   5.659   5.000   1.626
 3153SOL    HW110358   5.574   5.037   1.662
 3153SOL    HW210359   5.698   4.935   1.691
 3154SOL     OW10360   5.918   1.131   6.429
 3154SOL    HW110361   5.959   1.085   6.350
 3154SOL    HW210362   5.855   1.068   6.475
 3155SOL     OW10363   6.205   4.430   0.976
 3155SOL    HW110364   6.208   4.330   0.976
 3155SOL    HW210365   6.298   4.466   0.975
 3156SOL     OW10366   3.124   2.986   3.457
 3156SOL    HW110367   3.192   3.025   3.519
 3156SOL    HW210368   3.050   2.945   3.509
 3157SOL     OW10369   2.583   2.073   4.707
 3157SOL    HW110370   2.543   2.162   4.733
 3157SOL    HW210371   2.682   2.078   4.714
 3158SOL     OW10372   4.673   0.839   2.885
 3158SOL    HW110373   4.610   0.765   2.860
 3158SOL    HW210374   4.632   0.896   2.956
 3159SOL     OW10375   5.495   1.442   6.537
 3159SOL    HW110376   5.543   1.516   6.490
 3159SOL    HW210377   5.433   1.481   6.605
 3160SOL     OW10378   0.520   6.275   5.620
 3160SOL    HW110379   0.470   6.354   5.657
 3160SOL    HW210380   0.484   6.191   5.662
 3161SOL     OW10381   1.719   1.608   3.121
 3161SOL    HW110382   1.756   1.540   3.057
 3161SOL    HW210383   1.782   1.619   3.197
 3162SOL     OW10384   1.196   6.518   2.273
 3162SOL    HW110385   1.257   6.439   2.262
 3162SOL    HW210386   1.241   6.587   2.329
 3163SOL     OW10387   4.242   2.751   6.478
 3163SOL    HW110388   4.223   2.682   6.408
 3163SOL    HW210389   4.222   2.842   6.441
 3164SOL     OW10390   4.470   4.919   1.381
 3164SOL    HW110391   4.473   4.819   1.376
 3164SOL    HW210392   4.397   4.953   1.321
 3165SOL     OW10393   0.751   6.681   1.053
 3165SOL    HW110394   0.835   6.734   1.044
 3165SOL    HW210395   0.685   6.733   1.108
 3166SOL     OW10396   4.434   1.802   4.750
 3166SOL    HW110397   4.446   1.715   4.798
 3166SOL    HW210398   4.499   1.869   4.786
 3167SOL     OW10399   6.723   3.578   1.022
 3167SOL    HW110400   6.781   3.651   0.986
 3167SOL    HW210401   6.635   3.616   1.049
 3168SOL     OW10402   4.342   2.480   6.819
 3168SOL    HW110403   4.279   2.553   6.794
 3168SOL    HW210404   4.357   2.482   6.918
 3169SOL     OW10405   1.722   3.611   4.937
 3169SOL    HW110406   1.703   3.526   4.987
 3169SOL    HW210407   1.721   3.688   5.001
 3170SOL     OW10408   3.879   0.672   1.129
 3170SOL    HW110409   3.909   0.587   1.085
 3170SOL    HW210410   3.959   0.720   1.166
 3171SOL     OW10411   0.686   0.359   1.425
 3171SOL    HW110412   0.713   0.416   1.502
 3171SOL    HW210413   0.596   0.387   1.391
 3172SOL     OW10414   0.216   4.853   0.068
 3172SOL    HW110415   0.167   4.886   7.009
 3172SOL    HW210416   0.310   4.886   0.066
 3173SOL     OW10417   2.678   2.173   0.435
 3173SOL    HW110418   2.639   2.260   0.404
 3173SOL    HW210419   2.704   2.181   0.531
 3174SOL     OW10420   2.907   2.628   6.442
 3174SOL    HW110421   2.980   2.564   6.468
 3174SOL    HW210422   2.929   2.719   6.477
 3175SOL     OW10423   0.135   0.821   0.193
 3175SOL    HW110424   0.128   0.807   0.291
 3175SOL    HW210425   0.174   0.739   0.150
 3176SOL     OW10426   1.190   4.532   5.017
 3176SOL    HW110427   1.113   4.549   5.078
 3176SOL    HW210428   1.221   4.619   4.977
 3177SOL     OW10429   4.810   4.039   4.041
 3177SOL    HW110430   4.832   3.951   4.082
 3177SOL    HW210431   4.889   4.100   4.048
 3178SOL     OW10432   6.171   1.888   0.340
 3178SOL    HW110433   6.225   1.968   0.365
 3178SOL    HW210434   6.107   1.867   0.414
 3179SOL     OW10435   1.656   3.174   2.128
 3179SOL    HW110436   1.639   3.117   2.048
 3179SOL    HW210437   1.581   3.165   2.193
 3180SOL     OW10438   4.463   1.286   6.835
 3180SOL    HW110439   4.510   1.374   6.838
 3180SOL    HW210440   4.513   1.223   6.776
 3181SOL     OW10441   0.092   1.402   2.733
 3181SOL    HW110442   0.102   1.495   2.696
 3181SOL    HW210443   0.182   1.357   2.732
 3182SOL     OW10444   2.735   1.245   4.964
 3182SOL    HW110445   2.642   1.210   4.953
 3182SOL    HW210446   2.777   1.257   4.874
 3183SOL     OW10447   4.248   4.313   1.642
 3183SOL    HW110448   4.156   4.279   1.665
 3183SOL    HW210449   4.314   4.279   1.709
 3184SOL     OW10450   1.088   2.797   2.545
 3184SOL    HW110451   1.117   2.849   2.625
 3184SOL    HW210452   1.165   2.786   2.483
 3185SOL     OW10453   6.255   5.856   0.074
 3185SOL    HW110454   6.263   5.943   0.123
 3185SOL    HW210455   6.194   5.867   7.018
 3186SOL     OW10456   4.051   1.623   2.163
 3186SOL    HW110457   3.984   1.559   2.124
 3186SOL    HW210458   4.115   1.573   2.221
 3187SOL     OW10459   4.314   3.869   0.495
 3187SOL    HW110460   4.256   3.791   0.475
 3187SOL    HW210461   4.282   3.913   0.579
 3188SOL     OW10462   3.197   6.725   4.447
 3188SOL    HW110463   3.175   6.671   4.366
 3188SOL    HW210464   3.114   6.744   4.499
 3189SOL     OW10465   1.459   1.684   1.799
 3189SOL    HW110466   1.484   1.711   1.706
 3189SOL    HW210467   1.522   1.726   1.864
 3190SOL     OW10468   0.016   6.639   0.632
 3190SOL    HW110469   0.033   6.577   0.556
 3190SOL    HW210470   6.950   6.685   0.619
 3191SOL     OW10471   4.664   7.005   1.055
 3191SOL    HW110472   4.686   6.952   0.973
 3191SOL    HW210473   4.589   6.960   1.104
 3192SOL     OW10474   6.753   2.601   0.786
 3192SOL    HW110475   6.748   2.502   0.779
 3192SOL    HW210476   6.701   2.633   0.865
 3193SOL     OW10477   4.119   1.898   6.492
 3193SOL    HW110478   4.160   1.838   6.423
 3193SOL    HW210479   4.185   1.916   6.564
 3194SOL     OW10480   1.033   3.388   5.678
 3194SOL    HW110481   0.944   3.343   5.682
 3194SOL    HW210482   1.091   3.353   5.751
 3195SOL     OW10483   2.549   2.493   3.187
 3195SOL    HW110484   2.481   2.545   3.238
 3195SOL    HW210485   2.518   2.398   3.177
 3196SOL     OW10486   0.778   0.670   5.278
 3196SOL    HW110487   0.814   0.693   5.368
 3196SOL    HW210488   0.826   0.590   5.243
 3197SOL     OW10489   1.833   6.313   3.449
 3197SOL    HW110490   1.777   6.393   3.429
 3197SOL    HW210491   1.776   6.243   3.493
 3198SOL     OW10492   5.761   2.114   5.439
 3198SOL    HW110493   5.813   2.135   5.356
 3198SOL    HW210494   5.679   2.064   5.416
 3199SOL     OW10495   4.678   2.727   2.030
 3199SOL    HW110496   4.765   2.694   2.066
 3199SOL    HW210497   4.677   2.827   2.033
 3200SOL     OW10498   0.106   3.004   1.879
 3200SOL    HW110499   0.019   3.053   1.872
 3200SOL    HW210500   0.127   2.986   1.975
 3201SOL     OW10501   5.052   4.123   4.544
 3201SOL    HW110502   5.149   4.108   4.525
 3201SOL    HW210503   5.002   4.039   4.522
 3202SOL     OW10504   1.045   4.532   1.604
 3202SOL    HW110505   0.951   4.512   1.632
 3202SOL    HW210506   1.055   4.513   1.506
 3203SOL     OW10507   6.348   2.658   6.240
 3203SOL    HW110508   6.276   2.600   6.279
 3203SOL    HW210509   6.333   2.668   6.142
 3204SOL     OW10510   4.820   6.393   1.856
 3204SOL    HW110511   4.720   6.389   1.862
 3204SOL    HW210512   4.847   6.427   1.766
 3205SOL     OW10513   7.014   3.188   6.937
 3205SOL    HW110514   6.970   3.118   6.881
 3205SOL    HW210515   6.946   3.256   6.965
 3206SOL     OW10516   0.329   6.457   5.811
 3206SOL    HW110517   0.247   6.441   5.757
 3206SOL    HW210518   0.326   6.399   5.893
 3207SOL     OW10519   1.107   0.760   5.365
 3207SOL    HW110520   1.043   0.759   5.442
 3207SOL    HW210521   1.192   0.806   5.392
 3208SOL     OW10522   4.696   6.704   5.547
 3208SOL    HW110523   4.696   6.682   5.645
 3208SOL    HW210524   4.753   6.637   5.498
 3209SOL     OW10525   4.035   5.360   3.264
 3209SOL    HW110526   4.104   5.417   3.218
 3209SOL    HW210527   3.991   5.413   3.337
 3210SOL     OW10528   0.745   3.892   1.233
 3210SOL    HW110529   0.788   3.922   1.148
 3210SOL    HW210530   0.751   3.965   1.301
 3211SOL     OW10531   1.919   3.362   1.282
 3211SOL    HW110532   1.830   3.318   1.268
 3211SOL    HW210533   1.932   3.381   1.379
 3212SOL     OW10534   2.648   1.019   0.417
 3212SOL    HW110535   2.719   0.949   0.410
 3212SOL    HW210536   2.633   1.042   0.513
 3213SOL     OW10537   6.771   6.125   2.209
 3213SOL    HW110538   6.838   6.141   2.136
 3213SOL    HW210539   6.769   6.028   2.232
 3214SOL     OW10540   4.902   5.874   0.656
 3214SOL    HW110541   5.001   5.866   0.653
 3214SOL    HW210542   4.874   5.912   0.745
 3215SOL     OW10543   0.544   3.132   0.771
 3215SOL    HW110544   0.625   3.107   0.825
 3215SOL    HW210545   0.539   3.232   0.762
 3216SOL     OW10546   5.492   5.517   1.305
 3216SOL    HW110547   5.546   5.439   1.336
 3216SOL    HW210548   5.523   5.546   1.214
 3217SOL     OW10549   0.513   5.536   2.657
 3217SOL    HW110550   0.428   5.574   2.620
 3217SOL    HW210551   0.585   5.605   2.652
 3218SOL     OW10552   4.029   0.001   4.169
 3218SOL    HW110553   3.964   6.960   4.128
 3218SOL    HW210554   4.108   6.972   4.203
 3219SOL     OW10555   0.184   2.170   3.378
 3219SOL    HW110556   0.198   2.202   3.285
 3219SOL    HW210557   0.167   2.072   3.378
 3220SOL     OW10558   6.868   6.164   5.973
 3220SOL    HW110559   6.825   6.134   6.058
 3220SOL    HW210560   6.896   6.084   5.920
 3221SOL     OW10561   3.098   0.154   1.667
 3221SOL    HW110562   3.162   0.135   1.593
 3221SOL    HW210563   3.010   0.181   1.628
 3222SOL     OW10564   4.161   1.579   2.868
 3222SOL    HW110565   4.254   1.579   2.832
 3222SOL    HW210566   4.158   1.630   2.954
 3223SOL     OW10567   2.061   5.468   6.824
 3223SOL    HW110568   2.097   5.543   6.769
 3223SOL    HW210569   2.127   5.443   6.895
 3224SOL     OW10570   4.584   3.193   7.006
 3224SOL    HW110571   4.570   3.285   0.020
 3224SOL    HW210572   4.559   3.190   6.909
 3225SOL     OW10573   4.604   3.370   6.015
 3225SOL    HW110574   4.521   3.425   6.012
 3225SOL    HW210575   4.663   3.394   5.938
 3226SOL     OW10576   1.375   1.935   4.400
 3226SOL    HW110577   1.298   1.926   4.464
 3226SOL    HW210578   1.384   1.850   4.348
 3227SOL     OW10579   2.904   1.959   6.230
 3227SOL    HW110580   2.894   1.989   6.135
 3227SOL    HW210581   2.931   2.038   6.287
 3228SOL     OW10582   5.895   4.341   2.891
 3228SOL    HW110583   5.974   4.328   2.951
 3228SOL    HW210584   5.836   4.413   2.928
 3229SOL     OW10585   3.206   1.897   5.571
 3229SOL    HW110586   3.131   1.838   5.543
 3229SOL    HW210587   3.254   1.929   5.489
 3230SOL     OW10588   1.667   3.659   4.103
 3230SOL    HW110589   1.634   3.725   4.170
 3230SOL    HW210590   1.743   3.698   4.051
 3231SOL     OW10591   2.626   0.475   2.043
 3231SOL    HW110592   2.551   0.540   2.032
 3231SOL    HW210593   2.657   0.445   1.952
 3232SOL     OW10594   3.847   4.911   4.761
 3232SOL    HW110595   3.905   4.869   4.831
 3232SOL    HW210596   3.818   5.002   4.791
 3233SOL     OW10597   0.964   2.705   1.628
 3233SOL    HW110598   0.971   2.769   1.704
 3233SOL    HW210599   1.008   2.744   1.547
 3234SOL     OW10600   0.091   1.433   0.377
 3234SOL    HW110601   0.115   1.380   0.296
 3234SOL    HW210602   0.151   1.407   0.453
 3235SOL     OW10603   5.144   0.744   1.338
 3235SOL    HW110604   5.153   0.769   1.242
 3235SOL    HW210605   5.200   0.663   1.357
 3236SOL     OW10606   1.631   3.062   0.416
 3236SOL    HW110607   1.642   3.156   0.385
 3236SOL    HW210608   1.611   3.061   0.514
 3237SOL     OW10609   5.668   1.404   3.584
 3237SOL    HW110610   5.644   1.308   3.599
 3237SOL    HW210611   5.702   1.415   3.490
 3238SOL     OW10612   0.240   5.151   0.848
 3238SOL    HW110613   0.278   5.062   0.876
 3238SOL    HW210614   0.295   5.188   0.773
 3239SOL     OW10615   6.568   1.557   1.010
 3239SOL    HW110616   6.480   1.591   0.977
 3239SOL    HW210617   6.639   1.623   0.990
 3240SOL     OW10618   1.597   6.146   5.687
 3240SOL    HW110619   1.585   6.245   5.678
 3240SOL    HW210620   1.576   6.117   5.780
 3241SOL     OW10621   4.992   1.419   5.015
 3241SOL    HW110622   5.030   1.358   4.945
 3241SOL    HW210623   4.961   1.503   4.972
 3242SOL     OW10624   3.104   4.620   0.909
 3242SOL    HW110625   3.046   4.668   0.975
 3242SOL    HW210626   3.175   4.682   0.875
 3243SOL     OW10627   5.570   4.652   0.489
 3243SOL    HW110628   5.631   4.581   0.524
 3243SOL    HW210629   5.491   4.660   0.549
 3244SOL     OW10630   4.788   6.146   0.517
 3244SOL    HW110631   4.828   6.182   0.433
 3244SOL    HW210632   4.854   6.086   0.562
 3245SOL     OW10633   4.720   2.381   5.009
 3245SOL    HW110634   4.669   2.441   5.071
 3245SOL    HW210635   4.749   2.299   5.059
 3246SOL     OW10636   5.870   0.908   2.865
 3246SOL    HW110637   5.890   0.937   2.958
 3246SOL    HW210638   5.777   0.937   2.840
 3247SOL     OW10639   6.179   4.732   3.363
 3247SOL    HW110640   6.264   4.773   3.399
 3247SOL    HW210641   6.141   4.668   3.429
 3248SOL     OW10642   6.814   3.446   1.856
 3248SOL    HW110643   6.749   3.383   1.897
 3248SOL    HW210644   6.768   3.500   1.785
 3249SOL     OW10645   3.566   3.765   4.743
 3249SOL    HW110646   3.554   3.782   4.645
 3249SOL    HW210647   3.524   3.678   4.767
 3250SOL     OW10648   5.407   0.113   2.158
 3250SOL    HW110649   5.445   0.143   2.246
 3250SOL    HW210650   5.315   0.076   2.173
 3251SOL     OW10651   3.716   0.883   2.065
 3251SOL    HW110652   3.734   0.962   2.007
 3251SOL    HW210653   3.786   0.813   2.049
 3252SOL     OW10654   2.215   2.377   2.057
 3252SOL    HW110655   2.256   2.453   2.006
 3252SOL    HW210656   2.273   2.355   2.135
 3253SOL     OW10657   5.789   3.270   2.355
 3253SOL    HW110658   5.838   3.333   2.415
 3253SOL    HW210659   5.850   3.240   2.282
 3254SOL     OW10660   5.137   5.311   5.522
 3254SOL    HW110661   5.051   5.341   5.564
 3254SOL    HW210662   5.213   5.363   5.561
 3255SOL     OW10663   5.392   6.274   1.671
 3255SOL    HW110664   5.351   6.312   1.754
 3255SOL    HW210665   5.491   6.279   1.678
 3256SOL     OW10666   4.240   0.578   6.896
 3256SOL    HW110667   4.193   0.666   6.909
 3256SOL    HW210668   4.318   0.573   6.958
 3257SOL     OW10669   1.417   2.343   1.527
 3257SOL    HW110670   1.357   2.351   1.448
 3257SOL    HW210671   1.479   2.422   1.530
 3258SOL     OW10672   4.005   4.909   1.802
 3258SOL    HW110673   4.003   4.911   1.902
 3258SOL    HW210674   3.927   4.856   1.768
 3259SOL     OW10675   4.721   5.495   3.658
 3259SOL    HW110676   4.735   5.542   3.571
 3259SOL    HW210677   4.772   5.541   3.730
 3260SOL     OW10678   1.442   1.939   1.319
 3260SOL    HW110679   1.478   2.017   1.269
 3260SOL    HW210680   1.353   1.962   1.358
 3261SOL     OW10681   4.633   6.607   0.240
 3261SOL    HW110682   4.577   6.525   0.244
 3261SOL    HW210683   4.729   6.583   0.252
 3262SOL     OW10684   3.655   2.059   2.602
 3262SOL    HW110685   3.641   2.087   2.507
 3262SOL    HW210686   3.640   1.960   2.610
 3263SOL     OW10687   3.361   1.407   3.674
 3263SOL    HW110688   3.454   1.440   3.665
 3263SOL    HW210689   3.361   1.318   3.719
 3264SOL     OW10690   1.573   4.194   1.148
 3264SOL    HW110691   1.491   4.251   1.142
 3264SOL    HW210692   1.654   4.253   1.142
 3265SOL     OW10693   4.609   1.413   5.748
 3265SOL    HW110694   4.615   1.314   5.738
 3265SOL    HW210695   4.630   1.456   5.660
 3266SOL     OW10696   0.641   2.654   0.301
 3266SOL    HW110697   0.710   2.584   0.319
 3266SOL    HW210698   0.682   2.728   0.247
 3267SOL     OW10699   3.987   1.165   0.111
 3267SOL    HW110700   3.906   1.216   0.082
 3267SOL    HW210701   4.061   1.181   0.045
 3268SOL     OW10702   1.538   4.403   0.246
 3268SOL    HW110703   1.527   4.461   0.327
 3268SOL    HW210704   1.555   4.459   0.166
 3269SOL     OW10705   4.600   4.697   2.164
 3269SOL    HW110706   4.670   4.767   2.148
 3269SOL    HW210707   4.642   4.619   2.210
 3270SOL     OW10708   1.224   4.374   5.327
 3270SOL    HW110709   1.240   4.399   5.423
 3270SOL    HW210710   1.200   4.456   5.275
 3271SOL     OW10711   5.613   4.040   2.867
 3271SOL    HW110712   5.539   3.982   2.900
 3271SOL    HW210713   5.700   4.009   2.907
 3272SOL     OW10714   3.488   3.794   6.927
 3272SOL    HW110715   3.573   3.808   6.875
 3272SOL    HW210716   3.422   3.744   6.872
 3273SOL     OW10717   0.423   6.424   1.936
 3273SOL    HW110718   0.386   6.333   1.922
 3273SOL    HW210719   0.362   6.478   1.993
 3274SOL     OW10720   4.284   0.905   1.226
 3274SOL    HW110721   4.196   0.862   1.246
 3274SOL    HW210722   4.316   0.954   1.307
 3275SOL     OW10723   0.519   0.700   6.225
 3275SOL    HW110724   0.558   0.652   6.303
 3275SOL    HW210725   0.558   0.662   6.140
 3276SOL     OW10726   3.750   6.080   0.568
 3276SOL    HW110727   3.800   6.023   0.502
 3276SOL    HW210728   3.785   6.063   0.660
 3277SOL     OW10729   5.273   0.273   6.898
 3277SOL    HW110730   5.246   0.214   6.974
 3277SOL    HW210731   5.362   0.244   6.863
 3278SOL     OW10732   0.080   0.945   5.554
 3278SOL    HW110733   0.110   0.872   5.493
 3278SOL    HW210734   0.155   1.009   5.570
 3279SOL     OW10735   6.690   0.883   0.824
 3279SOL    HW110736   6.755   0.823   0.870
 3279SOL    HW210737   6.716   0.978   0.837
 3280SOL     OW10738   3.744   4.852   5.603
 3280SOL    HW110739   3.829   4.868   5.653
 3280SOL    HW210740   3.667   4.858   5.666
 3281SOL     OW10741   1.846   5.066   0.905
 3281SOL    HW110742   1.749   5.055   0.886
 3281SOL    HW210743   1.881   5.146   0.856
 3282SOL     OW10744   1.244   5.368   4.621
 3282SOL    HW110745   1.176   5.334   4.685
 3282SOL    HW210746   1.327   5.395   4.671
 3283SOL     OW10747   3.574   1.091   0.953
 3283SOL    HW110748   3.606   1.077   1.047
 3283SOL    HW210749   3.648   1.132   0.899
 3284SOL     OW10750   6.093   6.310   6.740
 3284SOL    HW110751   6.142   6.224   6.726
 3284SOL    HW210752   5.998   6.290   6.765
 3285SOL     OW10753   5.362   2.755   3.510
 3285SOL    HW110754   5.315   2.697   3.577
 3285SOL    HW210755   5.348   2.718   3.418
 3286SOL     OW10756   4.034   3.555   2.690
 3286SOL    HW110757   4.034   3.503   2.604
 3286SOL    HW210758   4.074   3.499   2.763
 3287SOL     OW10759   1.899   6.054   6.927
 3287SOL    HW110760   1.991   6.091   6.940
 3287SOL    HW210761   1.856   6.096   6.847
 3288SOL     OW10762   0.762   5.650   6.821
 3288SOL    HW110763   0.820   5.729   6.840
 3288SOL    HW210764   0.767   5.627   6.724
 3289SOL     OW10765   2.518   6.533   4.929
 3289SOL    HW110766   2.420   6.542   4.913
 3289SOL    HW210767   2.568   6.589   4.863
 3290SOL     OW10768   0.396   6.986   1.639
 3290SOL    HW110769   0.350   0.046   1.605
 3290SOL    HW210770   0.481   6.972   1.587
 3291SOL     OW10771   1.273   6.366   0.243
 3291SOL    HW110772   1.335   6.291   0.221
 3291SOL    HW210773   1.325   6.439   0.290
 3292SOL     OW10774   0.577   0.723   0.053
 3292SOL    HW110775   0.547   0.641   0.103
 3292SOL    HW210776   0.637   0.778   0.111
 3293SOL     OW10777   6.930   3.325   3.262
 3293SOL    HW110778   6.917   3.285   3.172
 3293SOL    HW210779   6.988   3.407   3.254
 3294SOL     OW10780   0.807   1.046   6.086
 3294SOL    HW110781   0.903   1.018   6.081
 3294SOL    HW210782   0.785   1.103   6.007
 3295SOL     OW10783   1.859   3.076   1.887
 3295SOL    HW110784   1.897   3.152   1.939
 3295SOL    HW210785   1.763   3.096   1.865
 3296SOL     OW10786   1.685   6.269   1.826
 3296SOL    HW110787   1.649   6.304   1.739
 3296SOL    HW210788   1.675   6.339   1.897
 3297SOL     OW10789   3.088   0.136   4.702
 3297SOL    HW110790   3.142   0.157   4.621
 3297SOL    HW210791   3.062   0.222   4.747
 3298SOL     OW10792   5.796   2.228   4.149
 3298SOL    HW110793   5.824   2.317   4.184
 3298SOL    HW210794   5.700   2.213   4.169
 3299SOL     OW10795   1.668   6.573   4.274
 3299SOL    HW110796   1.729   6.522   4.214
 3299SOL    HW210797   1.676   6.538   4.368
 3300SOL     OW10798   0.555   0.579   5.952
 3300SOL    HW110799   0.588   0.531   5.870
 3300SOL    HW210800   0.467   0.621   5.932
 3301SOL     OW10801   2.056   3.074   3.004
 3301SOL    HW110802   1.964   3.035   3.000
 3301SOL    HW210803   2.080   3.111   2.915
 3302SOL     OW10804   1.789   5.777   5.585
 3302SOL    HW110805   1.713   5.840   5.593
 3302SOL    HW210806   1.874   5.828   5.571
 3303SOL     OW10807   3.788   2.936   1.757
 3303SOL    HW110808   3.711   2.892   1.710
 3303SOL    HW210809   3.872   2.886   1.736
 3304SOL     OW10810   1.500   5.222   4.387
 3304SOL    HW110811   1.497   5.235   4.486
 3304SOL    HW210812   1.407   5.220   4.351
 3305SOL     OW10813   1.940   1.305   3.345
 3305SOL    HW110814   1.981   1.324   3.256
 3305SOL    HW210815   1.929   1.206   3.356
 3306SOL     OW10816   1.987   5.397   3.825
 3306SOL    HW110817   2.080   5.361   3.834
 3306SOL    HW210818   1.976   5.477   3.884
 3307SOL     OW10819   6.920   5.793   6.548
 3307SOL    HW110820   6.983   5.717   6.562
 3307SOL    HW210821   6.962   5.879   6.579
 3308SOL     OW10822   4.589   5.959   6.887
 3308SOL    HW110823   4.565   6.053   6.910
 3308SOL    HW210824   4.663   5.929   6.947
 3309SOL     OW10825   0.944   5.059   2.915
 3309SOL    HW110826   0.909   5.096   3.002
 3309SOL    HW210827   0.894   5.101   2.839
 3310SOL     OW10828   6.625   4.334   5.209
 3310SOL    HW110829   6.593   4.414   5.259
 3310SOL    HW210830   6.675   4.363   5.128
 3311SOL     OW10831   2.392   4.070   1.750
 3311SOL    HW110832   2.315   4.043   1.692
 3311SOL    HW210833   2.476   4.070   1.696
 3312SOL     OW10834   3.632   4.523   5.828
 3312SOL    HW110835   3.631   4.432   5.868
 3312SOL    HW210836   3.539   4.556   5.816
 3313SOL     OW10837   0.098   5.392   2.573
 3313SOL    HW110838   0.074   5.296   2.590
 3313SOL    HW210839   0.059   5.449   2.645
 3314SOL     OW10840   1.846   1.948   4.228
 3314SOL    HW110841   1.818   1.925   4.321
 3314SOL    HW210842   1.912   2.023   4.231
 3315SOL     OW10843   5.994   3.549   4.419
 3315SOL    HW110844   5.999   3.609   4.338
 3315SOL    HW210845   6.057   3.473   4.407
 3316SOL     OW10846   4.189   1.680   6.120
 3316SOL    HW110847   4.110   1.628   6.153
 3316SOL    HW210848   4.172   1.777   6.134
 3317SOL     OW10849   4.681   3.228   1.719
 3317SOL    HW110850   4.663   3.141   1.766
 3317SOL    HW210851   4.596   3.279   1.712
 3318SOL     OW10852   3.131   0.271   0.774
 3318SOL    HW110853   3.118   0.191   0.715
 3318SOL    HW210854   3.100   0.249   0.866
 3319SOL     OW10855   5.972   0.198   4.640
 3319SOL    HW110856   6.059   0.204   4.590
 3319SOL    HW210857   5.979   0.249   4.726
 3320SOL     OW10858   5.597   0.819   5.423
 3320SOL    HW110859   5.690   0.808   5.458
 3320SOL    HW210860   5.596   0.889   5.352
 3321SOL     OW10861   3.604   2.182   1.543
 3321SOL    HW110862   3.584   2.181   1.641
 3321SOL    HW210863   3.680   2.245   1.526
 3322SOL     OW10864   5.353   3.240   1.507
 3322SOL    HW110865   5.430   3.240   1.571
 3322SOL    HW210866   5.358   3.322   1.449
 3323SOL     OW10867   2.438   4.182   6.353
 3323SOL    HW110868   2.436   4.090   6.392
 3323SOL    HW210869   2.355   4.197   6.298
 3324SOL     OW10870   1.176   3.820   6.109
 3324SOL    HW110871   1.155   3.801   6.205
 3324SOL    HW210872   1.263   3.869   6.103
 3325SOL     OW10873   2.136   2.538   6.107
 3325SOL    HW110874   2.222   2.538   6.056
 3325SOL    HW210875   2.153   2.571   6.200
 3326SOL     OW10876   5.938   1.600   2.201
 3326SOL    HW110877   5.969   1.679   2.148
 3326SOL    HW210878   6.014   1.565   2.255
 3327SOL     OW10879   3.444   6.392   1.337
 3327SOL    HW110880   3.390   6.466   1.296
 3327SOL    HW210881   3.385   6.338   1.398
 3328SOL     OW10882   4.448   1.780   2.216
 3328SOL    HW110883   4.401   1.776   2.304
 3328SOL    HW210884   4.533   1.832   2.225
 3329SOL     OW10885   5.471   0.697   4.110
 3329SOL    HW110886   5.445   0.794   4.104
 3329SOL    HW210887   5.543   0.677   4.044
 3330SOL     OW10888   6.241   6.057   1.236
 3330SOL    HW110889   6.327   6.044   1.285
 3330SOL    HW210890   6.246   6.141   1.181
 3331SOL     OW10891   0.562   3.507   2.199
 3331SOL    HW110892   0.530   3.424   2.154
 3331SOL    HW210893   0.547   3.499   2.298
 3332SOL     OW10894   6.223   4.298   0.543
 3332SOL    HW110895   6.250   4.363   0.614
 3332SOL    HW210896   6.260   4.329   0.455
 3333SOL     OW10897   2.521   3.923   6.534
 3333SOL    HW110898   2.620   3.906   6.536
 3333SOL    HW210899   2.474   3.839   6.508
 3334SOL     OW10900   2.178   4.005   2.196
 3334SOL    HW110901   2.231   4.085   2.170
 3334SOL    HW210902   2.194   3.932   2.130
 3335SOL     OW10903   4.624   0.051   6.332
 3335SOL    HW110904   4.604   7.014   6.254
 3335SOL    HW210905   4.568   0.134   6.327
 3336SOL     OW10906   1.621   6.392   4.501
 3336SOL    HW110907   1.715   6.394   4.535
 3336SOL    HW210908   1.590   6.298   4.493
 3337SOL     OW10909   2.686   4.267   1.344
 3337SOL    HW110910   2.617   4.262   1.416
 3337SOL    HW210911   2.756   4.334   1.369
 3338SOL     OW10912   0.221   3.155   0.962
 3338SOL    HW110913   0.256   3.071   0.922
 3338SOL    HW210914   0.290   3.195   1.022
 3339SOL     OW10915   1.374   6.500   6.789
 3339SOL    HW110916   1.281   6.517   6.820
 3339SOL    HW210917   1.416   6.431   6.848
 3340SOL     OW10918   3.448   1.216   3.335
 3340SOL    HW110919   3.493   1.234   3.423
 3340SOL    HW210920   3.517   1.194   3.266
 3341SOL     OW10921   1.860   4.450   3.921
 3341SOL    HW110922   1.939   4.395   3.946
 3341SOL    HW210923   1.884   4.547   3.927
 3342SOL     OW10924   1.171   7.004   3.535
 3342SOL    HW110925   1.123   0.043   3.597
 3342SOL    HW210926   1.146   6.909   3.556
 3343SOL     OW10927   5.779   4.452   6.817
 3343SOL    HW110928   5.697   4.492   6.776
 3343SOL    HW210929   5.846   4.524   6.835
 3344SOL     OW10930   5.831   3.934   3.851
 3344SOL    HW110931   5.869   4.021   3.822
 3344SOL    HW210932   5.731   3.941   3.858
 3345SOL     OW10933   1.451   4.243   6.522
 3345SOL    HW110934   1.376   4.291   6.568
 3345SOL    HW210935   1.466   4.154   6.566
 3346SOL     OW10936   1.291   1.136   6.963
 3346SOL    HW110937   1.249   1.048   6.941
 3346SOL    HW210938   1.391   1.125   6.963
 3347SOL     OW10939   1.167   2.141   5.761
 3347SOL    HW110940   1.145   2.230   5.800
 3347SOL    HW210941   1.238   2.151   5.691
 3348SOL     OW10942   4.127   3.443   4.842
 3348SOL    HW110943   4.046   3.385   4.849
 3348SOL    HW210944   4.136   3.500   4.924
 3349SOL     OW10945   1.992   4.983   3.440
 3349SOL    HW110946   2.027   5.043   3.368
 3349SOL    HW210947   1.893   4.997   3.450
 3350SOL     OW10948   0.287   2.589   6.063
 3350SOL    HW110949   0.324   2.581   6.155
 3350SOL    HW210950   0.207   2.531   6.054
 3351SOL     OW10951   4.753   1.092   2.093
 3351SOL    HW110952   4.698   1.171   2.067
 3351SOL    HW210953   4.843   1.122   2.123
 3352SOL     OW10954   6.459   2.913   1.085
 3352SOL    HW110955   6.467   2.982   1.012
 3352SOL    HW210956   6.540   2.917   1.143
 3353SOL     OW10957   3.297   5.937   1.516
 3353SOL    HW110958   3.212   5.977   1.483
 3353SOL    HW210959   3.287   5.914   1.613
 3354SOL     OW10960   4.016   2.267   5.270
 3354SOL    HW110961   3.989   2.286   5.364
 3354SOL    HW210962   4.047   2.351   5.226
 3355SOL     OW10963   1.854   1.814   6.143
 3355SOL    HW110964   1.818   1.874   6.215
 3355SOL    HW210965   1.952   1.802   6.156
 3356SOL     OW10966   1.066   5.541   6.096
 3356SOL    HW110967   1.055   5.596   6.013
 3356SOL    HW210968   0.986   5.482   6.108
 3357SOL     OW10969   2.720   3.441   1.843
 3357SOL    HW110970   2.624   3.423   1.820
 3357SOL    HW210971   2.778   3.374   1.798
 3358SOL     OW10972   4.374   1.619   2.680
 3358SOL    HW110973   4.413   1.603   2.589
 3358SOL    HW210974   4.345   1.714   2.688
 3359SOL     OW10975   0.475   5.965   3.061
 3359SOL    HW110976   0.415   5.935   3.135
 3359SOL    HW210977   0.454   6.060   3.038
 3360SOL     OW10978   1.253   1.490   6.488
 3360SOL    HW110979   1.205   1.576   6.504
 3360SOL    HW210980   1.345   1.509   6.453
 3361SOL     OW10981   6.832   5.195   4.630
 3361SOL    HW110982   6.875   5.215   4.718
 3361SOL    HW210983   6.793   5.278   4.591
 3362SOL     OW10984   3.653   1.785   2.720
 3362SOL    HW110985   3.586   1.756   2.789
 3362SOL    HW210986   3.745   1.779   2.758
 3363SOL     OW10987   6.893   2.113   1.857
 3363SOL    HW110988   6.903   2.213   1.862
 3363SOL    HW210989   6.796   2.090   1.853
 3364SOL     OW10990   2.191   4.687   3.967
 3364SOL    HW110991   2.092   4.702   3.963
 3364SOL    HW210992   2.229   4.688   3.875
 3365SOL     OW10993   6.833   2.823   4.750
 3365SOL    HW110994   6.789   2.907   4.782
 3365SOL    HW210995   6.932   2.832   4.761
 3366SOL     OW10996   5.571   4.736   4.364
 3366SOL    HW110997   5.511   4.747   4.443
 3366SOL    HW210998   5.649   4.799   4.372
 3367SOL     OW10999   4.066   3.831   2.717
 3367SOL    HW111000   4.064   3.731   2.710
 3367SOL    HW211001   4.157   3.861   2.744
 3368SOL     OW11002   0.800   5.773   6.545
 3368SOL    HW111003   0.740   5.737   6.474
 3368SOL    HW211004   0.784   5.871   6.557
 3369SOL     OW11005   3.812   2.284   0.851
 3369SOL    HW111006   3.779   2.357   0.791
 3369SOL    HW211007   3.768   2.197   0.825
 3370SOL     OW11008   6.671   6.614   1.342
 3370SOL    HW111009   6.736   6.580   1.274
 3370SOL    HW211010   6.579   6.608   1.305
 3371SOL     OW11011   2.777   3.181   1.800
 3371SOL    HW111012   2.843   3.192   1.874
 3371SOL    HW211013   2.788   3.091   1.758
 3372SOL     OW11014   6.601   1.961   6.972
 3372SOL    HW111015   6.587   1.869   6.934
 3372SOL    HW211016   6.655   1.954   0.033
 3373SOL     OW11017   0.425   2.479   4.152
 3373SOL    HW111018   0.454   2.396   4.201
 3373SOL    HW211019   0.325   2.487   4.157
 3374SOL     OW11020   1.080   6.607   3.752
 3374SOL    HW111021   1.014   6.667   3.707
 3374SOL    HW211022   1.072   6.616   3.851
 3375SOL     OW11023   6.796   4.759   0.461
 3375SOL    HW111024   6.704   4.783   0.493
 3375SOL    HW211025   6.791   4.727   0.366
 3376SOL     OW11026   3.458   2.876   5.090
 3376SOL    HW111027   3.417   2.827   5.167
 3376SOL    HW211028   3.555   2.852   5.084
 3377SOL     OW11029   6.639   5.118   5.773
 3377SOL    HW111030   6.648   5.170   5.858
 3377SOL    HW211031   6.625   5.181   5.696
 3378SOL     OW11032   1.625   6.570   0.096
 3378SOL    HW111033   1.701   6.611   0.146
 3378SOL    HW211034   1.653   6.480   0.061
 3379SOL     OW11035   0.938   2.098   5.189
 3379SOL    HW111036   0.979   2.032   5.251
 3379SOL    HW211037   1.009   2.162   5.158
 3380SOL     OW11038   4.546   6.521   5.214
 3380SOL    HW111039   4.544   6.478   5.304
 3380SOL    HW211040   4.454   6.525   5.177
 3381SOL     OW11041   6.688   2.999   1.303
 3381SOL    HW111042   6.621   3.030   1.371
 3381SOL    HW211043   6.771   3.053   1.312
 3382SOL     OW11044   0.610   2.572   6.462
 3382SOL    HW111045   0.511   2.580   6.450
 3382SOL    HW211046   0.639   2.478   6.441
 3383SOL     OW11047   3.650   5.338   1.064
 3383SOL    HW111048   3.660   5.420   1.008
 3383SOL    HW211049   3.655   5.257   1.005
 3384SOL     OW11050   1.968   3.140   0.612
 3384SOL    HW111051   1.921   3.211   0.559
 3384SOL    HW211052   2.066   3.161   0.617
 3385SOL     OW11053   0.038   3.997   5.021
 3385SOL    HW111054   0.046   4.001   5.120
 3385SOL    HW211055   0.082   4.077   4.980
 3386SOL     OW11056   5.416   4.436   0.268
 3386SOL    HW111057   5.345   4.382   0.222
 3386SOL    HW211058   5.385   4.530   0.277
 3387SOL     OW11059   4.613   0.081   3.376
 3387SOL    HW111060   4.551   0.086   3.454
 3387SOL    HW211061   4.612   7.011   3.339
 3388SOL     OW11062   5.876   3.011   2.443
 3388SOL    HW111063   5.802   2.991   2.508
 3388SOL    HW211064   5.851   3.091   2.389
 3389SOL     OW11065   6.377   5.526   6.140
 3389SOL    HW111066   6.337   5.612   6.109
 3389SOL    HW211067   6.470   5.542   6.173
 3390SOL     OW11068   4.888   0.147   6.068
 3390SOL    HW111069   4.941   0.138   5.984
 3390SOL    HW211070   4.807   0.203   6.050
 3391SOL     OW11071   4.550   2.590   3.611
 3391SOL    HW111072   4.591   2.545   3.532
 3391SOL    HW211073   4.481   2.529   3.652
 3392SOL     OW11074   3.413   6.351   4.204
 3392SOL    HW111075   3.421   6.397   4.116
 3392SOL    HW211076   3.341   6.283   4.201
 3393SOL     OW11077   6.397   6.385   0.397
 3393SOL    HW111078   6.341   6.306   0.372
 3393SOL    HW211079   6.482   6.353   0.440
 3394SOL     OW11080   5.110   3.587   1.021
 3394SOL    HW111081   5.158   3.608   1.106
 3394SOL    HW211082   5.042   3.657   1.003
 3395SOL     OW11083   5.177   2.475   3.278
 3395SOL    HW111084   5.197   2.467   3.180
 3395SOL    HW211085   5.132   2.391   3.309
 3396SOL     OW11086   5.741   1.332   3.288
 3396SOL    HW111087   5.663   1.324   3.226
 3396SOL    HW211088   5.801   1.254   3.276
 3397SOL     OW11089   3.201   5.240   6.612
 3397SOL    HW111090   3.165   5.156   6.653
 3397SOL    HW211091   3.175   5.243   6.516
 3398SOL     OW11092   1.183   0.411   4.425
 3398SOL    HW111093   1.279   0.384   4.422
 3398SOL    HW211094   1.125   0.330   4.415
 3399SOL     OW11095   5.656   5.280   3.016
 3399SOL    HW111096   5.590   5.352   3.036
 3399SOL    HW211097   5.658   5.264   2.917
 3400SOL     OW11098   5.732   3.561   6.552
 3400SOL    HW111099   5.754   3.554   6.649
 3400SOL    HW211100   5.672   3.640   6.537
 3401SOL     OW11101   6.526   3.669   6.128
 3401SOL    HW111102   6.486   3.678   6.219
 3401SOL    HW211103   6.467   3.713   6.060
 3402SOL     OW11104   5.541   5.892   6.377
 3402SOL    HW111105   5.471   5.962   6.388
 3402SOL    HW211106   5.514   5.827   6.306
 3403SOL     OW11107   4.786   5.345   6.895
 3403SOL    HW111108   4.875   5.328   6.937
 3403SOL    HW211109   4.717   5.286   6.939
 3404SOL     OW11110   4.918   2.212   1.019
 3404SOL    HW111111   4.871   2.215   0.930
 3404SOL    HW211112   4.851   2.222   1.092
 3405SOL     OW11113   5.993   3.795   6.469
 3405SOL    HW111114   6.036   3.817   6.556
 3405SOL    HW211115   6.060   3.753   6.408
 3406SOL     OW11116   1.192   3.421   2.246
 3406SOL    HW111117   1.167   3.367   2.166
 3406SOL    HW211118   1.252   3.496   2.219
 3407SOL     OW11119   1.561   4.356   6.915
 3407SOL    HW111120   1.612   4.423   6.969
 3407SOL    HW211121   1.466   4.387   6.904
 3408SOL     OW11122   4.968   2.758   4.436
 3408SOL    HW111123   4.928   2.666   4.442
 3408SOL    HW211124   5.064   2.750   4.409
 3409SOL     OW11125   4.079   6.265   0.250
 3409SOL    HW111126   4.012   6.274   0.176
 3409SOL    HW211127   4.118   6.173   0.248
 3410SOL     OW11128   6.795   6.395   1.883
 3410SOL    HW111129   6.793   6.418   1.786
 3410SOL    HW211130   6.879   6.343   1.903
 3411SOL     OW11131   0.455   2.460   0.614
 3411SOL    HW111132   0.472   2.541   0.671
 3411SOL    HW211133   0.535   2.400   0.616
 3412SOL     OW11134   4.984   3.564   1.412
 3412SOL    HW111135   4.899   3.606   1.381
 3412SOL    HW211136   4.968   3.468   1.436
 3413SOL     OW11137   6.347   1.923   1.179
 3413SOL    HW111138   6.271   1.980   1.206
 3413SOL    HW211139   6.395   1.890   1.260
 3414SOL     OW11140   3.436   2.324   5.720
 3414SOL    HW111141   3.351   2.294   5.677
 3414SOL    HW211142   3.443   2.284   5.811
 3415SOL     OW11143   1.958   2.605   3.907
 3415SOL    HW111144   1.917   2.697   3.903
 3415SOL    HW211145   1.885   2.537   3.909
 3416SOL     OW11146   5.141   6.862   0.530
 3416SOL    HW111147   5.149   6.773   0.576
 3416SOL    HW211148   5.233   6.894   0.505
 3417SOL     OW11149   0.573   6.366   4.383
 3417SOL    HW111150   0.474   6.357   4.370
 3417SOL    HW211151   0.620   6.343   4.299
 3418SOL     OW11152   3.989   5.605   3.616
 3418SOL    HW111153   3.961   5.509   3.609
 3418SOL    HW211154   3.971   5.651   3.529
 3419SOL     OW11155   3.437   5.289   6.100
 3419SOL    HW111156   3.356   5.282   6.043
 3419SOL    HW211157   3.519   5.274   6.044
 3420SOL     OW11158   6.022   3.396   3.260
 3420SOL    HW111159   6.104   3.424   3.211
 3420SOL    HW211160   5.945   3.389   3.196
 3421SOL     OW11161   4.689   1.559   3.505
 3421SOL    HW111162   4.710   1.654   3.524
 3421SOL    HW211163   4.761   1.519   3.448
 3422SOL     OW11164   2.694   0.376   0.046
 3422SOL    HW111165   2.778   0.323   0.049
 3422SOL    HW211166   2.715   0.473   0.050
 3423SOL     OW11167   6.971   4.799   6.093
 3423SOL    HW111168   6.976   4.788   6.192
 3423SOL    HW211169   0.009   4.732   6.049
 3424SOL     OW11170   2.320   6.624   1.168
 3424SOL    HW111171   2.378   6.694   1.210
 3424SOL    HW211172   2.225   6.655   1.167
 3425SOL     OW11173   4.671   4.737   2.611
 3425SOL    HW111174   4.680   4.648   2.567
 3425SOL    HW211175   4.717   4.807   2.555
 3426SOL     OW11176   4.674   2.676   1.272
 3426SOL    HW111177   4.578   2.699   1.257
 3426SOL    HW211178   4.732   2.747   1.230
 3427SOL     OW11179   0.769   1.671   1.098
 3427SOL    HW111180   0.800   1.575   1.094
 3427SOL    HW211181   0.836   1.725   1.149
 3428SOL     OW11182   3.490   4.823   0.085
 3428SOL    HW111183   3.396   4.856   0.086
 3428SOL    HW211184   3.500   4.755   0.012
 3429SOL     OW11185   0.660   2.352   1.349
 3429SOL    HW111186   0.605   2.382   1.271
 3429SOL    HW211187   0.654   2.252   1.357
 3430SOL     OW11188   2.209   5.553   5.333
 3430SOL    HW111189   2.232   5.508   5.420
 3430SOL    HW211190   2.265   5.634   5.321
 3431SOL     OW11191   1.802   5.995   1.961
 3431SOL    HW111192   1.721   6.053   1.947
 3431SOL    HW211193   1.804   5.964   2.056
 3432SOL     OW11194   2.311   4.639   5.788
 3432SOL    HW111195   2.336   4.734   5.807
 3432SOL    HW211196   2.365   4.605   5.711
 3433SOL     OW11197   1.148   0.382   4.982
 3433SOL    HW111198   1.188   0.403   4.893
 3433SOL    HW211199   1.186   0.444   5.050
 3434SOL     OW11200   3.771   1.492   2.309
 3434SOL    HW111201   3.861   1.461   2.278
 3434SOL    HW211202   3.706   1.489   2.234
 3435SOL     OW11203   2.184   1.679   1.587
 3435SOL    HW111204   2.265   1.719   1.628
 3435SOL    HW211205   2.102   1.720   1.627
 3436SOL     OW11206   3.864   5.832   0.125
 3436SOL    HW111207   3.882   5.864   0.218
 3436SOL    HW211208   3.766   5.839   0.106
 3437SOL     OW11209   2.816   6.542   5.758
 3437SOL    HW111210   2.901   6.540   5.705
 3437SOL    HW211211   2.778   6.635   5.756
 3438SOL     OW11212   0.750   3.382   1.101
 3438SOL    HW111213   0.731   3.295   1.147
 3438SOL    HW211214   0.774   3.450   1.170
 3439SOL     OW11215   3.214   5.785   4.288
 3439SOL    HW111216   3.216   5.690   4.259
 3439SOL    HW211217   3.183   5.791   4.383
 3440SOL     OW11218   3.385   2.861   2.548
 3440SOL    HW111219   3.414   2.843   2.454
 3440SOL    HW211220   3.305   2.921   2.548
 3441SOL     OW11221   6.524   6.164   6.337
 3441SOL    HW111222   6.471   6.249   6.343
 3441SOL    HW211223   6.578   6.164   6.253
 3442SOL     OW11224   2.354   3.892   1.340
 3442SOL    HW111225   2.357   3.896   1.241
 3442SOL    HW211226   2.386   3.979   1.378
 3443SOL     OW11227   3.815   6.221   2.397
 3443SOL    HW111228   3.843   6.127   2.415
 3443SOL    HW211229   3.724   6.237   2.435
 3444SOL     OW11230   4.556   5.197   6.976
 3444SOL    HW111231   4.464   5.217   7.009
 3444SOL    HW211232   4.585   5.108   7.012
 3445SOL     OW11233   5.586   5.140   2.352
 3445SOL    HW111234   5.617   5.112   2.443
 3445SOL    HW211235   5.558   5.060   2.300
 3446SOL     OW11236   6.294   0.460   1.142
 3446SOL    HW111237   6.279   0.555   1.171
 3446SOL    HW211238   6.384   0.430   1.174
 3447SOL     OW11239   4.860   6.348   0.794
 3447SOL    HW111240   4.866   6.264   0.848
 3447SOL    HW211241   4.766   6.382   0.796
 3448SOL     OW11242   3.485   6.919   6.303
 3448SOL    HW111243   3.476   6.844   6.368
 3448SOL    HW211244   3.396   6.939   6.262
 3449SOL     OW11245   5.409   4.998   4.576
 3449SOL    HW111246   5.464   4.955   4.647
 3449SOL    HW211247   5.465   5.063   4.526
 3450SOL     OW11248   0.729   1.757   6.421
 3450SOL    HW111249   0.654   1.757   6.354
 3450SOL    HW211250   0.743   1.663   6.454
 3451SOL     OW11251   2.793   6.148   6.843
 3451SOL    HW111252   2.848   6.185   6.918
 3451SOL    HW211253   2.754   6.060   6.870
 3452SOL     OW11254   5.621   0.544   6.923
 3452SOL    HW111255   5.601   0.574   7.017
 3452SOL    HW211256   5.703   0.591   6.890
 3453SOL     OW11257   5.786   5.342   6.254
 3453SOL    HW111258   5.723   5.406   6.212
 3453SOL    HW211259   5.880   5.371   6.236
 3454SOL     OW11260   0.880   3.734   5.509
 3454SOL    HW111261   0.897   3.702   5.416
 3454SOL    HW211262   0.782   3.736   5.527
 3455SOL     OW11263   2.445   1.456   4.398
 3455SOL    HW111264   2.347   1.450   4.382
 3455SOL    HW211265   2.486   1.523   4.336
 3456SOL     OW11266   5.807   4.825   1.825
 3456SOL    HW111267   5.788   4.912   1.871
 3456SOL    HW211268   5.740   4.757   1.854
 3457SOL     OW11269   4.724   5.579   4.070
 3457SOL    HW111270   4.766   5.644   4.133
 3457SOL    HW211271   4.656   5.524   4.118
 3458SOL     OW11272   4.386   1.196   2.405
 3458SOL    HW111273   4.301   1.216   2.355
 3458SOL    HW211274   4.366   1.183   2.502
 3459SOL     OW11275   4.971   2.613   2.807
 3459SOL    HW111276   4.874   2.591   2.793
 3459SOL    HW211277   4.991   2.703   2.769
 3460SOL     OW11278   3.465   1.818   6.787
 3460SOL    HW111279   3.463   1.817   6.687
 3460SOL    HW211280   3.438   1.729   6.822
 3461SOL     OW11281   4.763   3.632   0.163
 3461SOL    HW111282   4.822   3.676   0.096
 3461SOL    HW211283   4.820   3.579   0.227
 3462SOL     OW11284   0.726   4.089   5.421
 3462SOL    HW111285   0.730   4.089   5.321
 3462SOL    HW211286   0.817   4.109   5.458
 3463SOL     OW11287   0.617   4.277   1.245
 3463SOL    HW111288   0.578   4.193   1.283
 3463SOL    HW211289   0.704   4.297   1.289
 3464SOL     OW11290   0.009   4.824   6.353
 3464SOL    HW111291   0.082   4.756   6.360
 3464SOL    HW211292   6.996   4.844   6.445
 3465SOL     OW11293   1.495   2.419   1.839
 3465SOL    HW111294   1.566   2.369   1.888
 3465SOL    HW211295   1.534   2.502   1.799
 3466SOL     OW11296   6.754   5.317   5.937
 3466SOL    HW111297   6.791   5.336   6.028
 3466SOL    HW211298   6.681   5.383   5.917
 3467SOL     OW11299   1.684   2.746   6.096
 3467SOL    HW111300   1.717   2.780   6.008
 3467SOL    HW211301   1.743   2.780   6.169
 3468SOL     OW11302   4.375   6.234   2.530
 3468SOL    HW111303   4.341   6.172   2.459
 3468SOL    HW211304   4.340   6.204   2.619
 3469SOL     OW11305   5.948   0.660   3.228
 3469SOL    HW111306   5.901   0.636   3.313
 3469SOL    HW211307   6.011   0.736   3.246
 3470SOL     OW11308   6.956   4.361   0.552
 3470SOL    HW111309   0.025   4.324   0.571
 3470SOL    HW211310   6.896   4.288   0.522
 3471SOL     OW11311   4.004   5.380   4.557
 3471SOL    HW111312   3.966   5.290   4.578
 3471SOL    HW211313   4.052   5.376   4.470
 3472SOL     OW11314   1.900   0.711   2.860
 3472SOL    HW111315   1.813   0.692   2.814
 3472SOL    HW211316   1.963   0.753   2.795
 3473SOL     OW11317   6.747   1.145   6.627
 3473SOL    HW111318   6.773   1.230   6.582
 3473SOL    HW211319   6.655   1.153   6.664
 3474SOL     OW11320   3.039   5.254   2.078
 3474SOL    HW111321   3.125   5.293   2.045
 3474SOL    HW211322   2.972   5.327   2.090
 3475SOL     OW11323   0.926   6.138   4.886
 3475SOL    HW111324   1.001   6.128   4.952
 3475SOL    HW211325   0.955   6.102   4.797
 3476SOL     OW11326   3.614   1.808   3.105
 3476SOL    HW111327   3.580   1.793   3.197
 3476SOL    HW211328   3.714   1.815   3.106
 3477SOL     OW11329   3.265   5.508   1.263
 3477SOL    HW111330   3.227   5.459   1.342
 3477SOL    HW211331   3.308   5.442   1.201
 3478SOL     OW11332   2.257   5.672   5.046
 3478SOL    HW111333   2.263   5.759   5.095
 3478SOL    HW211334   2.344   5.624   5.054
 3479SOL     OW11335   0.853   1.135   2.917
 3479SOL    HW111336   0.878   1.179   2.831
 3479SOL    HW211337   0.769   1.177   2.953
 3480SOL     OW11338   6.666   0.298   4.691
 3480SOL    HW111339   6.653   0.395   4.714
 3480SOL    HW211340   6.663   0.244   4.775
 3481SOL     OW11341   4.435   0.512   0.042
 3481SOL    HW111342   4.500   0.439   0.021
 3481SOL    HW211343   4.477   0.601   0.023
 3482SOL     OW11344   5.797   1.357   1.127
 3482SOL    HW111345   5.884   1.363   1.078
 3482SOL    HW211346   5.724   1.394   1.070
 3483SOL     OW11347   3.992   1.280   1.729
 3483SOL    HW111348   3.897   1.298   1.758
 3483SOL    HW211349   4.050   1.354   1.762
 3484SOL     OW11350   2.854   3.656   1.757
 3484SOL    HW111351   2.949   3.651   1.788
 3484SOL    HW211352   2.802   3.580   1.797
 3485SOL     OW11353   1.460   6.939   4.303
 3485SOL    HW111354   1.448   6.928   4.401
 3485SOL    HW211355   1.397   7.009   4.269
 3486SOL     OW11356   2.890   1.584   3.058
 3486SOL    HW111357   2.987   1.560   3.064
 3486SOL    HW211358   2.836   1.503   3.039
 3487SOL     OW11359   5.661   2.121   5.880
 3487SOL    HW111360   5.758   2.125   5.903
 3487SOL    HW211361   5.619   2.211   5.893
 3488SOL     OW11362   5.445   2.425   4.219
 3488SOL    HW111363   5.477   2.436   4.125
 3488SOL    HW211364   5.522   2.402   4.278
 3489SOL     OW11365   3.023   6.760   0.757
 3489SOL    HW111366   3.088   6.742   0.831
 3489SOL    HW211367   3.056   6.716   0.673
 3490SOL     OW11368   4.506   4.402   6.555
 3490SOL    HW111369   4.560   4.323   6.526
 3490SOL    HW211370   4.567   4.470   6.597
 3491SOL     OW11371   5.558   3.083   4.549
 3491SOL    HW111372   5.525   3.176   4.562
 3491SOL    HW211373   5.608   3.077   4.462
 3492SOL     OW11374   0.680   6.047   1.135
 3492SOL    HW111375   0.626   5.990   1.197
 3492SOL    HW211376   0.735   5.989   1.076
 3493SOL     OW11377   6.524   5.306   6.491
 3493SOL    HW111378   6.459   5.231   6.496
 3493SOL    HW211379   6.474   5.393   6.484
 3494SOL     OW11380   3.842   0.464   1.558
 3494SOL    HW111381   3.932   0.466   1.603
 3494SOL    HW211382   3.853   0.426   1.466
 3495SOL     OW11383   4.505   4.988   2.250
 3495SOL    HW111384   4.495   4.902   2.199
 3495SOL    HW211385   4.491   4.970   2.347
 3496SOL     OW11386   0.404   3.264   1.163
 3496SOL    HW111387   0.461   3.333   1.120
 3496SOL    HW211388   0.383   3.292   1.257
 3497SOL     OW11389   4.293   6.981   3.120
 3497SOL    HW111390   4.329   6.937   3.037
 3497SOL    HW211391   4.303   6.919   3.197
 3498SOL     OW11392   2.377   2.368   0.172
 3498SOL    HW111393   2.375   2.334   0.266
 3498SOL    HW211394   2.337   2.300   0.111
 3499SOL     OW11395   5.226   2.813   4.347
 3499SOL    HW111396   5.211   2.912   4.343
 3499SOL    HW211397   5.189   2.770   4.264
 3500SOL     OW11398   0.505   4.267   5.465
 3500SOL    HW111399   0.545   4.355   5.490
 3500SOL    HW211400   0.572   4.194   5.480
 3501SOL     OW11401   0.894   5.190   3.787
 3501SOL    HW111402   0.814   5.172   3.730
 3501SOL    HW211403   0.948   5.106   3.796
 3502SOL     OW11404   6.932   2.375   2.376
 3502SOL    HW111405   7.017   2.338   2.413
 3502SOL    HW211406   6.899   2.317   2.302
 3503SOL     OW11407   5.829   6.173   5.159
 3503SOL    HW111408   5.785   6.125   5.084
 3503SOL    HW211409   5.896   6.238   5.123
 3504SOL     OW11410   2.258   2.512   1.103
 3504SOL    HW111411   2.252   2.472   1.012
 3504SOL    HW211412   2.317   2.593   1.100
 3505SOL     OW11413   5.549   4.879   4.829
 3505SOL    HW111414   5.636   4.830   4.819
 3505SOL    HW211415   5.479   4.816   4.863
 3506SOL     OW11416   4.666   5.756   5.333
 3506SOL    HW111417   4.704   5.663   5.327
 3506SOL    HW211418   4.739   5.823   5.324
 3507SOL     OW11419   2.388   0.416   6.837
 3507SOL    HW111420   2.434   0.500   6.810
 3507SOL    HW211421   2.389   0.408   6.937
 3508SOL     OW11422   3.821   2.801   6.132
 3508SOL    HW111423   3.765   2.719   6.146
 3508SOL    HW211424   3.914   2.774   6.108
 3509SOL     OW11425   4.900   0.019   6.309
 3509SOL    HW111426   4.806   0.038   6.335
 3509SOL    HW211427   4.918   0.056   6.218
 3510SOL     OW11428   1.835   2.613   1.770
 3510SOL    HW111429   1.847   2.560   1.687
 3510SOL    HW211430   1.801   2.554   1.843
 3511SOL     OW11431   1.522   4.715   6.831
 3511SOL    HW111432   1.557   4.726   6.924
 3511SOL    HW211433   1.459   4.637   6.828
 3512SOL     OW11434   6.985   4.061   0.644
 3512SOL    HW111435   7.015   4.034   0.553
 3512SOL    HW211436   0.041   4.090   0.698
 3513SOL     OW11437   5.693   4.279   0.720
 3513SOL    HW111438   5.632   4.339   0.667
 3513SOL    HW211439   5.788   4.305   0.703
 3514SOL     OW11440   0.398   0.884   1.902
 3514SOL    HW111441   0.332   0.883   1.827
 3514SOL    HW211442   0.406   0.977   1.938
 3515SOL     OW11443   4.003   6.479   2.817
 3515SOL    HW111444   4.013   6.536   2.899
 3515SOL    HW211445   3.907   6.474   2.792
 3516SOL     OW11446   4.760   1.213   0.728
 3516SOL    HW111447   4.826   1.177   0.795
 3516SOL    HW211448   4.785   1.306   0.703
 3517SOL     OW11449   0.679   2.294   0.073
 3517SOL    HW111450   0.764   2.343   0.053
 3517SOL    HW211451   0.697   2.196   0.078
 3518SOL     OW11452   5.313   4.106   5.157
 3518SOL    HW111453   5.364   4.040   5.212
 3518SOL    HW211454   5.376   4.153   5.095
 3519SOL     OW11455   2.015   0.418   6.535
 3519SOL    HW111456   2.055   0.467   6.612
 3519SOL    HW211457   2.042   0.322   6.538
 3520SOL     OW11458   3.022   5.018   0.765
 3520SOL    HW111459   3.046   5.112   0.790
 3520SOL    HW211460   2.932   4.996   0.803
 3521SOL     OW11461   5.784   3.202   1.372
 3521SOL    HW111462   5.764   3.300   1.372
 3521SOL    HW211463   5.720   3.155   1.311
 3522SOL     OW11464   3.980   5.560   2.581
 3522SOL    HW111465   3.959   5.462   2.571
 3522SOL    HW211466   3.982   5.603   2.490
 3523SOL     OW11467   2.746   4.383   5.690
 3523SOL    HW111468   2.802   4.311   5.650
 3523SOL    HW211469   2.786   4.473   5.669
 3524SOL     OW11470   2.557   1.166   1.173
 3524SOL    HW111471   2.486   1.096   1.167
 3524SOL    HW211472   2.643   1.123   1.199
 3525SOL     OW11473   0.768   3.719   2.206
 3525SOL    HW111474   0.689   3.775   2.183
 3525SOL    HW211475   0.738   3.629   2.238
 3526SOL     OW11476   1.366   6.209   3.709
 3526SOL    HW111477   1.430   6.268   3.758
 3526SOL    HW211478   1.277   6.254   3.702
 3527SOL     OW11479   5.993   3.199   5.797
 3527SOL    HW111480   6.073   3.212   5.855
 3527SOL    HW211481   5.948   3.287   5.782
 3528SOL     OW11482   1.081   5.373   3.745
 3528SOL    HW111483   1.010   5.303   3.746
 3528SOL    HW211484   1.082   5.422   3.832
 3529SOL     OW11485   4.108   6.752   5.087
 3529SOL    HW111486   4.012   6.780   5.084
 3529SOL    HW211487   4.157   6.806   5.155
 3530SOL     OW11488   2.399   4.944   3.220
 3530SOL    HW111489   2.452   4.985   3.145
 3530SOL    HW211490   2.372   4.852   3.195
 3531SOL     OW11491   4.786   4.624   1.353
 3531SOL    HW111492   4.820   4.712   1.384
 3531SOL    HW211493   4.687   4.629   1.337
 3532SOL     OW11494   3.351   0.059   0.628
 3532SOL    HW111495   3.255   0.033   0.619
 3532SOL    HW211496   3.370   0.138   0.571
 3533SOL     OW11497   1.333   2.372   3.320
 3533SOL    HW111498   1.341   2.424   3.235
 3533SOL    HW211499   1.260   2.410   3.376
 3534SOL     OW11500   5.926   0.879   5.285
 3534SOL    HW111501   5.916   0.785   5.253
 3534SOL    HW211502   5.979   0.879   5.370
 3535SOL     OW11503   6.521   5.697   0.187
 3535SOL    HW111504   6.571   5.765   0.241
 3535SOL    HW211505   6.479   5.742   0.108
 3536SOL     OW11506   2.178   3.015   3.555
 3536SOL    HW111507   2.261   2.963   3.535
 3536SOL    HW211508   2.110   2.953   3.596
 3537SOL     OW11509   2.488   4.830   0.466
 3537SOL    HW111510   2.495   4.730   0.459
 3537SOL    HW211511   2.568   4.866   0.513
 3538SOL     OW11512   2.232   1.155   4.195
 3538SOL    HW111513   2.159   1.208   4.152
 3538SOL    HW211514   2.321   1.197   4.176
 3539SOL     OW11515   5.795   3.882   6.318
 3539SOL    HW111516   5.833   3.941   6.247
 3539SOL    HW211517   5.868   3.857   6.382
 3540SOL     OW11518   2.312   1.491   5.641
 3540SOL    HW111519   2.310   1.397   5.606
 3540SOL    HW211520   2.230   1.509   5.696
 3541SOL     OW11521   2.770   2.688   6.838
 3541SOL    HW111522   2.769   2.590   6.818
 3541SOL    HW211523   2.694   2.732   6.790
 3542SOL     OW11524   6.541   3.128   0.674
 3542SOL    HW111525   6.568   3.037   0.641
 3542SOL    HW211526   6.606   3.160   0.743
 3543SOL     OW11527   1.745   3.464   4.446
 3543SOL    HW111528   1.734   3.493   4.541
 3543SOL    HW211529   1.829   3.503   4.408
 3544SOL     OW11530   1.950   4.682   6.416
 3544SOL    HW111531   1.933   4.765   6.470
 3544SOL    HW211532   1.889   4.681   6.337
 3545SOL     OW11533   3.988   4.395   6.994
 3545SOL    HW111534   3.935   4.477   6.971
 3545SOL    HW211535   4.081   4.405   6.960
 3546SOL     OW11536   6.745   5.185   3.055
 3546SOL    HW111537   6.798   5.140   3.128
 3546SOL    HW211538   6.662   5.225   3.094
 3547SOL     OW11539   0.027   4.247   5.334
 3547SOL    HW111540   0.123   4.231   5.357
 3547SOL    HW211541   0.021   4.276   5.238
 3548SOL     OW11542   6.125   0.214   5.409
 3548SOL    HW111543   6.135   0.156   5.490
 3548SOL    HW211544   6.181   0.177   5.335
 3549SOL     OW11545   1.860   4.492   5.662
 3549SOL    HW111546   1.875   4.543   5.577
 3549SOL    HW211547   1.948   4.461   5.698
 3550SOL     OW11548   5.559   2.108   4.505
 3550SOL    HW111549   5.474   2.062   4.482
 3550SOL    HW211550   5.632   2.040   4.517
 3551SOL     OW11551   3.700   1.429   4.126
 3551SOL    HW111552   3.743   1.489   4.193
 3551SOL    HW211553   3.768   1.400   4.059
 3552SOL     OW11554   6.395   5.848   2.252
 3552SOL    HW111555   6.431   5.930   2.208
 3552SOL    HW211556   6.370   5.781   2.182
 3553SOL     OW11557   3.688   5.515   6.507
 3553SOL    HW111558   3.685   5.419   6.534
 3553SOL    HW211559   3.712   5.571   6.586
 3554SOL     OW11560   4.944   2.590   1.005
 3554SOL    HW111561   4.944   2.686   1.034
 3554SOL    HW211562   5.022   2.574   0.944
 3555SOL     OW11563   1.138   2.703   4.098
 3555SOL    HW111564   1.163   2.678   4.005
 3555SOL    HW211565   1.194   2.781   4.128
 3556SOL     OW11566   3.755   1.148   3.939
 3556SOL    HW111567   3.807   1.070   3.904
 3556SOL    HW211568   3.795   1.179   4.025
 3557SOL     OW11569   1.122   6.299   3.679
 3557SOL    HW111570   1.074   6.376   3.637
 3557SOL    HW211571   1.077   6.274   3.765
 3558SOL     OW11572   2.593   4.630   1.314
 3558SOL    HW111573   2.530   4.590   1.380
 3558SOL    HW211574   2.571   4.598   1.222
 3559SOL     OW11575   1.120   5.872   4.967
 3559SOL    HW111576   1.150   5.951   5.019
 3559SOL    HW211577   1.183   5.856   4.891
 3560SOL     OW11578   1.926   4.557   3.269
 3560SOL    HW111579   1.971   4.647   3.264
 3560SOL    HW211580   1.995   4.485   3.258
 3561SOL     OW11581   5.144   3.880   5.844
 3561SOL    HW111582   5.127   3.782   5.833
 3561SOL    HW211583   5.238   3.901   5.820
 3562SOL     OW11584   3.256   1.837   3.689
 3562SOL    HW111585   3.304   1.795   3.613
 3562SOL    HW211586   3.200   1.913   3.656
 3563SOL     OW11587   5.937   2.070   6.082
 3563SOL    HW111588   5.890   2.005   6.141
 3563SOL    HW211589   5.984   2.022   6.008
 3564SOL     OW11590   0.654   4.936   3.348
 3564SOL    HW111591   0.600   4.870   3.401
 3564SOL    HW211592   0.744   4.897   3.329
 3565SOL     OW11593   3.592   5.897   3.365
 3565SOL    HW111594   3.574   5.802   3.340
 3565SOL    HW211595   3.537   5.922   3.444
 3566SOL     OW11596   6.249   1.476   6.192
 3566SOL    HW111597   6.173   1.426   6.150
 3566SOL    HW211598   6.251   1.570   6.158
 3567SOL     OW11599   0.754   2.150   6.623
 3567SOL    HW111600   0.839   2.181   6.665
 3567SOL    HW211601   0.733   2.205   6.543
 3568SOL     OW11602   5.840   3.938   5.124
 3568SOL    HW111603   5.869   3.847   5.094
 3568SOL    HW211604   5.798   3.986   5.047
 3569SOL     OW11605   3.154   2.013   6.068
 3569SOL    HW111606   3.239   2.009   6.121
 3569SOL    HW211607   3.167   1.967   5.981
 3570SOL     OW11608   4.815   0.754   6.328
 3570SOL    HW111609   4.725   0.780   6.291
 3570SOL    HW211610   4.802   0.690   6.403
 3571SOL     OW11611   0.282   5.103   0.435
 3571SOL    HW111612   0.363   5.049   0.410
 3571SOL    HW211613   0.225   5.115   0.354
 3572SOL     OW11614   5.668   4.244   3.321
 3572SOL    HW111615   5.751   4.232   3.268
 3572SOL    HW211616   5.588   4.233   3.262
 3573SOL     OW11617   0.592   4.521   3.823
 3573SOL    HW111618   0.540   4.453   3.772
 3573SOL    HW211619   0.672   4.478   3.864
 3574SOL     OW11620   0.012   4.760   0.704
 3574SOL    HW111621   6.989   4.846   0.726
 3574SOL    HW211622   0.110   4.767   0.726
 3575SOL     OW11623   5.533   4.365   2.609
 3575SOL    HW111624   5.564   4.270   2.615
 3575SOL    HW211625   5.451   4.376   2.665
 3576SOL     OW11626   2.424   1.777   5.245
 3576SOL    HW111627   2.504   1.833   5.222
 3576SOL    HW211628   2.429   1.690   5.196
 3577SOL     OW11629   1.027   2.762   6.048
 3577SOL    HW111630   0.935   2.770   6.088
 3577SOL    HW211631   1.091   2.816   6.102
 3578SOL     OW11632   3.486   2.426   0.780
 3578SOL    HW111633   3.435   2.340   0.777
 3578SOL    HW211634   3.439   2.495   0.725
 3579SOL     OW11635   6.391   3.944   4.243
 3579SOL    HW111636   6.299   3.982   4.253
 3579SOL    HW211637   6.389   3.868   4.178
 3580SOL     OW11638   6.099   2.479   0.987
 3580SOL    HW111639   6.178   2.422   1.010
 3580SOL    HW211640   6.071   2.530   1.069
 3581SOL     OW11641   6.877   6.282   3.860
 3581SOL    HW111642   6.976   6.275   3.848
 3581SOL    HW211643   6.848   6.377   3.848
 3582SOL     OW11644   0.997   2.048   5.966
 3582SOL    HW111645   0.934   1.984   5.923
 3582SOL    HW211646   1.069   2.073   5.901
 3583SOL     OW11647   1.450   3.551   6.362
 3583SOL    HW111648   1.514   3.551   6.285
 3583SOL    HW211649   1.394   3.468   6.359
 3584SOL     OW11650   5.714   5.686   0.228
 3584SOL    HW111651   5.764   5.759   0.274
 3584SOL    HW211652   5.742   5.681   0.132
 3585SOL     OW11653   4.398   5.682   5.234
 3585SOL    HW111654   4.476   5.724   5.280
 3585SOL    HW211655   4.388   5.723   5.143
 3586SOL     OW11656   0.184   2.144   5.408
 3586SOL    HW111657   0.120   2.168   5.334
 3586SOL    HW211658   0.170   2.206   5.485
 3587SOL     OW11659   3.092   5.039   6.241
 3587SOL    HW111660   3.191   5.039   6.230
 3587SOL    HW211661   3.060   4.945   6.257
 3588SOL     OW11662   1.253   2.689   4.742
 3588SOL    HW111663   1.319   2.761   4.764
 3588SOL    HW211664   1.281   2.642   4.659
 3589SOL     OW11665   4.107   2.237   4.739
 3589SOL    HW111666   4.181   2.237   4.672
 3589SOL    HW211667   4.119   2.314   4.801
 3590SOL     OW11668   0.764   3.110   6.165
 3590SOL    HW111669   0.740   3.027   6.217
 3590SOL    HW211670   0.711   3.114   6.081
 3591SOL     OW11671   5.092   3.501   6.497
 3591SOL    HW111672   5.041   3.475   6.579
 3591SOL    HW211673   5.089   3.427   6.431
 3592SOL     OW11674   6.457   4.412   2.350
 3592SOL    HW111675   6.443   4.316   2.374
 3592SOL    HW211676   6.377   4.465   2.380
 3593SOL     OW11677   1.786   5.832   4.348
 3593SOL    HW111678   1.687   5.831   4.360
 3593SOL    HW211679   1.828   5.886   4.421
 3594SOL     OW11680   4.272   0.516   3.057
 3594SOL    HW111681   4.286   0.449   3.130
 3594SOL    HW211682   4.195   0.489   3.000
 3595SOL     OW11683   2.320   5.198   6.850
 3595SOL    HW111684   2.367   5.241   6.772
 3595SOL    HW211685   2.357   5.106   6.863
 3596SOL     OW11686   6.345   2.520   3.515
 3596SOL    HW111687   6.412   2.451   3.488
 3596SOL    HW211688   6.279   2.479   3.579
 3597SOL     OW11689   2.225   0.660   5.431
 3597SOL    HW111690   2.175   0.576   5.453
 3597SOL    HW211691   2.280   0.646   5.349
 3598SOL     OW11692   1.188   5.973   6.606
 3598SOL    HW111693   1.193   5.880   6.642
 3598SOL    HW211694   1.234   5.976   6.517
 3599SOL     OW11695   0.759   2.007   5.799
 3599SOL    HW111696   0.726   2.030   5.707
 3599SOL    HW211697   0.755   2.088   5.857
 3600SOL     OW11698   1.143   3.552   0.278
 3600SOL    HW111699   1.162   3.492   0.200
 3600SOL    HW211700   1.065   3.611   0.257
 3601SOL     OW11701   5.861   4.969   0.131
 3601SOL    HW111702   5.932   4.969   0.202
 3601SOL    HW211703   5.771   4.973   0.174
 3602SOL     OW11704   1.158   2.160   0.636
 3602SOL    HW111705   1.178   2.249   0.594
 3602SOL    HW211706   1.193   2.159   0.730
 3603SOL     OW11707   3.200   6.665   3.864
 3603SOL    HW111708   3.141   6.743   3.884
 3603SOL    HW211709   3.196   6.643   3.766
 3604SOL     OW11710   0.047   4.909   3.467
 3604SOL    HW111711   0.115   4.964   3.515
 3604SOL    HW211712   6.979   4.950   3.479
 3605SOL     OW11713   5.190   3.881   5.034
 3605SOL    HW111714   5.204   3.978   5.056
 3605SOL    HW211715   5.097   3.855   5.058
 3606SOL     OW11716   0.222   6.142   5.494
 3606SOL    HW111717   0.254   6.227   5.451
 3606SOL    HW211718   0.134   6.158   5.538
 3607SOL     OW11719   5.179   6.246   0.799
 3607SOL    HW111720   5.092   6.215   0.761
 3607SOL    HW211721   5.232   6.166   0.829
 3608SOL     OW11722   6.245   2.367   3.011
 3608SOL    HW111723   6.197   2.308   3.076
 3608SOL    HW211724   6.287   2.444   3.061
 3609SOL     OW11725   0.469   0.425   4.056
 3609SOL    HW111726   0.552   0.370   4.045
 3609SOL    HW211727   0.469   0.467   4.147
 3610SOL     OW11728   1.554   6.767   5.703
 3610SOL    HW111729   1.482   6.757   5.635
 3610SOL    HW211730   1.576   6.864   5.715
 3611SOL     OW11731   4.803   6.449   5.963
 3611SOL    HW111732   4.845   6.412   5.880
 3611SOL    HW211733   4.823   6.388   6.040
 3612SOL     OW11734   6.059   0.150   6.034
 3612SOL    HW111735   6.072   0.168   6.131
 3612SOL    HW211736   6.105   0.220   5.980
 3613SOL     OW11737   4.524   5.439   1.973
 3613SOL    HW111738   4.471   5.396   2.046
 3613SOL    HW211739   4.481   5.525   1.946
 3614SOL     OW11740   3.690   3.471   2.283
 3614SOL    HW111741   3.743   3.552   2.259
 3614SOL    HW211742   3.677   3.467   2.382
 3615SOL     OW11743   5.634   6.121   6.902
 3615SOL    HW111744   5.590   6.127   6.813
 3615SOL    HW211745   5.579   6.169   6.970
 3616SOL     OW11746   0.303   2.930   5.877
 3616SOL    HW111747   0.213   2.907   5.913
 3616SOL    HW211748   0.313   2.892   5.785
 3617SOL     OW11749   3.982   1.171   6.574
 3617SOL    HW111750   4.050   1.142   6.642
 3617SOL    HW211751   3.897   1.121   6.589
 3618SOL     OW11752   2.446   2.168   5.389
 3618SOL    HW111753   2.424   2.084   5.439
 3618SOL    HW211754   2.377   2.238   5.409
 3619SOL     OW11755   5.763   2.999   3.662
 3619SOL    HW111756   5.833   3.047   3.609
 3619SOL    HW211757   5.712   2.938   3.602
 3620SOL     OW11758   6.185   5.877   6.182
 3620SOL    HW111759   6.219   5.861   6.089
 3620SOL    HW211760   6.086   5.863   6.185
 3621SOL     OW11761   4.246   2.927   5.928
 3621SOL    HW111762   4.256   2.908   5.830
 3621SOL    HW211763   4.294   3.012   5.950
 3622SOL     OW11764   1.847   2.074   4.889
 3622SOL    HW111765   1.779   2.106   4.823
 3622SOL    HW211766   1.860   1.975   4.878
 3623SOL     OW11767   6.255   5.701   4.221
 3623SOL    HW111768   6.205   5.663   4.143
 3623SOL    HW211769   6.340   5.650   4.233
 3624SOL     OW11770   2.397   6.184   2.238
 3624SOL    HW111771   2.473   6.222   2.291
 3624SOL    HW211772   2.333   6.258   2.216
 3625SOL     OW11773   5.589   3.468   7.012
 3625SOL    HW111774   5.587   3.551   0.045
 3625SOL    HW211775   5.561   3.390   0.046
 3626SOL     OW11776   1.349   3.291   6.312
 3626SOL    HW111777   1.437   3.248   6.331
 3626SOL    HW211778   1.306   3.247   6.234
 3627SOL     OW11779   3.440   2.861   3.542
 3627SOL    HW111780   3.424   2.913   3.626
 3627SOL    HW211781   3.359   2.807   3.520
 3628SOL     OW11782   1.471   0.719   1.685
 3628SOL    HW111783   1.493   0.695   1.780
 3628SOL    HW211784   1.519   0.803   1.659
 3629SOL     OW11785   6.608   2.152   4.408
 3629SOL    HW111786   6.636   2.057   4.404
 3629SOL    HW211787   6.542   2.164   4.483
 3630SOL     OW11788   5.099   2.808   3.352
 3630SOL    HW111789   5.151   2.758   3.421
 3630SOL    HW211790   5.007   2.768   3.345
 3631SOL     OW11791   1.672   6.854   3.415
 3631SOL    HW111792   1.580   6.887   3.393
 3631SOL    HW211793   1.668   6.798   3.498
 3632SOL     OW11794   4.899   6.233   1.385
 3632SOL    HW111795   4.843   6.255   1.306
 3632SOL    HW211796   4.949   6.314   1.415
 3633SOL     OW11797   3.531   1.504   5.560
 3633SOL    HW111798   3.597   1.514   5.635
 3633SOL    HW211799   3.518   1.592   5.516
 3634SOL     OW11800   0.817   4.833   4.618
 3634SOL    HW111801   0.842   4.785   4.534
 3634SOL    HW211802   0.717   4.828   4.630
 3635SOL     OW11803   2.522   0.076   6.170
 3635SOL    HW111804   2.435   0.038   6.203
 3635SOL    HW211805   2.596   0.043   6.228
 3636SOL     OW11806   0.504   5.624   6.948
 3636SOL    HW111807   0.478   5.691   7.017
 3636SOL    HW211808   0.601   5.633   6.927
 3637SOL     OW11809   6.447   1.879   1.409
 3637SOL    HW111810   6.456   1.794   1.461
 3637SOL    HW211811   6.377   1.936   1.450
 3638SOL     OW11812   0.444   4.587   4.645
 3638SOL    HW111813   0.424   4.542   4.557
 3638SOL    HW211814   0.466   4.517   4.713
 3639SOL     OW11815   3.387   4.250   1.644
 3639SOL    HW111816   3.293   4.248   1.611
 3639SOL    HW211817   3.392   4.209   1.735
 3640SOL     OW11818   3.628   0.922   0.480
 3640SOL    HW111819   3.690   0.844   0.468
 3640SOL    HW211820   3.552   0.895   0.540
 3641SOL     OW11821   5.115   2.977   3.951
 3641SOL    HW111822   5.077   2.953   3.862
 3641SOL    HW211823   5.042   3.016   4.009
 3642SOL     OW11824   4.847   0.882   0.507
 3642SOL    HW111825   4.795   0.965   0.530
 3642SOL    HW211826   4.874   0.837   0.592
 3643SOL     OW11827   2.907   5.672   5.364
 3643SOL    HW111828   2.896   5.749   5.302
 3643SOL    HW211829   2.965   5.603   5.321
 3644SOL     OW11830   0.014   1.641   1.795
 3644SOL    HW111831   6.947   1.645   1.841
 3644SOL    HW211832   0.003   1.596   1.706
 3645SOL     OW11833   6.902   3.354   3.548
 3645SOL    HW111834   6.984   3.409   3.562
 3645SOL    HW211835   6.898   3.322   3.453
 3646SOL     OW11836   6.739   4.563   6.410
 3646SOL    HW111837   6.799   4.610   6.475
 3646SOL    HW211838   6.644   4.569   6.441
 3647SOL     OW11839   2.406   3.599   6.542
 3647SOL    HW111840   2.330   3.598   6.477
 3647SOL    HW211841   2.371   3.587   6.635
 3648SOL     OW11842   3.815   4.853   2.343
 3648SOL    HW111843   3.821   4.754   2.360
 3648SOL    HW211844   3.720   4.883   2.350
 3649SOL     OW11845   4.759   2.893   1.680
 3649SOL    HW111846   4.763   2.914   1.778
 3649SOL    HW211847   4.686   2.828   1.663
 3650SOL     OW11848   0.375   5.380   1.002
 3650SOL    HW111849   0.431   5.388   1.084
 3650SOL    HW211850   0.331   5.290   1.000
 3651SOL     OW11851   0.165   6.949   3.706
 3651SOL    HW111852   0.252   6.981   3.744
 3651SOL    HW211853   0.183   6.894   3.625
 3652SOL     OW11854   5.398   6.661   3.384
 3652SOL    HW111855   5.468   6.602   3.346
 3652SOL    HW211856   5.358   6.718   3.312
 3653SOL     OW11857   0.552   1.435   4.612
 3653SOL    HW111858   0.550   1.521   4.562
 3653SOL    HW211859   0.571   1.360   4.548
 3654SOL     OW11860   2.183   4.761   0.710
 3654SOL    HW111861   2.266   4.816   0.716
 3654SOL    HW211862   2.165   4.739   0.614
 3655SOL     OW11863   1.465   6.512   3.255
 3655SOL    HW111864   1.407   6.594   3.255
 3655SOL    HW211865   1.490   6.489   3.161
 3656SOL     OW11866   0.949   3.889   2.068
 3656SOL    HW111867   0.900   3.823   2.126
 3656SOL    HW211868   0.887   3.963   2.042
 3657SOL     OW11869   4.866   4.955   6.176
 3657SOL    HW111870   4.897   5.021   6.244
 3657SOL    HW211871   4.776   4.920   6.202
 3658SOL     OW11872   1.957   5.616   5.241
 3658SOL    HW111873   1.910   5.569   5.166
 3658SOL    HW211874   2.046   5.573   5.257
 3659SOL     OW11875   1.520   3.210   4.537
 3659SOL    HW111876   1.602   3.153   4.531
 3659SOL    HW211877   1.470   3.207   4.450
 3660SOL     OW11878   5.378   0.357   3.331
 3660SOL    HW111879   5.445   0.429   3.311
 3660SOL    HW211880   5.413   0.269   3.300
 3661SOL     OW11881   5.408   1.894   5.352
 3661SOL    HW111882   5.483   1.868   5.412
 3661SOL    HW211883   5.332   1.930   5.407
 3662SOL     OW11884   4.486   6.905   3.990
 3662SOL    HW111885   4.429   6.986   3.979
 3662SOL    HW211886   4.440   6.827   3.947
 3663SOL     OW11887   1.840   2.211   0.632
 3663SOL    HW111888   1.818   2.289   0.573
 3663SOL    HW211889   1.865   2.133   0.575
 3664SOL     OW11890   5.769   1.901   2.186
 3664SOL    HW111891   5.735   1.827   2.244
 3664SOL    HW211892   5.862   1.880   2.157
 3665SOL     OW11893   2.335   6.275   5.208
 3665SOL    HW111894   2.337   6.355   5.267
 3665SOL    HW211895   2.273   6.207   5.245
 3666SOL     OW11896   1.182   4.400   3.525
 3666SOL    HW111897   1.187   4.333   3.599
 3666SOL    HW211898   1.087   4.432   3.516
 3667SOL     OW11899   0.632   1.009   2.401
 3667SOL    HW111900   0.556   0.989   2.340
 3667SOL    HW211901   0.680   0.925   2.424
 3668SOL     OW11902   1.555   1.105   2.396
 3668SOL    HW111903   1.521   1.198   2.381
 3668SOL    HW211904   1.604   1.101   2.483
 3669SOL     OW11905   5.057   1.059   3.602
 3669SOL    HW111906   5.156   1.071   3.591
 3669SOL    HW211907   5.034   0.961   3.598
 3670SOL     OW11908   2.704   5.074   0.380
 3670SOL    HW111909   2.732   4.998   0.438
 3670SOL    HW211910   2.775   5.091   0.311
 3671SOL     OW11911   5.998   1.018   3.590
 3671SOL    HW111912   5.969   0.965   3.669
 3671SOL    HW211913   6.037   1.105   3.622
 3672SOL     OW11914   5.469   1.716   1.536
 3672SOL    HW111915   5.545   1.692   1.476
 3672SOL    HW211916   5.433   1.806   1.511
 3673SOL     OW11917   4.288   6.330   6.552
 3673SOL    HW111918   4.361   6.360   6.613
 3673SOL    HW211919   4.253   6.408   6.500
 3674SOL     OW11920   0.901   6.963   5.074
 3674SOL    HW111921   0.973   0.008   5.059
 3674SOL    HW211922   0.941   6.871   5.077
 3675SOL     OW11923   1.956   3.251   4.391
 3675SOL    HW111924   1.924   3.341   4.362
 3675SOL    HW211925   1.953   3.246   4.490
 3676SOL     OW11926   5.426   4.080   3.790
 3676SOL    HW111927   5.470   4.169   3.788
 3676SOL    HW211928   5.356   4.075   3.718
 3677SOL     OW11929   1.916   5.858   3.300
 3677SOL    HW111930   1.821   5.831   3.283
 3677SOL    HW211931   1.975   5.817   3.230
 3678SOL     OW11932   0.427   2.001   5.422
 3678SOL    HW111933   0.440   1.986   5.324
 3678SOL    HW211934   0.349   2.061   5.436
 3679SOL     OW11935   0.940   0.590   3.225
 3679SOL    HW111936   0.844   0.577   3.249
 3679SOL    HW211937   0.959   0.688   3.215
 3680SOL     OW11938   5.683   2.538   3.576
 3680SOL    HW111939   5.675   2.621   3.633
 3680SOL    HW211940   5.601   2.529   3.519
 3681SOL     OW11941   0.505   6.918   6.052
 3681SOL    HW111942   0.451   6.857   6.110
 3681SOL    HW211943   0.574   6.965   6.108
 3682SOL     OW11944   5.839   2.116   0.096
 3682SOL    HW111945   5.783   2.082   0.021
 3682SOL    HW211946   5.872   2.040   0.151
 3683SOL     OW11947   0.097   0.681   2.867
 3683SOL    HW111948   0.121   0.653   2.960
 3683SOL    HW211949   0.140   0.619   2.801
 3684SOL     OW11950   2.077   4.210   6.781
 3684SOL    HW111951   2.168   4.242   6.759
 3684SOL    HW211952   2.052   4.241   6.873
 3685SOL     OW11953   6.721   6.391   6.149
 3685SOL    HW111954   6.783   6.453   6.197
 3685SOL    HW211955   6.761   6.299   6.149
 3686SOL     OW11956   5.624   5.923   3.609
 3686SOL    HW111957   5.639   5.832   3.647
 3686SOL    HW211958   5.702   5.982   3.632
 3687SOL     OW11959   3.413   5.677   5.018
 3687SOL    HW111960   3.483   5.624   4.970
 3687SOL    HW211961   3.396   5.637   5.108
 3688SOL     OW11962   6.488   3.386   6.109
 3688SOL    HW111963   6.512   3.482   6.125
 3688SOL    HW211964   6.538   3.328   6.173
 3689SOL     OW11965   2.151   0.356   6.215
 3689SOL    HW111966   2.152   0.294   6.294
 3689SOL    HW211967   2.064   0.406   6.215
 3690SOL     OW11968   5.059   5.782   0.414
 3690SOL    HW111969   5.012   5.851   0.360
 3690SOL    HW211970   5.158   5.793   0.402
 3691SOL     OW11971   2.487   3.155   6.630
 3691SOL    HW111972   2.511   3.235   6.575
 3691SOL    HW211973   2.388   3.152   6.644
 3692SOL     OW11974   0.493   5.755   5.412
 3692SOL    HW111975   0.403   5.800   5.408
 3692SOL    HW211976   0.563   5.823   5.436
 3693SOL     OW11977   2.071   3.260   2.773
 3693SOL    HW111978   2.082   3.356   2.802
 3693SOL    HW211979   2.109   3.249   2.681
 3694SOL     OW11980   1.197   5.758   2.938
 3694SOL    HW111981   1.219   5.672   2.893
 3694SOL    HW211982   1.203   5.833   2.872
 3695SOL     OW11983   6.781   3.043   1.671
 3695SOL    HW111984   6.817   3.039   1.764
 3695SOL    HW211985   6.683   3.062   1.674
 3696SOL     OW11986   3.383   5.510   5.247
 3696SOL    HW111987   3.433   5.428   5.276
 3696SOL    HW211988   3.293   5.510   5.291
 3697SOL     OW11989   0.201   6.828   2.646
 3697SOL    HW111990   0.195   6.762   2.572
 3697SOL    HW211991   0.111   6.840   2.688
 3698SOL     OW11992   2.310   1.040   4.474
 3698SOL    HW111993   2.278   0.946   4.481
 3698SOL    HW211994   2.260   1.087   4.402
 3699SOL     OW11995   0.833   2.264   3.870
 3699SOL    HW111996   0.931   2.246   3.876
 3699SOL    HW211997   0.818   2.354   3.828
 3700SOL     OW11998   0.523   6.587   5.229
 3700SOL    HW111999   0.506   6.658   5.161
 3700SOL    HW212000   0.564   6.508   5.185
 3701SOL     OW12001   1.165   0.498   3.908
 3701SOL    HW112002   1.251   0.494   3.857
 3701SOL    HW212003   1.185   0.505   4.006
 3702SOL     OW12004   5.743   0.026   2.278
 3702SOL    HW112005   5.669   0.092   2.295
 3702SOL    HW212006   5.776   7.013   2.366
 3703SOL     OW12007   5.352   1.173   5.567
 3703SOL    HW112008   5.347   1.080   5.528
 3703SOL    HW212009   5.273   1.226   5.537
 3704SOL     OW12010   3.373   1.751   1.428
 3704SOL    HW112011   3.316   1.812   1.372
 3704SOL    HW212012   3.320   1.670   1.453
 3705SOL     OW12013   4.556   5.125   3.585
 3705SOL    HW112014   4.550   5.131   3.486
 3705SOL    HW212015   4.645   5.159   3.616
 3706SOL     OW12016   1.470   2.967   6.741
 3706SOL    HW112017   1.568   2.981   6.755
 3706SOL    HW212018   1.456   2.884   6.687
 3707SOL     OW12019   5.479   4.368   4.510
 3707SOL    HW112020   5.411   4.397   4.442
 3707SOL    HW212021   5.502   4.445   4.569
 3708SOL     OW12022   6.979   0.694   6.145
 3708SOL    HW112023   0.053   0.675   6.163
 3708SOL    HW212024   6.972   0.771   6.081
 3709SOL     OW12025   3.042   0.759   0.821
 3709SOL    HW112026   2.943   0.764   0.838
 3709SOL    HW212027   3.071   0.842   0.772
 3710SOL     OW12028   6.497   5.207   6.131
 3710SOL    HW112029   6.530   5.284   6.186
 3710SOL    HW212030   6.541   5.123   6.162
 3711SOL     OW12031   0.359   0.213   3.911
 3711SOL    HW112032   0.370   0.297   3.964
 3711SOL    HW212033   0.351   0.236   3.814
 3712SOL     OW12034   0.107   5.939   6.907
 3712SOL    HW112035   0.140   5.993   6.985
 3712SOL    HW212036   0.180   5.881   6.873
 3713SOL     OW12037   1.129   6.147   5.078
 3713SOL    HW112038   1.147   6.121   5.173
 3713SOL    HW212039   1.205   6.203   5.044
 3714SOL     OW12040   5.274   5.825   5.887
 3714SOL    HW112041   5.269   5.725   5.882
 3714SOL    HW212042   5.188   5.864   5.856
 3715SOL     OW12043   6.750   4.329   2.696
 3715SOL    HW112044   6.799   4.400   2.646
 3715SOL    HW212045   6.727   4.254   2.635
 3716SOL     OW12046   6.403   0.237   4.925
 3716SOL    HW112047   6.487   0.281   4.956
 3716SOL    HW212048   6.365   0.182   4.999
 3717SOL     OW12049   5.942   6.642   6.422
 3717SOL    HW112050   6.019   6.581   6.442
 3717SOL    HW212051   5.954   6.683   6.332
 3718SOL     OW12052   1.653   0.955   0.333
 3718SOL    HW112053   1.659   0.908   0.245
 3718SOL    HW212054   1.724   0.921   0.394
 3719SOL     OW12055   5.162   4.783   1.012
 3719SOL    HW112056   5.224   4.846   1.060
 3719SOL    HW212057   5.211   4.738   0.938
 3720SOL     OW12058   5.886   2.807   6.791
 3720SOL    HW112059   5.911   2.717   6.827
 3720SOL    HW212060   5.939   2.877   6.837
 3721SOL     OW12061   5.822   4.561   1.678
 3721SOL    HW112062   5.817   4.528   1.584
 3721SOL    HW212063   5.837   4.660   1.678
 3722SOL     OW12064   6.569   5.984   0.553
 3722SOL    HW112065   6.629   5.946   0.484
 3722SOL    HW212066   6.474   5.978   0.522
 3723SOL     OW12067   6.392   5.561   1.794
 3723SOL    HW112068   6.346   5.630   1.739
 3723SOL    HW212069   6.360   5.566   1.888
 3724SOL     OW12070   1.551   4.212   5.010
 3724SOL    HW112071   1.651   4.211   5.005
 3724SOL    HW212072   1.513   4.156   4.937
 3725SOL     OW12073   5.793   5.358   0.919
 3725SOL    HW112074   5.738   5.348   0.837
 3725SOL    HW212075   5.763   5.291   0.987
 3726SOL     OW12076   5.611   3.705   0.151
 3726SOL    HW112077   5.581   3.785   0.203
 3726SOL    HW212078   5.709   3.712   0.133
 3727SOL     OW12079   6.881   2.171   5.462
 3727SOL    HW112080   6.908   2.162   5.558
 3727SOL    HW212081   6.951   2.131   5.404
 3728SOL     OW12082   1.202   3.692   6.363
 3728SOL    HW112083   1.279   3.635   6.333
 3728SOL    HW212084   1.155   3.647   6.438
 3729SOL     OW12085   1.067   2.644   3.614
 3729SOL    HW112086   1.017   2.708   3.672
 3729SOL    HW212087   1.119   2.695   3.545
 3730SOL     OW12088   2.772   5.148   5.851
 3730SOL    HW112089   2.823   5.194   5.778
 3730SOL    HW212090   2.690   5.106   5.812
 3731SOL     OW12091   6.825   0.739   0.630
 3731SOL    HW112092   6.779   0.684   0.560
 3731SOL    HW212093   6.757   0.783   0.688
 3732SOL     OW12094   2.825   1.578   6.328
 3732SOL    HW112095   2.919   1.606   6.346
 3732SOL    HW212096   2.762   1.635   6.380
 3733SOL     OW12097   1.275   3.932   1.998
 3733SOL    HW112098   1.330   3.913   2.080
 3733SOL    HW212099   1.336   3.943   1.919
 3734SOL     OW12100   5.480   1.491   2.407
 3734SOL    HW112101   5.394   1.536   2.430
 3734SOL    HW212102   5.554   1.559   2.402
 3735SOL     OW12103   1.921   1.017   3.430
 3735SOL    HW112104   2.015   0.988   3.444
 3735SOL    HW212105   1.880   1.043   3.517
 3736SOL     OW12106   0.144   2.188   0.598
 3736SOL    HW112107   0.142   2.282   0.632
 3736SOL    HW212108   0.235   2.150   0.609
 3737SOL     OW12109   5.122   0.451   3.362
 3737SOL    HW112110   5.146   0.546   3.383
 3737SOL    HW212111   5.205   0.396   3.356
 3738SOL     OW12112   6.616   6.409   2.136
 3738SOL    HW112113   6.682   6.377   2.069
 3738SOL    HW212114   6.566   6.487   2.099
 3739SOL     OW12115   2.692   4.564   1.662
 3739SOL    HW112116   2.748   4.600   1.736
 3739SOL    HW212117   2.610   4.620   1.651
 3740SOL     OW12118   5.874   0.688   0.646
 3740SOL    HW112119   5.808   0.643   0.706
 3740SOL    HW212120   5.960   0.700   0.695
 3741SOL     OW12121   5.279   3.321   1.128
 3741SOL    HW112122   5.208   3.374   1.082
 3741SOL    HW212123   5.324   3.378   1.197
 3742SOL     OW12124   2.875   1.520   6.937
 3742SOL    HW112125   2.970   1.503   6.910
 3742SOL    HW212126   2.839   1.598   6.887
 3743SOL     OW12127   5.326   2.996   1.402
 3743SOL    HW112128   5.339   3.088   1.438
 3743SOL    HW212129   5.334   2.997   1.303
 3744SOL     OW12130   1.097   5.361   2.965
 3744SOL    HW112131   1.144   5.433   2.913
 3744SOL    HW212132   1.126   5.366   3.061
 3745SOL     OW12133   3.822   4.979   1.578
 3745SOL    HW112134   3.812   4.970   1.479
 3745SOL    HW212135   3.732   4.978   1.621
 3746SOL     OW12136   5.412   1.260   3.140
 3746SOL    HW112137   5.434   1.185   3.078
 3746SOL    HW212138   5.436   1.347   3.097
 3747SOL     OW12139   2.617   6.753   5.255
 3747SOL    HW112140   2.600   6.659   5.229
 3747SOL    HW212141   2.587   6.768   5.349
 3748SOL     OW12142   6.038   0.993   0.772
 3748SOL    HW112143   5.947   1.031   0.751
 3748SOL    HW212144   6.107   1.065   0.761
 3749SOL     OW12145   1.653   5.770   3.912
 3749SOL    HW112146   1.626   5.866   3.910
 3749SOL    HW212147   1.592   5.718   3.851
 3750SOL     OW12148   1.138   3.955   0.644
 3750SOL    HW112149   1.071   3.917   0.582
 3750SOL    HW212150   1.165   3.886   0.711
 3751SOL     OW12151   0.323   3.509   1.648
 3751SOL    HW112152   0.258   3.434   1.655
 3751SOL    HW212153   0.300   3.565   1.569
 3752SOL     OW12154   5.258   0.433   6.637
 3752SOL    HW112155   5.344   0.475   6.606
 3752SOL    HW212156   5.276   0.378   6.719
 3753SOL     OW12157   6.391   6.906   4.915
 3753SOL    HW112158   6.400   6.937   5.010
 3753SOL    HW212159   6.462   6.838   4.895
 3754SOL     OW12160   2.370   0.944   1.240
 3754SOL    HW112161   2.342   0.981   1.152
 3754SOL    HW212162   2.381   0.845   1.233
 3755SOL     OW12163   4.793   4.807   5.047
 3755SOL    HW112164   4.828   4.750   5.122
 3755SOL    HW212165   4.698   4.833   5.067
 3756SOL     OW12166   3.208   5.255   5.964
 3756SOL    HW112167   3.140   5.318   5.926
 3756SOL    HW212168   3.161   5.176   6.003
 3757SOL     OW12169   6.049   5.178   1.131
 3757SOL    HW112170   6.054   5.169   1.032
 3757SOL    HW212171   5.991   5.105   1.168
 3758SOL     OW12172   2.434   1.641   4.631
 3758SOL    HW112173   2.396   1.732   4.616
 3758SOL    HW212174   2.441   1.593   4.544
 3759SOL     OW12175   4.163   7.011   5.921
 3759SOL    HW112176   4.084   0.046   5.899
 3759SOL    HW212177   4.244   0.047   5.933
 3760SOL     OW12178   1.309   1.327   4.189
 3760SOL    HW112179   1.310   1.287   4.097
 3760SOL    HW212180   1.256   1.268   4.251
 3761SOL     OW12181   0.293   1.091   5.220
 3761SOL    HW112182   0.237   1.047   5.150
 3761SOL    HW212183   0.359   1.025   5.257
 3762SOL     OW12184   1.551   4.639   0.884
 3762SOL    HW112185   1.628   4.623   0.821
 3762SOL    HW212186   1.587   4.654   0.976
 3763SOL     OW12187   0.517   3.424   0.022
 3763SOL    HW112188   0.586   3.390   0.086
 3763SOL    HW212189   0.516   3.367   6.963
 3764SOL     OW12190   1.577   0.014   2.710
 3764SOL    HW112191   1.601   0.103   2.672
 3764SOL    HW212192   1.572   0.019   2.809
 3765SOL     OW12193   5.056   1.548   1.200
 3765SOL    HW112194   5.005   1.552   1.286
 3765SOL    HW212195   4.999   1.581   1.125
 3766SOL     OW12196   1.678   1.871   4.472
 3766SOL    HW112197   1.709   1.811   4.546
 3766SOL    HW212198   1.579   1.881   4.476
 3767SOL     OW12199   2.664   4.249   6.890
 3767SOL    HW112200   2.622   4.294   6.968
 3767SOL    HW212201   2.716   4.170   6.921
 3768SOL     OW12202   0.456   6.879   4.502
 3768SOL    HW112203   0.455   6.779   4.501
 3768SOL    HW212204   0.461   6.912   4.596
 3769SOL     OW12205   5.714   5.123   5.058
 3769SOL    HW112206   5.754   5.212   5.079
 3769SOL    HW212207   5.756   5.053   5.115
 3770SOL     OW12208   1.169   0.734   6.409
 3770SOL    HW112209   1.096   0.674   6.441
 3770SOL    HW212210   1.187   0.715   6.312
 3771SOL     OW12211   5.095   3.237   0.403
 3771SOL    HW112212   5.133   3.160   0.454
 3771SOL    HW212213   5.169   3.291   0.363
 3772SOL     OW12214   0.457   0.867   0.347
 3772SOL    HW112215   0.526   0.844   0.416
 3772SOL    HW212216   0.496   0.930   0.280
 3773SOL     OW12217   5.825   3.401   5.716
 3773SOL    HW112218   5.729   3.371   5.720
 3773SOL    HW212219   5.866   3.372   5.630
 3774SOL     OW12220   5.858   5.355   1.261
 3774SOL    HW112221   5.883   5.452   1.261
 3774SOL    HW212222   5.933   5.301   1.223
 3775SOL     OW12223   4.866   5.631   2.735
 3775SOL    HW112224   4.840   5.538   2.761
 3775SOL    HW212225   4.961   5.630   2.702
 3776SOL     OW12226   3.929   2.107   6.370
 3776SOL    HW112227   3.980   2.176   6.422
 3776SOL    HW212228   3.966   2.016   6.390
 3777SOL     OW12229   3.217   5.043   3.317
 3777SOL    HW112230   3.150   5.002   3.379
 3777SOL    HW212231   3.224   4.987   3.234
 3778SOL     OW12232   2.780   5.164   2.545
 3778SOL    HW112233   2.853   5.193   2.606
 3778SOL    HW212234   2.811   5.170   2.450
 3779SOL     OW12235   0.665   4.920   0.651
 3779SOL    HW112236   0.762   4.910   0.630
 3779SOL    HW212237   0.627   4.997   0.601
 3780SOL     OW12238   5.784   4.748   4.765
 3780SOL    HW112239   5.832   4.770   4.850
 3780SOL    HW212240   5.850   4.726   4.694
 3781SOL     OW12241   0.418   6.964   3.793
 3781SOL    HW112242   0.516   6.986   3.787
 3781SOL    HW212243   0.391   6.960   3.890
 3782SOL     OW12244   2.506   0.652   3.233
 3782SOL    HW112245   2.579   0.721   3.238
 3782SOL    HW212246   2.453   0.667   3.150
 3783SOL     OW12247   5.727   5.167   4.060
 3783SOL    HW112248   5.752   5.133   3.970
 3783SOL    HW212249   5.735   5.267   4.062
 3784SOL     OW12250   5.449   2.958   2.762
 3784SOL    HW112251   5.536   2.914   2.741
 3784SOL    HW212252   5.402   2.981   2.677
 3785SOL     OW12253   1.466   3.453   5.656
 3785SOL    HW112254   1.550   3.469   5.605
 3785SOL    HW212255   1.483   3.384   5.727
 3786SOL     OW12256   2.608   4.552   3.110
 3786SOL    HW112257   2.669   4.542   3.188
 3786SOL    HW212258   2.607   4.648   3.080
 3787SOL     OW12259   6.334   1.424   2.344
 3787SOL    HW112260   6.379   1.410   2.432
 3787SOL    HW212261   6.309   1.336   2.305
 3788SOL     OW12262   0.326   4.500   5.201
 3788SOL    HW112263   0.267   4.529   5.126
 3788SOL    HW212264   0.421   4.499   5.171
 3789SOL     OW12265   0.444   4.394   4.832
 3789SOL    HW112266   0.464   4.453   4.910
 3789SOL    HW212267   0.492   4.307   4.842
 3790SOL     OW12268   1.159   4.717   5.949
 3790SOL    HW112269   1.251   4.753   5.966
 3790SOL    HW212270   1.131   4.660   6.026
 3791SOL     OW12271   5.130   1.031   6.427
 3791SOL    HW112272   5.220   1.005   6.395
 3791SOL    HW212273   5.063   1.017   6.354
 3792SOL     OW12274   1.170   2.151   3.231
 3792SOL    HW112275   1.125   2.152   3.141
 3792SOL    HW212276   1.219   2.237   3.244
 3793SOL     OW12277   4.517   6.898   2.411
 3793SOL    HW112278   4.576   6.958   2.359
 3793SOL    HW212279   4.445   6.952   2.456
 3794SOL     OW12280   2.020   2.441   1.227
 3794SOL    HW112281   2.095   2.486   1.178
 3794SOL    HW212282   1.963   2.391   1.163
 3795SOL     OW12283   4.860   6.006   1.241
 3795SOL    HW112284   4.920   5.956   1.178
 3795SOL    HW212285   4.896   6.097   1.257
 3796SOL     OW12286   4.032   1.761   2.525
 3796SOL    HW112287   3.939   1.794   2.507
 3796SOL    HW212288   4.029   1.663   2.547
 3797SOL     OW12289   0.888   3.387   2.341
 3797SOL    HW112290   0.826   3.432   2.406
 3797SOL    HW212291   0.981   3.420   2.355
 3798SOL     OW12292   2.356   5.721   3.339
 3798SOL    HW112293   2.336   5.793   3.405
 3798SOL    HW212294   2.446   5.682   3.358
 3799SOL     OW12295   6.338   2.881   3.922
 3799SOL    HW112296   6.270   2.936   3.970
 3799SOL    HW212297   6.340   2.788   3.960
 3800SOL     OW12298   5.521   2.093   3.919
 3800SOL    HW112299   5.498   2.009   3.870
 3800SOL    HW212300   5.554   2.162   3.853
 3801SOL     OW12301   6.233   6.562   1.503
 3801SOL    HW112302   6.266   6.653   1.526
 3801SOL    HW212303   6.176   6.528   1.578
 3802SOL     OW12304   1.743   2.419   1.595
 3802SOL    HW112305   1.686   2.499   1.578
 3802SOL    HW212306   1.693   2.336   1.571
 3803SOL     OW12307   3.955   3.606   2.352
 3803SOL    HW112308   3.938   3.696   2.392
 3803SOL    HW212309   3.973   3.615   2.254
 3804SOL     OW12310   4.751   1.040   3.088
 3804SOL    HW112311   4.681   1.043   3.160
 3804SOL    HW212312   4.779   1.132   3.064
 3805SOL     OW12313   1.730   3.100   1.373
 3805SOL    HW112314   1.817   3.058   1.398
 3805SOL    HW212315   1.656   3.056   1.423
 3806SOL     OW12316   4.053   3.746   5.915
 3806SOL    HW112317   4.089   3.676   5.853
 3806SOL    HW212318   4.128   3.782   5.971
 3807SOL     OW12319   1.662   5.526   2.773
 3807SOL    HW112320   1.603   5.577   2.711
 3807SOL    HW212321   1.723   5.590   2.821
 3808SOL     OW12322   4.251   0.922   0.433
 3808SOL    HW112323   4.220   0.862   0.506
 3808SOL    HW212324   4.181   0.927   0.362
 3809SOL     OW12325   5.516   1.986   1.963
 3809SOL    HW112326   5.493   1.929   2.042
 3809SOL    HW212327   5.431   2.011   1.915
 3810SOL     OW12328   5.045   2.842   3.704
 3810SOL    HW112329   4.951   2.869   3.728
 3810SOL    HW212330   5.043   2.788   3.620
 3811SOL     OW12331   6.944   5.987   4.311
 3811SOL    HW112332   6.852   5.997   4.350
 3811SOL    HW212333   6.983   6.078   4.295
 3812SOL     OW12334   4.772   5.102   5.236
 3812SOL    HW112335   4.862   5.093   5.277
 3812SOL    HW212336   4.706   5.049   5.289
 3813SOL     OW12337   4.679   3.173   0.595
 3813SOL    HW112338   4.595   3.228   0.591
 3813SOL    HW212339   4.719   3.168   0.503
 3814SOL     OW12340   6.251   7.000   5.854
 3814SOL    HW112341   6.305   0.032   5.918
 3814SOL    HW212342   6.205   0.039   5.790
 3815SOL     OW12343   3.444   2.258   1.096
 3815SOL    HW112344   3.454   2.352   1.062
 3815SOL    HW212345   3.439   2.259   1.196
 3816SOL     OW12346   1.095   5.462   6.708
 3816SOL    HW112347   1.008   5.419   6.688
 3816SOL    HW212348   1.146   5.477   6.624
 3817SOL     OW12349   5.188   3.634   2.425
 3817SOL    HW112350   5.209   3.537   2.410
 3817SOL    HW212351   5.243   3.690   2.363
 3818SOL     OW12352   6.385   0.978   6.552
 3818SOL    HW112353   6.392   0.924   6.636
 3818SOL    HW212354   6.311   1.045   6.562
 3819SOL     OW12355   5.740   5.428   1.978
 3819SOL    HW112356   5.698   5.491   2.044
 3819SOL    HW212357   5.685   5.425   1.895
 3820SOL     OW12358   5.232   0.184   3.992
 3820SOL    HW112359   5.303   0.183   4.063
 3820SOL    HW212360   5.214   0.090   3.962
 3821SOL     OW12361   2.469   0.973   1.878
 3821SOL    HW112362   2.513   1.055   1.916
 3821SOL    HW212363   2.371   0.976   1.897
 3822SOL     OW12364   2.375   0.102   0.631
 3822SOL    HW112365   2.312   0.095   0.554
 3822SOL    HW212366   2.325   0.090   0.716
 3823SOL     OW12367   2.922   3.749   6.305
 3823SOL    HW112368   2.888   3.738   6.212
 3823SOL    HW212369   2.845   3.756   6.368
 3824SOL     OW12370   0.684   3.250   0.220
 3824SOL    HW112371   0.609   3.187   0.243
 3824SOL    HW212372   0.732   3.276   0.304
 3825SOL     OW12373   0.269   5.594   0.423
 3825SOL    HW112374   0.354   5.543   0.409
 3825SOL    HW212375   0.234   5.624   0.334
 3826SOL     OW12376   0.995   3.860   0.419
 3826SOL    HW112377   0.991   3.857   0.319
 3826SOL    HW212378   0.913   3.818   0.457
 3827SOL     OW12379   2.063   1.180   1.951
 3827SOL    HW112380   1.988   1.210   2.009
 3827SOL    HW212381   2.027   1.146   1.864
 3828SOL     OW12382   3.553   3.488   3.413
 3828SOL    HW112383   3.510   3.578   3.406
 3828SOL    HW212384   3.651   3.499   3.430
 3829SOL     OW12385   1.581   4.985   2.064
 3829SOL    HW112386   1.536   5.074   2.057
 3829SOL    HW212387   1.630   4.965   1.980
 3830SOL     OW12388   0.678   0.331   5.232
 3830SOL    HW112389   0.622   0.388   5.172
 3830SOL    HW212390   0.620   0.281   5.296
 3831SOL     OW12391   4.667   2.543   2.785
 3831SOL    HW112392   4.601   2.476   2.751
 3831SOL    HW212393   4.644   2.633   2.749
 3832SOL     OW12394   6.970   0.894   3.004
 3832SOL    HW112395   7.010   0.828   2.940
 3832SOL    HW212396   6.906   0.847   3.065
 3833SOL     OW12397   0.252   6.242   6.599
 3833SOL    HW112398   0.235   6.340   6.610
 3833SOL    HW212399   0.320   6.227   6.527
 3834SOL     OW12400   3.987   4.153   1.358
 3834SOL    HW112401   3.930   4.071   1.364
 3834SOL    HW212402   4.074   4.129   1.315
 3835SOL     OW12403   3.758   5.451   4.664
 3835SOL    HW112404   3.728   5.446   4.568
 3835SOL    HW212405   3.857   5.462   4.667
 3836SOL     OW12406   0.637   4.620   6.195
 3836SOL    HW112407   0.620   4.528   6.160
 3836SOL    HW212408   0.626   4.687   6.121
 3837SOL     OW12409   4.409   4.237   6.063
 3837SOL    HW112410   4.309   4.236   6.067
 3837SOL    HW212411   4.445   4.163   6.119
 3838SOL     OW12412   1.041   3.540   4.633
 3838SOL    HW112413   1.006   3.524   4.725
 3838SOL    HW212414   0.975   3.505   4.566
 3839SOL     OW12415   5.929   1.007   3.136
 3839SOL    HW112416   5.873   1.009   3.219
 3839SOL    HW212417   6.025   0.998   3.161
 3840SOL     OW12418   2.398   1.082   6.750
 3840SOL    HW112419   2.454   1.124   6.679
 3840SOL    HW212420   2.384   1.147   6.824
 3841SOL     OW12421   0.325   3.974   4.832
 3841SOL    HW112422   0.341   4.044   4.902
 3841SOL    HW212423   0.235   3.988   4.791
 3842SOL     OW12424   2.780   2.908   1.706
 3842SOL    HW112425   2.820   2.820   1.734
 3842SOL    HW212426   2.793   2.921   1.608
 3843SOL     OW12427   5.667   4.876   2.106
 3843SOL    HW112428   5.728   4.943   2.064
 3843SOL    HW212429   5.712   4.833   2.184
 3844SOL     OW12430   0.906   2.819   5.356
 3844SOL    HW112431   0.912   2.751   5.430
 3844SOL    HW212432   0.898   2.910   5.396
 3845SOL     OW12433   2.912   3.977   5.731
 3845SOL    HW112434   2.895   4.035   5.652
 3845SOL    HW212435   2.832   3.919   5.747
 3846SOL     OW12436   6.821   5.337   3.445
 3846SOL    HW112437   6.898   5.340   3.381
 3846SOL    HW212438   6.762   5.416   3.430
 3847SOL     OW12439   5.230   1.927   3.864
 3847SOL    HW112440   5.143   1.906   3.819
 3847SOL    HW212441   5.266   1.845   3.906
 3848SOL     OW12442   4.551   5.464   2.451
 3848SOL    HW112443   4.463   5.478   2.496
 3848SOL    HW212444   4.605   5.549   2.456
 3849SOL     OW12445   1.436   0.950   6.194
 3849SOL    HW112446   1.484   0.923   6.278
 3849SOL    HW212447   1.359   1.009   6.217
 3850SOL     OW12448   2.627   3.405   1.479
 3850SOL    HW112449   2.608   3.331   1.543
 3850SOL    HW212450   2.588   3.490   1.514
 3851SOL     OW12451   0.841   4.655   2.272
 3851SOL    HW112452   0.782   4.690   2.345
 3851SOL    HW212453   0.937   4.674   2.295
 3852SOL     OW12454   4.058   6.242   3.928
 3852SOL    HW112455   4.003   6.228   4.010
 3852SOL    HW212456   4.100   6.333   3.931
 3853SOL     OW12457   0.685   4.259   3.483
 3853SOL    HW112458   0.588   4.269   3.460
 3853SOL    HW212459   0.736   4.233   3.401
 3854SOL     OW12460   1.806   3.027   2.613
 3854SOL    HW112461   1.747   2.947   2.613
 3854SOL    HW212462   1.901   2.999   2.600
 3855SOL     OW12463   5.709   6.382   6.436
 3855SOL    HW112464   5.615   6.389   6.403
 3855SOL    HW212465   5.770   6.362   6.359
 3856SOL     OW12466   6.857   0.527   5.851
 3856SOL    HW112467   6.886   0.603   5.792
 3856SOL    HW212468   6.786   0.558   5.913
 3857SOL     OW12469   6.897   6.722   0.193
 3857SOL    HW112470   6.824   6.779   0.154
 3857SOL    HW212471   6.888   6.629   0.159
 3858SOL     OW12472   1.867   0.743   5.494
 3858SOL    HW112473   1.891   0.694   5.578
 3858SOL    HW212474   1.899   0.691   5.415
 3859SOL     OW12475   6.054   1.282   2.540
 3859SOL    HW112476   6.011   1.303   2.628
 3859SOL    HW212477   6.050   1.183   2.524
 3860SOL     OW12478   3.062   0.696   5.388
 3860SOL    HW112479   2.994   0.624   5.371
 3860SOL    HW212480   3.141   0.681   5.328
 3861SOL     OW12481   4.336   4.628   3.533
 3861SOL    HW112482   4.355   4.546   3.479
 3861SOL    HW212483   4.315   4.602   3.627
 3862SOL     OW12484   0.287   0.646   4.633
 3862SOL    HW112485   0.372   0.694   4.652
 3862SOL    HW212486   0.259   0.595   4.714
 3863SOL     OW12487   5.723   2.916   0.057
 3863SOL    HW112488   5.810   2.916   0.105
 3863SOL    HW212489   5.717   2.997   7.021
 3864SOL     OW12490   2.609   0.213   5.398
 3864SOL    HW112491   2.683   0.150   5.375
 3864SOL    HW212492   2.592   0.276   5.322
 3865SOL     OW12493   2.927   0.369   0.202
 3865SOL    HW112494   2.938   0.395   0.298
 3865SOL    HW212495   2.946   0.448   0.144
 3866SOL     OW12496   3.533   0.770   1.325
 3866SOL    HW112497   3.519   0.869   1.319
 3866SOL    HW212498   3.612   0.751   1.383
 3867SOL     OW12499   1.026   4.913   3.757
 3867SOL    HW112500   1.120   4.938   3.734
 3867SOL    HW212501   1.014   4.815   3.742
 3868SOL     OW12502   3.080   6.920   0.366
 3868SOL    HW112503   3.129   7.006   0.352
 3868SOL    HW212504   3.021   6.902   0.287
 3869SOL     OW12505   5.448   3.958   4.831
 3869SOL    HW112506   5.474   4.050   4.862
 3869SOL    HW212507   5.380   3.920   4.894
 3870SOL     OW12508   5.547   6.124   6.647
 3870SOL    HW112509   5.459   6.108   6.603
 3870SOL    HW212510   5.561   6.223   6.658
 3871SOL     OW12511   3.703   0.581   3.225
 3871SOL    HW112512   3.686   0.487   3.255
 3871SOL    HW212513   3.622   0.637   3.245
 3872SOL     OW12514   3.905   2.985   3.944
 3872SOL    HW112515   3.811   2.974   3.975
 3872SOL    HW212516   3.959   3.033   4.014
 3873SOL     OW12517   5.847   2.933   1.266
 3873SOL    HW112518   5.947   2.938   1.261
 3873SOL    HW212519   5.818   2.944   1.361
 3874SOL     OW12520   4.164   5.999   0.145
 3874SOL    HW112521   4.184   5.934   0.072
 3874SOL    HW212522   4.105   5.956   0.213
 3875SOL     OW12523   1.923   2.815   1.948
 3875SOL    HW112524   1.899   2.746   1.879
 3875SOL    HW212525   1.896   2.905   1.915
 3876SOL     OW12526   4.328   5.227   0.839
 3876SOL    HW112527   4.407   5.279   0.806
 3876SOL    HW212528   4.253   5.235   0.773
 3877SOL     OW12529   5.798   3.150   0.621
 3877SOL    HW112530   5.708   3.175   0.656
 3877SOL    HW212531   5.867   3.212   0.660
 3878SOL     OW12532   3.628   6.826   4.508
 3878SOL    HW112533   3.661   6.896   4.443
 3878SOL    HW212534   3.686   6.745   4.501
 3879SOL     OW12535   4.995   5.195   1.621
 3879SOL    HW112536   5.033   5.287   1.607
 3879SOL    HW212537   4.896   5.201   1.629
 3880SOL     OW12538   6.014   4.926   3.888
 3880SOL    HW112539   6.083   4.882   3.831
 3880SOL    HW212540   5.928   4.874   3.881
 3881SOL     OW12541   0.936   3.996   1.415
 3881SOL    HW112542   0.904   3.970   1.506
 3881SOL    HW212543   1.035   4.013   1.418
 3882SOL     OW12544   0.974   1.667   5.392
 3882SOL    HW112545   0.922   1.585   5.415
 3882SOL    HW212546   1.011   1.658   5.300
 3883SOL     OW12547   4.077   1.004   3.876
 3883SOL    HW112548   4.083   1.028   3.973
 3883SOL    HW212549   4.079   0.905   3.866
 3884SOL     OW12550   0.286   5.246   3.460
 3884SOL    HW112551   0.356   5.295   3.511
 3884SOL    HW212552   0.309   5.248   3.362
 3885SOL     OW12553   6.733   0.501   2.749
 3885SOL    HW112554   6.637   0.505   2.724
 3885SOL    HW212555   6.786   0.462   2.673
 3886SOL     OW12556   6.456   6.202   4.680
 3886SOL    HW112557   6.508   6.261   4.741
 3886SOL    HW212558   6.407   6.133   4.734
 3887SOL     OW12559   0.798   0.432   6.228
 3887SOL    HW112560   0.736   0.362   6.192
 3887SOL    HW212561   0.754   0.479   6.305
 3888SOL     OW12562   6.630   0.165   5.422
 3888SOL    HW112563   6.563   0.118   5.364
 3888SOL    HW212564   6.699   0.208   5.365
 3889SOL     OW12565   6.712   3.192   5.843
 3889SOL    HW112566   6.622   3.153   5.823
 3889SOL    HW212567   6.726   3.197   5.941
 3890SOL     OW12568   5.417   5.798   3.134
 3890SOL    HW112569   5.432   5.896   3.119
 3890SOL    HW212570   5.319   5.780   3.144
 3891SOL     OW12571   6.049   4.493   4.827
 3891SOL    HW112572   6.021   4.542   4.909
 3891SOL    HW212573   6.148   4.486   4.824
 3892SOL     OW12574   0.114   1.987   1.211
 3892SOL    HW112575   0.107   2.013   1.307
 3892SOL    HW212576   0.210   1.977   1.185
 3893SOL     OW12577   4.221   4.362   1.089
 3893SOL    HW112578   4.146   4.410   1.134
 3893SOL    HW212579   4.183   4.294   1.025
 3894SOL     OW12580   3.349   2.771   0.917
 3894SOL    HW112581   3.385   2.680   0.936
 3894SOL    HW212582   3.264   2.764   0.866
 3895SOL     OW12583   1.539   0.419   5.651
 3895SOL    HW112584   1.575   0.512   5.667
 3895SOL    HW212585   1.557   0.363   5.732
 3896SOL     OW12586   0.342   1.224   5.826
 3896SOL    HW112587   0.401   1.208   5.905
 3896SOL    HW212588   0.262   1.164   5.831
 3897SOL     OW12589   3.787   5.881   2.515
 3897SOL    HW112590   3.726   5.896   2.437
 3897SOL    HW212591   3.875   5.847   2.483
 3898SOL     OW12592   3.667   3.549   4.240
 3898SOL    HW112593   3.741   3.609   4.273
 3898SOL    HW212594   3.703   3.488   4.170
 3899SOL     OW12595   5.714   0.739   3.960
 3899SOL    HW112596   5.705   0.720   3.863
 3899SOL    HW212597   5.733   0.836   3.974
 3900SOL     OW12598   5.555   2.728   3.816
 3900SOL    HW112599   5.458   2.730   3.792
 3900SOL    HW212600   5.607   2.782   3.750
 3901SOL     OW12601   2.998   6.850   5.114
 3901SOL    HW112602   3.081   6.876   5.064
 3901SOL    HW212603   2.947   6.783   5.060
 3902SOL     OW12604   6.251   3.950   2.468
 3902SOL    HW112605   6.276   4.047   2.474
 3902SOL    HW212606   6.197   3.935   2.385
 3903SOL     OW12607   4.785   5.293   0.394
 3903SOL    HW112608   4.824   5.364   0.454
 3903SOL    HW212609   4.772   5.209   0.447
 3904SOL     OW12610   1.982   6.696   5.302
 3904SOL    HW112611   1.901   6.702   5.244
 3904SOL    HW212612   2.028   6.609   5.285
 3905SOL     OW12613   6.210   0.302   5.814
 3905SOL    HW112614   6.285   0.326   5.754
 3905SOL    HW212615   6.143   0.376   5.816
 3906SOL     OW12616   3.355   5.174   5.085
 3906SOL    HW112617   3.410   5.184   5.168
 3906SOL    HW212618   3.394   5.230   5.012
 3907SOL     OW12619   6.494   6.786   5.474
 3907SOL    HW112620   6.519   6.695   5.440
 3907SOL    HW212621   6.572   6.825   5.524
 3908SOL     OW12622   1.238   0.581   0.362
 3908SOL    HW112623   1.315   0.581   0.297
 3908SOL    HW212624   1.235   0.669   0.409
 3909SOL     OW12625   0.957   5.376   5.677
 3909SOL    HW112626   1.049   5.337   5.668
 3909SOL    HW212627   0.957   5.469   5.642
 3910SOL     OW12628   3.717   3.946   2.034
 3910SOL    HW112629   3.814   3.952   2.061
 3910SOL    HW212630   3.701   3.859   1.989
 3911SOL     OW12631   4.002   1.387   6.836
 3911SOL    HW112632   4.089   1.366   6.793
 3911SOL    HW212633   4.017   1.420   6.929
 3912SOL     OW12634   3.300   0.816   6.594
 3912SOL    HW112635   3.303   0.741   6.528
 3912SOL    HW212636   3.213   0.865   6.586
 3913SOL     OW12637   2.637   5.710   6.484
 3913SOL    HW112638   2.555   5.653   6.493
 3913SOL    HW212639   2.611   5.803   6.460
 3914SOL     OW12640   3.866   0.871   0.936
 3914SOL    HW112641   3.909   0.804   0.996
 3914SOL    HW212642   3.786   0.831   0.891
 3915SOL     OW12643   4.256   6.559   1.700
 3915SOL    HW112644   4.351   6.537   1.719
 3915SOL    HW212645   4.231   6.643   1.747
 3916SOL     OW12646   1.635   6.463   3.042
 3916SOL    HW112647   1.559   6.488   2.981
 3916SOL    HW212648   1.686   6.387   3.003
 3917SOL     OW12649   0.948   4.840   0.292
 3917SOL    HW112650   0.887   4.914   0.262
 3917SOL    HW212651   1.015   4.821   0.219
 3918SOL     OW12652   4.627   6.597   2.170
 3918SOL    HW112653   4.640   6.682   2.119
 3918SOL    HW212654   4.572   6.533   2.116
 3919SOL     OW12655   3.178   6.744   6.413
 3919SOL    HW112656   3.177   6.686   6.332
 3919SOL    HW212657   3.143   6.835   6.389
 3920SOL     OW12658   2.844   1.925   6.728
 3920SOL    HW112659   2.789   2.001   6.763
 3920SOL    HW212660   2.940   1.953   6.724
 3921SOL     OW12661   0.580   2.916   0.428
 3921SOL    HW112662   0.533   2.829   0.408
 3921SOL    HW212663   0.562   2.981   0.354
 3922SOL     OW12664   5.517   4.818   1.057
 3922SOL    HW112665   5.508   4.734   1.109
 3922SOL    HW212666   5.604   4.817   1.007
 3923SOL     OW12667   6.166   1.683   6.804
 3923SOL    HW112668   6.102   1.758   6.786
 3923SOL    HW212669   6.115   1.598   6.816
 3924SOL     OW12670   0.528   5.251   3.072
 3924SOL    HW112671   0.526   5.321   3.144
 3924SOL    HW212672   0.556   5.164   3.111
 3925SOL     OW12673   4.306   4.468   0.739
 3925SOL    HW112674   4.212   4.435   0.738
 3925SOL    HW212675   4.307   4.568   0.733
 3926SOL     OW12676   6.819   5.996   3.192
 3926SOL    HW112677   6.911   5.969   3.164
 3926SOL    HW212678   6.812   5.994   3.291
 3927SOL     OW12679   6.696   3.956   4.706
 3927SOL    HW112680   6.765   3.893   4.671
 3927SOL    HW212681   6.699   4.041   4.655
 3928SOL     OW12682   3.227   5.299   4.502
 3928SOL    HW112683   3.146   5.326   4.450
 3928SOL    HW212684   3.215   5.206   4.537
 3929SOL     OW12685   0.407   2.310   6.609
 3929SOL    HW112686   0.386   2.406   6.630
 3929SOL    HW212687   0.322   2.257   6.613
 3930SOL     OW12688   1.509   2.461   3.884
 3930SOL    HW112689   1.485   2.404   3.963
 3930SOL    HW212690   1.474   2.418   3.801
 3931SOL     OW12691   2.686   1.586   2.819
 3931SOL    HW112692   2.673   1.520   2.893
 3931SOL    HW212693   2.641   1.672   2.843
 3932SOL     OW12694   1.716   4.175   3.330
 3932SOL    HW112695   1.758   4.197   3.417
 3932SOL    HW212696   1.663   4.253   3.298
 3933SOL     OW12697   2.154   6.526   6.535
 3933SOL    HW112698   2.254   6.527   6.545
 3933SOL    HW212699   2.115   6.604   6.583
 3934SOL     OW12700   0.509   1.476   1.322
 3934SOL    HW112701   0.564   1.419   1.261
 3934SOL    HW212702   0.434   1.422   1.360
 3935SOL     OW12703   2.015   0.278   5.024
 3935SOL    HW112704   2.083   0.255   5.093
 3935SOL    HW212705   1.923   0.262   5.061
 3936SOL     OW12706   0.043   5.740   5.515
 3936SOL    HW112707   0.013   5.694   5.598
 3936SOL    HW212708   6.991   5.738   5.448
 3937SOL     OW12709   0.634   0.027   2.556
 3937SOL    HW112710   0.674   0.019   2.647
 3937SOL    HW212711   0.584   0.113   2.550
 3938SOL     OW12712   6.556   3.205   4.050
 3938SOL    HW112713   6.546   3.108   4.072
 3938SOL    HW212714   6.648   3.236   4.075
 3939SOL     OW12715   3.262   1.624   3.063
 3939SOL    HW112716   3.276   1.637   3.161
 3939SOL    HW212717   3.232   1.711   3.023
 3940SOL     OW12718   3.949   4.813   2.074
 3940SOL    HW112719   3.855   4.781   2.061
 3940SOL    HW212720   3.957   4.855   2.165
 3941SOL     OW12721   6.182   1.198   5.359
 3941SOL    HW112722   6.258   1.162   5.412
 3941SOL    HW212723   6.108   1.130   5.355
 3942SOL     OW12724   0.829   6.416   5.432
 3942SOL    HW112725   0.824   6.512   5.403
 3942SOL    HW212726   0.885   6.364   5.369
 3943SOL     OW12727   0.666   3.499   2.844
 3943SOL    HW112728   0.573   3.481   2.876
 3943SOL    HW212729   0.719   3.414   2.847
 3944SOL     OW12730   5.422   3.929   5.333
 3944SOL    HW112731   5.487   3.969   5.399
 3944SOL    HW212732   5.330   3.932   5.372
 3945SOL     OW12733   1.208   2.491   2.776
 3945SOL    HW112734   1.134   2.530   2.722
 3945SOL    HW212735   1.227   2.398   2.744
 3946SOL     OW12736   6.235   4.564   5.786
 3946SOL    HW112737   6.228   4.466   5.766
 3946SOL    HW212738   6.236   4.577   5.885
 3947SOL     OW12739   6.060   5.526   1.567
 3947SOL    HW112740   6.125   5.594   1.533
 3947SOL    HW212741   6.036   5.548   1.662
 3948SOL     OW12742   0.566   4.662   0.664
 3948SOL    HW112743   0.625   4.737   0.633
 3948SOL    HW212744   0.470   4.691   0.658
 3949SOL     OW12745   5.195   0.137   2.943
 3949SOL    HW112746   5.124   0.202   2.971
 3949SOL    HW212747   5.152   0.061   2.894
 3950SOL     OW12748   3.070   4.211   1.580
 3950SOL    HW112749   3.023   4.144   1.637
 3950SOL    HW212750   3.096   4.168   1.493
 3951SOL     OW12751   0.243   0.200   6.755
 3951SOL    HW112752   0.250   0.252   6.841
 3951SOL    HW212753   0.174   0.129   6.766
 3952SOL     OW12754   5.782   3.569   4.604
 3952SOL    HW112755   5.845   3.584   4.528
 3952SOL    HW212756   5.725   3.488   4.585
 3953SOL     OW12757   3.318   4.276   0.193
 3953SOL    HW112758   3.239   4.314   0.242
 3953SOL    HW212759   3.344   4.188   0.234
 3954SOL     OW12760   5.753   5.393   5.518
 3954SOL    HW112761   5.685   5.454   5.558
 3954SOL    HW212762   5.819   5.366   5.589
 3955SOL     OW12763   4.554   6.792   0.065
 3955SOL    HW112764   4.455   6.797   0.083
 3955SOL    HW212765   4.596   6.727   0.127
 3956SOL     OW12766   0.988   1.847   3.818
 3956SOL    HW112767   0.901   1.896   3.817
 3956SOL    HW212768   1.037   1.868   3.902
 3957SOL     OW12769   4.048   7.002   3.274
 3957SOL    HW112770   4.071   0.036   3.353
 3957SOL    HW212771   4.126   6.997   3.212
 3958SOL     OW12772   5.258   0.563   6.217
 3958SOL    HW112773   5.207   0.507   6.283
 3958SOL    HW212774   5.199   0.637   6.185
 3959SOL     OW12775   3.588   6.722   0.774
 3959SOL    HW112776   3.500   6.762   0.752
 3959SOL    HW212777   3.597   6.633   0.730
 3960SOL     OW12778   5.596   1.757   6.030
 3960SOL    HW112779   5.567   1.842   6.073
 3960SOL    HW212780   5.684   1.770   5.985
 3961SOL     OW12781   5.603   2.767   1.968
 3961SOL    HW112782   5.648   2.853   1.994
 3961SOL    HW212783   5.550   2.733   2.046
 3962SOL     OW12784   2.034   5.228   6.636
 3962SOL    HW112785   1.984   5.251   6.553
 3962SOL    HW212786   2.066   5.312   6.680
 3963SOL     OW12787   4.633   4.535   3.619
 3963SOL    HW112788   4.628   4.443   3.581
 3963SOL    HW212789   4.543   4.578   3.617
 3964SOL     OW12790   4.525   4.906   5.051
 3964SOL    HW112791   4.495   4.962   4.974
 3964SOL    HW212792   4.535   4.963   5.132
 3965SOL     OW12793   3.981   3.516   6.195
 3965SOL    HW112794   3.899   3.482   6.147
 3965SOL    HW212795   4.032   3.577   6.135
 3966SOL     OW12796   6.326   5.424   0.324
 3966SOL    HW112797   6.346   5.522   0.312
 3966SOL    HW212798   6.239   5.402   0.280
 3967SOL     OW12799   1.496   4.493   2.663
 3967SOL    HW112800   1.565   4.492   2.735
 3967SOL    HW212801   1.420   4.433   2.689
 3968SOL     OW12802   0.081   0.273   1.029
 3968SOL    HW112803   0.103   0.347   0.965
 3968SOL    HW212804   0.019   0.208   0.985
 3969SOL     OW12805   1.300   3.508   2.875
 3969SOL    HW112806   1.238   3.430   2.870
 3969SOL    HW212807   1.392   3.480   2.845
 3970SOL     OW12808   5.074   5.001   3.816
 3970SOL    HW112809   5.052   4.914   3.771
 3970SOL    HW212810   5.042   4.998   3.911
 3971SOL     OW12811   2.672   4.714   2.474
 3971SOL    HW112812   2.771   4.716   2.464
 3971SOL    HW212813   2.638   4.806   2.491
 3972SOL     OW12814   1.445   5.256   1.409
 3972SOL    HW112815   1.461   5.162   1.380
 3972SOL    HW212816   1.395   5.256   1.496
 3973SOL     OW12817   2.134   4.393   5.781
 3973SOL    HW112818   2.194   4.472   5.789
 3973SOL    HW212819   2.188   4.309   5.780
 3974SOL     OW12820   1.669   0.019   5.254
 3974SOL    HW112821   1.707   6.952   5.230
 3974SOL    HW212822   1.599   0.008   5.325
 3975SOL     OW12823   5.371   0.685   6.536
 3975SOL    HW112824   5.313   0.689   6.454
 3975SOL    HW212825   5.464   0.662   6.510
 3976SOL     OW12826   1.648   5.099   1.682
 3976SOL    HW112827   1.670   5.050   1.598
 3976SOL    HW212828   1.713   5.072   1.754
 3977SOL     OW12829   2.967   4.235   5.264
 3977SOL    HW112830   2.953   4.330   5.236
 3977SOL    HW212831   2.980   4.177   5.184
 3978SOL     OW12832   5.506   0.056   4.619
 3978SOL    HW112833   5.535   0.009   4.702
 3978SOL    HW212834   5.577   0.120   4.590
 3979SOL     OW12835   2.436   5.964   1.702
 3979SOL    HW112836   2.348   5.920   1.719
 3979SOL    HW212837   2.431   6.016   1.617
 3980SOL     OW12838   6.796   4.326   6.710
 3980SOL    HW112839   6.877   4.366   6.667
 3980SOL    HW212840   6.773   4.240   6.663
 3981SOL     OW12841   2.149   1.776   6.181
 3981SOL    HW112842   2.140   1.859   6.235
 3981SOL    HW212843   2.160   1.697   6.241
 3982SOL     OW12844   1.846   0.806   4.460
 3982SOL    HW112845   1.928   0.750   4.445
 3982SOL    HW212846   1.794   0.811   4.375
 3983SOL     OW12847   4.307   5.414   4.151
 3983SOL    HW112848   4.349   5.375   4.068
 3983SOL    HW212849   4.351   5.375   4.232
 3984SOL     OW12850   1.503   1.095   2.740
 3984SOL    HW112851   1.595   1.057   2.749
 3984SOL    HW212852   1.508   1.186   2.700
 3985SOL     OW12853   2.868   4.598   6.633
 3985SOL    HW112854   2.958   4.584   6.674
 3985SOL    HW212855   2.825   4.679   6.673
 3986SOL     OW12856   0.226   2.280   3.139
 3986SOL    HW112857   0.142   2.242   3.099
 3986SOL    HW212858   0.225   2.380   3.130
 3987SOL     OW12859   2.376   6.051   4.415
 3987SOL    HW112860   2.405   6.135   4.368
 3987SOL    HW212861   2.278   6.038   4.402
 3988SOL     OW12862   3.281   2.945   6.422
 3988SOL    HW112863   3.214   2.991   6.363
 3988SOL    HW212864   3.329   3.012   6.478
 3989SOL     OW12865   6.057   1.764   0.585
 3989SOL    HW112866   6.025   1.850   0.547
 3989SOL    HW212867   6.041   1.690   0.520
 3990SOL     OW12868   5.757   1.679   3.606
 3990SOL    HW112869   5.758   1.700   3.509
 3990SOL    HW212870   5.757   1.580   3.619
 3991SOL     OW12871   6.019   1.856   2.107
 3991SOL    HW112872   6.080   1.864   2.186
 3991SOL    HW212873   6.070   1.873   2.023
 3992SOL     OW12874   3.974   2.388   6.525
 3992SOL    HW112875   3.924   2.450   6.464
 3992SOL    HW212876   4.064   2.427   6.545
 3993SOL     OW12877   0.435   2.515   3.417
 3993SOL    HW112878   0.506   2.565   3.467
 3993SOL    HW212879   0.418   2.427   3.463
 3994SOL     OW12880   0.935   2.575   5.881
 3994SOL    HW112881   0.845   2.593   5.841
 3994SOL    HW212882   0.963   2.654   5.936
 3995SOL     OW12883   2.149   3.530   4.154
 3995SOL    HW112884   2.195   3.442   4.146
 3995SOL    HW212885   2.096   3.548   4.071
 3996SOL     OW12886   0.562   1.131   4.581
 3996SOL    HW112887   0.490   1.123   4.511
 3996SOL    HW212888   0.637   1.069   4.558
 3997SOL     OW12889   4.896   3.148   2.465
 3997SOL    HW112890   4.874   3.240   2.434
 3997SOL    HW212891   4.840   3.082   2.415
 3998SOL     OW12892   4.914   1.338   2.724
 3998SOL    HW112893   4.815   1.348   2.717
 3998SOL    HW212894   4.937   1.240   2.728
 3999SOL     OW12895   5.314   3.414   3.751
 3999SOL    HW112896   5.358   3.463   3.827
 3999SOL    HW212897   5.383   3.361   3.701
 4000SOL     OW12898   3.039   5.147   2.689
 4000SOL    HW112899   2.987   5.062   2.704
 4000SOL    HW212900   3.126   5.142   2.738
 4001SOL     OW12901   1.543   2.092   3.794
 4001SOL    HW112902   1.639   2.102   3.768
 4001SOL    HW212903   1.487   2.085   3.712
 4002SOL     OW12904   2.913   3.147   0.339
 4002SOL    HW112905   2.940   3.138   0.243
 4002SOL    HW212906   2.968   3.218   0.382
 4003SOL     OW12907   2.650   6.497   5.168
 4003SOL    HW112908   2.620   6.497   5.073
 4003SOL    HW212909   2.750   6.485   5.171
 4004SOL     OW12910   6.259   2.327   4.008
 4004SOL    HW112911   6.306   2.397   3.954
 4004SOL    HW212912   6.221   2.370   4.091
 4005SOL     OW12913   5.071   5.195   1.006
 4005SOL    HW112914   5.165   5.226   0.993
 4005SOL    HW212915   5.056   5.111   0.955
 4006SOL     OW12916   4.295   5.118   2.086
 4006SOL    HW112917   4.331   5.095   2.177
 4006SOL    HW212918   4.334   5.055   2.018
 4007SOL     OW12919   0.397   3.063   1.867
 4007SOL    HW112920   0.394   2.966   1.844
 4007SOL    HW212921   0.317   3.109   1.827
 4008SOL     OW12922   3.226   1.489   3.903
 4008SOL    HW112923   3.238   1.579   3.946
 4008SOL    HW212924   3.285   1.483   3.822
 4009SOL     OW12925   5.112   2.545   0.365
 4009SOL    HW112926   5.105   2.476   0.292
 4009SOL    HW212927   5.079   2.507   0.451
 4010SOL     OW12928   1.887   3.825   1.040
 4010SOL    HW112929   1.971   3.832   0.986
 4010SOL    HW212930   1.907   3.780   1.127
 4011SOL     OW12931   1.034   0.760   1.482
 4011SOL    HW112932   0.980   0.687   1.440
 4011SOL    HW212933   1.078   0.727   1.565
 4012SOL     OW12934   4.397   4.852   1.982
 4012SOL    HW112935   4.335   4.839   1.905
 4012SOL    HW212936   4.492   4.844   1.951
 4013SOL     OW12937   2.723   0.447   0.991
 4013SOL    HW112938   2.744   0.497   0.907
 4013SOL    HW212939   2.765   0.356   0.986
 4014SOL     OW12940   4.340   6.081   3.370
 4014SOL    HW112941   4.409   6.019   3.332
 4014SOL    HW212942   4.292   6.035   3.445
 4015SOL     OW12943   4.387   5.690   6.579
 4015SOL    HW112944   4.313   5.672   6.645
 4015SOL    HW212945   4.434   5.774   6.606
 4016SOL     OW12946   1.596   5.772   6.781
 4016SOL    HW112947   1.518   5.737   6.729
 4016SOL    HW212948   1.620   5.706   6.853
 4017SOL     OW12949   0.119   6.791   6.638
 4017SOL    HW112950   0.109   6.881   6.681
 4017SOL    HW212951   0.128   6.802   6.539
 4018SOL     OW12952   6.031   6.735   2.174
 4018SOL    HW112953   5.938   6.698   2.181
 4018SOL    HW212954   6.048   6.765   2.081
 4019SOL     OW12955   5.781   3.939   2.457
 4019SOL    HW112956   5.819   3.880   2.528
 4019SOL    HW212957   5.707   3.891   2.410
 4020SOL     OW12958   6.127   2.557   5.841
 4020SOL    HW112959   6.084   2.498   5.909
 4020SOL    HW212960   6.150   2.503   5.760
 4021SOL     OW12961   3.088   3.373   5.371
 4021SOL    HW112962   3.043   3.283   5.364
 4021SOL    HW212963   3.022   3.440   5.406
 4022SOL     OW12964   3.778   0.624   0.003
 4022SOL    HW112965   3.870   0.623   0.040
 4022SOL    HW212966   3.775   0.681   6.943
 4023SOL     OW12967   6.874   1.455   4.150
 4023SOL    HW112968   6.850   1.411   4.237
 4023SOL    HW212969   6.911   1.386   4.088
 4024SOL     OW12970   2.680   5.493   4.516
 4024SOL    HW112971   2.590   5.485   4.475
 4024SOL    HW212972   2.690   5.584   4.557
 4025SOL     OW12973   0.729   5.934   4.928
 4025SOL    HW112974   0.792   6.011   4.914
 4025SOL    HW212975   0.657   5.937   4.859
 4026SOL     OW12976   6.619   6.482   3.993
 4026SOL    HW112977   6.541   6.534   3.958
 4026SOL    HW212978   6.639   6.511   4.087
 4027SOL     OW12979   3.046   3.695   2.131
 4027SOL    HW112980   3.022   3.669   2.225
 4027SOL    HW212981   3.086   3.787   2.132
 4028SOL     OW12982   2.098   2.530   3.210
 4028SOL    HW112983   2.158   2.502   3.135
 4028SOL    HW212984   2.132   2.615   3.249
 4029SOL     OW12985   2.763   4.155   6.634
 4029SOL    HW112986   2.715   4.210   6.565
 4029SOL    HW212987   2.712   4.158   6.720
 4030SOL     OW12988   1.592   1.563   6.679
 4030SOL    HW112989   1.597   1.626   6.601
 4030SOL    HW212990   1.676   1.570   6.733
 4031SOL     OW12991   4.730   6.173   3.248
 4031SOL    HW112992   4.789   6.165   3.328
 4031SOL    HW212993   4.655   6.108   3.255
 4032SOL     OW12994   6.332   0.029   3.144
 4032SOL    HW112995   6.414   7.001   3.119
 4032SOL    HW212996   6.334   0.120   3.101
 4033SOL     OW12997   2.959   3.260   2.401
 4033SOL    HW112998   2.937   3.230   2.494
 4033SOL    HW212999   2.906   3.342   2.379
 4034SOL     OW13000   6.703   1.671   4.988
 4034SOL    HW113001   6.788   1.641   4.945
 4034SOL    HW213002   6.713   1.667   5.088
 4035SOL     OW13003   0.362   2.651   0.814
 4035SOL    HW113004   0.385   2.591   0.891
 4035SOL    HW213005   0.272   2.691   0.828
 4036SOL     OW13006   5.116   6.777   2.175
 4036SOL    HW113007   5.121   6.857   2.115
 4036SOL    HW213008   5.059   6.799   2.255
 4037SOL     OW13009   1.910   1.954   0.593
 4037SOL    HW113010   1.876   1.909   0.676
 4037SOL    HW213011   1.851   1.931   0.516
 4038SOL     OW13012   4.520   4.559   1.947
 4038SOL    HW113013   4.509   4.585   2.043
 4038SOL    HW213014   4.519   4.459   1.939
 4039SOL     OW13015   4.841   4.837   1.534
 4039SOL    HW113016   4.937   4.858   1.514
 4039SOL    HW213017   4.783   4.897   1.479
 4040SOL     OW13018   3.030   0.363   5.896
 4040SOL    HW113019   2.985   0.351   5.808
 4040SOL    HW213020   3.128   0.342   5.887
 4041SOL     OW13021   2.328   5.803   1.386
 4041SOL    HW113022   2.382   5.866   1.331
 4041SOL    HW213023   2.386   5.756   1.452
 4042SOL     OW13024   6.217   5.238   2.710
 4042SOL    HW113025   6.298   5.229   2.652
 4042SOL    HW213026   6.244   5.253   2.805
 4043SOL     OW13027   5.216   2.174   3.931
 4043SOL    HW113028   5.301   2.177   3.983
 4043SOL    HW213029   5.206   2.084   3.889
 4044SOL     OW13030   5.113   0.391   4.103
 4044SOL    HW113031   5.021   0.380   4.064
 4044SOL    HW213032   5.171   0.316   4.071
 4045SOL     OW13033   3.005   4.762   6.254
 4045SOL    HW113034   3.042   4.685   6.305
 4045SOL    HW213035   2.905   4.753   6.247
 4046SOL     OW13036   0.733   1.212   3.649
 4046SOL    HW113037   0.662   1.265   3.696
 4046SOL    HW213038   0.770   1.144   3.712
 4047SOL     OW13039   2.588   2.673   0.815
 4047SOL    HW113040   2.655   2.612   0.774
 4047SOL    HW213041   2.506   2.675   0.758
 4048SOL     OW13042   5.603   1.299   2.589
 4048SOL    HW113043   5.550   1.329   2.668
 4048SOL    HW213044   5.566   1.341   2.506
 4049SOL     OW13045   6.137   6.096   0.162
 4049SOL    HW113046   6.205   6.160   0.125
 4049SOL    HW213047   6.046   6.122   0.128
 4050SOL     OW13048   2.274   6.675   0.693
 4050SOL    HW113049   2.289   6.754   0.752
 4050SOL    HW213050   2.208   6.698   0.622
 4051SOL     OW13051   3.607   3.106   0.053
 4051SOL    HW113052   3.699   3.140   0.033
 4051SOL    HW213053   3.558   3.172   0.110
 4052SOL     OW13054   6.847   0.519   1.945
 4052SOL    HW113055   6.863   0.476   2.034
 4052SOL    HW213056   6.749   0.540   1.936
 4053SOL     OW13057   3.080   5.175   3.842
 4053SOL    HW113058   3.007   5.127   3.793
 4053SOL    HW213059   3.070   5.159   3.940
 4054SOL     OW13060   1.115   2.798   1.399
 4054SOL    HW113061   1.030   2.809   1.347
 4054SOL    HW213062   1.151   2.888   1.424
 4055SOL     OW13063   3.863   3.496   5.746
 4055SOL    HW113064   3.855   3.498   5.845
 4055SOL    HW213065   3.772   3.506   5.705
 4056SOL     OW13066   4.224   3.095   0.435
 4056SOL    HW113067   4.322   3.096   0.418
 4056SOL    HW213068   4.191   3.000   0.432
 4057SOL     OW13069   5.097   2.062   1.336
 4057SOL    HW113070   5.010   2.108   1.321
 4057SOL    HW213071   5.146   2.053   1.249
 4058SOL     OW13072   1.622   1.092   4.593
 4058SOL    HW113073   1.582   1.001   4.579
 4058SOL    HW213074   1.687   1.111   4.519
 4059SOL     OW13075   1.192   2.840   3.458
 4059SOL    HW113076   1.100   2.862   3.427
 4059SOL    HW213077   1.249   2.922   3.458
 4060SOL     OW13078   4.770   5.867   4.942
 4060SOL    HW113079   4.814   5.892   5.028
 4060SOL    HW213080   4.816   5.787   4.903
 4061SOL     OW13081   3.394   4.963   1.945
 4061SOL    HW113082   3.383   5.028   2.020
 4061SOL    HW213083   3.467   4.899   1.967
 4062SOL     OW13084   3.363   1.592   2.649
 4062SOL    HW113085   3.380   1.494   2.643
 4062SOL    HW213086   3.396   1.627   2.737
 4063SOL     OW13087   5.446   6.796   5.267
 4063SOL    HW113088   5.494   6.860   5.206
 4063SOL    HW213089   5.379   6.744   5.214
 4064SOL     OW13090   1.655   6.527   3.438
 4064SOL    HW113091   1.722   6.576   3.382
 4064SOL    HW213092   1.570   6.516   3.387
 4065SOL     OW13093   0.884   6.697   0.511
 4065SOL    HW113094   0.848   6.763   0.577
 4065SOL    HW213095   0.973   6.664   0.543
 4066SOL     OW13096   5.364   5.258   2.850
 4066SOL    HW113097   5.403   5.323   2.784
 4066SOL    HW213098   5.423   5.178   2.857
 4067SOL     OW13099   6.070   3.254   2.255
 4067SOL    HW113100   6.087   3.286   2.348
 4067SOL    HW213101   6.155   3.221   2.215
 4068SOL     OW13102   3.589   0.701   4.344
 4068SOL    HW113103   3.525   0.630   4.315
 4068SOL    HW213104   3.582   0.714   4.443
 4069SOL     OW13105   4.024   4.274   6.368
 4069SOL    HW113106   4.032   4.357   6.313
 4069SOL    HW213107   3.929   4.241   6.365
 4070SOL     OW13108   1.093   3.572   2.605
 4070SOL    HW113109   1.117   3.475   2.612
 4070SOL    HW213110   1.173   3.625   2.579
 4071SOL     OW13111   1.228   0.624   5.138
 4071SOL    HW113112   1.314   0.596   5.181
 4071SOL    HW213113   1.175   0.678   5.203
 4072SOL     OW13114   0.679   6.309   4.131
 4072SOL    HW113115   0.602   6.337   4.073
 4072SOL    HW213116   0.764   6.341   4.091
 4073SOL     OW13117   2.409   5.708   6.255
 4073SOL    HW113118   2.346   5.755   6.193
 4073SOL    HW213119   2.492   5.684   6.205
 4074SOL     OW13120   1.135   2.487   2.380
 4074SOL    HW113121   1.071   2.490   2.456
 4074SOL    HW213122   1.215   2.544   2.401
 4075SOL     OW13123   4.277   2.246   2.193
 4075SOL    HW113124   4.236   2.324   2.240
 4075SOL    HW213125   4.244   2.242   2.099
 4076SOL     OW13126   2.269   3.333   6.040
 4076SOL    HW113127   2.261   3.284   5.953
 4076SOL    HW213128   2.221   3.421   6.033
 4077SOL     OW13129   3.416   6.574   6.872
 4077SOL    HW113130   3.461   6.659   6.843
 4077SOL    HW213131   3.348   6.596   6.943
 4078SOL     OW13132   6.726   5.059   1.724
 4078SOL    HW113133   6.748   4.965   1.699
 4078SOL    HW213134   6.665   5.098   1.654
 4079SOL     OW13135   0.766   2.059   3.554
 4079SOL    HW113136   0.854   2.039   3.512
 4079SOL    HW213137   0.741   2.154   3.535
 4080SOL     OW13138   2.783   3.552   0.950
 4080SOL    HW113139   2.728   3.522   0.873
 4080SOL    HW213140   2.821   3.472   0.997
 4081SOL     OW13141   1.477   1.747   3.635
 4081SOL    HW113142   1.496   1.841   3.607
 4081SOL    HW213143   1.527   1.726   3.719
 4082SOL     OW13144   1.492   2.186   0.670
 4082SOL    HW113145   1.475   2.282   0.653
 4082SOL    HW213146   1.538   2.175   0.758
 4083SOL     OW13147   5.989   3.945   3.248
 4083SOL    HW113148   6.086   3.956   3.225
 4083SOL    HW213149   5.948   3.874   3.191
 4084SOL     OW13150   5.137   2.595   3.037
 4084SOL    HW113151   5.071   2.604   2.963
 4084SOL    HW213152   5.109   2.653   3.114
 4085SOL     OW13153   2.522   5.758   0.682
 4085SOL    HW113154   2.449   5.708   0.635
 4085SOL    HW213155   2.556   5.830   0.623
 4086SOL     OW13156   7.009   5.249   0.846
 4086SOL    HW113157   0.070   5.194   0.843
 4086SOL    HW213158   6.931   5.190   0.866
 4087SOL     OW13159   2.325   1.108   2.772
 4087SOL    HW113160   2.408   1.074   2.814
 4087SOL    HW213161   2.327   1.090   2.673
 4088SOL     OW13162   6.534   1.647   6.178
 4088SOL    HW113163   6.532   1.694   6.267
 4088SOL    HW213164   6.465   1.687   6.118
 4089SOL     OW13165   6.330   5.222   4.827
 4089SOL    HW113166   6.353   5.126   4.812
 4089SOL    HW213167   6.287   5.259   4.744
 4090SOL     OW13168   2.347   5.795   5.358
 4090SOL    HW113169   2.446   5.804   5.347
 4090SOL    HW213170   2.306   5.886   5.360
 4091SOL     OW13171   0.682   6.033   0.026
 4091SOL    HW113172   0.603   5.972   0.022
 4091SOL    HW213173   0.716   6.037   0.120
 4092SOL     OW13174   5.967   2.646   3.925
 4092SOL    HW113175   5.951   2.569   3.864
 4092SOL    HW213176   5.888   2.657   3.986
 4093SOL     OW13177   5.364   6.699   1.053
 4093SOL    HW113178   5.293   6.639   1.018
 4093SOL    HW213179   5.447   6.646   1.072
 4094SOL     OW13180   1.368   4.915   6.463
 4094SOL    HW113181   1.307   4.977   6.414
 4094SOL    HW213182   1.450   4.899   6.408
 4095SOL     OW13183   0.822   3.489   0.461
 4095SOL    HW113184   0.909   3.494   0.411
 4095SOL    HW213185   0.817   3.401   0.510
 4096SOL     OW13186   3.597   0.718   6.393
 4096SOL    HW113187   3.577   0.813   6.372
 4096SOL    HW213188   3.639   0.711   6.483
 4097SOL     OW13189   5.327   4.637   5.365
 4097SOL    HW113190   5.305   4.591   5.279
 4097SOL    HW213191   5.357   4.569   5.432
 4098SOL     OW13192   1.090   2.996   1.108
 4098SOL    HW113193   1.070   3.085   1.068
 4098SOL    HW213194   1.005   2.955   1.142
 4099SOL     OW13195   3.480   5.103   0.708
 4099SOL    HW113196   3.408   5.158   0.750
 4099SOL    HW213197   3.440   5.020   0.669
 4100SOL     OW13198   0.698   6.967   4.395
 4100SOL    HW113199   0.698   0.044   4.396
 4100SOL    HW213200   0.607   6.933   4.418
 4101SOL     OW13201   1.153   1.314   6.836
 4101SOL    HW113202   1.217   1.250   6.878
 4101SOL    HW213203   1.061   1.274   6.837
 4102SOL     OW13204   1.847   0.147   0.413
 4102SOL    HW113205   1.844   0.106   0.504
 4102SOL    HW213206   1.757   0.182   0.388
 4103SOL     OW13207   0.320   0.348   2.214
 4103SOL    HW113208   0.265   0.309   2.287
 4103SOL    HW213209   0.296   0.444   2.200
 4104SOL     OW13210   0.445   4.809   3.463
 4104SOL    HW113211   0.378   4.821   3.536
 4104SOL    HW213212   0.401   4.769   3.383
 4105SOL     OW13213   6.483   0.497   2.660
 4105SOL    HW113214   6.401   0.551   2.677
 4105SOL    HW213215   6.477   0.410   2.710
 4106SOL     OW13216   0.450   2.919   3.892
 4106SOL    HW113217   0.394   2.941   3.812
 4106SOL    HW213218   0.401   2.855   3.951
 4107SOL     OW13219   0.749   6.097   0.671
 4107SOL    HW113220   0.747   6.001   0.701
 4107SOL    HW213221   0.719   6.155   0.746
 4108SOL     OW13222   6.110   5.048   4.656
 4108SOL    HW113223   6.045   5.048   4.732
 4108SOL    HW213224   6.098   5.131   4.602
 4109SOL     OW13225   5.914   6.666   4.739
 4109SOL    HW113226   5.993   6.727   4.735
 4109SOL    HW213227   5.865   6.669   4.652
 4110SOL     OW13228   3.994   3.131   5.981
 4110SOL    HW113229   4.053   3.177   5.914
 4110SOL    HW213230   3.914   3.094   5.935
 4111SOL     OW13231   5.936   4.913   6.274
 4111SOL    HW113232   5.889   4.968   6.204
 4111SOL    HW213233   5.963   4.825   6.235
 4112SOL     OW13234   4.653   6.262   4.074
 4112SOL    HW113235   4.575   6.300   4.025
 4112SOL    HW213236   4.682   6.178   4.029
 4113SOL     OW13237   5.409   6.248   4.868
 4113SOL    HW113238   5.384   6.186   4.943
 4113SOL    HW213239   5.327   6.277   4.819
 4114SOL     OW13240   5.720   1.936   3.386
 4114SOL    HW113241   5.812   1.918   3.350
 4114SOL    HW213242   5.728   1.975   3.478
 4115SOL     OW13243   3.008   5.012   3.062
 4115SOL    HW113244   3.089   4.962   3.090
 4115SOL    HW213245   2.931   4.989   3.122
 4116SOL     OW13246   4.182   1.857   3.303
 4116SOL    HW113247   4.239   1.824   3.379
 4116SOL    HW213248   4.218   1.944   3.270
 4117SOL     OW13249   0.877   3.313   2.854
 4117SOL    HW113250   0.971   3.301   2.824
 4117SOL    HW213251   0.849   3.236   2.912
 4118SOL     OW13252   5.179   6.731   6.897
 4118SOL    HW113253   5.100   6.672   6.879
 4118SOL    HW213254   5.189   6.797   6.823
 4119SOL     OW13255   3.072   1.860   3.424
 4119SOL    HW113256   3.117   1.774   3.399
 4119SOL    HW213257   3.116   1.936   3.376
 4120SOL     OW13258   3.098   1.264   5.874
 4120SOL    HW113259   3.037   1.305   5.942
 4120SOL    HW213260   3.152   1.336   5.831
 4121SOL     OW13261   6.663   7.010   3.908
 4121SOL    HW113262   6.750   6.963   3.898
 4121SOL    HW213263   6.595   6.968   3.848
 4122SOL     OW13264   1.364   6.578   4.467
 4122SOL    HW113265   1.290   6.554   4.528
 4122SOL    HW213266   1.435   6.507   4.470
 4123SOL     OW13267   4.195   4.781   5.205
 4123SOL    HW113268   4.130   4.725   5.258
 4123SOL    HW213269   4.168   4.877   5.210
 4124SOL     OW13270   6.963   0.125   0.848
 4124SOL    HW113271   6.997   0.055   0.786
 4124SOL    HW213272   6.935   0.206   0.796
 4125SOL     OW13273   4.431   2.427   3.010
 4125SOL    HW113274   4.337   2.447   3.039
 4125SOL    HW213275   4.429   2.384   2.919
 4126SOL     OW13276   1.525   3.462   3.262
 4126SOL    HW113277   1.569   3.511   3.337
 4126SOL    HW213278   1.539   3.364   3.274
 4127SOL     OW13279   5.305   3.649   4.932
 4127SOL    HW113280   5.276   3.724   4.992
 4127SOL    HW213281   5.269   3.664   4.841
 4128SOL     OW13282   0.693   3.728   1.540
 4128SOL    HW113283   0.671   3.761   1.448
 4128SOL    HW213284   0.747   3.798   1.588
 4129SOL     OW13285   3.153   1.199   0.227
 4129SOL    HW113286   3.175   1.190   0.325
 4129SOL    HW213287   3.059   1.232   0.218
 4130SOL     OW13288   6.096   2.423   0.288
 4130SOL    HW113289   6.141   2.334   0.286
 4130SOL    HW213290   6.134   2.482   0.217
 4131SOL     OW13291   0.478   1.873   3.260
 4131SOL    HW113292   0.493   1.886   3.358
 4131SOL    HW213293   0.479   1.963   3.215
 4132SOL     OW13294   5.103   4.028   3.594
 4132SOL    HW113295   5.115   4.119   3.555
 4132SOL    HW213296   5.188   3.977   3.587
 4133SOL     OW13297   3.552   6.048   1.454
 4133SOL    HW113298   3.622   6.003   1.510
 4133SOL    HW213299   3.470   5.991   1.452
 4134SOL     OW13300   1.864   4.019   0.845
 4134SOL    HW113301   1.924   3.993   0.770
 4134SOL    HW213302   1.846   3.939   0.902
 4135SOL     OW13303   0.468   2.812   1.772
 4135SOL    HW113304   0.549   2.769   1.732
 4135SOL    HW213305   0.447   2.767   1.859
 4136SOL     OW13306   1.389   3.856   3.236
 4136SOL    HW113307   1.472   3.872   3.290
 4136SOL    HW213308   1.402   3.775   3.179
 4137SOL     OW13309   1.858   3.245   0.832
 4137SOL    HW113310   1.888   3.182   0.760
 4137SOL    HW213311   1.841   3.193   0.916
 4138SOL     OW13312   3.754   5.371   2.745
 4138SOL    HW113313   3.723   5.455   2.701
 4138SOL    HW213314   3.829   5.393   2.809
 4139SOL     OW13315   1.624   1.095   4.869
 4139SOL    HW113316   1.628   1.101   4.770
 4139SOL    HW213317   1.617   1.187   4.908
 4140SOL     OW13318   3.376   1.185   4.837
 4140SOL    HW113319   3.459   1.206   4.786
 4140SOL    HW213320   3.374   1.237   4.922
 4141SOL     OW13321   5.538   6.949   1.006
 4141SOL    HW113322   5.494   6.871   1.050
 4141SOL    HW213323   5.510   6.954   0.911
 4142SOL     OW13324   6.349   4.206   1.187
 4142SOL    HW113325   6.286   4.175   1.116
 4142SOL    HW213326   6.443   4.182   1.162
 4143SOL     OW13327   5.881   2.809   1.015
 4143SOL    HW113328   5.839   2.886   1.064
 4143SOL    HW213329   5.810   2.744   0.988
 4144SOL     OW13330   4.976   1.627   0.057
 4144SOL    HW113331   5.047   1.686   0.096
 4144SOL    HW213332   4.999   1.531   0.075
 4145SOL     OW13333   0.696   6.254   1.335
 4145SOL    HW113334   0.680   6.185   1.265
 4145SOL    HW213335   0.727   6.339   1.292
 4146SOL     OW13336   6.683   0.198   3.355
 4146SOL    HW113337   6.623   0.166   3.429
 4146SOL    HW213338   6.627   0.237   3.282
 4147SOL     OW13339   4.308   4.980   6.091
 4147SOL    HW113340   4.293   4.928   6.175
 4147SOL    HW213341   4.374   4.932   6.033
 4148SOL     OW13342   2.671   0.179   4.837
 4148SOL    HW113343   2.680   0.150   4.933
 4148SOL    HW213344   2.734   0.125   4.781
 4149SOL     OW13345   0.224   4.444   1.371
 4149SOL    HW113346   0.316   4.462   1.404
 4149SOL    HW213347   0.187   4.363   1.417
 4150SOL     OW13348   0.485   0.453   5.452
 4150SOL    HW113349   0.463   0.511   5.373
 4150SOL    HW213350   0.468   0.357   5.428
 4151SOL     OW13351   2.832   6.327   5.903
 4151SOL    HW113352   2.828   6.408   5.845
 4151SOL    HW213353   2.752   6.269   5.886
 4152SOL     OW13354   4.113   5.963   1.022
 4152SOL    HW113355   4.211   5.944   1.012
 4152SOL    HW213356   4.082   5.935   1.113
 4153SOL     OW13357   5.754   5.389   1.547
 4153SOL    HW113358   5.707   5.374   1.634
 4153SOL    HW213359   5.711   5.331   1.477
 4154SOL     OW13360   6.903   5.503   4.219
 4154SOL    HW113361   6.972   5.516   4.148
 4154SOL    HW213362   6.814   5.488   4.176
 4155SOL     OW13363   0.154   0.849   1.155
 4155SOL    HW113364   0.228   0.916   1.158
 4155SOL    HW213365   0.158   0.798   1.069
 4156SOL     OW13366   5.961   5.431   5.318
 4156SOL    HW113367   5.885   5.404   5.377
 4156SOL    HW213368   5.932   5.504   5.257
 4157SOL     OW13369   5.297   5.676   3.834
 4157SOL    HW113370   5.323   5.698   3.928
 4157SOL    HW213371   5.360   5.608   3.797
 4158SOL     OW13372   0.668   3.187   2.361
 4158SOL    HW113373   0.753   3.233   2.384
 4158SOL    HW213374   0.607   3.189   2.440
 4159SOL     OW13375   1.497   3.217   3.052
 4159SOL    HW113376   1.585   3.188   3.088
 4159SOL    HW213377   1.511   3.281   2.976
 4160SOL     OW13378   5.513   0.181   6.792
 4160SOL    HW113379   5.550   0.103   6.743
 4160SOL    HW213380   5.542   0.177   6.888
 4161SOL     OW13381   1.269   2.145   0.883
 4161SOL    HW113382   1.173   2.150   0.910
 4161SOL    HW213383   1.314   2.072   0.934
 4162SOL     OW13384   5.927   6.279   0.451
 4162SOL    HW113385   5.894   6.226   0.529
 4162SOL    HW213386   5.884   6.369   0.451
 4163SOL     OW13387   5.397   0.806   3.649
 4163SOL    HW113388   5.469   0.750   3.689
 4163SOL    HW213389   5.341   0.846   3.721
 4164SOL     OW13390   1.286   0.062   4.796
 4164SOL    HW113391   1.221   0.041   4.722
 4164SOL    HW213392   1.282   0.159   4.817
 4165SOL     OW13393   3.880   0.371   5.603
 4165SOL    HW113394   3.949   0.302   5.581
 4165SOL    HW213395   3.798   0.355   5.548
 4166SOL     OW13396   5.155   1.329   0.877
 4166SOL    HW113397   5.129   1.304   0.970
 4166SOL    HW213398   5.118   1.262   0.813
 4167SOL     OW13399   3.075   3.881   6.864
 4167SOL    HW113400   3.094   3.977   6.884
 4167SOL    HW213401   3.104   3.824   6.940
 4168SOL     OW13402   0.112   3.950   1.157
 4168SOL    HW113403   0.058   3.912   1.233
 4168SOL    HW213404   0.202   3.976   1.191
 4169SOL     OW13405   6.331   5.426   4.614
 4169SOL    HW113406   6.298   5.494   4.678
 4169SOL    HW213407   6.420   5.454   4.578
 4170SOL     OW13408   4.661   3.082   6.027
 4170SOL    HW113409   4.619   3.016   6.089
 4170SOL    HW213410   4.662   3.173   6.069
 4171SOL     OW13411   6.134   5.529   0.827
 4171SOL    HW113412   6.222   5.569   0.801
 4171SOL    HW213413   6.060   5.593   0.804
 4172SOL     OW13414   2.008   1.522   6.601
 4172SOL    HW113415   2.096   1.478   6.617
 4172SOL    HW213416   1.936   1.453   6.596
 4173SOL     OW13417   5.493   3.890   4.577
 4173SOL    HW113418   5.573   3.843   4.538
 4173SOL    HW213419   5.500   3.888   4.677
 4174SOL     OW13420   4.700   1.317   2.414
 4174SOL    HW113421   4.772   1.252   2.435
 4174SOL    HW213422   4.611   1.270   2.413
 4175SOL     OW13423   1.753   4.770   4.190
 4175SOL    HW113424   1.657   4.740   4.197
 4175SOL    HW213425   1.759   4.868   4.210
 4176SOL     OW13426   3.985   6.453   1.357
 4176SOL    HW113427   3.903   6.400   1.335
 4176SOL    HW213428   4.061   6.391   1.374
 4177SOL     OW13429   5.699   4.816   5.765
 4177SOL    HW113430   5.718   4.869   5.683
 4177SOL    HW213431   5.782   4.812   5.822
 4178SOL     OW13432   4.328   6.262   4.379
 4178SOL    HW113433   4.310   6.219   4.290
 4178SOL    HW213434   4.263   6.228   4.446
 4179SOL     OW13435   5.265   3.749   3.132
 4179SOL    HW113436   5.271   3.649   3.124
 4179SOL    HW213437   5.173   3.779   3.109
 4180SOL     OW13438   4.299   3.083   0.831
 4180SOL    HW113439   4.244   3.142   0.891
 4180SOL    HW213440   4.396   3.105   0.841
 4181SOL     OW13441   4.168   0.851   6.928
 4181SOL    HW113442   4.173   0.899   6.840
 4181SOL    HW213443   4.100   0.895   6.986
 4182SOL     OW13444   0.621   5.797   3.509
 4182SOL    HW113445   0.708   5.786   3.460
 4182SOL    HW213446   0.603   5.715   3.563
 4183SOL     OW13447   2.773   1.606   0.153
 4183SOL    HW113448   2.729   1.527   0.195
 4183SOL    HW213449   2.814   1.580   0.066
 4184SOL     OW13450   3.271   6.633   2.479
 4184SOL    HW113451   3.191   6.592   2.434
 4184SOL    HW213452   3.240   6.692   2.554
 4185SOL     OW13453   1.139   4.481   2.872
 4185SOL    HW113454   1.040   4.479   2.885
 4185SOL    HW213455   1.160   4.497   2.776
 4186SOL     OW13456   2.628   4.899   6.512
 4186SOL    HW113457   2.555   4.911   6.579
 4186SOL    HW213458   2.631   4.803   6.482
 4187SOL     OW13459   3.596   3.511   5.690
 4187SOL    HW113460   3.539   3.587   5.722
 4187SOL    HW213461   3.557   3.475   5.605
 4188SOL     OW13462   5.132   0.798   5.383
 4188SOL    HW113463   5.207   0.833   5.438
 4188SOL    HW213464   5.147   0.822   5.287
 4189SOL     OW13465   2.851   5.117   4.502
 4189SOL    HW113466   2.751   5.120   4.496
 4189SOL    HW213467   2.884   5.032   4.462
 4190SOL     OW13468   0.734   0.877   1.056
 4190SOL    HW113469   0.757   0.895   0.960
 4190SOL    HW213470   0.699   0.961   1.097
 4191SOL     OW13471   4.946   4.285   3.652
 4191SOL    HW113472   4.866   4.271   3.710
 4191SOL    HW213473   5.026   4.303   3.708
 4192SOL     OW13474   1.021   1.553   3.783
 4192SOL    HW113475   0.973   1.518   3.702
 4192SOL    HW213476   0.979   1.639   3.812
 4193SOL     OW13477   6.501   0.765   0.644
 4193SOL    HW113478   6.544   0.808   0.723
 4193SOL    HW213479   6.511   0.665   0.650
 4194SOL     OW13480   5.297   0.091   4.816
 4194SOL    HW113481   5.350   0.131   4.741
 4194SOL    HW213482   5.289   7.014   4.802
 4195SOL     OW13483   3.765   6.223   1.125
 4195SOL    HW113484   3.865   6.227   1.116
 4195SOL    HW213485   3.739   6.253   1.217
 4196SOL     OW13486   6.200   2.678   2.600
 4196SOL    HW113487   6.177   2.743   2.528
 4196SOL    HW213488   6.120   2.620   2.619
 4197SOL     OW13489   5.017   5.079   5.810
 4197SOL    HW113490   5.030   5.164   5.758
 4197SOL    HW213491   4.923   5.077   5.846
 4198SOL     OW13492   6.395   2.089   0.413
 4198SOL    HW113493   6.349   2.131   0.491
 4198SOL    HW213494   6.457   2.018   0.445
 4199SOL     OW13495   1.990   2.140   6.141
 4199SOL    HW113496   2.037   2.121   6.227
 4199SOL    HW213497   2.055   2.139   6.065
 4200SOL     OW13498   3.145   0.570   6.193
 4200SOL    HW113499   3.212   0.513   6.146
 4200SOL    HW213500   3.137   0.658   6.146
 4201SOL     OW13501   5.967   6.541   3.585
 4201SOL    HW113502   6.036   6.612   3.574
 4201SOL    HW213503   5.876   6.583   3.582
 4202SOL     OW13504   3.748   5.587   5.755
 4202SOL    HW113505   3.744   5.652   5.831
 4202SOL    HW213506   3.837   5.540   5.757
 4203SOL     OW13507   3.499   4.609   6.914
 4203SOL    HW113508   3.452   4.607   6.825
 4203SOL    HW213509   3.595   4.582   6.901
 4204SOL     OW13510   4.126   3.651   3.736
 4204SOL    HW113511   4.148   3.585   3.664
 4204SOL    HW213512   4.127   3.744   3.698
 4205SOL     OW13513   4.028   6.256   3.491
 4205SOL    HW113514   4.052   6.198   3.569
 4205SOL    HW213515   4.104   6.319   3.471
 4206SOL     OW13516   6.735   0.632   5.532
 4206SOL    HW113517   6.663   0.613   5.465
 4206SOL    HW213518   6.698   0.620   5.624
 4207SOL     OW13519   1.860   1.711   1.581
 4207SOL    HW113520   1.901   1.623   1.558
 4207SOL    HW213521   1.781   1.728   1.522
 4208SOL     OW13522   0.246   3.604   5.227
 4208SOL    HW113523   0.290   3.645   5.148
 4208SOL    HW213524   0.239   3.672   5.301
 4209SOL     OW13525   6.758   0.350   3.630
 4209SOL    HW113526   6.726   0.291   3.555
 4209SOL    HW213527   6.721   0.316   3.717
 4210SOL     OW13528   4.057   3.180   1.987
 4210SOL    HW113529   4.102   3.121   2.054
 4210SOL    HW213530   3.991   3.239   2.034
 4211SOL     OW13531   4.271   6.958   6.267
 4211SOL    HW113532   4.272   6.859   6.283
 4211SOL    HW213533   4.177   6.987   6.250
 4212SOL     OW13534   6.212   1.632   2.759
 4212SOL    HW113535   6.282   1.670   2.819
 4212SOL    HW213536   6.253   1.565   2.697
 4213SOL     OW13537   2.103   0.518   1.595
 4213SOL    HW113538   2.048   0.587   1.642
 4213SOL    HW213539   2.050   0.478   1.521
 4214SOL     OW13540   1.196   5.016   5.644
 4214SOL    HW113541   1.122   4.973   5.695
 4214SOL    HW213542   1.196   5.115   5.662
 4215SOL     OW13543   4.843   0.165   5.756
 4215SOL    HW113544   4.835   0.259   5.791
 4215SOL    HW213545   4.860   0.168   5.657
 4216SOL     OW13546   1.575   1.324   3.006
 4216SOL    HW113547   1.507   1.394   3.028
 4216SOL    HW213548   1.642   1.363   2.942
 4217SOL     OW13549   1.224   0.748   2.440
 4217SOL    HW113550   1.309   0.787   2.476
 4217SOL    HW213551   1.233   0.734   2.342
 4218SOL     OW13552   4.119   1.026   1.864
 4218SOL    HW113553   4.027   1.053   1.835
 4218SOL    HW213554   4.113   0.953   1.932
 4219SOL     OW13555   3.725   6.199   3.932
 4219SOL    HW113556   3.782   6.184   4.012
 4219SOL    HW213557   3.721   6.115   3.877
 4220SOL     OW13558   6.455   3.272   3.441
 4220SOL    HW113559   6.393   3.234   3.510
 4220SOL    HW213560   6.529   3.322   3.486
 4221SOL     OW13561   5.541   5.190   6.235
 4221SOL    HW113562   5.557   5.148   6.145
 4221SOL    HW213563   5.629   5.221   6.273
 4222SOL     OW13564   0.197   2.326   2.603
 4222SOL    HW113565   0.177   2.262   2.529
 4222SOL    HW213566   0.131   2.313   2.678
 4223SOL     OW13567   3.320   3.119   6.818
 4223SOL    HW113568   3.385   3.192   6.839
 4223SOL    HW213569   3.346   3.035   6.867
 4224SOL     OW13570   4.752   4.327   4.134
 4224SOL    HW113571   4.749   4.272   4.218
 4224SOL    HW213572   4.705   4.278   4.061
 4225SOL     OW13573   3.281   1.891   5.839
 4225SOL    HW113574   3.380   1.875   5.840
 4225SOL    HW213575   3.249   1.893   5.744
 4226SOL     OW13576   1.562   0.594   2.187
 4226SOL    HW113577   1.482   0.537   2.172
 4226SOL    HW213578   1.634   0.540   2.232
 4227SOL     OW13579   3.996   4.994   1.268
 4227SOL    HW113580   3.965   5.058   1.197
 4227SOL    HW213581   4.041   5.046   1.341
 4228SOL     OW13582   0.952   4.780   5.122
 4228SOL    HW113583   0.950   4.753   5.026
 4228SOL    HW213584   0.886   4.725   5.174
 4229SOL     OW13585   5.058   5.935   6.161
 4229SOL    HW113586   4.975   5.906   6.112
 4229SOL    HW213587   5.044   6.027   6.198
 4230SOL     OW13588   0.905   6.058   2.536
 4230SOL    HW113589   0.866   6.076   2.626
 4230SOL    HW213590   0.904   6.141   2.481
 4231SOL     OW13591   5.838   0.137   5.167
 4231SOL    HW113592   5.911   0.089   5.118
 4231SOL    HW213593   5.858   0.235   5.170
 4232SOL     OW13594   0.059   4.841   3.114
 4232SOL    HW113595   7.017   4.895   3.060
 4232SOL    HW213596   0.029   4.746   3.117
 4233SOL     OW13597   0.238   0.242   6.089
 4233SOL    HW113598   0.150   0.211   6.127
 4233SOL    HW213599   0.228   0.259   5.991
 4234SOL     OW13600   2.085   6.070   4.436
 4234SOL    HW113601   2.012   6.010   4.404
 4234SOL    HW213602   2.106   6.050   4.532
 4235SOL     OW13603   5.445   3.880   5.815
 4235SOL    HW113604   5.468   3.793   5.770
 4235SOL    HW213605   5.516   3.947   5.796
 4236SOL     OW13606   6.651   3.757   2.541
 4236SOL    HW113607   6.674   3.698   2.618
 4236SOL    HW213608   6.715   3.834   2.537
 4237SOL     OW13609   5.341   6.189   2.802
 4237SOL    HW113610   5.431   6.211   2.763
 4237SOL    HW213611   5.289   6.135   2.736
 4238SOL     OW13612   2.620   6.050   3.008
 4238SOL    HW113613   2.558   5.978   3.038
 4238SOL    HW213614   2.604   6.071   2.911
 4239SOL     OW13615   6.285   2.291   2.427
 4239SOL    HW113616   6.205   2.264   2.372
 4239SOL    HW213617   6.257   2.306   2.521
 4240SOL     OW13618   2.569   5.810   0.164
 4240SOL    HW113619   2.619   5.763   0.236
 4240SOL    HW213620   2.548   5.746   0.090
 4241SOL     OW13621   6.485   0.679   0.317
 4241SOL    HW113622   6.475   0.682   0.217
 4241SOL    HW213623   6.410   0.729   0.360
 4242SOL     OW13624   2.983   1.371   3.918
 4242SOL    HW113625   2.975   1.289   3.862
 4242SOL    HW213626   3.077   1.406   3.912
 4243SOL     OW13627   6.545   2.891   3.485
 4243SOL    HW113628   6.635   2.849   3.482
 4243SOL    HW213629   6.554   2.986   3.517
 4244SOL     OW13630   4.435   4.255   1.363
 4244SOL    HW113631   4.354   4.197   1.358
 4244SOL    HW213632   4.455   4.276   1.458
 4245SOL     OW13633   0.218   1.232   6.570
 4245SOL    HW113634   0.147   1.195   6.630
 4245SOL    HW213635   0.303   1.240   6.620
 4246SOL     OW13636   6.719   4.092   3.369
 4246SOL    HW113637   6.636   4.131   3.410
 4246SOL    HW213638   6.756   4.022   3.430
 4247SOL     OW13639   2.899   5.570   3.481
 4247SOL    HW113640   2.930   5.499   3.418
 4247SOL    HW213641   2.979   5.615   3.522
 4248SOL     OW13642   3.225   1.851   2.930
 4248SOL    HW113643   3.247   1.873   2.834
 4248SOL    HW213644   3.227   1.934   2.984
 4249SOL     OW13645   5.400   2.446   3.499
 4249SOL    HW113646   5.348   2.393   3.566
 4249SOL    HW213647   5.390   2.405   3.409
 4250SOL     OW13648   6.156   4.505   2.912
 4250SOL    HW113649   6.087   4.541   2.849
 4250SOL    HW213650   6.167   4.568   2.989
 4251SOL     OW13651   5.350   4.526   1.832
 4251SOL    HW113652   5.292   4.595   1.875
 4251SOL    HW213653   5.309   4.435   1.844
 4252SOL     OW13654   5.358   6.952   6.280
 4252SOL    HW113655   5.274   6.912   6.316
 4252SOL    HW213656   5.336   0.012   6.228
 4253SOL     OW13657   3.210   0.002   1.239
 4253SOL    HW113658   3.299   0.020   1.198
 4253SOL    HW213659   3.222   6.988   1.332
 4254SOL     OW13660   0.910   3.560   1.900
 4254SOL    HW113661   0.824   3.603   1.930
 4254SOL    HW213662   0.892   3.504   1.820
 4255SOL     OW13663   6.968   4.142   3.834
 4255SOL    HW113664   6.966   4.239   3.858
 4255SOL    HW213665   0.026   4.099   3.876
 4256SOL     OW13666   1.931   6.645   0.798
 4256SOL    HW113667   1.903   6.650   0.702
 4256SOL    HW213668   1.940   6.549   0.825
 4257SOL     OW13669   2.467   0.403   4.257
 4257SOL    HW113670   2.487   0.307   4.278
 4257SOL    HW213671   2.485   0.459   4.337
 4258SOL     OW13672   4.426   6.115   0.942
 4258SOL    HW113673   4.501   6.096   0.878
 4258SOL    HW213674   4.368   6.188   0.904
 4259SOL     OW13675   2.751   0.803   0.825
 4259SOL    HW113676   2.701   0.874   0.775
 4259SOL    HW213677   2.795   0.844   0.905
 4260SOL     OW13678   5.758   0.185   1.403
 4260SOL    HW113679   5.692   0.261   1.393
 4260SOL    HW213680   5.732   0.111   1.341
 4261SOL     OW13681   1.904   0.136   2.913
 4261SOL    HW113682   1.955   0.101   2.992
 4261SOL    HW213683   1.885   0.060   2.850
 4262SOL     OW13684   0.540   4.874   6.323
 4262SOL    HW113685   0.579   4.929   6.396
 4262SOL    HW213686   0.595   4.791   6.310
 4263SOL     OW13687   3.048   6.577   3.066
 4263SOL    HW113688   3.135   6.565   3.019
 4263SOL    HW213689   3.051   6.659   3.123
 4264SOL     OW13690   0.045   2.578   2.861
 4264SOL    HW113691   0.141   2.568   2.836
 4264SOL    HW213692   0.007   2.660   2.818
 4265SOL     OW13693   4.626   1.521   1.456
 4265SOL    HW113694   4.540   1.472   1.453
 4265SOL    HW213695   4.702   1.458   1.440
 4266SOL     OW13696   1.815   5.210   0.409
 4266SOL    HW113697   1.902   5.168   0.385
 4266SOL    HW213698   1.799   5.290   0.350
 4267SOL     OW13699   1.830   2.880   3.957
 4267SOL    HW113700   1.736   2.907   3.940
 4267SOL    HW213701   1.848   2.877   4.055
 4268SOL     OW13702   1.499   6.036   0.342
 4268SOL    HW113703   1.521   6.050   0.246
 4268SOL    HW213704   1.403   6.059   0.359
 4269SOL     OW13705   3.009   0.640   2.238
 4269SOL    HW113706   2.940   0.708   2.262
 4269SOL    HW213707   3.100   0.673   2.266
 4270SOL     OW13708   4.129   3.584   3.385
 4270SOL    HW113709   4.117   3.522   3.307
 4270SOL    HW213710   4.151   3.531   3.467
 4271SOL     OW13711   6.486   1.245   0.086
 4271SOL    HW113712   6.417   1.298   0.134
 4271SOL    HW213713   6.503   1.159   0.136
 4272SOL     OW13714   6.389   2.626   4.581
 4272SOL    HW113715   6.480   2.632   4.622
 4272SOL    HW213716   6.332   2.701   4.614
 4273SOL     OW13717   4.802   6.569   4.607
 4273SOL    HW113718   4.797   6.470   4.617
 4273SOL    HW213719   4.769   6.595   4.517
 4274SOL     OW13720   0.651   6.121   1.696
 4274SOL    HW113721   0.683   6.193   1.634
 4274SOL    HW213722   0.729   6.085   1.747
 4275SOL     OW13723   6.531   1.787   4.620
 4275SOL    HW113724   6.583   1.709   4.584
 4275SOL    HW213725   6.438   1.758   4.641
 4276SOL     OW13726   1.569   4.295   3.663
 4276SOL    HW113727   1.665   4.295   3.636
 4276SOL    HW213728   1.555   4.366   3.732
 4277SOL     OW13729   6.322   4.518   3.680
 4277SOL    HW113730   6.263   4.512   3.760
 4277SOL    HW213731   6.381   4.437   3.676
 4278SOL     OW13732   6.717   0.088   4.249
 4278SOL    HW113733   6.757   0.010   4.201
 4278SOL    HW213734   6.764   0.102   4.335
 4279SOL     OW13735   3.217   0.626   4.014
 4279SOL    HW113736   3.308   0.666   4.018
 4279SOL    HW213737   3.155   0.686   3.963
 4280SOL     OW13738   4.340   0.483   5.414
 4280SOL    HW113739   4.401   0.546   5.367
 4280SOL    HW213740   4.380   0.392   5.416
 4281SOL     OW13741   0.444   4.333   3.678
 4281SOL    HW113742   0.502   4.265   3.633
 4281SOL    HW213743   0.362   4.288   3.714
 4282SOL     OW13744   3.113   4.314   5.854
 4282SOL    HW113745   3.121   4.285   5.759
 4282SOL    HW213746   3.050   4.254   5.903
 4283SOL     OW13747   0.888   0.991   3.489
 4283SOL    HW113748   0.845   0.903   3.470
 4283SOL    HW213749   0.834   1.041   3.557
 4284SOL     OW13750   3.888   4.772   1.124
 4284SOL    HW113751   3.794   4.742   1.107
 4284SOL    HW213752   3.887   4.850   1.188
 4285SOL     OW13753   1.309   0.550   5.537
 4285SOL    HW113754   1.382   0.497   5.579
 4285SOL    HW213755   1.275   0.618   5.603
 4286SOL     OW13756   4.545   6.925   6.130
 4286SOL    HW113757   4.553   6.826   6.127
 4286SOL    HW213758   4.450   6.951   6.147
 4287SOL     OW13759   5.712   2.206   6.501
 4287SOL    HW113760   5.779   2.279   6.485
 4287SOL    HW213761   5.622   2.235   6.468
 4288SOL     OW13762   6.846   5.631   3.888
 4288SOL    HW113763   6.747   5.646   3.881
 4288SOL    HW213764   6.887   5.702   3.945
 4289SOL     OW13765   6.830   3.046   6.600
 4289SOL    HW113766   6.763   3.018   6.531
 4289SOL    HW213767   6.847   2.970   6.662
 4290SOL     OW13768   1.407   6.549   2.909
 4290SOL    HW113769   1.308   6.562   2.919
 4290SOL    HW213770   1.439   6.600   2.829
 4291SOL     OW13771   4.431   3.411   0.870
 4291SOL    HW113772   4.377   3.471   0.811
 4291SOL    HW213773   4.483   3.347   0.814
 4292SOL     OW13774   5.795   3.023   0.376
 4292SOL    HW113775   5.750   2.940   0.408
 4292SOL    HW213776   5.830   3.075   0.454
 4293SOL     OW13777   2.567   3.673   0.626
 4293SOL    HW113778   2.498   3.744   0.632
 4293SOL    HW213779   2.523   3.584   0.612
 4294SOL     OW13780   2.101   2.731   6.774
 4294SOL    HW113781   2.130   2.798   6.706
 4294SOL    HW213782   2.004   2.710   6.762
 4295SOL     OW13783   4.444   5.827   4.679
 4295SOL    HW113784   4.483   5.789   4.763
 4295SOL    HW213785   4.418   5.753   4.617
 4296SOL     OW13786   3.075   0.011   0.665
 4296SOL    HW113787   3.022   6.973   0.725
 4296SOL    HW213788   3.069   7.001   0.571
 4297SOL     OW13789   4.839   0.611   6.983
 4297SOL    HW113790   4.778   0.581   6.910
 4297SOL    HW213791   4.929   0.570   6.971
 4298SOL     OW13792   4.007   5.155   6.947
 4298SOL    HW113793   3.993   5.189   0.018
 4298SOL    HW213794   3.972   5.062   6.939
 4299SOL     OW13795   0.699   2.662   6.708
 4299SOL    HW113796   0.722   2.589   6.772
 4299SOL    HW213797   0.671   2.622   6.620
 4300SOL     OW13798   3.419   6.503   0.400
 4300SOL    HW113799   3.484   6.466   0.467
 4300SOL    HW213800   3.468   6.560   0.334
 4301SOL     OW13801   3.991   1.587   1.666
 4301SOL    HW113802   4.035   1.671   1.636
 4301SOL    HW213803   3.932   1.552   1.594
 4302SOL     OW13804   1.179   6.724   6.689
 4302SOL    HW113805   1.205   6.632   6.661
 4302SOL    HW213806   1.083   6.740   6.668
 4303SOL     OW13807   0.304   4.417   4.042
 4303SOL    HW113808   0.263   4.407   3.952
 4303SOL    HW213809   0.254   4.486   4.095
 4304SOL     OW13810   3.051   3.921   3.092
 4304SOL    HW113811   3.089   3.971   3.170
 4304SOL    HW213812   3.124   3.870   3.047
 4305SOL     OW13813   6.999   6.827   5.220
 4305SOL    HW113814   6.953   6.814   5.308
 4305SOL    HW213815   0.008   6.738   5.186
 4306SOL     OW13816   5.638   4.075   5.789
 4306SOL    HW113817   5.725   4.026   5.790
 4306SOL    HW213818   5.626   4.123   5.876
 4307SOL     OW13819   4.933   4.042   5.779
 4307SOL    HW113820   4.999   3.983   5.825
 4307SOL    HW213821   4.847   3.992   5.767
 4308SOL     OW13822   6.231   4.693   0.536
 4308SOL    HW113823   6.325   4.685   0.570
 4308SOL    HW213824   6.173   4.734   0.606
 4309SOL     OW13825   1.161   1.197   0.691
 4309SOL    HW113826   1.131   1.127   0.756
 4309SOL    HW213827   1.232   1.254   0.733
 4310SOL     OW13828   1.273   2.778   2.103
 4310SOL    HW113829   1.205   2.710   2.076
 4310SOL    HW213830   1.365   2.741   2.089
 4311SOL     OW13831   2.115   5.806   2.725
 4311SOL    HW113832   2.111   5.741   2.800
 4311SOL    HW213833   2.071   5.891   2.752
 4312SOL     OW13834   1.960   5.111   1.268
 4312SOL    HW113835   1.868   5.134   1.235
 4312SOL    HW213836   2.023   5.112   1.191
 4313SOL     OW13837   4.438   1.301   1.843
 4313SOL    HW113838   4.504   1.287   1.917
 4313SOL    HW213839   4.433   1.399   1.822
 4314SOL     OW13840   6.088   1.318   4.416
 4314SOL    HW113841   6.027   1.375   4.360
 4314SOL    HW213842   6.045   1.228   4.430
 4315SOL     OW13843   2.363   6.424   2.633
 4315SOL    HW113844   2.402   6.354   2.574
 4315SOL    HW213845   2.334   6.503   2.578
 4316SOL     OW13846   5.517   0.425   2.023
 4316SOL    HW113847   5.586   0.376   1.970
 4316SOL    HW213848   5.451   0.360   2.060
 4317SOL     OW13849   4.822   2.506   4.517
 4317SOL    HW113850   4.754   2.578   4.506
 4317SOL    HW213851   4.777   2.417   4.511
 4318SOL     OW13852   1.036   3.733   5.052
 4318SOL    HW113853   1.129   3.704   5.026
 4318SOL    HW213854   1.031   3.833   5.053
 4319SOL     OW13855   1.886   1.990   1.496
 4319SOL    HW113856   1.837   1.910   1.531
 4319SOL    HW213857   1.935   1.966   1.413
 4320SOL     OW13858   5.578   5.223   0.492
 4320SOL    HW113859   5.626   5.298   0.538
 4320SOL    HW213860   5.480   5.237   0.500
 4321SOL     OW13861   0.068   6.584   5.147
 4321SOL    HW113862   0.070   6.559   5.050
 4321SOL    HW213863   0.161   6.590   5.183
 4322SOL     OW13864   6.192   2.612   6.550
 4322SOL    HW113865   6.119   2.680   6.555
 4322SOL    HW213866   6.178   2.543   6.621
 4323SOL     OW13867   4.601   3.912   1.165
 4323SOL    HW113868   4.695   3.920   1.197
 4323SOL    HW213869   4.573   3.816   1.166
 4324SOL     OW13870   5.529   4.483   6.664
 4324SOL    HW113871   5.504   4.580   6.669
 4324SOL    HW213872   5.498   4.437   6.747
 4325SOL     OW13873   2.451   0.792   1.555
 4325SOL    HW113874   2.424   0.739   1.475
 4325SOL    HW213875   2.425   0.888   1.542
 4326SOL     OW13876   5.097   4.659   3.994
 4326SOL    HW113877   5.059   4.570   4.020
 4326SOL    HW213878   5.024   4.718   3.961
 4327SOL     OW13879   6.092   6.167   1.707
 4327SOL    HW113880   6.146   6.250   1.721
 4327SOL    HW213881   6.001   6.191   1.673
 4328SOL     OW13882   4.710   3.870   5.517
 4328SOL    HW113883   4.630   3.909   5.472
 4328SOL    HW213884   4.728   3.778   5.482
 4329SOL     OW13885   4.415   1.509   5.929
 4329SOL    HW113886   4.489   1.478   5.870
 4329SOL    HW213887   4.327   1.486   5.888
 4330SOL     OW13888   2.543   6.533   4.353
 4330SOL    HW113889   2.479   6.496   4.286
 4330SOL    HW213890   2.540   6.633   4.350
 4331SOL     OW13891   5.582   1.372   1.847
 4331SOL    HW113892   5.619   1.436   1.915
 4331SOL    HW213893   5.546   1.291   1.894
 4332SOL     OW13894   5.449   3.482   2.111
 4332SOL    HW113895   5.483   3.449   2.199
 4332SOL    HW213896   5.407   3.406   2.061
 4333SOL     OW13897   3.601   1.039   4.560
 4333SOL    HW113898   3.554   1.034   4.472
 4333SOL    HW213899   3.579   1.125   4.606
 4334SOL     OW13900   1.283   2.775   2.372
 4334SOL    HW113901   1.270   2.775   2.272
 4334SOL    HW213902   1.381   2.781   2.392
 4335SOL     OW13903   3.245   3.300   2.719
 4335SOL    HW113904   3.170   3.235   2.734
 4335SOL    HW213905   3.213   3.375   2.661
 4336SOL     OW13906   3.154   6.322   6.619
 4336SOL    HW113907   3.222   6.317   6.547
 4336SOL    HW213908   3.100   6.406   6.608
 4337SOL     OW13909   0.531   4.343   0.984
 4337SOL    HW113910   0.581   4.427   0.965
 4337SOL    HW213911   0.552   4.312   1.076
 4338SOL     OW13912   5.939   6.466   5.307
 4338SOL    HW113913   5.857   6.410   5.311
 4338SOL    HW213914   5.916   6.561   5.328
 4339SOL     OW13915   5.718   3.587   5.392
 4339SOL    HW113916   5.814   3.585   5.362
 4339SOL    HW213917   5.683   3.493   5.395
 4340SOL     OW13918   6.738   2.703   1.444
 4340SOL    HW113919   6.814   2.758   1.479
 4340SOL    HW213920   6.652   2.745   1.472
 4341SOL     OW13921   0.365   6.151   2.235
 4341SOL    HW113922   0.326   6.139   2.326
 4341SOL    HW213923   0.446   6.093   2.225
 4342SOL     OW13924   5.965   4.172   3.575
 4342SOL    HW113925   6.044   4.175   3.636
 4342SOL    HW213926   5.943   4.076   3.554
 4343SOL     OW13927   2.510   6.229   4.972
 4343SOL    HW113928   2.438   6.233   5.041
 4343SOL    HW213929   2.539   6.322   4.950
 4344SOL     OW13930   0.619   4.892   2.242
 4344SOL    HW113931   0.539   4.950   2.254
 4344SOL    HW213932   0.594   4.809   2.192
 4345SOL     OW13933   3.173   3.624   4.973
 4345SOL    HW113934   3.116   3.572   5.036
 4345SOL    HW213935   3.205   3.708   5.017
 4346SOL     OW13936   1.753   2.673   2.118
 4346SOL    HW113937   1.763   2.668   2.217
 4346SOL    HW213938   1.841   2.698   2.076
 4347SOL     OW13939   0.036   6.702   2.971
 4347SOL    HW113940   7.010   6.789   2.978
 4347SOL    HW213941   6.993   6.627   2.976
 4348SOL     OW13942   0.078   4.277   3.339
 4348SOL    HW113943   7.010   4.320   3.327
 4348SOL    HW213944   0.149   4.342   3.314
 4349SOL     OW13945   6.519   2.213   2.285
 4349SOL    HW113946   6.564   2.223   2.373
 4349SOL    HW213947   6.420   2.213   2.297
 4350SOL     OW13948   3.896   1.536   4.296
 4350SOL    HW113949   3.969   1.469   4.310
 4350SOL    HW213950   3.935   1.628   4.289
 4351SOL     OW13951   1.757   4.628   0.710
 4351SOL    HW113952   1.802   4.577   0.637
 4351SOL    HW213953   1.788   4.723   0.708
 4352SOL     OW13954   6.918   3.650   2.238
 4352SOL    HW113955   6.912   3.554   2.210
 4352SOL    HW213956   6.836   3.699   2.209
 4353SOL     OW13957   3.914   2.854   6.456
 4353SOL    HW113958   3.992   2.834   6.515
 4353SOL    HW213959   3.931   2.939   6.406
 4354SOL     OW13960   2.431   6.838   5.464
 4354SOL    HW113961   2.348   6.798   5.501
 4354SOL    HW213962   2.408   6.917   5.407
 4355SOL     OW13963   1.880   0.395   2.758
 4355SOL    HW113964   1.904   0.479   2.806
 4355SOL    HW213965   1.924   0.317   2.803
 4356SOL     OW13966   5.176   4.049   0.862
 4356SOL    HW113967   5.203   3.958   0.829
 4356SOL    HW213968   5.081   4.066   0.836
 4357SOL     OW13969   6.962   0.970   1.422
 4357SOL    HW113970   6.940   0.969   1.325
 4357SOL    HW213971   7.001   0.882   1.448
 4358SOL     OW13972   0.320   6.818   0.434
 4358SOL    HW113973   0.395   6.803   0.370
 4358SOL    HW213974   0.233   6.792   0.391
 4359SOL     OW13975   2.177   1.117   6.350
 4359SOL    HW113976   2.105   1.071   6.403
 4359SOL    HW213977   2.142   1.206   6.319
 4360SOL     OW13978   1.437   3.125   3.315
 4360SOL    HW113979   1.474   3.140   3.224
 4360SOL    HW213980   1.504   3.073   3.370
 4361SOL     OW13981   2.449   2.979   1.195
 4361SOL    HW113982   2.483   3.066   1.160
 4361SOL    HW213983   2.421   2.990   1.290
 4362SOL     OW13984   6.008   5.792   3.346
 4362SOL    HW113985   6.008   5.824   3.441
 4362SOL    HW213986   5.937   5.724   3.334
 4363SOL     OW13987   5.279   2.217   1.470
 4363SOL    HW113988   5.227   2.155   1.411
 4363SOL    HW213989   5.217   2.264   1.533
 4364SOL     OW13990   3.204   3.393   4.524
 4364SOL    HW113991   3.253   3.345   4.451
 4364SOL    HW213992   3.108   3.403   4.500
 4365SOL     OW13993   2.468   1.132   2.228
 4365SOL    HW113994   2.522   1.048   2.223
 4365SOL    HW213995   2.507   1.199   2.165
 4366SOL     OW13996   6.162   0.229   0.169
 4366SOL    HW113997   6.187   0.211   0.074
 4366SOL    HW213998   6.076   0.280   0.172
 4367SOL     OW13999   2.028   4.070   4.474
 4367SOL    HW114000   1.938   4.081   4.433
 4367SOL    HW214001   2.052   4.153   4.524
 4368SOL     OW14002   3.697   4.244   0.543
 4368SOL    HW114003   3.637   4.164   0.536
 4368SOL    HW214004   3.649   4.317   0.591
 4369SOL     OW14005   4.422   5.373   2.778
 4369SOL    HW114006   4.512   5.344   2.744
 4369SOL    HW214007   4.370   5.412   2.702
 4370SOL     OW14008   3.985   5.516   1.834
 4370SOL    HW114009   3.977   5.452   1.758
 4370SOL    HW214010   3.976   5.467   1.920
 4371SOL     OW14011   0.921   2.006   1.943
 4371SOL    HW114012   0.980   2.084   1.961
 4371SOL    HW214013   0.942   1.933   2.007
 4372SOL     OW14014   2.934   1.699   2.543
 4372SOL    HW114015   2.943   1.772   2.610
 4372SOL    HW214016   2.837   1.676   2.531
 4373SOL     OW14017   6.075   2.376   6.670
 4373SOL    HW114018   6.003   2.382   6.739
 4373SOL    HW214019   6.101   2.280   6.657
 4374SOL     OW14020   1.096   1.820   0.827
 4374SOL    HW114021   1.006   1.862   0.831
 4374SOL    HW214022   1.138   1.840   0.739
 4375SOL     OW14023   4.441   0.222   3.076
 4375SOL    HW114024   4.529   0.232   3.121
 4375SOL    HW214025   4.414   0.126   3.075
 4376SOL     OW14026   0.289   6.719   1.671
 4376SOL    HW114027   0.344   6.803   1.679
 4376SOL    HW214028   0.350   6.640   1.665
 4377SOL     OW14029   5.676   4.433   0.157
 4377SOL    HW114030   5.587   4.441   0.203
 4377SOL    HW214031   5.720   4.523   0.153
 4378SOL     OW14032   1.787   2.480   2.575
 4378SOL    HW114033   1.735   2.497   2.660
 4378SOL    HW214034   1.734   2.419   2.516
 4379SOL     OW14035   1.567   2.125   2.759
 4379SOL    HW114036   1.581   2.129   2.858
 4379SOL    HW214037   1.655   2.128   2.712
 4380SOL     OW14038   0.789   7.001   2.772
 4380SOL    HW114039   0.718   6.953   2.824
 4380SOL    HW214040   0.868   6.940   2.759
 4381SOL     OW14041   1.596   4.768   5.647
 4381SOL    HW114042   1.683   4.790   5.604
 4381SOL    HW214043   1.536   4.724   5.580
 4382SOL     OW14044   6.775   3.523   5.011
 4382SOL    HW114045   6.744   3.616   5.030
 4382SOL    HW214046   6.840   3.494   5.082
 4383SOL     OW14047   0.778   2.721   6.179
 4383SOL    HW114048   0.792   2.670   6.264
 4383SOL    HW214049   0.681   2.738   6.166
 4384SOL     OW14050   5.901   1.362   5.177
 4384SOL    HW114051   5.853   1.277   5.153
 4384SOL    HW214052   5.863   1.437   5.124
 4385SOL     OW14053   5.919   2.718   4.774
 4385SOL    HW114054   5.950   2.715   4.679
 4385SOL    HW214055   5.874   2.632   4.797
 4386SOL     OW14056   1.978   3.094   6.196
 4386SOL    HW114057   1.936   3.019   6.248
 4386SOL    HW214058   2.028   3.154   6.259
 4387SOL     OW14059   6.914   1.254   1.007
 4387SOL    HW114060   6.896   1.270   1.104
 4387SOL    HW214061   6.916   1.342   0.959
 4388SOL     OW14062   4.945   2.453   6.630
 4388SOL    HW114063   4.936   2.435   6.728
 4388SOL    HW214064   4.946   2.552   6.614
 4389SOL     OW14065   6.553   3.312   0.479
 4389SOL    HW114066   6.570   3.241   0.546
 4389SOL    HW214067   6.605   3.394   0.502
 4390SOL     OW14068   3.878   0.817   1.649
 4390SOL    HW114069   3.949   0.755   1.683
 4390SOL    HW214070   3.847   0.787   1.559
 4391SOL     OW14071   2.238   5.409   7.016
 4391SOL    HW114072   2.223   5.376   0.087
 4391SOL    HW214073   2.256   5.330   6.956
 4392SOL     OW14074   6.857   3.142   4.360
 4392SOL    HW114075   6.905   3.215   4.408
 4392SOL    HW214076   6.760   3.146   4.382
 4393SOL     OW14077   5.918   0.581   2.665
 4393SOL    HW114078   5.907   0.562   2.763
 4393SOL    HW214079   5.912   0.680   2.650
 4394SOL     OW14080   6.489   5.957   2.536
 4394SOL    HW114081   6.551   6.033   2.515
 4394SOL    HW214082   6.482   5.897   2.456
 4395SOL     OW14083   2.664   6.608   2.235
 4395SOL    HW114084   2.715   6.559   2.165
 4395SOL    HW214085   2.651   6.704   2.207
 4396SOL     OW14086   2.175   1.963   3.758
 4396SOL    HW114087   2.212   2.028   3.691
 4396SOL    HW214088   2.193   1.996   3.850
 4397SOL     OW14089   0.421   1.827   4.705
 4397SOL    HW114090   0.349   1.766   4.740
 4397SOL    HW214091   0.392   1.922   4.714
 4398SOL     OW14092   0.148   3.743   5.819
 4398SOL    HW114093   0.166   3.834   5.784
 4398SOL    HW214094   0.169   3.740   5.917
 4399SOL     OW14095   2.404   0.264   2.278
 4399SOL    HW114096   2.375   0.325   2.205
 4399SOL    HW214097   2.396   0.169   2.247
 4400SOL     OW14098   3.221   6.288   5.397
 4400SOL    HW114099   3.136   6.332   5.366
 4400SOL    HW214100   3.201   6.195   5.428
 4401SOL     OW14101   3.469   6.965   5.941
 4401SOL    HW114102   3.407   6.987   6.015
 4401SOL    HW214103   3.438   6.881   5.895
 4402SOL     OW14104   2.332   0.329   2.027
 4402SOL    HW114105   2.361   0.247   1.978
 4402SOL    HW214106   2.355   0.410   1.973
 4403SOL     OW14107   1.183   0.730   1.725
 4403SOL    HW114108   1.275   0.741   1.688
 4403SOL    HW214109   1.167   0.634   1.749
 4404SOL     OW14110   1.470   4.994   5.753
 4404SOL    HW114111   1.524   4.924   5.706
 4404SOL    HW214112   1.383   5.007   5.705
 4405SOL     OW14113   1.539   3.972   1.302
 4405SOL    HW114114   1.551   4.051   1.241
 4405SOL    HW214115   1.559   3.888   1.252
 4406SOL     OW14116   0.524   3.458   0.959
 4406SOL    HW114117   0.614   3.415   0.967
 4406SOL    HW214118   0.506   3.513   1.041
 4407SOL     OW14119   6.245   5.330   0.583
 4407SOL    HW114120   6.287   5.328   0.492
 4407SOL    HW214121   6.175   5.401   0.585
 4408SOL     OW14122   2.942   0.833   1.387
 4408SOL    HW114123   2.929   0.788   1.298
 4408SOL    HW214124   2.853   0.850   1.429
 4409SOL     OW14125   5.176   1.158   2.490
 4409SOL    HW114126   5.087   1.129   2.454
 4409SOL    HW214127   5.164   1.243   2.542
 4410SOL     OW14128   1.252   5.015   6.880
 4410SOL    HW114129   1.332   5.024   6.821
 4410SOL    HW214130   1.173   5.058   6.836
 4411SOL     OW14131   3.885   4.149   4.979
 4411SOL    HW114132   3.963   4.209   4.965
 4411SOL    HW214133   3.847   4.122   4.890
 4412SOL     OW14134   4.827   6.146   3.877
 4412SOL    HW114135   4.836   6.068   3.815
 4412SOL    HW214136   4.909   6.153   3.934
 4413SOL     OW14137   6.039   5.275   4.456
 4413SOL    HW114138   6.106   5.239   4.391
 4413SOL    HW214139   6.051   5.374   4.464
 4414SOL     OW14140   3.285   5.259   0.842
 4414SOL    HW114141   3.211   5.217   0.895
 4414SOL    HW214142   3.248   5.335   0.789
 4415SOL     OW14143   4.333   2.882   1.023
 4415SOL    HW114144   4.326   2.976   0.990
 4415SOL    HW214145   4.246   2.835   1.010
 4416SOL     OW14146   3.805   1.147   4.339
 4416SOL    HW114147   3.710   1.145   4.309
 4416SOL    HW214148   3.813   1.204   4.421
 4417SOL     OW14149   5.789   4.743   3.451
 4417SOL    HW114150   5.755   4.650   3.465
 4417SOL    HW214151   5.712   4.804   3.431
 4418SOL     OW14152   6.398   1.817   2.483
 4418SOL    HW114153   6.380   1.734   2.537
 4418SOL    HW214154   6.470   1.798   2.416
 4419SOL     OW14155   5.609   6.915   6.331
 4419SOL    HW114156   5.650   6.829   6.301
 4419SOL    HW214157   5.511   6.914   6.311
 4420SOL     OW14158   4.755   1.072   1.730
 4420SOL    HW114159   4.824   1.052   1.800
 4420SOL    HW214160   4.744   1.171   1.721
 4421SOL     OW14161   2.442   1.137   4.980
 4421SOL    HW114162   2.442   1.173   4.887
 4421SOL    HW214163   2.466   1.040   4.978
 4422SOL     OW14164   1.922   3.615   6.861
 4422SOL    HW114165   1.970   3.595   6.946
 4422SOL    HW214166   1.925   3.713   6.843
 4423SOL     OW14167   7.014   3.194   5.690
 4423SOL    HW114168   6.932   3.251   5.703
 4423SOL    HW214169   6.991   3.099   5.711
 4424SOL     OW14170   5.451   1.220   4.258
 4424SOL    HW114171   5.404   1.203   4.344
 4424SOL    HW214172   5.389   1.265   4.194
 4425SOL     OW14173   2.801   4.268   0.218
 4425SOL    HW114174   2.787   4.239   0.312
 4425SOL    HW214175   2.724   4.323   0.188
 4426SOL     OW14176   0.153   1.841   3.753
 4426SOL    HW114177   0.230   1.781   3.728
 4426SOL    HW214178   0.093   1.793   3.816
 4427SOL     OW14179   0.419   6.236   3.049
 4427SOL    HW114180   0.457   6.328   3.062
 4427SOL    HW214181   0.430   6.210   2.953
 4428SOL     OW14182   3.267   0.743   3.579
 4428SOL    HW114183   3.174   0.780   3.589
 4428SOL    HW214184   3.293   0.744   3.483
 4429SOL     OW14185   3.052   6.907   2.871
 4429SOL    HW114186   3.045   6.930   2.774
 4429SOL    HW214187   2.994   6.828   2.890
 4430SOL     OW14188   4.880   3.905   4.542
 4430SOL    HW114189   4.840   3.881   4.631
 4430SOL    HW214190   4.908   3.821   4.495
 4431SOL     OW14191   2.610   1.168   1.989
 4431SOL    HW114192   2.697   1.119   1.996
 4431SOL    HW214193   2.616   1.236   1.916
 4432SOL     OW14194   2.816   3.424   6.095
 4432SOL    HW114195   2.821   3.390   6.001
 4432SOL    HW214196   2.792   3.521   6.094
 4433SOL     OW14197   5.184   1.925   4.261
 4433SOL    HW114198   5.119   1.942   4.187
 4433SOL    HW214199   5.207   2.011   4.306
 4434SOL     OW14200   5.094   1.182   3.137
 4434SOL    HW114201   5.105   1.111   3.067
 4434SOL    HW214202   5.183   1.213   3.168
 4435SOL     OW14203   5.051   2.855   1.749
 4435SOL    HW114204   5.083   2.795   1.676
 4435SOL    HW214205   4.953   2.869   1.740
 4436SOL     OW14206   4.169   1.214   1.502
 4436SOL    HW114207   4.095   1.227   1.568
 4436SOL    HW214208   4.210   1.124   1.516
 4437SOL     OW14209   7.007   2.806   2.702
 4437SOL    HW114210   6.921   2.774   2.664
 4437SOL    HW214211   0.017   2.885   2.650
 4438SOL     OW14212   5.247   6.953   6.723
 4438SOL    HW114213   5.280   6.916   6.636
 4438SOL    HW214214   5.305   0.008   6.750
 4439SOL     OW14215   0.137   4.235   1.521
 4439SOL    HW114216   0.221   4.241   1.574
 4439SOL    HW214217   0.113   4.139   1.507
 4440SOL     OW14218   2.949   4.723   0.470
 4440SOL    HW114219   2.898   4.680   0.395
 4440SOL    HW214220   2.974   4.653   0.537
 4441SOL     OW14221   0.454   2.374   2.731
 4441SOL    HW114222   0.383   2.340   2.670
 4441SOL    HW214223   0.459   2.316   2.812
 4442SOL     OW14224   1.848   5.515   4.452
 4442SOL    HW114225   1.892   5.521   4.363
 4442SOL    HW214226   1.892   5.578   4.515
 4443SOL     OW14227   1.028   3.546   6.510
 4443SOL    HW114228   0.958   3.524   6.578
 4443SOL    HW214229   1.026   3.477   6.438
 4444SOL     OW14230   3.006   4.022   5.079
 4444SOL    HW114231   3.076   3.951   5.070
 4444SOL    HW214232   2.918   3.980   5.097
 4445SOL     OW14233   1.391   6.570   0.369
 4445SOL    HW114234   1.358   6.636   0.436
 4445SOL    HW214235   1.438   6.618   0.294
 4446SOL     OW14236   5.308   0.904   1.500
 4446SOL    HW114237   5.243   0.859   1.438
 4446SOL    HW214238   5.397   0.858   1.495
 4447SOL     OW14239   5.466   4.545   5.687
 4447SOL    HW114240   5.376   4.506   5.668
 4447SOL    HW214241   5.458   4.643   5.704
 4448SOL     OW14242   2.585   3.928   1.580
 4448SOL    HW114243   2.560   3.832   1.581
 4448SOL    HW214244   2.685   3.937   1.577
 4449SOL     OW14245   4.776   0.930   5.993
 4449SOL    HW114246   4.721   0.860   5.948
 4449SOL    HW214247   4.870   0.927   5.958
 4450SOL     OW14248   3.633   3.016   5.626
 4450SOL    HW114249   3.603   2.922   5.608
 4450SOL    HW214250   3.622   3.037   5.723
 4451SOL     OW14251   6.296   4.935   2.942
 4451SOL    HW114252   6.288   5.025   2.985
 4451SOL    HW214253   6.259   4.939   2.849
 4452SOL     OW14254   4.864   6.452   4.016
 4452SOL    HW114255   4.937   6.385   4.028
 4452SOL    HW214256   4.778   6.415   4.051
 4453SOL     OW14257   1.183   3.369   1.434
 4453SOL    HW114258   1.207   3.385   1.530
 4453SOL    HW214259   1.255   3.316   1.390
 4454SOL     OW14260   1.627   1.947   0.131
 4454SOL    HW114261   1.541   1.900   0.150
 4454SOL    HW214262   1.703   1.885   0.151
 4455SOL     OW14263   4.617   6.645   6.117
 4455SOL    HW114264   4.691   6.597   6.069
 4455SOL    HW214265   4.610   6.611   6.211
 4456SOL     OW14266   2.998   5.981   1.898
 4456SOL    HW114267   2.941   6.057   1.866
 4456SOL    HW214268   2.943   5.898   1.900
 4457SOL     OW14269   4.281   1.139   2.668
 4457SOL    HW114270   4.282   1.040   2.674
 4457SOL    HW214271   4.189   1.174   2.687
 4458SOL     OW14272   1.865   2.625   0.596
 4458SOL    HW114273   1.848   2.723   0.602
 4458SOL    HW214274   1.869   2.586   0.688
 4459SOL     OW14275   3.814   1.365   4.489
 4459SOL    HW114276   3.812   1.445   4.429
 4459SOL    HW214277   3.897   1.366   4.544
 4460SOL     OW14278   2.027   2.703   5.907
 4460SOL    HW114279   2.063   2.698   6.000
 4460SOL    HW214280   1.960   2.629   5.893
 4461SOL     OW14281   1.512   7.006   0.899
 4461SOL    HW114282   1.479   6.934   0.838
 4461SOL    HW214283   1.577   0.042   0.849
 4462SOL     OW14284   5.567   5.319   1.763
 4462SOL    HW114285   5.514   5.235   1.766
 4462SOL    HW214286   5.506   5.397   1.775
 4463SOL     OW14287   4.805   1.458   0.702
 4463SOL    HW114288   4.855   1.534   0.743
 4463SOL    HW214289   4.712   1.487   0.678
 4464SOL     OW14290   0.509   5.440   0.346
 4464SOL    HW114291   0.547   5.360   0.392
 4464SOL    HW214292   0.584   5.501   0.319
 4465SOL     OW14293   3.655   5.774   1.553
 4465SOL    HW114294   3.592   5.737   1.484
 4465SOL    HW214295   3.631   5.738   1.643
 4466SOL     OW14296   1.201   2.204   3.624
 4466SOL    HW114297   1.184   2.107   3.640
 4466SOL    HW214298   1.299   2.219   3.606
 4467SOL     OW14299   1.899   5.694   2.568
 4467SOL    HW114300   1.836   5.771   2.563
 4467SOL    HW214301   1.965   5.710   2.641
 4468SOL     OW14302   1.865   3.991   0.425
 4468SOL    HW114303   1.813   3.929   0.366
 4468SOL    HW214304   1.963   3.970   0.416
 4469SOL     OW14305   3.461   0.211   1.972
 4469SOL    HW114306   3.482   0.303   1.938
 4469SOL    HW214307   3.370   0.211   2.013
 4470SOL     OW14308   0.223   2.543   2.204
 4470SOL    HW114309   0.189   2.485   2.278
 4470SOL    HW214310   0.241   2.486   2.124
 4471SOL     OW14311   0.608   1.932   6.612
 4471SOL    HW114312   0.650   2.020   6.591
 4471SOL    HW214313   0.636   1.864   6.545
 4472SOL     OW14314   0.816   3.285   2.016
 4472SOL    HW114315   0.761   3.223   1.959
 4472SOL    HW214316   0.769   3.302   2.102
 4473SOL     OW14317   5.644   2.795   4.623
 4473SOL    HW114318   5.553   2.835   4.626
 4473SOL    HW214319   5.712   2.867   4.609
 4474SOL     OW14320   1.945   0.633   2.397
 4474SOL    HW114321   1.942   0.718   2.449
 4474SOL    HW214322   1.991   0.648   2.310
 4475SOL     OW14323   1.112   4.120   2.184
 4475SOL    HW114324   1.124   4.044   2.121
 4475SOL    HW214325   1.025   4.165   2.166
 4476SOL     OW14326   5.035   0.418   3.005
 4476SOL    HW114327   4.959   0.474   2.970
 4476SOL    HW214328   5.003   0.362   3.081
 4477SOL     OW14329   2.089   0.003   4.968
 4477SOL    HW114330   2.019   0.035   4.904
 4477SOL    HW214331   2.080   0.052   5.054
 4478SOL     OW14332   3.379   0.040   3.227
 4478SOL    HW114333   3.389   0.061   3.129
 4478SOL    HW214334   3.331   0.115   3.272
 4479SOL     OW14335   0.760   1.850   0.891
 4479SOL    HW114336   0.769   1.790   0.970
 4479SOL    HW214337   0.664   1.876   0.880
 4480SOL     OW14338   1.299   4.478   5.562
 4480SOL    HW114339   1.385   4.441   5.598
 4480SOL    HW214340   1.281   4.567   5.603
 4481SOL     OW14341   3.650   5.534   4.907
 4481SOL    HW114342   3.720   5.512   4.975
 4481SOL    HW214343   3.686   5.517   4.816
 4482SOL     OW14344   1.476   2.771   5.023
 4482SOL    HW114345   1.469   2.795   4.926
 4482SOL    HW214346   1.569   2.791   5.055
 4483SOL     OW14347   5.804   2.493   2.424
 4483SOL    HW114348   5.819   2.397   2.400
 4483SOL    HW214349   5.712   2.520   2.394
 4484SOL     OW14350   3.456   2.229   6.248
 4484SOL    HW114351   3.536   2.241   6.307
 4484SOL    HW214352   3.433   2.132   6.243
 4485SOL     OW14353   5.403   1.878   4.450
 4485SOL    HW114354   5.384   1.843   4.542
 4485SOL    HW214355   5.320   1.872   4.395
 4486SOL     OW14356   5.619   5.301   5.291
 4486SOL    HW114357   5.581   5.211   5.313
 4486SOL    HW214358   5.684   5.328   5.361
 4487SOL     OW14359   2.986   2.889   6.473
 4487SOL    HW114360   3.036   2.916   6.391
 4487SOL    HW214361   2.901   2.941   6.480
 4488SOL     OW14362   0.469   3.268   5.707
 4488SOL    HW114363   0.387   3.257   5.763
 4488SOL    HW214364   0.449   3.328   5.630
 4489SOL     OW14365   5.114   5.771   5.272
 4489SOL    HW114366   5.150   5.682   5.243
 4489SOL    HW214367   5.108   5.832   5.193
 4490SOL     OW14368   6.016   2.203   1.780
 4490SOL    HW114369   5.929   2.170   1.818
 4490SOL    HW214370   6.001   2.289   1.732
 4491SOL     OW14371   6.596   3.286   3.791
 4491SOL    HW114372   6.665   3.230   3.744
 4491SOL    HW214373   6.583   3.252   3.884
 4492SOL     OW14374   6.062   4.899   1.666
 4492SOL    HW114375   6.118   4.839   1.722
 4492SOL    HW214376   5.966   4.877   1.679
 4493SOL     OW14377   4.882   5.422   4.678
 4493SOL    HW114378   4.978   5.408   4.703
 4493SOL    HW214379   4.824   5.370   4.741
 4494SOL     OW14380   0.310   0.896   6.539
 4494SOL    HW114381   0.220   0.852   6.542
 4494SOL    HW214382   0.346   0.893   6.445
 4495SOL     OW14383   4.044   6.021   4.737
 4495SOL    HW114384   4.009   5.928   4.722
 4495SOL    HW214385   4.144   6.021   4.727
 4496SOL     OW14386   5.749   6.206   1.226
 4496SOL    HW114387   5.834   6.248   1.257
 4496SOL    HW214388   5.672   6.251   1.271
 4497SOL     OW14389   5.173   2.079   6.522
 4497SOL    HW114390   5.168   2.086   6.622
 4497SOL    HW214391   5.268   2.091   6.493
 4498SOL     OW14392   0.496   3.062   0.192
 4498SOL    HW114393   0.497   3.010   0.107
 4498SOL    HW214394   0.402   3.093   0.211
 4499SOL     OW14395   5.681   3.615   3.883
 4499SOL    HW114396   5.632   3.688   3.835
 4499SOL    HW214397   5.771   3.649   3.911
 4500SOL     OW14398   3.170   3.007   4.511
 4500SOL    HW114399   3.189   2.910   4.528
 4500SOL    HW214400   3.152   3.052   4.599
 4501SOL     OW14401   6.907   3.546   2.937
 4501SOL    HW114402   6.849   3.467   2.956
 4501SOL    HW214403   6.909   3.606   3.018
 4502SOL     OW14404   0.444   2.936   6.796
 4502SOL    HW114405   0.535   2.962   6.764
 4502SOL    HW214406   0.452   2.886   6.883
 4503SOL     OW14407   3.619   0.027   1.838
 4503SOL    HW114408   3.587   6.954   1.834
 4503SOL    HW214409   3.548   0.084   1.878
 4504SOL     OW14410   6.613   1.019   4.565
 4504SOL    HW114411   6.542   0.976   4.509
 4504SOL    HW214412   6.581   1.026   4.660
 4505SOL     OW14413   6.213   4.951   1.959
 4505SOL    HW114414   6.269   5.032   1.941
 4505SOL    HW214415   6.240   4.878   1.897
 4506SOL     OW14416   4.813   2.991   3.534
 4506SOL    HW114417   4.886   3.059   3.532
 4506SOL    HW214418   4.767   2.994   3.622
 4507SOL     OW14419   5.765   4.584   2.954
 4507SOL    HW114420   5.831   4.658   2.943
 4507SOL    HW214421   5.679   4.621   2.989
 4508SOL     OW14422   1.789   5.436   0.229
 4508SOL    HW114423   1.815   5.380   0.150
 4508SOL    HW214424   1.838   5.524   0.224
 4509SOL     OW14425   4.514   2.469   2.262
 4509SOL    HW114426   4.525   2.490   2.164
 4509SOL    HW214427   4.520   2.371   2.276
 4510SOL     OW14428   4.097   1.828   3.995
 4510SOL    HW114429   4.069   1.806   4.089
 4510SOL    HW214430   4.018   1.861   3.944
 4511SOL     OW14431   5.663   3.876   6.864
 4511SOL    HW114432   5.716   3.950   6.824
 4511SOL    HW214433   5.598   3.914   6.931
 4512SOL     OW14434   2.648   1.261   5.529
 4512SOL    HW114435   2.696   1.189   5.579
 4512SOL    HW214436   2.687   1.350   5.554
 4513SOL     OW14437   0.674   5.045   6.514
 4513SOL    HW114438   0.666   5.132   6.465
 4513SOL    HW214439   0.770   5.019   6.522
 4514SOL     OW14440   4.231   2.474   6.039
 4514SOL    HW114441   4.288   2.393   6.054
 4514SOL    HW214442   4.249   2.511   5.948
 4515SOL     OW14443   0.132   1.879   5.466
 4515SOL    HW114444   0.142   1.867   5.565
 4515SOL    HW214445   0.156   1.972   5.441
 4516SOL     OW14446   2.155   0.105   0.466
 4516SOL    HW114447   2.091   0.029   0.455
 4516SOL    HW214448   2.133   0.176   0.399
 4517SOL     OW14449   4.610   0.701   6.775
 4517SOL    HW114450   4.569   0.735   6.859
 4517SOL    HW214451   4.658   0.776   6.729
 4518SOL     OW14452   0.105   0.256   2.384
 4518SOL    HW114453   0.076   0.349   2.406
 4518SOL    HW214454   0.026   0.203   2.353
 4519SOL     OW14455   6.754   6.897   1.444
 4519SOL    HW114456   6.805   6.971   1.399
 4519SOL    HW214457   6.737   6.824   1.378
 4520SOL     OW14458   4.499   6.390   5.449
 4520SOL    HW114459   4.529   6.382   5.544
 4520SOL    HW214460   4.452   6.307   5.421
 4521SOL     OW14461   6.091   1.951   4.945
 4521SOL    HW114462   6.136   1.966   4.857
 4521SOL    HW214463   6.085   1.853   4.964
 4522SOL     OW14464   5.404   5.242   3.305
 4522SOL    HW114465   5.497   5.278   3.298
 4522SOL    HW214466   5.406   5.150   3.344
 4523SOL     OW14467   0.835   4.410   0.283
 4523SOL    HW114468   0.920   4.400   0.232
 4523SOL    HW214469   0.850   4.471   0.361
 4524SOL     OW14470   6.583   2.685   2.025
 4524SOL    HW114471   6.588   2.606   1.964
 4524SOL    HW214472   6.666   2.690   2.081
 4525SOL     OW14473   4.826   2.374   5.666
 4525SOL    HW114474   4.902   2.346   5.607
 4525SOL    HW214475   4.756   2.418   5.611
 4526SOL     OW14476   7.013   0.181   6.184
 4526SOL    HW114477   6.970   0.271   6.184
 4526SOL    HW214478   6.997   0.136   6.272
 4527SOL     OW14479   6.172   1.372   3.905
 4527SOL    HW114480   6.192   1.308   3.979
 4527SOL    HW214481   6.254   1.383   3.848
 4528SOL     OW14482   4.632   0.323   0.130
 4528SOL    HW114483   4.585   0.314   0.218
 4528SOL    HW214484   4.708   0.388   0.140
 4529SOL     OW14485   2.122   0.418   4.811
 4529SOL    HW114486   2.121   0.352   4.886
 4529SOL    HW214487   2.088   0.374   4.727
 4530SOL     OW14488   1.687   5.034   4.193
 4530SOL    HW114489   1.731   5.040   4.103
 4530SOL    HW214490   1.713   5.113   4.248
 4531SOL     OW14491   0.546   2.822   5.030
 4531SOL    HW114492   0.552   2.886   5.107
 4531SOL    HW214493   0.637   2.806   4.992
 4532SOL     OW14494   6.670   1.280   2.541
 4532SOL    HW114495   6.630   1.310   2.628
 4532SOL    HW214496   6.603   1.225   2.491
 4533SOL     OW14497   1.191   1.724   1.889
 4533SOL    HW114498   1.267   1.689   1.835
 4533SOL    HW214499   1.176   1.665   1.968
 4534SOL     OW14500   4.798   4.280   4.807
 4534SOL    HW114501   4.759   4.309   4.720
 4534SOL    HW214502   4.894   4.253   4.794
 4535SOL     OW14503   3.482   0.742   2.972
 4535SOL    HW114504   3.508   0.676   2.902
 4535SOL    HW214505   3.427   0.814   2.930
 4536SOL     OW14506   4.234   1.498   4.210
 4536SOL    HW114507   4.242   1.401   4.232
 4536SOL    HW214508   4.203   1.548   4.290
 4537SOL     OW14509   4.202   3.523   0.209
 4537SOL    HW114510   4.117   3.476   0.184
 4537SOL    HW214511   4.196   3.619   0.181
 4538SOL     OW14512   1.605   0.293   2.966
 4538SOL    HW114513   1.701   0.291   2.939
 4538SOL    HW214514   1.592   0.360   3.039
 4539SOL     OW14515   3.167   6.017   4.743
 4539SOL    HW114516   3.120   6.071   4.813
 4539SOL    HW214517   3.231   6.075   4.694
 4540SOL     OW14518   2.338   2.368   6.534
 4540SOL    HW114519   2.386   2.280   6.542
 4540SOL    HW214520   2.353   2.422   6.617
 4541SOL     OW14521   6.057   1.444   6.802
 4541SOL    HW114522   6.104   1.369   6.848
 4541SOL    HW214523   5.964   1.416   6.780
 4542SOL     OW14524   0.216   1.798   1.490
 4542SOL    HW114525   0.191   1.876   1.547
 4542SOL    HW214526   0.310   1.772   1.509
 4543SOL     OW14527   4.557   2.095   1.037
 4543SOL    HW114528   4.541   1.997   1.027
 4543SOL    HW214529   4.476   2.138   1.077
 4544SOL     OW14530   3.399   5.565   6.519
 4544SOL    HW114531   3.495   5.550   6.543
 4544SOL    HW214532   3.383   5.535   6.425
 4545SOL     OW14533   5.483   2.866   4.093
 4545SOL    HW114534   5.542   2.846   4.014
 4545SOL    HW214535   5.491   2.793   4.160
 4546SOL     OW14536   1.901   1.267   4.626
 4546SOL    HW114537   1.867   1.311   4.709
 4546SOL    HW214538   1.855   1.179   4.614
 4547SOL     OW14539   6.490   2.055   0.986
 4547SOL    HW114540   6.455   2.015   0.901
 4547SOL    HW214541   6.446   2.010   1.064
 4548SOL     OW14542   1.364   3.248   3.864
 4548SOL    HW114543   1.307   3.325   3.833
 4548SOL    HW214544   1.456   3.281   3.883
 4549SOL     OW14545   6.174   4.159   1.992
 4549SOL    HW114546   6.205   4.158   1.897
 4549SOL    HW214547   6.128   4.246   2.011
 4550SOL     OW14548   0.844   5.364   3.217
 4550SOL    HW114549   0.822   5.281   3.166
 4550SOL    HW214550   0.778   5.436   3.193
 4551SOL     OW14551   0.138   3.527   4.635
 4551SOL    HW114552   0.115   3.604   4.695
 4551SOL    HW214553   0.210   3.472   4.677
 4552SOL     OW14554   6.836   2.208   1.514
 4552SOL    HW114555   6.756   2.226   1.571
 4552SOL    HW214556   6.893   2.291   1.510
 4553SOL     OW14557   4.042   4.028   6.652
 4553SOL    HW114558   3.958   4.075   6.677
 4553SOL    HW214559   4.028   3.978   6.566
 4554SOL     OW14560   6.437   6.878   1.352
 4554SOL    HW114561   6.393   6.876   1.442
 4554SOL    HW214562   6.467   6.785   1.328
 4555SOL     OW14563   2.642   1.924   5.184
 4555SOL    HW114564   2.692   1.968   5.259
 4555SOL    HW214565   2.699   1.852   5.145
 4556SOL     OW14566   5.164   3.071   4.332
 4556SOL    HW114567   5.065   3.083   4.321
 4556SOL    HW214568   5.194   3.116   4.416
 4557SOL     OW14569   4.871   5.934   5.298
 4557SOL    HW114570   4.878   5.995   5.219
 4557SOL    HW214571   4.923   5.972   5.374
 4558SOL     OW14572   6.944   4.480   5.077
 4558SOL    HW114573   6.855   4.467   5.032
 4558SOL    HW214574   6.942   4.565   5.130
 4559SOL     OW14575   0.648   3.604   1.937
 4559SOL    HW114576   0.618   3.535   1.871
 4559SOL    HW214577   0.650   3.564   2.029
 4560SOL     OW14578   5.199   4.297   1.812
 4560SOL    HW114579   5.231   4.218   1.760
 4560SOL    HW214580   5.135   4.351   1.757
 4561SOL     OW14581   2.651   1.988   2.698
 4561SOL    HW114582   2.671   1.945   2.610
 4561SOL    HW214583   2.620   1.919   2.763
 4562SOL     OW14584   2.221   6.785   6.010
 4562SOL    HW114585   2.150   6.843   6.048
 4562SOL    HW214586   2.289   6.764   6.081
 4563SOL     OW14587   0.382   2.918   0.865
 4563SOL    HW114588   0.449   2.973   0.814
 4563SOL    HW214589   0.389   2.822   0.837
 4564SOL     OW14590   0.063   5.867   2.137
 4564SOL    HW114591   0.045   5.965   2.136
 4564SOL    HW214592   7.002   5.818   2.112
 4565SOL     OW14593   0.560   0.423   4.861
 4565SOL    HW114594   0.629   0.494   4.850
 4565SOL    HW214595   0.515   0.432   4.949
 4566SOL     OW14596   6.928   2.869   0.083
 4566SOL    HW114597   6.859   2.797   0.090
 4566SOL    HW214598   6.918   2.932   0.160
 4567SOL     OW14599   6.525   1.216   5.999
 4567SOL    HW114600   6.593   1.258   6.059
 4567SOL    HW214601   6.521   1.266   5.912
 4568SOL     OW14602   1.868   3.040   5.962
 4568SOL    HW114603   1.896   3.102   5.888
 4568SOL    HW214604   1.903   3.073   6.049
 4569SOL     OW14605   1.889   1.450   2.977
 4569SOL    HW114606   1.940   1.410   3.053
 4569SOL    HW214607   1.947   1.516   2.929
 4570SOL     OW14608   0.276   6.902   2.354
 4570SOL    HW114609   0.279   6.948   2.442
 4570SOL    HW214610   0.369   6.894   2.318
 4571SOL     OW14611   4.433   4.034   6.283
 4571SOL    HW114612   4.522   4.011   6.323
 4571SOL    HW214613   4.376   4.077   6.352
 4572SOL     OW14614   2.122   0.560   6.752
 4572SOL    HW114615   2.219   0.570   6.733
 4572SOL    HW214616   2.110   0.517   6.841
 4573SOL     OW14617   6.448   0.409   0.395
 4573SOL    HW114618   6.485   0.501   0.389
 4573SOL    HW214619   6.362   0.411   0.445
 4574SOL     OW14620   5.691   3.640   0.425
 4574SOL    HW114621   5.704   3.541   0.438
 4574SOL    HW214622   5.661   3.658   0.332
 4575SOL     OW14623   5.826   1.101   5.971
 4575SOL    HW114624   5.729   1.108   5.995
 4575SOL    HW214625   5.879   1.074   6.051
 4576SOL     OW14626   3.086   6.142   5.817
 4576SOL    HW114627   3.036   6.093   5.746
 4576SOL    HW214628   3.021   6.181   5.883
 4577SOL     OW14629   0.868   2.236   4.567
 4577SOL    HW114630   0.911   2.227   4.477
 4577SOL    HW214631   0.898   2.161   4.626
 4578SOL     OW14632   0.891   2.449   5.268
 4578SOL    HW114633   0.987   2.470   5.249
 4578SOL    HW214634   0.887   2.387   5.347
 4579SOL     OW14635   3.916   0.353   3.458
 4579SOL    HW114636   3.842   0.378   3.520
 4579SOL    HW214637   3.893   0.384   3.365
 4580SOL     OW14638   5.202   4.493   1.118
 4580SOL    HW114639   5.204   4.402   1.075
 4580SOL    HW214640   5.155   4.557   1.057
 4581SOL     OW14641   1.843   5.522   2.099
 4581SOL    HW114642   1.769   5.536   2.165
 4581SOL    HW214643   1.922   5.482   2.145
 4582SOL     OW14644   4.348   0.955   4.641
 4582SOL    HW114645   4.372   0.884   4.574
 4582SOL    HW214646   4.252   0.978   4.631
 4583SOL     OW14647   3.070   2.177   6.960
 4583SOL    HW114648   3.074   2.271   6.994
 4583SOL    HW214649   3.063   2.177   6.861
 4584SOL     OW14650   0.425   4.647   5.885
 4584SOL    HW114651   0.409   4.683   5.977
 4584SOL    HW214652   0.349   4.586   5.860
 4585SOL     OW14653   2.090   5.656   3.234
 4585SOL    HW114654   2.177   5.675   3.281
 4585SOL    HW214655   2.060   5.564   3.256
 4586SOL     OW14656   4.028   4.399   0.699
 4586SOL    HW114657   3.942   4.418   0.746
 4586SOL    HW214658   4.013   4.401   0.600
 4587SOL     OW14659   3.136   3.992   3.737
 4587SOL    HW114660   3.138   3.957   3.831
 4587SOL    HW214661   3.041   4.005   3.709
 4588SOL     OW14662   2.570   3.555   5.327
 4588SOL    HW114663   2.492   3.523   5.274
 4588SOL    HW214664   2.585   3.493   5.404
 4589SOL     OW14665   6.408   0.860   2.251
 4589SOL    HW114666   6.392   0.883   2.156
 4589SOL    HW214667   6.360   0.775   2.273
 4590SOL     OW14668   4.479   5.034   0.977
 4590SOL    HW114669   4.442   4.942   0.994
 4590SOL    HW214670   4.429   5.077   0.902
 4591SOL     OW14671   1.460   0.381   4.293
 4591SOL    HW114672   1.530   0.393   4.364
 4591SOL    HW214673   1.484   0.435   4.213
 4592SOL     OW14674   2.352   1.414   3.149
 4592SOL    HW114675   2.430   1.449   3.201
 4592SOL    HW214676   2.380   1.394   3.056
 4593SOL     OW14677   5.307   5.850   2.463
 4593SOL    HW114678   5.262   5.858   2.551
 4593SOL    HW214679   5.355   5.763   2.457
 4594SOL     OW14680   2.444   1.356   2.871
 4594SOL    HW114681   2.451   1.424   2.798
 4594SOL    HW214682   2.406   1.271   2.834
 4595SOL     OW14683   4.620   3.295   5.560
 4595SOL    HW114684   4.642   3.288   5.463
 4595SOL    HW214685   4.702   3.279   5.615
 4596SOL     OW14686   6.501   0.501   2.371
 4596SOL    HW114687   6.410   0.530   2.343
 4596SOL    HW214688   6.503   0.492   2.471
 4597SOL     OW14689   4.125   5.111   6.601
 4597SOL    HW114690   4.212   5.092   6.555
 4597SOL    HW214691   4.097   5.032   6.654
 4598SOL     OW14692   1.811   6.040   0.733
 4598SOL    HW114693   1.846   6.080   0.818
 4598SOL    HW214694   1.850   5.948   0.722
 4599SOL     OW14695   1.599   4.793   0.069
 4599SOL    HW114696   1.639   4.879   0.100
 4599SOL    HW214697   1.518   4.772   0.122
 4600SOL     OW14698   1.140   5.685   5.847
 4600SOL    HW114699   1.162   5.629   5.768
 4600SOL    HW214700   1.210   5.755   5.860
 4601SOL     OW14701   2.037   1.143   5.337
 4601SOL    HW114702   2.014   1.093   5.254
 4601SOL    HW214703   2.085   1.227   5.313
 4602SOL     OW14704   2.876   6.520   0.497
 4602SOL    HW114705   2.943   6.447   0.483
 4602SOL    HW214706   2.854   6.526   0.595
 4603SOL     OW14707   3.606   6.478   0.641
 4603SOL    HW114708   3.670   6.446   0.571
 4603SOL    HW214709   3.611   6.417   0.721
 4604SOL     OW14710   4.096   0.256   6.931
 4604SOL    HW114711   4.133   0.318   7.001
 4604SOL    HW214712   4.088   0.305   6.845
 4605SOL     OW14713   1.858   6.500   2.451
 4605SOL    HW114714   1.758   6.501   2.441
 4605SOL    HW214715   1.881   6.512   2.548
 4606SOL     OW14716   1.051   6.754   2.331
 4606SOL    HW114717   1.076   6.672   2.281
 4606SOL    HW214718   0.952   6.758   2.341
 4607SOL     OW14719   2.106   3.185   2.170
 4607SOL    HW114720   2.180   3.223   2.225
 4607SOL    HW214721   2.027   3.246   2.173
 4608SOL     OW14722   0.450   5.933   3.347
 4608SOL    HW114723   0.519   5.893   3.408
 4608SOL    HW214724   0.359   5.905   3.377
 4609SOL     OW14725   4.668   4.859   6.757
 4609SOL    HW114726   4.735   4.931   6.774
 4609SOL    HW214727   4.590   4.872   6.818
 4610SOL     OW14728   5.023   1.955   0.485
 4610SOL    HW114729   4.998   1.872   0.535
 4610SOL    HW214730   5.033   2.030   0.550
 4611SOL     OW14731   1.235   6.494   6.509
 4611SOL    HW114732   1.330   6.494   6.477
 4611SOL    HW214733   1.208   6.401   6.533
 4612SOL     OW14734   1.376   6.261   0.813
 4612SOL    HW114735   1.386   6.333   0.882
 4612SOL    HW214736   1.401   6.297   0.723
 4613SOL     OW14737   1.505   5.622   1.920
 4613SOL    HW114738   1.604   5.618   1.908
 4613SOL    HW214739   1.460   5.589   1.837
 4614SOL     OW14740   6.334   3.459   2.573
 4614SOL    HW114741   6.338   3.557   2.551
 4614SOL    HW214742   6.426   3.421   2.572
 4615SOL     OW14743   1.823   0.720   6.953
 4615SOL    HW114744   1.844   0.625   6.930
 4615SOL    HW214745   1.817   0.774   6.870
 4616SOL     OW14746   6.249   1.219   4.653
 4616SOL    HW114747   6.255   1.119   4.643
 4616SOL    HW214748   6.214   1.259   4.569
 4617SOL     OW14749   0.827   2.388   2.279
 4617SOL    HW114750   0.814   2.392   2.180
 4617SOL    HW214751   0.915   2.345   2.299
 4618SOL     OW14752   2.280   2.845   5.273
 4618SOL    HW114753   2.187   2.840   5.236
 4618SOL    HW214754   2.320   2.934   5.250
 4619SOL     OW14755   3.169   6.376   3.280
 4619SOL    HW114756   3.111   6.303   3.243
 4619SOL    HW214757   3.112   6.450   3.313
 4620SOL     OW14758   2.460   4.891   0.796
 4620SOL    HW114759   2.555   4.906   0.824
 4620SOL    HW214760   2.429   4.803   0.831
 4621SOL     OW14761   4.948   0.795   2.574
 4621SOL    HW114762   4.868   0.740   2.600
 4621SOL    HW214763   4.953   0.803   2.475
 4622SOL     OW14764   3.252   4.500   0.458
 4622SOL    HW114765   3.269   4.419   0.514
 4622SOL    HW214766   3.339   4.537   0.424
 4623SOL     OW14767   5.676   6.026   1.524
 4623SOL    HW114768   5.585   6.033   1.565
 4623SOL    HW214769   5.678   5.949   1.460
 4624SOL     OW14770   3.445   0.108   2.971
 4624SOL    HW114771   3.528   0.076   2.926
 4624SOL    HW214772   3.425   0.202   2.942
 4625SOL     OW14773   2.000   4.845   1.329
 4625SOL    HW114774   1.981   4.943   1.340
 4625SOL    HW214775   1.940   4.793   1.390
 4626SOL     OW14776   5.483   4.283   2.305
 4626SOL    HW114777   5.516   4.361   2.251
 4626SOL    HW214778   5.484   4.308   2.402
 4627SOL     OW14779   2.078   4.519   5.134
 4627SOL    HW114780   2.130   4.436   5.110
 4627SOL    HW214781   2.087   4.586   5.060
 4628SOL     OW14782   4.739   4.205   4.362
 4628SOL    HW114783   4.811   4.157   4.412
 4628SOL    HW214784   4.709   4.284   4.415
 4629SOL     OW14785   2.917   5.269   5.262
 4629SOL    HW114786   2.954   5.280   5.354
 4629SOL    HW214787   2.986   5.226   5.204
 4630SOL     OW14788   2.623   6.213   1.989
 4630SOL    HW114789   2.628   6.149   2.066
 4630SOL    HW214790   2.530   6.215   1.954
 4631SOL     OW14791   1.458   5.948   3.357
 4631SOL    HW114792   1.395   5.874   3.332
 4631SOL    HW214793   1.415   6.036   3.338
 4632SOL     OW14794   2.774   4.704   2.816
 4632SOL    HW114795   2.704   4.655   2.764
 4632SOL    HW214796   2.739   4.724   2.907
 4633SOL     OW14797   5.912   0.609   5.082
 4633SOL    HW114798   5.818   0.602   5.050
 4633SOL    HW214799   5.920   0.571   5.174
 4634SOL     OW14800   2.218   4.098   5.515
 4634SOL    HW114801   2.207   4.052   5.427
 4634SOL    HW214802   2.260   4.035   5.580
 4635SOL     OW14803   5.231   3.655   1.460
 4635SOL    HW114804   5.138   3.623   1.442
 4635SOL    HW214805   5.238   3.752   1.438
 4636SOL     OW14806   2.025   4.301   0.023
 4636SOL    HW114807   1.993   4.362   0.096
 4636SOL    HW214808   1.999   4.207   0.045
 4637SOL     OW14809   0.776   6.506   1.258
 4637SOL    HW114810   0.751   6.546   1.170
 4637SOL    HW214811   0.805   6.578   1.321
 4638SOL     OW14812   4.280   4.202   0.122
 4638SOL    HW114813   4.212   4.269   0.152
 4638SOL    HW214814   4.272   4.120   0.179
 4639SOL     OW14815   3.391   3.469   6.213
 4639SOL    HW114816   3.322   3.523   6.165
 4639SOL    HW214817   3.418   3.392   6.157
 4640SOL     OW14818   4.815   3.804   3.803
 4640SOL    HW114819   4.874   3.741   3.854
 4640SOL    HW214820   4.721   3.770   3.805
 4641SOL     OW14821   2.361   0.466   4.681
 4641SOL    HW114822   2.265   0.446   4.696
 4641SOL    HW214823   2.407   0.385   4.644
 4642SOL     OW14824   0.925   6.837   3.694
 4642SOL    HW114825   0.958   6.852   3.787
 4642SOL    HW214826   0.899   6.925   3.654
 4643SOL     OW14827   6.915   2.054   0.667
 4643SOL    HW114828   7.002   2.077   0.622
 4643SOL    HW214829   6.887   2.129   0.727
 4644SOL     OW14830   0.753   5.344   5.109
 4644SOL    HW114831   0.764   5.315   5.204
 4644SOL    HW214832   0.742   5.263   5.050
 4645SOL     OW14833   0.672   0.252   4.016
 4645SOL    HW114834   0.599   0.193   3.982
 4645SOL    HW214835   0.757   0.231   3.967
 4646SOL     OW14836   2.125   5.391   3.379
 4646SOL    HW114837   2.199   5.455   3.361
 4646SOL    HW214838   2.145   5.303   3.336
 4647SOL     OW14839   1.889   0.399   3.323
 4647SOL    HW114840   1.879   0.460   3.245
 4647SOL    HW214841   1.925   0.311   3.292
 4648SOL     OW14842   3.422   0.452   3.126
 4648SOL    HW114843   3.431   0.546   3.094
 4648SOL    HW214844   3.357   0.448   3.202
 4649SOL     OW14845   5.369   0.937   7.022
 4649SOL    HW114846   5.452   0.968   0.046
 4649SOL    HW214847   5.378   0.841   6.996
 4650SOL     OW14848   4.798   5.889   2.658
 4650SOL    HW114849   4.849   5.956   2.712
 4650SOL    HW214850   4.829   5.797   2.682
 4651SOL     OW14851   6.245   3.730   0.171
 4651SOL    HW114852   6.222   3.702   0.077
 4651SOL    HW214853   6.289   3.654   0.219
 4652SOL     OW14854   5.736   6.518   3.901
 4652SOL    HW114855   5.765   6.522   3.996
 4652SOL    HW214856   5.647   6.473   3.895
 4653SOL     OW14857   4.771   5.572   0.925
 4653SOL    HW114858   4.817   5.484   0.914
 4653SOL    HW214859   4.837   5.642   0.952
 4654SOL     OW14860   0.537   6.699   6.990
 4654SOL    HW114861   0.546   6.729   0.063
 4654SOL    HW214862   0.628   6.691   6.950
 4655SOL     OW14863   6.266   3.896   1.207
 4655SOL    HW114864   6.263   3.933   1.114
 4655SOL    HW214865   6.204   3.948   1.266
 4656SOL     OW14866   1.272   0.487   2.147
 4656SOL    HW114867   1.251   0.584   2.145
 4656SOL    HW214868   1.198   0.435   2.104
 4657SOL     OW14869   4.348   5.711   1.491
 4657SOL    HW114870   4.265   5.689   1.544
 4657SOL    HW214871   4.327   5.703   1.393
 4658SOL     OW14872   3.319   0.373   3.953
 4658SOL    HW114873   3.415   0.347   3.965
 4658SOL    HW214874   3.303   0.460   3.999
 4659SOL     OW14875   3.225   4.285   5.607
 4659SOL    HW114876   3.273   4.198   5.613
 4659SOL    HW214877   3.200   4.303   5.511
 4660SOL     OW14878   0.877   5.144   5.280
 4660SOL    HW114879   0.946   5.072   5.273
 4660SOL    HW214880   0.814   5.137   5.202
 4661SOL     OW14881   2.977   4.349   6.181
 4661SOL    HW114882   2.907   4.365   6.112
 4661SOL    HW214883   3.060   4.400   6.156
 4662SOL     OW14884   3.316   0.085   5.262
 4662SOL    HW114885   3.396   0.071   5.203
 4662SOL    HW214886   3.233   0.080   5.207
 4663SOL     OW14887   0.306   1.376   1.095
 4663SOL    HW114888   0.401   1.409   1.103
 4663SOL    HW214889   0.245   1.440   1.141
 4664SOL     OW14890   1.815   1.203   1.053
 4664SOL    HW114891   1.779   1.287   1.012
 4664SOL    HW214892   1.754   1.175   1.127
 4665SOL     OW14893   3.728   6.048   6.421
 4665SOL    HW114894   3.665   6.036   6.344
 4665SOL    HW214895   3.676   6.080   6.501
 4666SOL     OW14896   2.372   2.594   0.022
 4666SOL    HW114897   2.397   2.679   0.068
 4666SOL    HW214898   2.380   2.518   0.087
 4667SOL     OW14899   6.568   3.695   2.014
 4667SOL    HW114900   6.602   3.753   2.088
 4667SOL    HW214901   6.498   3.744   1.963
 4668SOL     OW14902   4.611   2.031   3.285
 4668SOL    HW114903   4.706   2.022   3.254
 4668SOL    HW214904   4.551   1.976   3.228
 4669SOL     OW14905   5.176   6.239   0.224
 4669SOL    HW114906   5.146   6.275   0.312
 4669SOL    HW214907   5.188   6.315   0.159
 4670SOL     OW14908   1.684   2.723   5.781
 4670SOL    HW114909   1.714   2.792   5.716
 4670SOL    HW214910   1.589   2.741   5.807
 4671SOL     OW14911   0.211   3.127   0.094
 4671SOL    HW114912   0.234   3.222   0.116
 4671SOL    HW214913   0.153   3.125   0.012
 4672SOL     OW14914   2.719   5.078   5.322
 4672SOL    HW114915   2.706   5.023   5.239
 4672SOL    HW214916   2.789   5.147   5.306
 4673SOL     OW14917   4.819   0.112   2.075
 4673SOL    HW114918   4.841   0.080   2.167
 4673SOL    HW214919   4.739   0.172   2.078
 4674SOL     OW14920   4.950   0.974   6.233
 4674SOL    HW114921   4.919   0.990   6.139
 4674SOL    HW214922   4.922   0.883   6.263
 4675SOL     OW14923   2.251   1.470   6.675
 4675SOL    HW114924   2.262   1.485   6.773
 4675SOL    HW214925   2.342   1.468   6.632
 4676SOL     OW14926   6.243   6.350   4.103
 4676SOL    HW114927   6.252   6.437   4.053
 4676SOL    HW214928   6.328   6.297   4.093
 4677SOL     OW14929   2.513   1.481   6.581
 4677SOL    HW114930   2.536   1.571   6.544
 4677SOL    HW214931   2.591   1.419   6.571
 4678SOL     OW14932   1.918   4.420   2.658
 4678SOL    HW114933   1.911   4.463   2.748
 4678SOL    HW214934   2.002   4.450   2.613
 4679SOL     OW14935   3.295   1.208   0.007
 4679SOL    HW114936   3.267   1.226   0.102
 4679SOL    HW214937   3.237   1.135   6.991
 4680SOL     OW14938   2.697   1.341   0.720
 4680SOL    HW114939   2.664   1.253   0.686
 4680SOL    HW214940   2.644   1.415   0.678
 4681SOL     OW14941   5.305   6.186   6.139
 4681SOL    HW114942   5.205   6.183   6.144
 4681SOL    HW214943   5.333   6.238   6.058
 4682SOL     OW14944   4.390   4.613   5.684
 4682SOL    HW114945   4.462   4.594   5.751
 4682SOL    HW214946   4.373   4.531   5.630
 4683SOL     OW14947   4.238   4.917   3.080
 4683SOL    HW114948   4.276   5.008   3.062
 4683SOL    HW214949   4.221   4.906   3.177
 4684SOL     OW14950   6.686   1.874   5.447
 4684SOL    HW114951   6.770   1.878   5.501
 4684SOL    HW214952   6.642   1.785   5.460
 4685SOL     OW14953   0.570   6.244   5.333
 4685SOL    HW114954   0.601   6.153   5.304
 4685SOL    HW214955   0.604   6.264   5.425
 4686SOL     OW14956   4.971   5.031   0.390
 4686SOL    HW114957   5.062   5.046   0.349
 4686SOL    HW214958   4.911   4.990   0.321
 4687SOL     OW14959   6.430   4.172   5.316
 4687SOL    HW114960   6.398   4.159   5.222
 4687SOL    HW214961   6.529   4.186   5.316
 4688SOL     OW14962   6.132   3.952   5.367
 4688SOL    HW114963   6.121   3.858   5.335
 4688SOL    HW214964   6.202   3.955   5.439
 4689SOL     OW14965   5.898   0.316   0.287
 4689SOL    HW114966   5.930   0.237   0.339
 4689SOL    HW214967   5.920   0.400   0.336
 4690SOL     OW14968   1.442   0.569   0.173
 4690SOL    HW114969   1.506   0.495   0.154
 4690SOL    HW214970   1.389   0.589   0.090
 4691SOL     OW14971   2.934   4.775   2.225
 4691SOL    HW114972   2.877   4.700   2.192
 4691SOL    HW214973   2.945   4.766   2.325
 4692SOL     OW14974   6.007   5.540   1.956
 4692SOL    HW114975   5.968   5.594   1.882
 4692SOL    HW214976   5.944   5.538   2.033
 4693SOL     OW14977   0.547   1.013   3.146
 4693SOL    HW114978   0.549   1.102   3.100
 4693SOL    HW214979   0.640   0.983   3.164
 4694SOL     OW14980   2.416   0.094   0.247
 4694SOL    HW114981   2.467   0.027   0.193
 4694SOL    HW214982   2.318   0.081   0.233
 4695SOL     OW14983   2.174   3.414   1.625
 4695SOL    HW114984   2.205   3.415   1.720
 4695SOL    HW214985   2.223   3.343   1.574
 4696SOL     OW14986   6.864   3.937   6.418
 4696SOL    HW114987   6.949   3.966   6.373
 4696SOL    HW214988   6.819   3.867   6.363
 4697SOL     OW14989   2.402   3.506   0.972
 4697SOL    HW114990   2.412   3.459   1.059
 4697SOL    HW214991   2.433   3.600   0.981
 4698SOL     OW14992   4.538   5.946   3.231
 4698SOL    HW114993   4.531   5.965   3.133
 4698SOL    HW214994   4.596   5.866   3.245
 4699SOL     OW14995   1.722   6.746   1.664
 4699SOL    HW114996   1.650   6.776   1.727
 4699SOL    HW214997   1.693   6.661   1.619
 4700SOL     OW14998   6.484   1.561   2.586
 4700SOL    HW114999   6.497   1.480   2.643
 4700SOL    HW215000   6.574   1.599   2.562
 4701SOL     OW15001   2.384   1.967   0.103
 4701SOL    HW115002   2.345   1.960   0.195
 4701SOL    HW215003   2.483   1.957   0.108
 4702SOL     OW15004   5.875   5.035   6.884
 4702SOL    HW115005   5.868   5.011   6.981
 4702SOL    HW215006   5.970   5.052   6.861
 4703SOL     OW15007   0.970   2.004   1.653
 4703SOL    HW115008   0.930   1.934   1.594
 4703SOL    HW215009   0.974   1.970   1.747
 4704SOL     OW15010   1.370   6.841   6.820
 4704SOL    HW115011   1.292   6.793   6.779
 4704SOL    HW215012   1.395   6.796   6.906
 4705SOL     OW15013   3.484   3.528   2.569
 4705SOL    HW115014   3.442   3.499   2.483
 4705SOL    HW215015   3.513   3.448   2.621
 4706SOL     OW15016   3.966   6.563   6.464
 4706SOL    HW115017   4.064   6.575   6.453
 4706SOL    HW215018   3.930   6.632   6.527
 4707SOL     OW15019   2.489   5.932   1.211
 4707SOL    HW115020   2.580   5.895   1.195
 4707SOL    HW215021   2.454   5.972   1.126
 4708SOL     OW15022   1.328   2.053   6.684
 4708SOL    HW115023   1.347   1.964   6.723
 4708SOL    HW215024   1.407   2.113   6.697
 4709SOL     OW15025   4.661   5.859   6.324
 4709SOL    HW115026   4.739   5.801   6.297
 4709SOL    HW215027   4.576   5.808   6.310
 4710SOL     OW15028   3.862   1.139   5.155
 4710SOL    HW115029   3.850   1.050   5.199
 4710SOL    HW215030   3.791   1.202   5.188
 4711SOL     OW15031   5.881   0.927   1.775
 4711SOL    HW115032   5.798   0.871   1.770
 4711SOL    HW215033   5.859   1.018   1.808
 4712SOL     OW15034   3.041   4.564   0.198
 4712SOL    HW115035   3.116   4.575   0.133
 4712SOL    HW215036   3.043   4.471   0.236
 4713SOL     OW15037   3.382   3.102   0.778
 4713SOL    HW115038   3.338   3.057   0.855
 4713SOL    HW215039   3.325   3.093   0.696
 4714SOL     OW15040   1.150   2.303   6.979
 4714SOL    HW115041   1.142   2.358   6.896
 4714SOL    HW215042   1.167   2.208   6.954
 4715SOL     OW15043   6.844   2.904   2.325
 4715SOL    HW115044   6.768   2.839   2.335
 4715SOL    HW215045   6.924   2.856   2.290
 4716SOL     OW15046   4.795   6.053   6.472
 4716SOL    HW115047   4.785   5.962   6.433
 4716SOL    HW215048   4.705   6.096   6.480
 4717SOL     OW15049   0.580   6.628   3.761
 4717SOL    HW115050   0.636   6.702   3.722
 4717SOL    HW215051   0.550   6.568   3.687
 4718SOL     OW15052   5.496   2.668   0.749
 4718SOL    HW115053   5.472   2.606   0.824
 4718SOL    HW215054   5.536   2.615   0.674
 4719SOL     OW15055   5.433   3.066   2.256
 4719SOL    HW115056   5.474   3.145   2.302
 4719SOL    HW215057   5.442   2.985   2.313
 4720SOL     OW15058   2.014   5.760   5.805
 4720SOL    HW115059   2.095   5.773   5.747
 4720SOL    HW215060   1.981   5.666   5.796
 4721SOL     OW15061   6.416   2.578   1.703
 4721SOL    HW115062   6.368   2.582   1.791
 4721SOL    HW215063   6.511   2.549   1.719
 4722SOL     OW15064   0.755   6.061   6.574
 4722SOL    HW115065   0.838   6.076   6.520
 4722SOL    HW215066   0.684   6.125   6.545
 4723SOL     OW15067   1.800   4.436   6.070
 4723SOL    HW115068   1.856   4.389   6.001
 4723SOL    HW215069   1.808   4.388   6.157
 4724SOL     OW15070   5.213   6.406   2.913
 4724SOL    HW115071   5.121   6.413   2.876
 4724SOL    HW215072   5.265   6.337   2.862
 4725SOL     OW15073   6.245   6.348   2.600
 4725SOL    HW115074   6.145   6.352   2.599
 4725SOL    HW215075   6.276   6.267   2.650
 4726SOL     OW15076   1.511   2.371   6.420
 4726SOL    HW115077   1.506   2.416   6.331
 4726SOL    HW215078   1.429   2.316   6.435
 4727SOL     OW15079   1.011   6.323   0.341
 4727SOL    HW115080   1.011   6.302   0.438
 4727SOL    HW215081   1.103   6.310   0.304
 4728SOL     OW15082   5.293   0.538   1.275
 4728SOL    HW115083   5.335   0.531   1.185
 4728SOL    HW215084   5.330   0.468   1.335
 4729SOL     OW15085   2.397   1.621   1.307
 4729SOL    HW115086   2.432   1.686   1.375
 4729SOL    HW215087   2.341   1.552   1.353
 4730SOL     OW15088   3.428   5.672   4.645
 4730SOL    HW115089   3.436   5.606   4.570
 4730SOL    HW215090   3.511   5.670   4.700
 4731SOL     OW15091   4.369   0.114   6.456
 4731SOL    HW115092   4.455   0.084   6.497
 4731SOL    HW215093   4.340   0.049   6.386
 4732SOL     OW15094   0.758   3.346   5.677
 4732SOL    HW115095   0.764   3.431   5.730
 4732SOL    HW215096   0.666   3.307   5.687
 4733SOL     OW15097   1.537   4.523   3.871
 4733SOL    HW115098   1.637   4.522   3.867
 4733SOL    HW215099   1.502   4.593   3.808
 4734SOL     OW15100   4.746   2.437   0.370
 4734SOL    HW115101   4.656   2.402   0.345
 4734SOL    HW215102   4.805   2.436   0.289
 4735SOL     OW15103   0.101   5.490   4.715
 4735SOL    HW115104   0.078   5.397   4.742
 4735SOL    HW215105   0.141   5.489   4.623
 4736SOL     OW15106   0.114   2.230   6.612
 4736SOL    HW115107   0.041   2.162   6.602
 4736SOL    HW215108   0.089   2.297   6.682
 4737SOL     OW15109   2.183   4.327   2.261
 4737SOL    HW115110   2.266   4.341   2.207
 4737SOL    HW215111   2.103   4.329   2.200
 4738SOL     OW15112   0.342   6.549   3.305
 4738SOL    HW115113   0.339   6.450   3.294
 4738SOL    HW215114   0.249   6.586   3.299
 4739SOL     OW15115   4.163   6.421   3.319
 4739SOL    HW115116   4.093   6.482   3.280
 4739SOL    HW215117   4.216   6.381   3.245
 4740SOL     OW15118   1.192   1.365   0.991
 4740SOL    HW115119   1.180   1.269   0.965
 4740SOL    HW215120   1.119   1.391   1.054
 4741SOL     OW15121   3.678   3.596   1.404
 4741SOL    HW115122   3.660   3.629   1.497
 4741SOL    HW215123   3.603   3.539   1.373
 4742SOL     OW15124   3.083   6.590   5.609
 4742SOL    HW115125   3.177   6.559   5.624
 4742SOL    HW215126   3.066   6.672   5.663
 4743SOL     OW15127   1.506   3.795   2.845
 4743SOL    HW115128   1.496   3.861   2.920
 4743SOL    HW215129   1.461   3.709   2.870
 4744SOL     OW15130   2.036   4.475   0.730
 4744SOL    HW115131   2.002   4.446   0.819
 4744SOL    HW215132   2.054   4.573   0.731
 4745SOL     OW15133   2.913   3.301   5.880
 4745SOL    HW115134   2.926   3.214   5.928
 4745SOL    HW215135   2.985   3.365   5.906
 4746SOL     OW15136   5.189   6.076   3.376
 4746SOL    HW115137   5.194   5.988   3.329
 4746SOL    HW215138   5.263   6.135   3.343
 4747SOL     OW15139   1.669   3.787   6.990
 4747SOL    HW115140   1.711   3.782   6.900
 4747SOL    HW215141   1.647   3.883   7.012
 4748SOL     OW15142   2.505   5.664   1.553
 4748SOL    HW115143   2.584   5.724   1.558
 4748SOL    HW215144   2.531   5.578   1.510
 4749SOL     OW15145   2.537   6.627   5.747
 4749SOL    HW115146   2.566   6.532   5.761
 4749SOL    HW215147   2.560   6.656   5.654
 4750SOL     OW15148   0.024   4.263   4.965
 4750SOL    HW115149   7.014   4.348   5.005
 4750SOL    HW215150   6.978   4.228   4.901
 4751SOL     OW15151   4.268   1.984   2.927
 4751SOL    HW115152   4.221   1.896   2.932
 4751SOL    HW215153   4.208   2.056   2.962
 4752SOL     OW15154   4.270   1.140   6.982
 4752SOL    HW115155   4.321   1.215   6.939
 4752SOL    HW215156   4.297   1.132   0.056
 4753SOL     OW15157   6.813   0.125   4.501
 4753SOL    HW115158   6.897   0.178   4.484
 4753SOL    HW215159   6.745   0.183   4.545
 4754SOL     OW15160   5.653   4.136   4.606
 4754SOL    HW115161   5.618   4.225   4.577
 4754SOL    HW215162   5.583   4.066   4.594
 4755SOL     OW15163   2.871   0.957   0.238
 4755SOL    HW115164   2.820   0.975   0.153
 4755SOL    HW215165   2.967   0.942   0.216
 4756SOL     OW15166   5.613   3.171   5.933
 4756SOL    HW115167   5.565   3.236   5.874
 4756SOL    HW215168   5.547   3.116   5.984
 4757SOL     OW15169   2.735   1.976   1.654
 4757SOL    HW115170   2.646   1.974   1.700
 4757SOL    HW215171   2.805   2.007   1.718
 4758SOL     OW15172   1.311   6.728   3.207
 4758SOL    HW115173   1.327   6.764   3.115
 4758SOL    HW215174   1.215   6.701   3.215
 4759SOL     OW15175   0.014   5.215   5.921
 4759SOL    HW115176   0.019   5.151   5.998
 4759SOL    HW215177   6.942   5.223   5.890
 4760SOL     OW15178   2.508   1.691   0.366
 4760SOL    HW115179   2.553   1.780   0.357
 4760SOL    HW215180   2.518   1.659   0.460
 4761SOL     OW15181   0.985   6.305   0.619
 4761SOL    HW115182   0.886   6.306   0.607
 4761SOL    HW215183   1.009   6.242   0.693
 4762SOL     OW15184   1.374   5.179   1.668
 4762SOL    HW115185   1.467   5.142   1.672
 4762SOL    HW215186   1.368   5.260   1.726
 4763SOL     OW15187   6.195   0.534   2.568
 4763SOL    HW115188   6.212   0.439   2.541
 4763SOL    HW215189   6.098   0.547   2.586
 4764SOL     OW15190   4.749   4.031   5.155
 4764SOL    HW115191   4.674   4.015   5.219
 4764SOL    HW215192   4.788   4.122   5.171
 4765SOL     OW15193   3.761   0.911   5.287
 4765SOL    HW115194   3.770   0.908   5.386
 4765SOL    HW215195   3.689   0.976   5.262
 4766SOL     OW15196   5.760   5.663   3.366
 4766SOL    HW115197   5.674   5.700   3.402
 4766SOL    HW215198   5.747   5.637   3.271
 4767SOL     OW15199   3.008   5.239   4.888
 4767SOL    HW115200   3.047   5.179   4.958
 4767SOL    HW215201   2.949   5.307   4.931
 4768SOL     OW15202   4.736   1.900   6.265
 4768SOL    HW115203   4.757   1.952   6.182
 4768SOL    HW215204   4.756   1.803   6.249
 4769SOL     OW15205   5.022   6.001   0.226
 4769SOL    HW115206   4.929   5.997   0.188
 4769SOL    HW215207   5.059   6.093   0.214
 4770SOL     OW15208   6.682   1.562   4.529
 4770SOL    HW115209   6.782   1.560   4.535
 4770SOL    HW215210   6.648   1.472   4.503
 4771SOL     OW15211   3.322   6.373   5.755
 4771SOL    HW115212   3.252   6.302   5.747
 4771SOL    HW215213   3.322   6.409   5.849
 4772SOL     OW15214   3.673   4.876   0.320
 4772SOL    HW115215   3.640   4.849   0.230
 4772SOL    HW215216   3.626   4.822   0.390
 4773SOL     OW15217   6.930   5.234   5.290
 4773SOL    HW115218   6.882   5.299   5.231
 4773SOL    HW215219   6.963   5.281   5.371
 4774SOL     OW15220   1.649   3.736   1.158
 4774SOL    HW115221   1.726   3.764   1.101
 4774SOL    HW215222   1.605   3.656   1.116
 4775SOL     OW15223   5.051   6.388   3.133
 4775SOL    HW115224   5.082   6.334   3.211
 4775SOL    HW215225   5.123   6.390   3.064
 4776SOL     OW15226   0.659   0.179   4.958
 4776SOL    HW115227   0.622   0.266   4.925
 4776SOL    HW215228   0.689   0.188   5.052
 4777SOL     OW15229   1.280   4.874   1.204
 4777SOL    HW115230   1.354   4.930   1.244
 4777SOL    HW215231   1.288   4.780   1.238
 4778SOL     OW15232   6.804   3.286   4.072
 4778SOL    HW115233   6.856   3.354   4.021
 4778SOL    HW215234   6.858   3.255   4.150
 4779SOL     OW15235   5.165   0.455   2.741
 4779SOL    HW115236   5.125   0.503   2.819
 4779SOL    HW215237   5.259   0.487   2.728
 4780SOL     OW15238   6.226   2.285   0.057
 4780SOL    HW115239   6.253   2.342   7.002
 4780SOL    HW215240   6.296   2.214   0.071
 4781SOL     OW15241   2.491   5.292   2.724
 4781SOL    HW115242   2.525   5.306   2.631
 4781SOL    HW215243   2.420   5.360   2.744
 4782SOL     OW15244   6.008   5.672   6.732
 4782SOL    HW115245   6.070   5.606   6.691
 4782SOL    HW215246   5.961   5.722   6.659
 4783SOL     OW15247   4.910   3.512   0.357
 4783SOL    HW115248   4.951   3.427   0.390
 4783SOL    HW215249   4.978   3.563   0.304
 4784SOL     OW15250   5.933   2.347   6.422
 4784SOL    HW115251   5.987   2.405   6.362
 4784SOL    HW215252   5.990   2.313   6.497
 4785SOL     OW15253   0.849   5.886   3.210
 4785SOL    HW115254   0.811   5.961   3.264
 4785SOL    HW215255   0.785   5.863   3.137
 4786SOL     OW15256   2.557   0.324   0.649
 4786SOL    HW115257   2.513   0.235   0.662
 4786SOL    HW215258   2.604   0.325   0.561
 4787SOL     OW15259   3.973   1.475   3.159
 4787SOL    HW115260   3.973   1.477   3.259
 4787SOL    HW215261   4.038   1.543   3.125
 4788SOL     OW15262   6.448   6.494   7.022
 4788SOL    HW115263   6.353   6.465   0.010
 4788SOL    HW215264   6.452   6.594   7.012
 4789SOL     OW15265   5.734   1.737   2.400
 4789SOL    HW115266   5.796   1.668   2.436
 4789SOL    HW215267   5.708   1.800   2.474
 4790SOL     OW15268   5.590   1.871   5.566
 4790SOL    HW115269   5.559   1.812   5.641
 4790SOL    HW215270   5.578   1.967   5.593
 4791SOL     OW15271   0.614   2.642   1.143
 4791SOL    HW115272   0.613   2.714   1.212
 4791SOL    HW215273   0.521   2.624   1.112
 4792SOL     OW15274   2.542   4.607   3.627
 4792SOL    HW115275   2.511   4.519   3.663
 4792SOL    HW215276   2.467   4.673   3.632
 4793SOL     OW15277   1.878   2.623   5.232
 4793SOL    HW115278   1.838   2.600   5.320
 4793SOL    HW215279   1.976   2.642   5.243
 4794SOL     OW15280   5.308   6.825   4.842
 4794SOL    HW115281   5.404   6.795   4.845
 4794SOL    HW215282   5.249   6.746   4.823
 4795SOL     OW15283   6.146   2.452   4.238
 4795SOL    HW115284   6.198   2.434   4.322
 4795SOL    HW215285   6.059   2.496   4.261
 4796SOL     OW15286   3.978   0.719   4.999
 4796SOL    HW115287   3.934   0.695   5.086
 4796SOL    HW215288   3.925   0.791   4.954
 4797SOL     OW15289   0.396   0.080   5.004
 4797SOL    HW115290   0.334   0.128   5.066
 4797SOL    HW215291   0.487   0.122   5.010
 4798SOL     OW15292   0.329   4.239   5.680
 4798SOL    HW115293   0.366   4.321   5.723
 4798SOL    HW215294   0.351   4.239   5.583
 4799SOL     OW15295   3.797   1.672   0.845
 4799SOL    HW115296   3.893   1.689   0.869
 4799SOL    HW215297   3.789   1.665   0.746
 4800SOL     OW15298   2.459   2.475   6.782
 4800SOL    HW115299   2.413   2.498   6.867
 4800SOL    HW215300   2.499   2.557   6.742
 4801SOL     OW15301   3.216   2.734   7.016
 4801SOL    HW115302   3.144   2.721   6.947
 4801SOL    HW215303   3.294   2.781   6.975
 4802SOL     OW15304   0.042   6.626   2.020
 4802SOL    HW115305   0.048   6.594   1.926
 4802SOL    HW215306   7.014   6.712   2.023
 4803SOL     OW15307   0.318   4.367   0.215
 4803SOL    HW115308   0.298   4.276   0.179
 4803SOL    HW215309   0.406   4.398   0.179
 4804SOL     OW15310   6.928   6.501   1.173
 4804SOL    HW115311   6.933   6.462   1.265
 4804SOL    HW215312   6.910   6.429   1.107
 4805SOL     OW15313   6.184   0.933   2.664
 4805SOL    HW115314   6.196   0.948   2.566
 4805SOL    HW215315   6.097   0.886   2.680
 4806SOL     OW15316   1.217   4.291   2.366
 4806SOL    HW115317   1.155   4.244   2.303
 4806SOL    HW215318   1.240   4.229   2.441
 4807SOL     OW15319   0.736   4.575   6.962
 4807SOL    HW115320   0.737   4.478   6.986
 4807SOL    HW215321   0.664   4.621   7.014
 4808SOL     OW15322   4.402   5.604   0.134
 4808SOL    HW115323   4.326   5.609   0.069
 4808SOL    HW215324   4.478   5.554   0.092
 4809SOL     OW15325   3.333   4.775   0.555
 4809SOL    HW115326   3.263   4.721   0.508
 4809SOL    HW215327   3.423   4.750   0.520
 4810SOL     OW15328   1.188   3.857   2.807
 4810SOL    HW115329   1.092   3.834   2.824
 4810SOL    HW215330   1.225   3.799   2.735
 4811SOL     OW15331   3.248   3.887   2.334
 4811SOL    HW115332   3.233   3.959   2.402
 4811SOL    HW215333   3.327   3.911   2.278
 4812SOL     OW15334   0.794   6.574   2.959
 4812SOL    HW115335   0.832   6.481   2.962
 4812SOL    HW215336   0.818   6.616   2.872
 4813SOL     OW15337   5.752   1.360   6.184
 4813SOL    HW115338   5.776   1.401   6.272
 4813SOL    HW215339   5.727   1.264   6.197
 4814SOL     OW15340   6.935   3.111   0.979
 4814SOL    HW115341   6.910   3.183   1.044
 4814SOL    HW215342   0.009   3.123   0.953
 4815SOL     OW15343   5.505   4.202   3.082
 4815SOL    HW115344   5.555   4.154   3.010
 4815SOL    HW215345   5.430   4.253   3.042
 4816SOL     OW15346   2.132   5.127   1.056
 4816SOL    HW115347   2.045   5.151   1.014
 4816SOL    HW215348   2.205   5.132   0.988
 4817SOL     OW15349   2.410   1.302   0.310
 4817SOL    HW115350   2.313   1.324   0.315
 4817SOL    HW215351   2.422   1.213   0.266
 4818SOL     OW15352   0.459   0.599   4.264
 4818SOL    HW115353   0.366   0.562   4.272
 4818SOL    HW215354   0.454   0.697   4.245
 4819SOL     OW15355   2.102   2.135   1.295
 4819SOL    HW115356   2.187   2.129   1.348
 4819SOL    HW215357   2.064   2.226   1.304
 4820SOL     OW15358   6.299   2.207   0.651
 4820SOL    HW115359   6.384   2.259   0.656
 4820SOL    HW215360   6.296   2.141   0.725
 4821SOL     OW15361   0.486   6.967   1.928
 4821SOL    HW115362   0.465   6.986   1.832
 4821SOL    HW215363   0.501   0.031   1.976
 4822SOL     OW15364   1.602   3.438   4.220
 4822SOL    HW115365   1.649   3.432   4.308
 4822SOL    HW215366   1.621   3.526   4.177
 4823SOL     OW15367   0.967   0.715   4.220
 4823SOL    HW115368   1.024   0.634   4.206
 4823SOL    HW215369   0.900   0.697   4.292
 4824SOL     OW15370   5.329   1.738   4.046
 4824SOL    HW115371   5.331   1.782   4.135
 4824SOL    HW215372   5.406   1.675   4.037
 4825SOL     OW15373   1.931   2.062   5.190
 4825SOL    HW115374   1.895   2.078   5.098
 4825SOL    HW215375   2.027   2.092   5.194
 4826SOL     OW15376   0.231   0.674   6.196
 4826SOL    HW115377   0.212   0.581   6.226
 4826SOL    HW215378   0.330   0.689   6.194
 4827SOL     OW15379   5.733   2.106   1.867
 4827SOL    HW115380   5.700   2.131   1.776
 4827SOL    HW215381   5.660   2.059   1.917
 4828SOL     OW15382   5.713   2.907   1.495
 4828SOL    HW115383   5.786   2.893   1.562
 4828SOL    HW215384   5.638   2.843   1.513
 4829SOL     OW15385   4.064   6.393   6.746
 4829SOL    HW115386   4.088   6.483   6.783
 4829SOL    HW215387   4.128   6.369   6.674
 4830SOL     OW15388   4.257   6.472   3.576
 4830SOL    HW115389   4.347   6.430   3.580
 4830SOL    HW215390   4.216   6.456   3.486
 4831SOL     OW15391   0.319   5.089   6.621
 4831SOL    HW115392   0.284   5.113   6.531
 4831SOL    HW215393   0.360   4.998   6.618
 4832SOL     OW15394   3.170   3.144   5.636
 4832SOL    HW115395   3.093   3.169   5.578
 4832SOL    HW215396   3.243   3.104   5.580
 4833SOL     OW15397   5.437   2.230   3.270
 4833SOL    HW115398   5.407   2.236   3.175
 4833SOL    HW215399   5.443   2.134   3.297
 4834SOL     OW15400   4.071   6.837   1.014
 4834SOL    HW115401   4.038   6.798   1.100
 4834SOL    HW215402   3.999   6.891   0.971
 4835SOL     OW15403   0.240   1.419   6.364
 4835SOL    HW115404   0.339   1.432   6.355
 4835SOL    HW215405   0.222   1.342   6.425
 4836SOL     OW15406   4.881   3.113   4.041
 4836SOL    HW115407   4.855   3.138   4.134
 4836SOL    HW215408   4.869   3.192   3.980
 4837SOL     OW15409   5.968   4.330   2.141
 4837SOL    HW115410   5.972   4.232   2.164
 4837SOL    HW215411   5.883   4.349   2.092
 4838SOL     OW15412   0.710   4.543   0.927
 4838SOL    HW115413   0.693   4.481   0.850
 4838SOL    HW215414   0.676   4.635   0.904
 4839SOL     OW15415   1.338   2.624   6.330
 4839SOL    HW115416   1.296   2.709   6.362
 4839SOL    HW215417   1.281   2.546   6.356
 4840SOL     OW15418   0.805   5.679   5.924
 4840SOL    HW115419   0.805   5.583   5.952
 4840SOL    HW215420   0.711   5.711   5.916
 4841SOL     OW15421   3.367   6.130   1.899
 4841SOL    HW115422   3.299   6.195   1.934
 4841SOL    HW215423   3.422   6.095   1.975
 4842SOL     OW15424   3.566   4.888   2.384
 4842SOL    HW115425   3.502   4.811   2.387
 4842SOL    HW215426   3.515   4.973   2.369
 4843SOL     OW15427   5.870   2.900   0.685
 4843SOL    HW115428   5.798   2.867   0.746
 4843SOL    HW215429   5.852   2.996   0.662
 4844SOL     OW15430   6.494   3.625   5.352
 4844SOL    HW115431   6.499   3.568   5.434
 4844SOL    HW215432   6.421   3.692   5.363
 4845SOL     OW15433   5.588   5.575   5.342
 4845SOL    HW115434   5.595   5.479   5.313
 4845SOL    HW215435   5.495   5.594   5.372
 4846SOL     OW15436   7.003   2.683   3.744
 4846SOL    HW115437   0.058   2.626   3.773
 4846SOL    HW215438   6.973   2.656   3.653
 4847SOL     OW15439   2.736   1.177   6.077
 4847SOL    HW115440   2.683   1.097   6.047
 4847SOL    HW215441   2.728   1.186   6.176
 4848SOL     OW15442   1.738   0.831   3.928
 4848SOL    HW115443   1.686   0.916   3.927
 4848SOL    HW215444   1.697   0.765   3.865
 4849SOL     OW15445   1.621   6.614   6.735
 4849SOL    HW115446   1.528   6.582   6.754
 4849SOL    HW215447   1.638   6.700   6.784
 4850SOL     OW15448   4.417   1.382   2.798
 4850SOL    HW115449   4.394   1.463   2.745
 4850SOL    HW215450   4.360   1.306   2.769
 4851SOL     OW15451   4.211   5.874   5.993
 4851SOL    HW115452   4.167   5.855   5.905
 4851SOL    HW215453   4.256   5.791   6.026
 4852SOL     OW15454   1.140   6.498   5.049
 4852SOL    HW115455   1.136   6.467   5.144
 4852SOL    HW215456   1.049   6.527   5.020
 4853SOL     OW15457   2.896   1.053   3.505
 4853SOL    HW115458   2.902   1.152   3.489
 4853SOL    HW215459   2.800   1.024   3.496
 4854SOL     OW15460   4.572   0.253   1.835
 4854SOL    HW115461   4.588   0.294   1.925
 4854SOL    HW215462   4.496   0.188   1.842
 4855SOL     OW15463   6.312   3.082   2.164
 4855SOL    HW115464   6.351   3.073   2.256
 4855SOL    HW215465   6.376   3.044   2.098
 4856SOL     OW15466   1.728   3.809   2.627
 4856SOL    HW115467   1.706   3.733   2.566
 4856SOL    HW215468   1.687   3.792   2.716
 4857SOL     OW15469   2.186   2.120   5.099
 4857SOL    HW115470   2.276   2.135   5.059
 4857SOL    HW215471   2.117   2.170   5.046
 4858SOL     OW15472   0.610   0.458   4.424
 4858SOL    HW115473   0.707   0.484   4.421
 4858SOL    HW215474   0.556   0.526   4.374
 4859SOL     OW15475   6.976   0.836   4.473
 4859SOL    HW115476   0.045   0.869   4.499
 4859SOL    HW215477   6.985   0.751   4.421
 4860SOL     OW15478   3.886   4.671   1.506
 4860SOL    HW115479   3.966   4.721   1.472
 4860SOL    HW215480   3.805   4.699   1.454
 4861SOL     OW15481   5.210   4.806   6.874
 4861SOL    HW115482   5.185   4.753   6.793
 4861SOL    HW215483   5.270   4.752   6.932
 4862SOL     OW15484   2.518   4.606   4.368
 4862SOL    HW115485   2.478   4.697   4.356
 4862SOL    HW215486   2.608   4.604   4.326
 4863SOL     OW15487   6.066   3.762   1.588
 4863SOL    HW115488   6.081   3.834   1.656
 4863SOL    HW215489   5.979   3.779   1.540
 4864SOL     OW15490   3.920   1.073   2.961
 4864SOL    HW115491   3.943   1.056   3.057
 4864SOL    HW215492   3.921   1.171   2.944
 4865SOL     OW15493   2.449   0.229   4.612
 4865SOL    HW115494   2.522   0.173   4.650
 4865SOL    HW215495   2.382   0.170   4.566
 4866SOL     OW15496   6.252   2.432   1.483
 4866SOL    HW115497   6.235   2.394   1.574
 4866SOL    HW215498   6.331   2.494   1.488
 4867SOL     OW15499   3.601   5.343   2.119
 4867SOL    HW115500   3.640   5.434   2.133
 4867SOL    HW215501   3.574   5.333   2.023
 4868SOL     OW15502   6.653   5.500   2.847
 4868SOL    HW115503   6.668   5.427   2.780
 4868SOL    HW215504   6.663   5.588   2.802
 4869SOL     OW15505   1.784   1.124   1.439
 4869SOL    HW115506   1.883   1.139   1.431
 4869SOL    HW215507   1.746   1.187   1.506
 4870SOL     OW15508   6.959   6.141   1.909
 4870SOL    HW115509   0.014   6.141   1.974
 4870SOL    HW215510   6.928   6.047   1.895
 4871SOL     OW15511   1.402   0.600   3.807
 4871SOL    HW115512   1.418   0.695   3.833
 4871SOL    HW215513   1.488   0.561   3.773
 4872SOL     OW15514   6.313   6.522   3.520
 4872SOL    HW115515   6.265   6.485   3.440
 4872SOL    HW215516   6.265   6.603   3.553
 4873SOL     OW15517   6.697   5.768   3.084
 4873SOL    HW115518   6.660   5.698   3.145
 4873SOL    HW215519   6.733   5.844   3.138
 4874SOL     OW15520   6.680   3.529   2.704
 4874SOL    HW115521   6.678   3.436   2.667
 4874SOL    HW215522   6.741   3.532   2.783
 4875SOL     OW15523   6.236   2.347   1.220
 4875SOL    HW115524   6.218   2.353   1.319
 4875SOL    HW215525   6.316   2.402   1.198
 4876SOL     OW15526   6.060   1.917   3.645
 4876SOL    HW115527   5.964   1.940   3.633
 4876SOL    HW215528   6.072   1.817   3.641
 4877SOL     OW15529   1.783   2.294   6.433
 4877SOL    HW115530   1.696   2.343   6.444
 4877SOL    HW215531   1.843   2.347   6.372
 4878SOL     OW15532   6.091   1.519   2.408
 4878SOL    HW115533   6.094   1.430   2.455
 4878SOL    HW215534   6.180   1.563   2.417
 4879SOL     OW15535   3.731   0.163   2.635
 4879SOL    HW115536   3.680   0.111   2.704
 4879SOL    HW215537   3.809   0.109   2.604
 4880SOL     OW15538   5.261   3.182   0.727
 4880SOL    HW115539   5.197   3.245   0.770
 4880SOL    HW215540   5.210   3.107   0.685
 4881SOL     OW15541   1.619   0.337   0.071
 4881SOL    HW115542   1.685   0.376   0.007
 4881SOL    HW215543   1.540   0.302   0.020
 4882SOL     OW15544   5.057   0.863   4.992
 4882SOL    HW115545   4.964   0.896   5.008
 4882SOL    HW215546   5.122   0.938   5.008
 4883SOL     OW15547   4.919   4.861   1.799
 4883SOL    HW115548   4.918   4.840   1.702
 4883SOL    HW215549   4.990   4.929   1.818
 4884SOL     OW15550   2.772   6.600   1.053
 4884SOL    HW115551   2.769   6.560   0.961
 4884SOL    HW215552   2.696   6.665   1.063
 4885SOL     OW15553   2.817   5.417   2.165
 4885SOL    HW115554   2.736   5.377   2.208
 4885SOL    HW215555   2.791   5.498   2.114
 4886SOL     OW15556   0.787   5.865   1.449
 4886SOL    HW115557   0.793   5.870   1.349
 4886SOL    HW215558   0.692   5.876   1.477
 4887SOL     OW15559   0.967   0.345   2.467
 4887SOL    HW115560   1.051   0.391   2.492
 4887SOL    HW215561   0.923   0.308   2.549
 4888SOL     OW15562   2.762   0.067   3.784
 4888SOL    HW115563   2.858   0.039   3.780
 4888SOL    HW215564   2.712   0.028   3.707
 4889SOL     OW15565   6.730   1.543   5.781
 4889SOL    HW115566   6.819   1.511   5.749
 4889SOL    HW215567   6.733   1.557   5.880
 4890SOL     OW15568   0.397   1.065   6.947
 4890SOL    HW115569   0.446   1.051   6.861
 4890SOL    HW215570   0.349   1.153   6.943
 4891SOL     OW15571   1.955   4.519   6.908
 4891SOL    HW115572   1.997   4.432   6.932
 4891SOL    HW215573   1.934   4.521   6.811
 4892SOL     OW15574   3.774   6.141   1.602
 4892SOL    HW115575   3.753   6.180   1.513
 4892SOL    HW215576   3.743   6.203   1.674
 4893SOL     OW15577   6.946   3.241   1.574
 4893SOL    HW115578   6.898   3.329   1.578
 4893SOL    HW215579   6.891   3.172   1.622
 4894SOL     OW15580   2.456   1.367   3.532
 4894SOL    HW115581   2.391   1.309   3.481
 4894SOL    HW215582   2.529   1.397   3.470
 4895SOL     OW15583   0.973   4.237   3.924
 4895SOL    HW115584   1.007   4.163   3.981
 4895SOL    HW215585   0.905   4.202   3.860
 4896SOL     OW15586   1.677   4.515   1.888
 4896SOL    HW115587   1.633   4.502   1.976
 4896SOL    HW215588   1.725   4.603   1.887
 4897SOL     OW15589   2.113   3.693   5.639
 4897SOL    HW115590   2.130   3.778   5.689
 4897SOL    HW215591   2.164   3.694   5.553
 4898SOL     OW15592   4.241   0.775   4.131
 4898SOL    HW115593   4.256   0.819   4.042
 4898SOL    HW215594   4.158   0.719   4.126
 4899SOL     OW15595   5.627   5.559   3.131
 4899SOL    HW115596   5.572   5.534   3.210
 4899SOL    HW215597   5.593   5.645   3.092
 4900SOL     OW15598   3.147   6.299   4.835
 4900SOL    HW115599   3.225   6.307   4.898
 4900SOL    HW215600   3.146   6.377   4.773
 4901SOL     OW15601   3.124   0.574   5.003
 4901SOL    HW115602   3.055   0.640   4.975
 4901SOL    HW215603   3.186   0.616   5.069
 4902SOL     OW15604   2.064   1.872   4.721
 4902SOL    HW115605   2.156   1.912   4.716
 4902SOL    HW215606   2.051   1.811   4.643
 4903SOL     OW15607   4.124   5.717   6.811
 4903SOL    HW115608   4.108   5.802   6.861
 4903SOL    HW215609   4.213   5.680   6.835
 4904SOL     OW15610   2.242   0.168   4.339
 4904SOL    HW115611   2.308   0.103   4.302
 4904SOL    HW215612   2.152   0.153   4.297
 4905SOL     OW15613   3.627   6.819   2.668
 4905SOL    HW115614   3.657   6.734   2.711
 4905SOL    HW215615   3.617   6.890   2.737
 4906SOL     OW15616   4.868   2.348   6.339
 4906SOL    HW115617   4.886   2.385   6.430
 4906SOL    HW215618   4.832   2.255   6.347
 4907SOL     OW15619   4.457   5.712   1.926
 4907SOL    HW115620   4.364   5.748   1.920
 4907SOL    HW215621   4.513   5.771   1.983
 4908SOL     OW15622   5.432   5.322   0.029
 4908SOL    HW115623   5.419   5.243   0.088
 4908SOL    HW215624   5.527   5.354   0.038
 4909SOL     OW15625   0.004   6.825   3.882
 4909SOL    HW115626   0.051   6.892   3.825
 4909SOL    HW215627   0.070   6.775   3.938
 4910SOL     OW15628   5.666   0.643   4.978
 4910SOL    HW115629   5.612   0.580   5.035
 4910SOL    HW215630   5.631   0.736   4.989
 4911SOL     OW15631   1.442   4.209   4.084
 4911SOL    HW115632   1.373   4.266   4.040
 4911SOL    HW215633   1.398   4.148   4.149
 4912SOL     OW15634   5.613   1.655   6.402
 4912SOL    HW115635   5.572   1.746   6.405
 4912SOL    HW215636   5.711   1.662   6.418
 4913SOL     OW15637   3.701   2.691   5.339
 4913SOL    HW115638   3.731   2.693   5.435
 4913SOL    HW215639   3.603   2.669   5.336
 4914SOL     OW15640   3.315   0.354   4.484
 4914SOL    HW115641   3.217   0.365   4.502
 4914SOL    HW215642   3.337   0.256   4.480
 4915SOL     OW15643   3.691   6.473   5.865
 4915SOL    HW115644   3.760   6.545   5.857
 4915SOL    HW215645   3.644   6.481   5.953
 4916SOL     OW15646   1.256   0.347   3.594
 4916SOL    HW115647   1.274   0.445   3.601
 4916SOL    HW215648   1.223   0.326   3.502
 4917SOL     OW15649   2.827   5.526   1.314
 4917SOL    HW115650   2.861   5.581   1.237
 4917SOL    HW215651   2.860   5.566   1.400
 4918SOL     OW15652   5.022   5.341   3.035
 4918SOL    HW115653   5.036   5.340   2.936
 4918SOL    HW215654   5.107   5.367   3.081
 4919SOL     OW15655   2.639   2.891   0.548
 4919SOL    HW115656   2.630   2.792   0.539
 4919SOL    HW215657   2.727   2.921   0.510
 4920SOL     OW15658   5.888   1.079   4.438
 4920SOL    HW115659   5.797   1.081   4.479
 4920SOL    HW215660   5.955   1.050   4.507
 4921SOL     OW15661   1.111   4.881   0.491
 4921SOL    HW115662   1.066   4.854   0.406
 4921SOL    HW215663   1.043   4.893   0.562
 4922SOL     OW15664   2.700   2.368   4.946
 4922SOL    HW115665   2.642   2.432   4.896
 4922SOL    HW215666   2.645   2.320   5.014
 4923SOL     OW15667   4.156   2.237   2.835
 4923SOL    HW115668   4.237   2.236   2.775
 4923SOL    HW215669   4.074   2.250   2.779
 4924SOL     OW15670   3.064   0.736   4.659
 4924SOL    HW115671   3.060   0.793   4.577
 4924SOL    HW215672   3.145   0.762   4.712
 4925SOL     OW15673   6.565   0.010   2.480
 4925SOL    HW115674   6.589   6.981   2.563
 4925SOL    HW215675   6.480   6.997   2.442
 4926SOL     OW15676   5.051   1.296   0.538
 4926SOL    HW115677   4.980   1.277   0.471
 4926SOL    HW215678   5.051   1.393   0.561
 4927SOL     OW15679   3.563   3.836   4.464
 4927SOL    HW115680   3.471   3.804   4.443
 4927SOL    HW215681   3.629   3.763   4.444
 4928SOL     OW15682   1.964   6.586   6.968
 4928SOL    HW115683   1.952   6.529   6.886
 4928SOL    HW215684   1.927   6.538   0.025
 4929SOL     OW15685   0.074   6.181   4.165
 4929SOL    HW115686   0.169   6.211   4.152
 4929SOL    HW215687   0.057   6.100   4.109
 4930SOL     OW15688   5.244   0.699   3.444
 4930SOL    HW115689   5.311   0.672   3.375
 4930SOL    HW215690   5.291   0.740   3.522
 4931SOL     OW15691   0.177   6.648   0.846
 4931SOL    HW115692   0.108   6.643   0.773
 4931SOL    HW215693   0.211   6.742   0.852
 4932SOL     OW15694   3.079   3.138   2.172
 4932SOL    HW115695   3.168   3.184   2.182
 4932SOL    HW215696   3.023   3.156   2.253
 4933SOL     OW15697   2.262   0.273   3.167
 4933SOL    HW115698   2.234   0.367   3.150
 4933SOL    HW215699   2.362   0.268   3.174
 4934SOL     OW15700   3.151   5.922   2.389
 4934SOL    HW115701   3.232   5.902   2.333
 4934SOL    HW215702   3.092   5.842   2.391
 4935SOL     OW15703   2.219   1.589   6.370
 4935SOL    HW115704   2.157   1.666   6.383
 4935SOL    HW215705   2.208   1.525   6.446
 4936SOL     OW15706   2.380   4.529   1.537
 4936SOL    HW115707   2.394   4.536   1.635
 4936SOL    HW215708   2.290   4.567   1.514
 4937SOL     OW15709   6.450   3.189   5.700
 4937SOL    HW115710   6.494   3.162   5.614
 4937SOL    HW215711   6.497   3.269   5.738
 4938SOL     OW15712   2.567   5.529   5.610
 4938SOL    HW115713   2.639   5.598   5.609
 4938SOL    HW215714   2.586   5.462   5.682
 4939SOL     OW15715   5.802   1.943   4.533
 4939SOL    HW115716   5.871   2.010   4.507
 4939SOL    HW215717   5.806   1.928   4.632
 4940SOL     OW15718   0.100   1.281   4.757
 4940SOL    HW115719   0.010   1.294   4.716
 4940SOL    HW215720   0.111   1.186   4.784
 4941SOL     OW15721   5.315   2.691   5.353
 4941SOL    HW115722   5.333   2.635   5.272
 4941SOL    HW215723   5.224   2.670   5.389
 4942SOL     OW15724   5.267   2.533   5.785
 4942SOL    HW115725   5.182   2.551   5.836
 4942SOL    HW215726   5.307   2.620   5.756
 4943SOL     OW15727   4.561   3.450   0.056
 4943SOL    HW115728   4.472   3.484   0.025
 4943SOL    HW215729   4.614   3.525   0.096
 4944SOL     OW15730   2.124   4.631   1.503
 4944SOL    HW115731   2.120   4.693   1.425
 4944SOL    HW215732   2.032   4.615   1.538
 4945SOL     OW15733   1.026   0.217   4.364
 4945SOL    HW115734   0.939   0.195   4.320
 4945SOL    HW215735   1.101   0.172   4.315
 4946SOL     OW15736   1.337   4.494   6.848
 4946SOL    HW115737   1.270   4.536   6.909
 4946SOL    HW215738   1.290   4.459   6.766
 4947SOL     OW15739   2.239   1.004   1.007
 4947SOL    HW115740   2.202   0.912   0.989
 4947SOL    HW215741   2.287   1.037   0.926
 4948SOL     OW15742   1.409   2.630   2.683
 4948SOL    HW115743   1.439   2.579   2.602
 4948SOL    HW215744   1.325   2.589   2.719
 4949SOL     OW15745   4.896   6.825   6.080
 4949SOL    HW115746   4.865   6.879   6.157
 4949SOL    HW215747   4.946   6.883   6.015
 4950SOL     OW15748   2.267   5.991   4.151
 4950SOL    HW115749   2.208   6.001   4.071
 4950SOL    HW215750   2.330   6.068   4.156
 4951SOL     OW15751   5.462   1.360   4.676
 4951SOL    HW115752   5.467   1.434   4.743
 4951SOL    HW215753   5.460   1.399   4.584
 4952SOL     OW15754   0.282   0.653   5.903
 4952SOL    HW115755   0.280   0.699   5.992
 4952SOL    HW215756   0.197   0.601   5.890
 4953SOL     OW15757   2.459   6.152   2.552
 4953SOL    HW115758   2.445   6.053   2.563
 4953SOL    HW215759   2.551   6.169   2.517
 4954SOL     OW15760   4.155   3.163   6.984
 4954SOL    HW115761   4.190   3.196   6.897
 4954SOL    HW215762   4.231   3.132   0.019
 4955SOL     OW15763   2.714   6.360   6.648
 4955SOL    HW115764   2.735   6.283   6.709
 4955SOL    HW215765   2.646   6.331   6.580
 4956SOL     OW15766   2.331   6.572   4.631
 4956SOL    HW115767   2.332   6.486   4.580
 4956SOL    HW215768   2.304   6.554   4.725
 4957SOL     OW15769   6.832   1.895   2.059
 4957SOL    HW115770   6.738   1.863   2.065
 4957SOL    HW215771   6.835   1.980   2.007
 4958SOL     OW15772   0.002   5.358   5.488
 4958SOL    HW115773   6.983   5.376   5.577
 4958SOL    HW215774   0.080   5.420   5.476
 4959SOL     OW15775   6.263   1.369   6.483
 4959SOL    HW115776   6.249   1.392   6.386
 4959SOL    HW215777   6.281   1.453   6.534
 4960SOL     OW15778   3.549   5.401   3.840
 4960SOL    HW115779   3.634   5.347   3.844
 4960SOL    HW215780   3.518   5.420   3.933
 4961SOL     OW15781   4.887   1.320   6.036
 4961SOL    HW115782   4.932   1.235   6.010
 4961SOL    HW215783   4.875   1.322   6.135
 4962SOL     OW15784   6.522   1.713   0.291
 4962SOL    HW115785   6.477   1.690   0.205
 4962SOL    HW215786   6.620   1.691   0.285
 4963SOL     OW15787   6.232   6.076   6.706
 4963SOL    HW115788   6.277   6.022   6.635
 4963SOL    HW215789   6.200   6.015   6.779
 4964SOL     OW15790   2.760   6.823   3.970
 4964SOL    HW115791   2.848   6.816   3.923
 4964SOL    HW215792   2.750   6.747   4.034
 4965SOL     OW15793   0.122   0.668   3.132
 4965SOL    HW115794   0.145   0.607   3.208
 4965SOL    HW215795   0.061   0.740   3.164
 4966SOL     OW15796   2.342   6.965   4.899
 4966SOL    HW115797   2.245   6.986   4.902
 4966SOL    HW215798   2.393   0.013   4.950
 4967SOL     OW15799   4.108   4.356   6.620
 4967SOL    HW115800   4.096   4.318   6.528
 4967SOL    HW215801   4.192   4.320   6.660
 4968SOL     OW15802   6.398   2.512   3.854
 4968SOL    HW115803   6.330   2.468   3.795
 4968SOL    HW215804   6.448   2.581   3.802
 4969SOL     OW15805   2.362   0.595   2.637
 4969SOL    HW115806   2.406   0.552   2.559
 4969SOL    HW215807   2.339   0.526   2.706
 4970SOL     OW15808   1.760   2.261   3.487
 4970SOL    HW115809   1.744   2.206   3.405
 4970SOL    HW215810   1.848   2.308   3.479
 4971SOL     OW15811   6.912   6.369   4.191
 4971SOL    HW115812   6.979   6.296   4.175
 4971SOL    HW215813   6.950   6.456   4.158
 4972SOL     OW15814   2.569   3.116   0.162
 4972SOL    HW115815   2.641   3.143   0.098
 4972SOL    HW215816   2.598   3.139   0.255
 4973SOL     OW15817   1.431   0.436   2.601
 4973SOL    HW115818   1.481   0.522   2.594
 4973SOL    HW215819   1.336   0.455   2.625
 4974SOL     OW15820   6.136   4.985   1.398
 4974SOL    HW115821   6.136   4.895   1.354
 4974SOL    HW215822   6.115   4.974   1.495
 4975SOL     OW15823   5.519   5.048   5.370
 4975SOL    HW115824   5.535   4.992   5.289
 4975SOL    HW215825   5.443   5.010   5.423
 4976SOL     OW15826   2.539   0.173   3.925
 4976SOL    HW115827   2.625   0.129   3.896
 4976SOL    HW215828   2.479   0.185   3.846
 4977SOL     OW15829   3.963   4.274   0.463
 4977SOL    HW115830   3.867   4.246   0.459
 4977SOL    HW215831   4.022   4.194   0.451
 4978SOL     OW15832   0.159   4.601   4.959
 4978SOL    HW115833   0.165   4.579   4.861
 4978SOL    HW215834   0.081   4.554   4.999
 4979SOL     OW15835   0.449   0.123   5.634
 4979SOL    HW115836   0.433   0.031   5.670
 4979SOL    HW215837   0.535   0.159   5.670
 4980SOL     OW15838   4.577   5.926   3.546
 4980SOL    HW115839   4.544   6.010   3.589
 4980SOL    HW215840   4.554   5.929   3.448
 4981SOL     OW15841   5.082   6.437   6.316
 4981SOL    HW115842   4.993   6.480   6.331
 4981SOL    HW215843   5.137   6.496   6.256
 4982SOL     OW15844   2.526   1.537   5.975
 4982SOL    HW115845   2.529   1.468   5.903
 4982SOL    HW215846   2.438   1.531   6.023
 4983SOL     OW15847   5.372   2.494   4.495
 4983SOL    HW115848   5.293   2.543   4.532
 4983SOL    HW215849   5.361   2.482   4.396
 4984SOL     OW15850   5.990   4.659   4.246
 4984SOL    HW115851   5.931   4.619   4.316
 4984SOL    HW215852   6.029   4.586   4.190
 4985SOL     OW15853   6.524   6.124   3.370
 4985SOL    HW115854   6.545   6.186   3.447
 4985SOL    HW215855   6.455   6.058   3.399
 4986SOL     OW15856   6.067   4.297   2.430
 4986SOL    HW115857   6.026   4.245   2.355
 4986SOL    HW215858   6.002   4.300   2.507
 4987SOL     OW15859   1.164   1.085   0.953
 4987SOL    HW115860   1.167   0.995   0.909
 4987SOL    HW215861   1.094   1.085   1.025
 4988SOL     OW15862   5.630   0.793   3.438
 4988SOL    HW115863   5.546   0.797   3.491
 4988SOL    HW215864   5.611   0.753   3.349
 4989SOL     OW15865   5.428   0.167   1.169
 4989SOL    HW115866   5.469   0.080   1.142
 4989SOL    HW215867   5.431   0.176   1.268
 4990SOL     OW15868   2.160   1.579   5.225
 4990SOL    HW115869   2.235   1.550   5.284
 4990SOL    HW215870   2.170   1.676   5.203
 4991SOL     OW15871   6.662   4.225   4.580
 4991SOL    HW115872   6.757   4.245   4.561
 4991SOL    HW215873   6.618   4.186   4.499
 4992SOL     OW15874   4.805   0.597   4.683
 4992SOL    HW115875   4.842   0.521   4.630
 4992SOL    HW215876   4.714   0.573   4.716
 4993SOL     OW15877   3.294   5.062   4.200
 4993SOL    HW115878   3.195   5.057   4.191
 4993SOL    HW215879   3.326   4.988   4.259
 4994SOL     OW15880   2.149   0.200   2.743
 4994SOL    HW115881   2.064   0.147   2.752
 4994SOL    HW215882   2.179   0.200   2.648
 4995SOL     OW15883   6.832   3.009   5.547
 4995SOL    HW115884   6.755   3.052   5.500
 4995SOL    HW215885   6.916   3.027   5.496
 4996SOL     OW15886   1.586   1.574   2.712
 4996SOL    HW115887   1.499   1.560   2.758
 4996SOL    HW215888   1.592   1.669   2.681
 4997SOL     OW15889   5.749   2.297   3.207
 4997SOL    HW115890   5.656   2.261   3.214
 4997SOL    HW215891   5.779   2.292   3.112
 4998SOL     OW15892   1.843   3.964   5.423
 4998SOL    HW115893   1.763   3.910   5.451
 4998SOL    HW215894   1.912   3.904   5.384
 4999SOL     OW15895   6.091   4.513   1.225
 4999SOL    HW115896   6.082   4.442   1.294
 4999SOL    HW215897   6.140   4.477   1.145
 5000SOL     OW15898   2.862   6.535   4.241
 5000SOL    HW115899   2.828   6.623   4.275
 5000SOL    HW215900   2.811   6.509   4.159
 5001SOL     OW15901   1.311   4.256   0.741
 5001SOL    HW115902   1.214   4.274   0.726
 5001SOL    HW215903   1.365   4.305   0.672
 5002SOL     OW15904   1.327   3.301   3.515
 5002SOL    HW115905   1.348   3.231   3.446
 5002SOL    HW215906   1.411   3.334   3.556
 5003SOL     OW15907   2.497   6.336   2.845
 5003SOL    HW115908   2.596   6.348   2.835
 5003SOL    HW215909   2.451   6.375   2.766
 5004SOL     OW15910   3.002   4.986   5.899
 5004SOL    HW115911   3.009   4.979   5.999
 5004SOL    HW215912   2.911   5.018   5.874
 5005SOL     OW15913   3.335   2.223   0.509
 5005SOL    HW115914   3.267   2.226   0.436
 5005SOL    HW215915   3.289   2.238   0.597
 5006SOL     OW15916   4.731   6.728   6.906
 5006SOL    HW115917   4.803   6.794   6.885
 5006SOL    HW215918   4.657   6.774   6.956
 5007SOL     OW15919   1.755   0.025   0.003
 5007SOL    HW115920   1.711   0.098   6.974
 5007SOL    HW215921   1.696   7.018   0.079
 5008SOL     OW15922   6.052   0.022   3.160
 5008SOL    HW115923   6.151   0.009   3.153
 5008SOL    HW215924   6.033   0.114   3.195
 5009SOL     OW15925   1.871   6.341   1.368
 5009SOL    HW115926   1.938   6.354   1.441
 5009SOL    HW215927   1.878   6.248   1.332
 5010SOL     OW15928   3.879   3.036   3.340
 5010SOL    HW115929   3.884   3.114   3.404
 5010SOL    HW215930   3.794   2.986   3.356
 5011SOL     OW15931   1.463   3.961   2.616
 5011SOL    HW115932   1.448   3.911   2.701
 5011SOL    HW215933   1.519   4.042   2.634
 5012SOL     OW15934   4.978   3.702   6.373
 5012SOL    HW115935   5.024   3.616   6.395
 5012SOL    HW215936   5.043   3.777   6.378
 5013SOL     OW15937   5.084   1.632   6.715
 5013SOL    HW115938   5.009   1.666   6.659
 5013SOL    HW215939   5.065   1.650   6.811
 5014SOL     OW15940   5.262   4.252   1.001
 5014SOL    HW115941   5.227   4.180   0.940
 5014SOL    HW215942   5.361   4.242   1.012
 5015SOL     OW15943   4.704   2.402   3.910
 5015SOL    HW115944   4.767   2.381   3.984
 5015SOL    HW215945   4.619   2.351   3.923
 5016SOL     OW15946   2.713   2.478   0.659
 5016SOL    HW115947   2.795   2.450   0.609
 5016SOL    HW215948   2.634   2.474   0.598
 5017SOL     OW15949   1.917   1.974   6.788
 5017SOL    HW115950   1.829   1.973   6.836
 5017SOL    HW215951   1.919   2.051   6.725
 5018SOL     OW15952   0.498   4.488   1.415
 5018SOL    HW115953   0.508   4.417   1.345
 5018SOL    HW215954   0.552   4.462   1.495
 5019SOL     OW15955   1.606   5.213   6.699
 5019SOL    HW115956   1.533   5.150   6.725
 5019SOL    HW215957   1.574   5.307   6.706
 5020SOL     OW15958   4.638   7.004   5.883
 5020SOL    HW115959   4.580   6.978   5.960
 5020SOL    HW215960   4.685   0.067   5.904
 5021SOL     OW15961   1.316   1.852   6.004
 5021SOL    HW115962   1.305   1.900   5.917
 5021SOL    HW215963   1.365   1.766   5.988
 5022SOL     OW15964   1.591   0.222   0.370
 5022SOL    HW115965   1.527   0.292   0.401
 5022SOL    HW215966   1.592   0.220   0.270
 5023SOL     OW15967   6.334   2.898   0.765
 5023SOL    HW115968   6.335   2.985   0.815
 5023SOL    HW215969   6.265   2.838   0.805
 5024SOL     OW15970   6.306   6.081   2.690
 5024SOL    HW115971   6.380   6.127   2.738
 5024SOL    HW215972   6.344   6.022   2.618
 5025SOL     OW15973   4.036   1.866   2.289
 5025SOL    HW115974   4.013   1.796   2.222
 5025SOL    HW215975   4.044   1.824   2.380
 5026SOL     OW15976   5.767   6.752   6.602
 5026SOL    HW115977   5.679   6.793   6.576
 5026SOL    HW215978   5.822   6.737   6.520
 5027SOL     OW15979   0.689   6.702   2.478
 5027SOL    HW115980   0.623   6.755   2.531
 5027SOL    HW215981   0.643   6.660   2.400
 5028SOL     OW15982   0.578   6.403   3.536
 5028SOL    HW115983   0.497   6.369   3.489
 5028SOL    HW215984   0.657   6.345   3.514
 5029SOL     OW15985   0.083   3.565   3.236
 5029SOL    HW115986   0.149   3.618   3.289
 5029SOL    HW215987   0.118   3.553   3.143
 5030SOL     OW15988   6.745   1.022   6.122
 5030SOL    HW115989   6.722   1.103   6.068
 5030SOL    HW215990   6.661   0.979   6.155
 5031SOL     OW15991   5.679   0.281   4.897
 5031SOL    HW115992   5.715   0.282   4.990
 5031SOL    HW215993   5.622   0.200   4.884
 5032SOL     OW15994   1.447   3.624   0.736
 5032SOL    HW115995   1.472   3.530   0.759
 5032SOL    HW215996   1.528   3.682   0.738
 5033SOL     OW15997   2.263   5.657   6.674
 5033SOL    HW115998   2.306   5.610   6.597
 5033SOL    HW215999   2.195   5.722   6.640
 5034SOL     OW16000   6.313   1.370   3.116
 5034SOL    HW116001   6.392   1.339   3.063
 5034SOL    HW216002   6.338   1.378   3.213
 5035SOL     OW16003   6.247   4.498   0.358
 5035SOL    HW116004   6.186   4.513   0.281
 5035SOL    HW216005   6.231   4.568   0.428
 5036SOL     OW16006   0.431   4.974   6.952
 5036SOL    HW116007   0.351   4.967   6.892
 5036SOL    HW216008   0.493   5.045   6.918
 5037SOL     OW16009   5.588   2.684   2.613
 5037SOL    HW116010   5.565   2.638   2.527
 5037SOL    HW216011   5.558   2.628   2.690
 5038SOL     OW16012   1.849   4.031   5.880
 5038SOL    HW116013   1.771   4.090   5.898
 5038SOL    HW216014   1.871   4.033   5.782
 5039SOL     OW16015   2.822   3.213   5.621
 5039SOL    HW116016   2.851   3.207   5.717
 5039SOL    HW216017   2.816   3.121   5.583
 5040SOL     OW16018   1.861   4.889   6.606
 5040SOL    HW116019   1.888   4.908   6.700
 5040SOL    HW216020   1.806   4.965   6.571
 5041SOL     OW16021   1.781   2.302   1.159
 5041SOL    HW116022   1.724   2.272   1.235
 5041SOL    HW216023   1.840   2.227   1.129
 5042SOL     OW16024   6.034   3.358   0.810
 5042SOL    HW116025   6.039   3.353   0.710
 5042SOL    HW216026   6.049   3.267   0.848
 5043SOL     OW16027   2.597   1.314   5.859
 5043SOL    HW116028   2.658   1.303   5.937
 5043SOL    HW216029   2.608   1.237   5.796
 5044SOL     OW16030   6.201   6.207   2.158
 5044SOL    HW116031   6.162   6.127   2.203
 5044SOL    HW216032   6.167   6.290   2.203
 5045SOL     OW16033   5.907   3.379   0.125
 5045SOL    HW116034   5.815   3.412   0.102
 5045SOL    HW216035   5.900   3.286   0.162
 5046SOL     OW16036   3.322   4.130   4.645
 5046SOL    HW116037   3.333   4.177   4.733
 5046SOL    HW216038   3.405   4.143   4.590
 5047SOL     OW16039   0.428   2.930   2.410
 5047SOL    HW116040   0.431   2.982   2.324
 5047SOL    HW216041   0.519   2.929   2.451
 5048SOL     OW16042   0.432   1.056   1.364
 5048SOL    HW116043   0.380   1.140   1.384
 5048SOL    HW216044   0.461   1.013   1.449
 5049SOL     OW16045   6.101   1.692   4.416
 5049SOL    HW116046   6.152   1.766   4.372
 5049SOL    HW216047   6.004   1.699   4.392
 5050SOL     OW16048   1.004   1.099   1.947
 5050SOL    HW116049   1.030   1.057   1.860
 5050SOL    HW216050   0.909   1.073   1.968
 5051SOL     OW16051   4.444   3.311   0.580
 5051SOL    HW116052   4.447   3.370   0.499
 5051SOL    HW216053   4.349   3.303   0.612
 5052SOL     OW16054   2.594   5.390   5.839
 5052SOL    HW116055   2.561   5.297   5.826
 5052SOL    HW216056   2.652   5.394   5.921
 5053SOL     OW16057   1.779   3.898   3.985
 5053SOL    HW116058   1.698   3.954   3.967
 5053SOL    HW216059   1.815   3.920   4.076
 5054SOL     OW16060   3.786   5.558   5.334
 5054SOL    HW116061   3.762   5.484   5.397
 5054SOL    HW216062   3.783   5.524   5.240
 5055SOL     OW16063   1.155   0.103   5.365
 5055SOL    HW116064   1.150   0.195   5.403
 5055SOL    HW216065   1.142   0.107   5.265
 5056SOL     OW16066   6.448   3.772   0.677
 5056SOL    HW116067   6.381   3.722   0.622
 5056SOL    HW216068   6.423   3.869   0.679
 5057SOL     OW16069   0.357   5.435   4.833
 5057SOL    HW116070   0.394   5.368   4.769
 5057SOL    HW216071   0.294   5.496   4.785
 5058SOL     OW16072   2.586   3.449   5.843
 5058SOL    HW116073   2.599   3.431   5.746
 5058SOL    HW216074   2.537   3.372   5.885
 5059SOL     OW16075   5.475   3.317   3.446
 5059SOL    HW116076   5.420   3.234   3.438
 5059SOL    HW216077   5.560   3.297   3.495
 5060SOL     OW16078   0.258   2.848   5.624
 5060SOL    HW116079   0.330   2.853   5.555
 5060SOL    HW216080   0.169   2.843   5.579
 5061SOL     OW16081   3.316   3.102   3.623
 5061SOL    HW116082   3.399   3.100   3.678
 5061SOL    HW216083   3.313   3.189   3.573
 5062SOL     OW16084   6.068   1.471   2.990
 5062SOL    HW116085   6.092   1.547   2.929
 5062SOL    HW216086   6.147   1.450   3.049
 5063SOL     OW16087   1.573   6.725   2.112
 5063SOL    HW116088   1.547   6.703   2.206
 5063SOL    HW216089   1.662   6.771   2.112
 5064SOL     OW16090   4.571   4.334   1.634
 5064SOL    HW116091   4.501   4.308   1.701
 5064SOL    HW216092   4.595   4.430   1.646
 5065SOL     OW16093   1.011   2.048   3.418
 5065SOL    HW116094   1.067   2.096   3.351
 5065SOL    HW216095   1.070   1.999   3.482
 5066SOL     OW16096   3.875   4.057   1.012
 5066SOL    HW116097   3.831   4.119   1.077
 5066SOL    HW216098   3.974   4.066   1.018
 5067SOL     OW16099   2.866   1.337   2.444
 5067SOL    HW116100   2.807   1.335   2.363
 5067SOL    HW216101   2.942   1.399   2.429
 5068SOL     OW16102   3.234   4.940   0.014
 5068SOL    HW116103   3.184   4.883   0.080
 5068SOL    HW216104   3.221   5.036   0.036
 5069SOL     OW16105   1.792   2.141   5.891
 5069SOL    HW116106   1.862   2.132   5.961
 5069SOL    HW216107   1.747   2.230   5.899
 5070SOL     OW16108   4.954   4.981   4.622
 5070SOL    HW116109   4.947   4.969   4.721
 5070SOL    HW216110   4.871   5.025   4.588
 5071SOL     OW16111   3.887   1.874   3.556
 5071SOL    HW116112   3.956   1.864   3.628
 5071SOL    HW216113   3.874   1.786   3.510
 5072SOL     OW16114   1.835   1.468   1.269
 5072SOL    HW116115   1.910   1.439   1.329
 5072SOL    HW216116   1.850   1.432   1.177
 5073SOL     OW16117   1.156   4.470   0.486
 5073SOL    HW116118   1.147   4.372   0.465
 5073SOL    HW216119   1.096   4.493   0.562
 5074SOL     OW16120   3.335   2.083   2.142
 5074SOL    HW116121   3.405   2.121   2.202
 5074SOL    HW216122   3.245   2.116   2.171
 5075SOL     OW16123   1.550   2.249   6.684
 5075SOL    HW116124   1.522   2.320   6.620
 5075SOL    HW216125   1.649   2.239   6.682
 5076SOL     OW16126   5.419   6.888   0.643
 5076SOL    HW116127   5.465   6.817   0.696
 5076SOL    HW216128   5.416   6.973   0.696
 5077SOL     OW16129   1.260   4.433   5.908
 5077SOL    HW116130   1.332   4.467   5.848
 5077SOL    HW216131   1.263   4.333   5.911
 5078SOL     OW16132   0.592   0.725   3.965
 5078SOL    HW116133   0.650   0.744   3.885
 5078SOL    HW216134   0.570   0.628   3.967
 5079SOL     OW16135   2.331   2.751   5.005
 5079SOL    HW116136   2.360   2.846   5.009
 5079SOL    HW216137   2.317   2.716   5.098
 5080SOL     OW16138   6.283   6.038   5.866
 5080SOL    HW116139   6.198   6.064   5.912
 5080SOL    HW216140   6.354   6.105   5.887
 5081SOL     OW16141   2.151   3.898   5.794
 5081SOL    HW116142   2.175   3.920   5.889
 5081SOL    HW216143   2.079   3.960   5.763
 5082SOL     OW16144   4.993   6.744   1.410
 5082SOL    HW116145   5.088   6.774   1.414
 5082SOL    HW216146   4.935   6.820   1.381
 5083SOL     OW16147   2.898   0.398   2.616
 5083SOL    HW116148   2.925   0.327   2.681
 5083SOL    HW216149   2.878   0.483   2.665
 5084SOL     OW16150   0.606   5.004   3.764
 5084SOL    HW116151   0.579   5.001   3.861
 5084SOL    HW216152   0.623   4.911   3.732
 5085SOL     OW16153   6.554   2.785   5.617
 5085SOL    HW116154   6.473   2.754   5.567
 5085SOL    HW216155   6.629   2.802   5.553
 5086SOL     OW16156   1.764   4.774   2.812
 5086SOL    HW116157   1.697   4.726   2.870
 5086SOL    HW216158   1.729   4.779   2.718
 5087SOL     OW16159   1.226   5.175   2.104
 5087SOL    HW116160   1.176   5.262   2.108
 5087SOL    HW216161   1.305   5.185   2.043
 5088SOL     OW16162   6.035   6.575   3.956
 5088SOL    HW116163   5.995   6.666   3.966
 5088SOL    HW216164   5.962   6.507   3.947
 5089SOL     OW16165   6.425   4.763   3.742
 5089SOL    HW116166   6.436   4.666   3.722
 5089SOL    HW216167   6.465   4.784   3.832
 5090SOL     OW16168   1.545   2.834   2.410
 5090SOL    HW116169   1.541   2.929   2.441
 5090SOL    HW216170   1.641   2.808   2.394
 5091SOL     OW16171   7.014   1.470   1.581
 5091SOL    HW116172   0.038   1.535   1.521
 5091SOL    HW216173   0.008   1.377   1.548
 5092SOL     OW16174   3.311   3.362   3.535
 5092SOL    HW116175   3.272   3.453   3.526
 5092SOL    HW216176   3.406   3.364   3.504
 5093SOL     OW16177   2.925   1.258   0.526
 5093SOL    HW116178   2.898   1.313   0.605
 5093SOL    HW216179   2.846   1.244   0.466
 5094SOL     OW16180   2.387   5.556   6.463
 5094SOL    HW116181   2.339   5.475   6.428
 5094SOL    HW216182   2.399   5.622   6.389
 5095SOL     OW16183   6.890   2.397   2.926
 5095SOL    HW116184   6.846   2.438   3.006
 5095SOL    HW216185   6.950   2.465   2.883
 5096SOL     OW16186   4.679   4.599   6.647
 5096SOL    HW116187   4.716   4.624   6.557
 5096SOL    HW216188   4.681   4.678   6.707
 5097SOL     OW16189   0.881   0.137   6.312
 5097SOL    HW116190   0.980   0.137   6.295
 5097SOL    HW216191   0.860   0.071   6.384
 5098SOL     OW16192   2.837   0.645   2.041
 5098SOL    HW116193   2.768   0.573   2.052
 5098SOL    HW216194   2.918   0.622   2.095
 5099SOL     OW16195   0.623   6.920   1.454
 5099SOL    HW116196   0.600   6.884   1.364
 5099SOL    HW216197   0.656   6.846   1.512
 5100SOL     OW16198   2.810   5.867   4.367
 5100SOL    HW116199   2.866   5.785   4.370
 5100SOL    HW216200   2.828   5.917   4.282
 5101SOL     OW16201   3.976   6.832   6.004
 5101SOL    HW116202   3.884   6.870   6.003
 5101SOL    HW216203   4.041   6.901   5.970
 5102SOL     OW16204   4.893   6.066   4.574
 5102SOL    HW116205   4.901   5.983   4.629
 5102SOL    HW216206   4.862   6.142   4.631
 5103SOL     OW16207   0.092   1.363   4.407
 5103SOL    HW116208   0.180   1.410   4.400
 5103SOL    HW216209   0.091   1.284   4.344
 5104SOL     OW16210   1.627   6.250   2.183
 5104SOL    HW116211   1.649   6.323   2.119
 5104SOL    HW216212   1.686   6.257   2.263
 5105SOL     OW16213   2.802   2.569   0.101
 5105SOL    HW116214   2.739   2.619   0.042
 5105SOL    HW216215   2.876   2.630   0.131
 5106SOL     OW16216   4.559   1.564   0.697
 5106SOL    HW116217   4.509   1.477   0.698
 5106SOL    HW216218   4.567   1.599   0.791
 5107SOL     OW16219   4.123   2.225   1.420
 5107SOL    HW116220   4.185   2.157   1.459
 5107SOL    HW216221   4.066   2.182   1.350
 5108SOL     OW16222   4.138   4.103   5.290
 5108SOL    HW116223   4.128   4.004   5.304
 5108SOL    HW216224   4.086   4.152   5.359
 5109SOL     OW16225   0.704   1.843   6.863
 5109SOL    HW116226   0.803   1.851   6.850
 5109SOL    HW216227   0.657   1.894   6.792
 5110SOL     OW16228   0.715   0.096   6.072
 5110SOL    HW116229   0.777   0.088   6.150
 5110SOL    HW216230   0.668   0.184   6.075
 5111SOL     OW16231   1.128   0.965   4.949
 5111SOL    HW116232   1.124   1.028   4.872
 5111SOL    HW216233   1.051   0.902   4.945
 5112SOL     OW16234   1.222   6.984   2.805
 5112SOL    HW116235   1.257   0.055   2.799
 5112SOL    HW216236   1.210   6.947   2.713
 5113SOL     OW16237   2.272   6.268   0.959
 5113SOL    HW116238   2.334   6.338   0.924
 5113SOL    HW216239   2.214   6.235   0.884
 5114SOL     OW16240   4.077   7.021   6.880
 5114SOL    HW116241   4.149   7.010   6.812
 5114SOL    HW216242   4.076   0.093   6.912
 5115SOL     OW16243   1.378   4.955   3.267
 5115SOL    HW116244   1.302   4.891   3.269
 5115SOL    HW216245   1.343   5.047   3.249
 5116SOL     OW16246   0.824   6.429   0.187
 5116SOL    HW116247   0.741   6.377   0.169
 5116SOL    HW216248   0.885   6.376   0.246
 5117SOL     OW16249   1.633   3.844   4.288
 5117SOL    HW116250   1.589   3.829   4.376
 5117SOL    HW216251   1.729   3.866   4.302
 5118SOL     OW16252   5.533   0.655   0.185
 5118SOL    HW116253   5.546   0.751   0.161
 5118SOL    HW216254   5.560   0.640   0.280
 5119SOL     OW16255   5.162   0.477   2.434
 5119SOL    HW116256   5.157   0.418   2.514
 5119SOL    HW216257   5.186   0.570   2.462
 5120SOL     OW16258   4.437   0.022   4.470
 5120SOL    HW116259   4.371   6.974   4.495
 5120SOL    HW216260   4.526   7.001   4.454
 5121SOL     OW16261   3.026   2.746   6.818
 5121SOL    HW116262   3.034   2.839   6.784
 5121SOL    HW216263   2.930   2.725   6.838
 5122SOL     OW16264   3.357   6.186   3.397
 5122SOL    HW116265   3.406   6.234   3.469
 5122SOL    HW216266   3.290   6.248   3.355
 5123SOL     OW16267   4.197   2.179   4.025
 5123SOL    HW116268   4.098   2.166   4.036
 5123SOL    HW216269   4.223   2.156   3.931
 5124SOL     OW16270   2.242   5.512   4.710
 5124SOL    HW116271   2.153   5.535   4.750
 5124SOL    HW216272   2.304   5.590   4.722
 5125SOL     OW16273   6.274   4.192   4.206
 5125SOL    HW116274   6.221   4.238   4.135
 5125SOL    HW216275   6.213   4.161   4.279
 5126SOL     OW16276   6.204   5.206   6.131
 5126SOL    HW116277   6.157   5.216   6.043
 5126SOL    HW216278   6.299   5.234   6.121
 5127SOL     OW16279   0.346   3.792   0.277
 5127SOL    HW116280   0.404   3.760   0.353
 5127SOL    HW216281   0.250   3.777   0.300
 5128SOL     OW16282   0.383   0.327   6.321
 5128SOL    HW116283   0.326   0.298   6.245
 5128SOL    HW216284   0.337   0.306   6.407
 5129SOL     OW16285   6.454   0.136   2.793
 5129SOL    HW116286   6.547   0.122   2.759
 5129SOL    HW216287   6.391   0.080   2.739
 5130SOL     OW16288   0.680   5.549   3.643
 5130SOL    HW116289   0.752   5.501   3.592
 5130SOL    HW216290   0.722   5.620   3.701
 5131SOL     OW16291   2.262   5.018   4.253
 5131SOL    HW116292   2.320   5.089   4.212
 5131SOL    HW216293   2.166   5.045   4.246
 5132SOL     OW16294   3.454   2.896   6.960
 5132SOL    HW116295   3.507   2.840   6.897
 5132SOL    HW216296   3.513   2.966   7.000
 5133SOL     OW16297   2.258   5.271   0.246
 5133SOL    HW116298   2.345   5.232   0.278
 5133SOL    HW216299   2.183   5.211   0.273
 5134SOL     OW16300   0.592   3.778   2.788
 5134SOL    HW116301   0.636   3.689   2.799
 5134SOL    HW216302   0.587   3.800   2.690
 5135SOL     OW16303   5.894   3.025   4.581
 5135SOL    HW116304   5.898   3.120   4.548
 5135SOL    HW216305   5.891   3.025   4.681
 5136SOL     OW16306   3.759   0.899   5.963
 5136SOL    HW116307   3.689   0.971   5.968
 5136SOL    HW216308   3.745   0.846   5.879
 5137SOL     OW16309   5.201   3.129   5.519
 5137SOL    HW116310   5.119   3.074   5.538
 5137SOL    HW216311   5.225   3.182   5.599
 5138SOL     OW16312   3.071   2.753   5.359
 5138SOL    HW116313   2.972   2.737   5.360
 5138SOL    HW216314   3.089   2.842   5.316
 5139SOL     OW16315   1.103   0.465   2.945
 5139SOL    HW116316   1.147   0.516   3.019
 5139SOL    HW216317   1.094   0.369   2.972
 5140SOL     OW16318   4.048   2.565   0.036
 5140SOL    HW116319   4.046   2.664   0.023
 5140SOL    HW216320   4.141   2.536   0.058
 5141SOL     OW16321   0.106   3.690   0.370
 5141SOL    HW116322   0.159   3.616   0.411
 5141SOL    HW216323   0.024   3.652   0.327
 5142SOL     OW16324   5.853   0.074   3.359
 5142SOL    HW116325   5.827   0.138   3.431
 5142SOL    HW216326   5.798   7.013   3.366
 5143SOL     OW16327   6.695   4.612   3.970
 5143SOL    HW116328   6.749   4.528   3.965
 5143SOL    HW216329   6.694   4.656   3.880
 5144SOL     OW16330   0.432   4.852   6.606
 5144SOL    HW116331   0.517   4.905   6.609
 5144SOL    HW216332   0.439   4.781   6.536
 5145SOL     OW16333   2.816   4.927   5.532
 5145SOL    HW116334   2.767   5.011   5.509
 5145SOL    HW216335   2.897   4.919   5.474
 5146SOL     OW16336   3.541   4.384   5.277
 5146SOL    HW116337   3.477   4.461   5.270
 5146SOL    HW216338   3.510   4.309   5.219
 5147SOL     OW16339   0.030   5.136   2.639
 5147SOL    HW116340   0.064   5.043   2.621
 5147SOL    HW216341   0.005   5.144   2.735
 5148SOL     OW16342   6.631   6.312   1.221
 5148SOL    HW116343   6.712   6.320   1.281
 5148SOL    HW216344   6.636   6.383   1.150
 5149SOL     OW16345   6.373   5.623   3.114
 5149SOL    HW116346   6.397   5.719   3.129
 5149SOL    HW216347   6.350   5.609   3.018
 5150SOL     OW16348   2.102   5.207   2.979
 5150SOL    HW116349   2.117   5.173   3.072
 5150SOL    HW216350   2.124   5.135   2.913
 5151SOL     OW16351   5.666   2.204   0.813
 5151SOL    HW116352   5.692   2.300   0.828
 5151SOL    HW216353   5.749   2.149   0.803
 5152SOL     OW16354   2.588   4.790   0.205
 5152SOL    HW116355   2.614   4.857   0.135
 5152SOL    HW216356   2.565   4.837   0.290
 5153SOL     OW16357   2.266   0.006   6.955
 5153SOL    HW116358   2.338   0.074   6.953
 5153SOL    HW216359   2.182   0.046   6.992
 5154SOL     OW16360   1.079   3.142   6.138
 5154SOL    HW116361   1.131   3.058   6.125
 5154SOL    HW216362   0.981   3.120   6.141
 5155SOL     OW16363   4.409   6.632   2.323
 5155SOL    HW116364   4.476   6.621   2.250
 5155SOL    HW216365   4.427   6.717   2.372
 5156SOL     OW16366   5.769   3.675   5.832
 5156SOL    HW116367   5.814   3.588   5.814
 5156SOL    HW216368   5.712   3.667   5.914
 5157SOL     OW16369   3.741   2.103   3.460
 5157SOL    HW116370   3.777   2.012   3.484
 5157SOL    HW216371   3.797   2.173   3.504
 5158SOL     OW16372   3.750   1.364   1.875
 5158SOL    HW116373   3.654   1.336   1.873
 5158SOL    HW216374   3.755   1.463   1.861
 5159SOL     OW16375   6.912   3.480   3.948
 5159SOL    HW116376   6.875   3.555   3.892
 5159SOL    HW216377   6.978   3.428   3.894
 5160SOL     OW16378   0.246   5.043   3.211
 5160SOL    HW116379   0.315   4.979   3.178
 5160SOL    HW216380   0.161   4.993   3.229
 5161SOL     OW16381   1.377   3.825   5.829
 5161SOL    HW116382   1.363   3.726   5.843
 5161SOL    HW216383   1.336   3.852   5.742
 5162SOL     OW16384   1.365   5.246   2.833
 5162SOL    HW116385   1.381   5.185   2.910
 5162SOL    HW216386   1.294   5.208   2.774
 5163SOL     OW16387   3.577   6.368   6.803
 5163SOL    HW116388   3.564   6.323   6.891
 5163SOL    HW216389   3.504   6.435   6.790
 5164SOL     OW16390   4.361   2.571   0.079
 5164SOL    HW116391   4.413   2.655   0.100
 5164SOL    HW216392   4.394   2.497   0.137
 5165SOL     OW16393   6.029   4.359   6.191
 5165SOL    HW116394   5.961   4.400   6.130
 5165SOL    HW216395   6.024   4.402   6.281
 5166SOL     OW16396   0.864   5.408   2.822
 5166SOL    HW116397   0.825   5.327   2.779
 5166SOL    HW216398   0.907   5.383   2.909
 5167SOL     OW16399   6.303   6.391   5.871
 5167SOL    HW116400   6.332   6.480   5.836
 5167SOL    HW216401   6.380   6.345   5.914
 5168SOL     OW16402   5.201   4.116   2.560
 5168SOL    HW116403   5.163   4.148   2.473
 5168SOL    HW216404   5.293   4.079   2.544
 5169SOL     OW16405   3.738   1.687   4.733
 5169SOL    HW116406   3.729   1.704   4.831
 5169SOL    HW216407   3.654   1.646   4.699
 5170SOL     OW16408   0.692   4.369   6.133
 5170SOL    HW116409   0.774   4.389   6.187
 5170SOL    HW216410   0.714   4.303   6.062
 5171SOL     OW16411   1.072   6.027   4.666
 5171SOL    HW116412   1.104   5.943   4.709
 5171SOL    HW216413   1.015   6.004   4.587
 5172SOL     OW16414   0.867   2.359   2.015
 5172SOL    HW116415   0.814   2.278   1.988
 5172SOL    HW216416   0.964   2.342   1.999
 5173SOL     OW16417   5.198   4.704   6.324
 5173SOL    HW116418   5.177   4.769   6.251
 5173SOL    HW216419   5.295   4.680   6.321
 5174SOL     OW16420   2.306   4.741   3.698
 5174SOL    HW116421   2.320   4.837   3.724
 5174SOL    HW216422   2.213   4.729   3.664
 5175SOL     OW16423   1.950   3.389   6.705
 5175SOL    HW116424   1.922   3.427   6.617
 5175SOL    HW216425   1.941   3.458   6.777
 5176SOL     OW16426   4.559   2.590   6.699
 5176SOL    HW116427   4.473   2.550   6.732
 5176SOL    HW216428   4.630   2.577   6.768
 5177SOL     OW16429   5.108   0.478   6.985
 5177SOL    HW116430   5.168   0.405   6.953
 5177SOL    HW216431   5.142   0.514   0.049
 5178SOL     OW16432   0.936   4.410   1.918
 5178SOL    HW116433   0.906   4.410   1.822
 5178SOL    HW216434   0.857   4.429   1.977
 5179SOL     OW16435   3.912   6.168   4.140
 5179SOL    HW116436   3.902   6.085   4.196
 5179SOL    HW216437   3.907   6.248   4.199
 5180SOL     OW16438   3.262   3.016   0.980
 5180SOL    HW116439   3.298   2.923   0.981
 5180SOL    HW216440   3.169   3.016   0.944
 5181SOL     OW16441   6.318   1.690   1.870
 5181SOL    HW116442   6.325   1.621   1.797
 5181SOL    HW216443   6.280   1.648   1.952
 5182SOL     OW16444   3.854   4.693   1.760
 5182SOL    HW116445   3.870   4.685   1.662
 5182SOL    HW216446   3.761   4.665   1.781
 5183SOL     OW16447   4.959   1.585   2.579
 5183SOL    HW116448   5.052   1.549   2.585
 5183SOL    HW216449   4.904   1.547   2.654
 5184SOL     OW16450   0.108   2.772   4.469
 5184SOL    HW116451   0.068   2.799   4.557
 5184SOL    HW216452   0.068   2.685   4.440
 5185SOL     OW16453   5.642   0.988   2.767
 5185SOL    HW116454   5.612   0.914   2.707
 5185SOL    HW216455   5.561   1.034   2.804
 5186SOL     OW16456   6.107   2.941   1.280
 5186SOL    HW116457   6.119   3.030   1.323
 5186SOL    HW216458   6.192   2.888   1.291
 5187SOL     OW16459   0.769   6.808   4.155
 5187SOL    HW116460   0.692   6.778   4.098
 5187SOL    HW216461   0.733   6.853   4.237
 5188SOL     OW16462   0.548   5.775   0.966
 5188SOL    HW116463   0.449   5.777   0.950
 5188SOL    HW216464   0.596   5.799   0.882
 5189SOL     OW16465   4.659   4.734   0.400
 5189SOL    HW116466   4.685   4.705   0.308
 5189SOL    HW216467   4.740   4.734   0.459
 5190SOL     OW16468   0.147   3.279   4.367
 5190SOL    HW116469   0.115   3.329   4.448
 5190SOL    HW216470   0.189   3.192   4.396
 5191SOL     OW16471   4.085   0.372   1.662
 5191SOL    HW116472   4.088   0.298   1.729
 5191SOL    HW216473   4.153   0.355   1.591
 5192SOL     OW16474   2.728   5.503   2.526
 5192SOL    HW116475   2.808   5.468   2.477
 5192SOL    HW216476   2.723   5.459   2.616
 5193SOL     OW16477   4.697   4.451   5.005
 5193SOL    HW116478   4.629   4.490   4.943
 5193SOL    HW216479   4.754   4.386   4.955
 5194SOL     OW16480   4.149   1.909   0.104
 5194SOL    HW116481   4.079   1.891   0.035
 5194SOL    HW216482   4.146   2.005   0.132
 5195SOL     OW16483   5.875   6.249   4.651
 5195SOL    HW116484   5.973   6.249   4.630
 5195SOL    HW216485   5.854   6.326   4.712
 5196SOL     OW16486   3.336   4.280   0.588
 5196SOL    HW116487   3.306   4.187   0.567
 5196SOL    HW216488   3.345   4.291   0.687
 5197SOL     OW16489   2.051   5.595   4.924
 5197SOL    HW116490   1.976   5.564   4.981
 5197SOL    HW216491   2.122   5.636   4.981
 5198SOL     OW16492   3.626   6.842   3.119
 5198SOL    HW116493   3.664   6.753   3.143
 5198SOL    HW216494   3.527   6.840   3.129
 5199SOL     OW16495   1.415   5.827   0.644
 5199SOL    HW116496   1.464   5.900   0.693
 5199SOL    HW216497   1.331   5.865   0.605
 5200SOL     OW16498   1.579   2.039   5.556
 5200SOL    HW116499   1.570   2.001   5.649
 5200SOL    HW216500   1.661   2.003   5.513
 5201SOL     OW16501   6.783   6.157   4.458
 5201SOL    HW116502   6.735   6.244   4.468
 5201SOL    HW216503   6.740   6.088   4.515
 5202SOL     OW16504   6.179   4.544   5.337
 5202SOL    HW116505   6.195   4.447   5.354
 5202SOL    HW216506   6.087   4.568   5.367
 5203SOL     OW16507   2.439   1.078   6.259
 5203SOL    HW116508   2.352   1.092   6.306
 5203SOL    HW216509   2.442   1.133   6.176
 5204SOL     OW16510   4.417   6.525   6.740
 5204SOL    HW116511   4.326   6.538   6.780
 5204SOL    HW216512   4.482   6.505   6.813
 5205SOL     OW16513   6.865   6.167   0.157
 5205SOL    HW116514   6.890   6.080   0.114
 5205SOL    HW216515   6.770   6.164   0.186
 5206SOL     OW16516   7.002   5.067   0.545
 5206SOL    HW116517   0.059   5.128   0.555
 5206SOL    HW216518   7.020   5.002   0.471
 5207SOL     OW16519   1.309   6.692   3.604
 5207SOL    HW116520   1.236   6.675   3.670
 5207SOL    HW216521   1.397   6.693   3.651
 5208SOL     OW16522   5.669   1.727   6.972
 5208SOL    HW116523   5.612   1.748   0.030
 5208SOL    HW216524   5.759   1.697   7.002
 5209SOL     OW16525   5.615   6.905   1.617
 5209SOL    HW116526   5.532   6.901   1.562
 5209SOL    HW216527   5.663   6.817   1.611
 5210SOL     OW16528   4.783   3.110   0.351
 5210SOL    HW116529   4.867   3.162   0.336
 5210SOL    HW216530   4.759   3.061   0.267
 5211SOL     OW16531   4.136   2.332   5.745
 5211SOL    HW116532   4.184   2.404   5.795
 5211SOL    HW216533   4.201   2.262   5.715
 5212SOL     OW16534   1.261   3.040   0.563
 5212SOL    HW116535   1.194   3.000   0.500
 5212SOL    HW216536   1.297   2.970   0.623
 5213SOL     OW16537   4.107   3.533   0.941
 5213SOL    HW116538   4.160   3.551   0.858
 5213SOL    HW216539   4.122   3.606   1.007
 5214SOL     OW16540   5.039   2.719   6.583
 5214SOL    HW116541   5.048   2.788   6.655
 5214SOL    HW216542   5.024   2.764   6.496
 5215SOL     OW16543   0.749   4.660   4.344
 5215SOL    HW116544   0.664   4.713   4.342
 5215SOL    HW216545   0.794   4.667   4.255
 5216SOL     OW16546   3.921   4.400   1.693
 5216SOL    HW116547   3.854   4.475   1.697
 5216SOL    HW216548   3.872   4.313   1.686
 5217SOL     OW16549   3.684   4.993   4.320
 5217SOL    HW116550   3.638   5.082   4.316
 5217SOL    HW216551   3.690   4.963   4.415
 5218SOL     OW16552   0.630   1.081   1.188
 5218SOL    HW116553   0.550   1.060   1.244
 5218SOL    HW216554   0.621   1.173   1.150
 5219SOL     OW16555   3.436   1.393   5.051
 5219SOL    HW116556   3.341   1.366   5.067
 5219SOL    HW216557   3.439   1.488   5.021
 5220SOL     OW16558   1.201   6.052   2.468
 5220SOL    HW116559   1.103   6.035   2.480
 5220SOL    HW216560   1.241   5.976   2.416
 5221SOL     OW16561   6.343   1.936   3.384
 5221SOL    HW116562   6.245   1.928   3.365
 5221SOL    HW216563   6.374   2.028   3.360
 5222SOL     OW16564   3.859   6.958   2.565
 5222SOL    HW116565   3.948   6.924   2.536
 5222SOL    HW216566   3.805   6.883   2.603
 5223SOL     OW16567   6.403   2.854   0.108
 5223SOL    HW116568   6.468   2.918   0.148
 5223SOL    HW216569   6.422   2.762   0.141
 5224SOL     OW16570   6.194   3.170   4.558
 5224SOL    HW116571   6.207   3.105   4.483
 5224SOL    HW216572   6.257   3.150   4.632
 5225SOL     OW16573   0.035   1.084   3.864
 5225SOL    HW116574   0.101   1.135   3.919
 5225SOL    HW216575   0.039   1.115   3.769
 5226SOL     OW16576   6.683   6.411   4.446
 5226SOL    HW116577   6.628   6.469   4.387
 5226SOL    HW216578   6.753   6.466   4.492
 5227SOL     OW16579   0.443   3.385   5.286
 5227SOL    HW116580   0.506   3.463   5.284
 5227SOL    HW216581   0.368   3.401   5.221
 5228SOL     OW16582   0.191   2.454   0.666
 5228SOL    HW116583   0.288   2.441   0.644
 5228SOL    HW216584   0.182   2.521   0.739
 5229SOL     OW16585   2.895   6.679   0.261
 5229SOL    HW116586   2.902   6.615   0.338
 5229SOL    HW216587   2.853   6.764   0.292
 5230SOL     OW16588   0.191   5.924   1.857
 5230SOL    HW116589   0.178   5.863   1.935
 5230SOL    HW216590   0.251   6.000   1.884
 5231SOL     OW16591   4.426   2.454   4.028
 5231SOL    HW116592   4.382   2.367   4.007
 5231SOL    HW216593   4.421   2.514   3.948
 5232SOL     OW16594   1.604   3.488   6.146
 5232SOL    HW116595   1.688   3.444   6.178
 5232SOL    HW216596   1.628   3.571   6.095
 5233SOL     OW16597   4.655   1.267   2.746
 5233SOL    HW116598   4.644   1.186   2.688
 5233SOL    HW216599   4.571   1.321   2.745
 5234SOL     OW16600   2.646   2.186   6.276
 5234SOL    HW116601   2.681   2.245   6.349
 5234SOL    HW216602   2.680   2.219   6.188
 5235SOL     OW16603   1.670   2.554   0.923
 5235SOL    HW116604   1.645   2.621   0.992
 5235SOL    HW216605   1.759   2.515   0.944
 5236SOL     OW16606   4.346   5.366   2.205
 5236SOL    HW116607   4.317   5.352   2.300
 5236SOL    HW216608   4.320   5.287   2.150
 5237SOL     OW16609   0.740   0.627   4.860
 5237SOL    HW116610   0.669   0.692   4.888
 5237SOL    HW216611   0.829   0.673   4.858
 5238SOL     OW16612   0.540   5.038   0.336
 5238SOL    HW116613   0.552   5.097   0.416
 5238SOL    HW216614   0.622   5.040   0.280
 5239SOL     OW16615   3.873   2.790   5.836
 5239SOL    HW116616   3.965   2.789   5.876
 5239SOL    HW216617   3.819   2.861   5.881
 5240SOL     OW16618   3.112   2.361   5.456
 5240SOL    HW116619   3.152   2.280   5.497
 5240SOL    HW216620   3.122   2.358   5.357
 5241SOL     OW16621   0.109   5.265   4.500
 5241SOL    HW116622   0.063   5.253   4.412
 5241SOL    HW216623   0.083   5.189   4.561
 5242SOL     OW16624   6.933   6.971   7.020
 5242SOL    HW116625   0.007   6.944   7.022
 5242SOL    HW216626   6.876   6.890   7.015
 5243SOL     OW16627   1.841   5.801   1.502
 5243SOL    HW116628   1.932   5.842   1.501
 5243SOL    HW216629   1.798   5.818   1.591
 5244SOL     OW16630   3.044   4.703   5.995
 5244SOL    HW116631   3.067   4.787   5.947
 5244SOL    HW216632   3.028   4.723   6.092
 5245SOL     OW16633   4.040   3.999   0.404
 5245SOL    HW116634   4.054   3.970   0.498
 5245SOL    HW216635   4.124   3.986   0.352
 5246SOL     OW16636   6.048   2.687   1.189
 5246SOL    HW116637   6.014   2.682   1.283
 5246SOL    HW216638   5.983   2.738   1.133
 5247SOL     OW16639   2.731   0.524   6.323
 5247SOL    HW116640   2.800   0.584   6.364
 5247SOL    HW216641   2.774   0.439   6.292
 5248SOL     OW16642   6.087   1.856   2.693
 5248SOL    HW116643   6.075   1.863   2.594
 5248SOL    HW216644   6.119   1.764   2.717
 5249SOL     OW16645   0.689   5.634   6.264
 5249SOL    HW116646   0.764   5.569   6.251
 5249SOL    HW216647   0.615   5.613   6.201
 5250SOL     OW16648   2.202   6.098   7.011
 5250SOL    HW116649   2.276   6.062   0.045
 5250SOL    HW216650   2.185   6.037   6.934
 5251SOL     OW16651   0.878   3.531   6.727
 5251SOL    HW116652   0.779   3.545   6.734
 5251SOL    HW216653   0.907   3.459   6.790
 5252SOL     OW16654   2.242   6.422   0.606
 5252SOL    HW116655   2.248   6.412   0.507
 5252SOL    HW216656   2.264   6.517   0.631
 5253SOL     OW16657   6.355   4.551   4.603
 5253SOL    HW116658   6.359   4.483   4.530
 5253SOL    HW216659   6.302   4.630   4.573
 5254SOL     OW16660   5.177   1.016   2.923
 5254SOL    HW116661   5.100   1.024   2.861
 5254SOL    HW216662   5.190   0.920   2.948
 5255SOL     OW16663   5.231   2.126   5.091
 5255SOL    HW116664   5.232   2.115   5.190
 5255SOL    HW216665   5.265   2.217   5.067
 5256SOL     OW16666   4.713   1.951   3.788
 5256SOL    HW116667   4.678   1.972   3.879
 5256SOL    HW216668   4.771   1.869   3.793
 5257SOL     OW16669   5.574   6.820   1.915
 5257SOL    HW116670   5.565   6.722   1.903
 5257SOL    HW216671   5.557   6.866   1.828
 5258SOL     OW16672   6.357   2.965   1.751
 5258SOL    HW116673   6.264   2.999   1.741
 5258SOL    HW216674   6.382   2.911   1.671
 5259SOL     OW16675   4.727   6.328   2.323
 5259SOL    HW116676   4.691   6.281   2.403
 5259SOL    HW216677   4.658   6.391   2.288
 5260SOL     OW16678   4.944   3.545   0.698
 5260SOL    HW116679   4.886   3.489   0.758
 5260SOL    HW216680   4.893   3.625   0.668
 5261SOL     OW16681   0.512   4.077   6.470
 5261SOL    HW116682   0.487   4.019   6.547
 5261SOL    HW216683   0.554   4.020   6.399
 5262SOL     OW16684   2.406   1.542   3.955
 5262SOL    HW116685   2.486   1.598   3.976
 5262SOL    HW216686   2.344   1.594   3.895
 5263SOL     OW16687   1.904   1.855   3.609
 5263SOL    HW116688   1.891   1.817   3.701
 5263SOL    HW216689   1.947   1.944   3.616
 5264SOL     OW16690   0.142   2.478   1.802
 5264SOL    HW116691   0.206   2.475   1.725
 5264SOL    HW216692   0.174   2.417   1.875
 5265SOL     OW16693   6.240   3.838   3.848
 5265SOL    HW116694   6.215   3.769   3.780
 5265SOL    HW216695   6.195   3.925   3.826
 5266SOL     OW16696   3.052   5.445   7.011
 5266SOL    HW116697   3.092   5.527   6.972
 5266SOL    HW216698   3.002   5.395   6.940
 5267SOL     OW16699   5.324   3.118   4.949
 5267SOL    HW116700   5.308   3.208   4.987
 5267SOL    HW216701   5.420   3.093   4.961
 5268SOL     OW16702   5.702   1.218   0.525
 5268SOL    HW116703   5.718   1.258   0.435
 5268SOL    HW216704   5.629   1.150   0.518
 5269SOL     OW16705   1.179   5.947   2.732
 5269SOL    HW116706   1.202   6.003   2.652
 5269SOL    HW216707   1.114   5.995   2.790
 5270SOL     OW16708   6.039   1.055   1.059
 5270SOL    HW116709   6.107   1.128   1.066
 5270SOL    HW216710   6.026   1.031   0.962
 5271SOL     OW16711   6.440   5.634   5.725
 5271SOL    HW116712   6.452   5.697   5.648
 5271SOL    HW216713   6.395   5.550   5.694
 5272SOL     OW16714   3.195   5.621   1.879
 5272SOL    HW116715   3.254   5.698   1.854
 5272SOL    HW216716   3.101   5.640   1.852
 5273SOL     OW16717   0.122   2.980   4.075
 5273SOL    HW116718   0.062   2.953   4.149
 5273SOL    HW216719   0.118   3.079   4.062
 5274SOL     OW16720   5.707   6.899   2.745
 5274SOL    HW116721   5.619   6.944   2.732
 5274SOL    HW216722   5.748   6.880   2.655
 5275SOL     OW16723   3.755   2.035   1.228
 5275SOL    HW116724   3.770   1.937   1.239
 5275SOL    HW216725   3.675   2.063   1.281
 5276SOL     OW16726   1.870   0.025   0.672
 5276SOL    HW116727   1.912   6.984   0.606
 5276SOL    HW216728   1.888   7.015   0.764
 5277SOL     OW16729   1.719   1.430   2.275
 5277SOL    HW116730   1.762   1.458   2.361
 5277SOL    HW216731   1.625   1.402   2.292
 5278SOL     OW16732   6.007   6.869   3.963
 5278SOL    HW116733   6.026   6.933   4.038
 5278SOL    HW216734   5.912   6.877   3.935
 5279SOL     OW16735   2.266   5.358   6.335
 5279SOL    HW116736   2.268   5.264   6.371
 5279SOL    HW216737   2.268   5.356   6.235
 5280SOL     OW16738   2.448   6.026   4.801
 5280SOL    HW116739   2.491   6.048   4.714
 5280SOL    HW216740   2.457   6.105   4.863
 5281SOL     OW16741   0.385   2.641   2.684
 5281SOL    HW116742   0.409   2.552   2.723
 5281SOL    HW216743   0.408   2.642   2.587
 5282SOL     OW16744   2.841   1.884   4.117
 5282SOL    HW116745   2.888   1.898   4.030
 5282SOL    HW216746   2.775   1.958   4.131
 5283SOL     OW16747   4.253   6.886   1.591
 5283SOL    HW116748   4.201   6.960   1.548
 5283SOL    HW216749   4.257   6.808   1.530
 5284SOL     OW16750   5.029   3.808   3.379
 5284SOL    HW116751   4.970   3.841   3.452
 5284SOL    HW216752   5.122   3.794   3.415
 5285SOL     OW16753   2.405   4.808   4.124
 5285SOL    HW116754   2.350   4.877   4.172
 5285SOL    HW216755   2.349   4.767   4.051
 5286SOL     OW16756   1.709   4.540   0.042
 5286SOL    HW116757   1.693   4.638   0.050
 5286SOL    HW216758   1.789   4.524   7.005
 5287SOL     OW16759   3.229   6.984   0.930
 5287SOL    HW116760   3.160   0.030   0.954
 5287SOL    HW216761   3.206   6.896   0.970
 5288SOL     OW16762   3.152   0.301   2.030
 5288SOL    HW116763   3.118   0.328   2.120
 5288SOL    HW216764   3.116   0.363   1.960
 5289SOL     OW16765   1.783   5.127   6.479
 5289SOL    HW116766   1.712   5.151   6.545
 5289SOL    HW216767   1.835   5.210   6.455
 5290SOL     OW16768   1.793   5.937   4.904
 5290SOL    HW116769   1.742   5.902   4.983
 5290SOL    HW216770   1.731   5.949   4.827
 5291SOL     OW16771   2.733   5.439   6.065
 5291SOL    HW116772   2.713   5.498   6.143
 5291SOL    HW216773   2.772   5.353   6.098
 5292SOL     OW16774   6.311   3.089   6.674
 5292SOL    HW116775   6.236   3.136   6.626
 5292SOL    HW216776   6.389   3.151   6.681
 5293SOL     OW16777   0.083   0.473   4.820
 5293SOL    HW116778   0.027   0.431   4.891
 5293SOL    HW216779   0.034   0.550   4.779
 5294SOL     OW16780   4.730   3.486   5.797
 5294SOL    HW116781   4.769   3.450   5.712
 5294SOL    HW216782   4.733   3.586   5.795
 5295SOL     OW16783   6.329   0.811   2.884
 5295SOL    HW116784   6.277   0.869   2.820
 5295SOL    HW216785   6.269   0.738   2.918
 5296SOL     OW16786   1.915   4.998   0.045
 5296SOL    HW116787   1.936   4.901   0.047
 5296SOL    HW216788   1.912   5.030   6.972
 5297SOL     OW16789   2.471   1.979   1.736
 5297SOL    HW116790   2.443   2.074   1.742
 5297SOL    HW216791   2.466   1.937   1.827
 5298SOL     OW16792   0.375   5.646   1.317
 5298SOL    HW116793   0.412   5.559   1.282
 5298SOL    HW216794   0.311   5.627   1.391
 5299SOL     OW16795   2.828   2.155   0.680
 5299SOL    HW116796   2.869   2.204   0.757
 5299SOL    HW216797   2.900   2.107   0.630
 5300SOL     OW16798   0.673   5.726   2.533
 5300SOL    HW116799   0.687   5.630   2.507
 5300SOL    HW216800   0.744   5.752   2.599
 5301SOL     OW16801   4.428   1.368   0.328
 5301SOL    HW116802   4.342   1.405   0.363
 5301SOL    HW216803   4.413   1.275   0.296
 5302SOL     OW16804   5.602   4.941   3.402
 5302SOL    HW116805   5.509   4.961   3.433
 5302SOL    HW216806   5.643   5.024   3.364
 5303SOL     OW16807   6.877   6.057   3.988
 5303SOL    HW116808   6.886   6.140   3.933
 5303SOL    HW216809   6.822   6.076   4.069
 5304SOL     OW16810   6.093   2.179   5.536
 5304SOL    HW116811   6.028   2.103   5.535
 5304SOL    HW216812   6.122   2.199   5.442
 5305SOL     OW16813   1.475   6.710   4.140
 5305SOL    HW116814   1.468   6.797   4.187
 5305SOL    HW216815   1.547   6.655   4.182
 5306SOL     OW16816   1.051   5.620   5.301
 5306SOL    HW116817   0.986   5.674   5.248
 5306SOL    HW216818   1.144   5.651   5.282
 5307SOL     OW16819   4.185   6.585   6.911
 5307SOL    HW116820   4.132   6.667   6.887
 5307SOL    HW216821   4.186   6.575   7.010
 5308SOL     OW16822   0.586   7.015   4.758
 5308SOL    HW116823   0.571   0.044   4.674
 5308SOL    HW216824   0.617   0.055   4.830
 5309SOL     OW16825   3.216   4.064   2.535
 5309SOL    HW116826   3.178   4.156   2.543
 5309SOL    HW216827   3.171   4.003   2.599
 5310SOL     OW16828   5.406   2.638   2.108
 5310SOL    HW116829   5.322   2.688   2.130
 5310SOL    HW216830   5.384   2.542   2.091
 5311SOL     OW16831   0.118   5.974   0.693
 5311SOL    HW116832   0.142   6.055   0.640
 5311SOL    HW216833   0.061   6.000   0.771
 5312SOL     OW16834   6.691   4.330   2.212
 5312SOL    HW116835   6.660   4.255   2.154
 5312SOL    HW216836   6.615   4.362   2.269
 5313SOL     OW16837   1.094   5.345   0.017
 5313SOL    HW116838   1.022   5.413   0.030
 5313SOL    HW216839   1.058   5.268   6.986
 5314SOL     OW16840   4.114   4.731   0.244
 5314SOL    HW116841   4.018   4.705   0.253
 5314SOL    HW216842   4.168   4.684   0.314
 5315SOL     OW16843   4.329   4.541   1.502
 5315SOL    HW116844   4.299   4.451   1.535
 5315SOL    HW216845   4.357   4.598   1.579
 5316SOL     OW16846   6.138   5.283   5.017
 5316SOL    HW116847   6.195   5.231   4.953
 5316SOL    HW216848   6.062   5.324   4.967
 5317SOL     OW16849   6.124   1.377   4.848
 5317SOL    HW116850   6.159   1.332   4.930
 5317SOL    HW216851   6.159   1.330   4.767
 5318SOL     OW16852   0.191   1.799   5.729
 5318SOL    HW116853   0.208   1.708   5.692
 5318SOL    HW216854   0.163   1.793   5.824
 5319SOL     OW16855   4.564   0.075   0.401
 5319SOL    HW116856   4.499   0.117   0.465
 5319SOL    HW216857   4.623   0.012   0.451
 5320SOL     OW16858   5.766   5.269   6.656
 5320SOL    HW116859   5.770   5.236   6.750
 5320SOL    HW216860   5.710   5.207   6.601
 5321SOL     OW16861   1.015   5.374   2.185
 5321SOL    HW116862   0.998   5.343   2.278
 5321SOL    HW216863   0.944   5.338   2.124
 5322SOL     OW16864   4.003   6.654   6.189
 5322SOL    HW116865   3.980   6.737   6.138
 5322SOL    HW216866   3.925   6.627   6.245
 5323SOL     OW16867   3.636   3.176   0.826
 5323SOL    HW116868   3.625   3.206   0.920
 5323SOL    HW216869   3.547   3.163   0.783
 5324SOL     OW16870   3.547   2.460   1.743
 5324SOL    HW116871   3.620   2.516   1.704
 5324SOL    HW216872   3.587   2.388   1.800
 5325SOL     OW16873   6.188   6.492   3.273
 5325SOL    HW116874   6.241   6.517   3.192
 5325SOL    HW216875   6.101   6.540   3.273
 5326SOL     OW16876   5.951   4.986   2.404
 5326SOL    HW116877   5.998   4.923   2.466
 5326SOL    HW216878   5.967   4.958   2.309
 5327SOL     OW16879   0.937   5.933   5.965
 5327SOL    HW116880   0.964   5.953   5.871
 5327SOL    HW216881   0.915   5.835   5.973
 5328SOL     OW16882   3.868   2.270   5.754
 5328SOL    HW116883   3.963   2.249   5.727
 5328SOL    HW216884   3.867   2.354   5.808
 5329SOL     OW16885   0.340   3.790   6.530
 5329SOL    HW116886   0.294   3.878   6.540
 5329SOL    HW216887   0.280   3.717   6.562
 5330SOL     OW16888   3.435   4.300   6.986
 5330SOL    HW116889   3.507   4.368   7.001
 5330SOL    HW216890   3.391   4.279   0.051
 5331SOL     OW16891   5.243   1.161   1.382
 5331SOL    HW116892   5.242   1.061   1.386
 5331SOL    HW216893   5.325   1.192   1.334
 5332SOL     OW16894   6.354   4.287   6.745
 5332SOL    HW116895   6.322   4.308   6.653
 5332SOL    HW216896   6.280   4.247   6.799
 5333SOL     OW16897   0.921   0.555   3.779
 5333SOL    HW116898   0.945   0.540   3.683
 5333SOL    HW216899   0.997   0.530   3.837
 5334SOL     OW16900   4.093   5.056   5.225
 5334SOL    HW116901   4.171   5.105   5.265
 5334SOL    HW216902   4.044   5.116   5.162
 5335SOL     OW16903   0.226   4.820   2.151
 5335SOL    HW116904   0.175   4.876   2.086
 5335SOL    HW216905   0.299   4.771   2.102
 5336SOL     OW16906   2.290   2.070   3.511
 5336SOL    HW116907   2.198   2.050   3.477
 5336SOL    HW216908   2.356   2.010   3.467
 5337SOL     OW16909   5.950   5.248   1.929
 5337SOL    HW116910   5.889   5.327   1.932
 5337SOL    HW216911   6.013   5.252   2.006
 5338SOL     OW16912   5.475   1.500   0.126
 5338SOL    HW116913   5.510   1.417   0.170
 5338SOL    HW216914   5.474   1.575   0.193
 5339SOL     OW16915   5.822   1.500   2.499
 5339SOL    HW116916   5.916   1.479   2.469
 5339SOL    HW216917   5.772   1.415   2.512
 5340SOL     OW16918   5.817   3.464   1.368
 5340SOL    HW116919   5.900   3.461   1.314
 5340SOL    HW216920   5.751   3.526   1.325
 5341SOL     OW16921   3.387   4.904   5.051
 5341SOL    HW116922   3.404   4.841   5.126
 5341SOL    HW216923   3.391   4.998   5.085
 5342SOL     OW16924   4.711   6.298   4.637
 5342SOL    HW116925   4.657   6.225   4.679
 5342SOL    HW216926   4.705   6.290   4.538
 5343SOL     OW16927   3.788   3.526   5.094
 5343SOL    HW116928   3.776   3.589   5.016
 5343SOL    HW216929   3.719   3.545   5.163
 5344SOL     OW16930   0.502   1.290   6.622
 5344SOL    HW116931   0.512   1.351   6.700
 5344SOL    HW216932   0.521   1.196   6.651
 5345SOL     OW16933   4.825   0.880   6.982
 5345SOL    HW116934   4.825   0.781   6.972
 5345SOL    HW216935   4.919   0.912   6.994
 5346SOL     OW16936   2.442   5.508   4.362
 5346SOL    HW116937   2.348   5.490   4.390
 5346SOL    HW216938   2.446   5.592   4.309
 5347SOL     OW16939   6.829   3.876   3.485
 5347SOL    HW116940   6.927   3.858   3.485
 5347SOL    HW216941   6.780   3.793   3.459
 5348SOL     OW16942   6.925   1.197   5.500
 5348SOL    HW116943   6.934   1.204   5.400
 5348SOL    HW216944   6.978   1.119   5.532
 5349SOL     OW16945   2.432   3.434   1.235
 5349SOL    HW116946   2.443   3.510   1.299
 5349SOL    HW216947   2.349   3.383   1.257
 5350SOL     OW16948   2.358   6.474   5.421
 5350SOL    HW116949   2.325   6.559   5.463
 5350SOL    HW216950   2.453   6.458   5.449
 5351SOL     OW16951   0.534   5.624   2.033
 5351SOL    HW116952   0.494   5.672   2.111
 5351SOL    HW216953   0.568   5.534   2.062
 5352SOL     OW16954   2.308   4.188   2.956
 5352SOL    HW116955   2.354   4.120   3.013
 5352SOL    HW216956   2.348   4.278   2.972
 5353SOL     OW16957   3.868   5.141   3.281
 5353SOL    HW116958   3.854   5.082   3.360
 5353SOL    HW216959   3.955   5.190   3.291
 5354SOL     OW16960   2.552   4.313   0.119
 5354SOL    HW116961   2.529   4.403   0.081
 5354SOL    HW216962   2.475   4.250   0.104
 5355SOL     OW16963   5.823   4.372   4.727
 5355SOL    HW116964   5.756   4.424   4.674
 5355SOL    HW216965   5.898   4.433   4.754
 5356SOL     OW16966   6.997   3.676   1.874
 5356SOL    HW116967   0.065   3.634   1.875
 5356SOL    HW216968   6.927   3.605   1.866
 5357SOL     OW16969   4.013   4.517   1.188
 5357SOL    HW116970   3.985   4.611   1.171
 5357SOL    HW216971   3.957   4.478   1.261
 5358SOL     OW16972   4.793   2.079   0.704
 5358SOL    HW116973   4.729   2.028   0.647
 5358SOL    HW216974   4.747   2.157   0.746
 5359SOL     OW16975   2.008   1.759   6.471
 5359SOL    HW116976   1.996   1.677   6.527
 5359SOL    HW216977   2.047   1.832   6.527
 5360SOL     OW16978   5.551   5.529   3.576
 5360SOL    HW116979   5.500   5.569   3.500
 5360SOL    HW216980   5.498   5.455   3.618
 5361SOL     OW16981   1.929   6.686   3.777
 5361SOL    HW116982   1.916   6.692   3.876
 5361SOL    HW216983   1.843   6.704   3.730
 5362SOL     OW16984   6.333   6.594   2.738
 5362SOL    HW116985   6.326   6.519   2.673
 5362SOL    HW216986   6.251   6.597   2.795
 5363SOL     OW16987   5.126   6.506   5.428
 5363SOL    HW116988   5.200   6.546   5.483
 5363SOL    HW216989   5.162   6.477   5.340
 5364SOL     OW16990   6.046   7.011   2.237
 5364SOL    HW116991   6.038   6.922   2.193
 5364SOL    HW216992   6.119   0.041   2.193
 5365SOL     OW16993   3.807   3.184   2.157
 5365SOL    HW116994   3.878   3.118   2.182
 5365SOL    HW216995   3.720   3.136   2.145
 5366SOL     OW16996   6.799   0.433   2.204
 5366SOL    HW116997   6.765   0.369   2.272
 5366SOL    HW216998   6.724   0.489   2.170
 5367SOL     OW16999   6.676   0.076   0.947
 5367SOL    HW117000   6.745   0.011   0.914
 5367SOL    HW217001   6.648   0.051   1.040
 5368SOL     OW17002   6.492   6.073   2.129
 5368SOL    HW117003   6.410   6.129   2.141
 5368SOL    HW217004   6.572   6.124   2.162
 5369SOL     OW17005   2.976   5.837   1.252
 5369SOL    HW117006   3.021   5.765   1.198
 5369SOL    HW217007   3.032   5.920   1.248
 5370SOL     OW17008   4.478   3.640   1.265
 5370SOL    HW117009   4.440   3.566   1.210
 5370SOL    HW217010   4.541   3.601   1.333
 5371SOL     OW17011   6.852   4.967   5.651
 5371SOL    HW117012   6.779   5.013   5.701
 5371SOL    HW217013   6.849   4.869   5.671
 5372SOL     OW17014   1.576   6.621   2.708
 5372SOL    HW117015   1.651   6.673   2.750
 5372SOL    HW217016   1.608   6.529   2.685
 5373SOL     OW17017   3.797   6.908   5.689
 5373SOL    HW117018   3.711   6.856   5.685
 5373SOL    HW217019   3.780   7.003   5.662
 5374SOL     OW17020   2.568   4.153   1.117
 5374SOL    HW117021   2.617   4.125   1.034
 5374SOL    HW217022   2.634   4.182   1.186
 5375SOL     OW17023   0.719   5.362   5.848
 5375SOL    HW117024   0.799   5.343   5.790
 5375SOL    HW217025   0.636   5.359   5.792
 5376SOL     OW17026   1.389   2.433   2.088
 5376SOL    HW117027   1.303   2.483   2.075
 5376SOL    HW217028   1.448   2.447   2.008
 5377SOL     OW17029   1.166   0.513   2.668
 5377SOL    HW117030   1.181   0.612   2.664
 5377SOL    HW217031   1.112   0.490   2.749
 5378SOL     OW17032   6.570   0.382   1.794
 5378SOL    HW117033   6.649   0.323   1.808
 5378SOL    HW217034   6.534   0.367   1.701
 5379SOL     OW17035   1.081   3.029   5.065
 5379SOL    HW117036   1.015   2.955   5.052
 5379SOL    HW217037   1.145   3.004   5.138
 5380SOL     OW17038   2.855   0.183   0.990
 5380SOL    HW117039   2.853   0.089   0.956
 5380SOL    HW217040   2.934   0.195   1.051
 5381SOL     OW17041   6.110   5.999   2.336
 5381SOL    HW117042   6.071   6.055   2.409
 5381SOL    HW217043   6.139   5.910   2.373
 5382SOL     OW17044   3.008   2.233   2.627
 5382SOL    HW117045   2.949   2.157   2.600
 5382SOL    HW217046   3.097   2.224   2.582
 5383SOL     OW17047   1.760   2.689   4.418
 5383SOL    HW117048   1.724   2.649   4.334
 5383SOL    HW217049   1.803   2.618   4.473
 5384SOL     OW17050   4.876   5.650   4.816
 5384SOL    HW117051   4.958   5.642   4.873
 5384SOL    HW217052   4.860   5.564   4.769
 5385SOL     OW17053   5.737   3.235   4.777
 5385SOL    HW117054   5.821   3.288   4.769
 5385SOL    HW217055   5.698   3.219   4.686
 5386SOL     OW17056   5.708   1.299   4.158
 5386SOL    HW117057   5.635   1.268   4.220
 5386SOL    HW217058   5.666   1.339   4.077
 5387SOL     OW17059   2.525   6.757   3.457
 5387SOL    HW117060   2.574   6.677   3.493
 5387SOL    HW217061   2.438   6.727   3.416
 5388SOL     OW17062   1.652   6.756   3.082
 5388SOL    HW117063   1.600   6.677   3.051
 5388SOL    HW217064   1.685   6.740   3.175
 5389SOL     OW17065   4.146   1.830   4.665
 5389SOL    HW117066   4.106   1.747   4.702
 5389SOL    HW217067   4.238   1.842   4.701
 5390SOL     OW17068   5.047   4.117   3.883
 5390SOL    HW117069   5.079   4.212   3.886
 5390SOL    HW217070   5.113   4.059   3.930
 5391SOL     OW17071   2.926   2.119   0.343
 5391SOL    HW117072   2.927   2.026   0.307
 5391SOL    HW217073   2.833   2.142   0.371
 5392SOL     OW17074   5.226   3.665   2.077
 5392SOL    HW117075   5.304   3.603   2.062
 5392SOL    HW217076   5.146   3.611   2.106
 5393SOL     OW17077   3.846   0.645   5.238
 5393SOL    HW117078   3.821   0.739   5.264
 5393SOL    HW217079   3.938   0.624   5.273
 5394SOL     OW17080   0.621   6.253   0.939
 5394SOL    HW117081   0.621   6.176   1.002
 5394SOL    HW217082   0.533   6.257   0.891
 5395SOL     OW17083   4.837   1.114   1.021
 5395SOL    HW117084   4.893   1.049   1.072
 5395SOL    HW217085   4.849   1.206   1.057
 5396SOL     OW17086   5.379   5.689   1.540
 5396SOL    HW117087   5.281   5.693   1.520
 5396SOL    HW217088   5.424   5.628   1.475
 5397SOL     OW17089   0.052   1.926   1.733
 5397SOL    HW117090   0.033   1.835   1.771
 5397SOL    HW217091   7.008   1.991   1.770
 5398SOL     OW17092   3.377   2.063   3.531
 5398SOL    HW117093   3.296   2.097   3.580
 5398SOL    HW217094   3.457   2.067   3.591
 5399SOL     OW17095   2.756   6.786   6.084
 5399SOL    HW117096   2.744   6.882   6.110
 5399SOL    HW217097   2.824   6.744   6.144
 5400SOL     OW17098   3.146   3.468   0.766
 5400SOL    HW117099   3.219   3.514   0.716
 5400SOL    HW217100   3.183   3.430   0.851
 5401SOL     OW17101   5.639   4.128   2.604
 5401SOL    HW117102   5.720   4.108   2.550
 5401SOL    HW217103   5.653   4.098   2.698
 5402SOL     OW17104   3.123   6.375   0.417
 5402SOL    HW117105   3.211   6.414   0.446
 5402SOL    HW217106   3.109   6.394   0.320
 5403SOL     OW17107   5.209   3.299   6.816
 5403SOL    HW117108   5.173   3.284   6.908
 5403SOL    HW217109   5.137   3.335   6.757
 5404SOL     OW17110   1.083   0.719   1.080
 5404SOL    HW117111   1.183   0.716   1.082
 5404SOL    HW217112   1.050   0.674   0.997
 5405SOL     OW17113   6.075   5.391   0.199
 5405SOL    HW117114   5.982   5.366   0.226
 5405SOL    HW217115   6.113   5.318   0.142
 5406SOL     OW17116   2.256   0.961   4.785
 5406SOL    HW117117   2.337   0.947   4.728
 5406SOL    HW217118   2.281   0.954   4.881
 5407SOL     OW17119   3.188   1.447   0.617
 5407SOL    HW117120   3.282   1.467   0.591
 5407SOL    HW217121   3.139   1.533   0.632
 5408SOL     OW17122   3.176   1.447   4.682
 5408SOL    HW117123   3.273   1.470   4.688
 5408SOL    HW217124   3.160   1.392   4.600
 5409SOL     OW17125   6.747   1.431   2.077
 5409SOL    HW117126   6.818   1.489   2.039
 5409SOL    HW217127   6.788   1.365   2.140
 5410SOL     OW17128   0.767   2.846   0.128
 5410SOL    HW117129   0.769   2.940   0.094
 5410SOL    HW217130   0.861   2.815   0.145
 5411SOL     OW17131   5.360   4.656   0.001
 5411SOL    HW117132   5.353   4.672   0.099
 5411SOL    HW217133   5.456   4.649   6.997
 5412SOL     OW17134   2.412   1.232   6.052
 5412SOL    HW117135   2.469   1.272   5.980
 5412SOL    HW217136   2.365   1.305   6.102
 5413SOL     OW17137   0.637   6.902   6.364
 5413SOL    HW117138   0.545   6.941   6.361
 5413SOL    HW217139   0.689   6.945   6.438
 5414SOL     OW17140   6.582   4.527   5.400
 5414SOL    HW117141   6.614   4.506   5.493
 5414SOL    HW217142   6.638   4.600   5.361
 5415SOL     OW17143   3.266   5.902   0.414
 5415SOL    HW117144   3.186   5.944   0.370
 5415SOL    HW217145   3.319   5.973   0.461
 5416SOL     OW17146   2.735   4.937   5.066
 5416SOL    HW117147   2.674   4.979   4.999
 5416SOL    HW217148   2.719   4.838   5.068
 5417SOL     OW17149   3.985   0.094   4.433
 5417SOL    HW117150   4.032   0.173   4.474
 5417SOL    HW217151   4.003   0.092   4.335
 5418SOL     OW17152   5.365   5.592   4.699
 5418SOL    HW117153   5.349   5.686   4.669
 5418SOL    HW217154   5.422   5.592   4.781
 5419SOL     OW17155   4.469   6.378   0.200
 5419SOL    HW117156   4.398   6.400   0.268
 5419SOL    HW217157   4.446   6.292   0.155
 5420SOL     OW17158   2.348   1.979   0.779
 5420SOL    HW117159   2.445   1.996   0.761
 5420SOL    HW217160   2.328   1.882   0.763
 5421SOL     OW17161   3.520   5.339   1.823
 5421SOL    HW117162   3.430   5.358   1.862
 5421SOL    HW217163   3.509   5.277   1.744
 5422SOL     OW17164   1.975   5.651   4.650
 5422SOL    HW117165   2.045   5.714   4.615
 5422SOL    HW217166   1.987   5.641   4.749
 5423SOL     OW17167   6.024   5.241   0.832
 5423SOL    HW117168   6.093   5.313   0.828
 5423SOL    HW217169   5.947   5.271   0.889
 5424SOL     OW17170   4.990   3.867   4.157
 5424SOL    HW117171   5.031   3.955   4.181
 5424SOL    HW217172   4.987   3.808   4.238
 5425SOL     OW17173   6.255   2.844   4.675
 5425SOL    HW117174   6.294   2.921   4.624
 5425SOL    HW217175   6.176   2.807   4.627
 5426SOL     OW17176   4.261   5.447   2.572
 5426SOL    HW117177   4.243   5.360   2.526
 5426SOL    HW217178   4.174   5.486   2.604
 5427SOL     OW17179   4.997   2.808   0.383
 5427SOL    HW117180   5.025   2.713   0.372
 5427SOL    HW217181   4.903   2.812   0.415
 5428SOL     OW17182   5.043   7.021   1.919
 5428SOL    HW117183   5.023   6.924   1.934
 5428SOL    HW217184   4.989   0.054   1.982
 5429SOL     OW17185   1.857   0.178   4.537
 5429SOL    HW117186   1.895   0.097   4.492
 5429SOL    HW217187   1.846   0.160   4.635
 5430SOL     OW17188   1.980   2.945   5.300
 5430SOL    HW117189   2.011   2.909   5.212
 5430SOL    HW217190   2.035   3.025   5.324
 5431SOL     OW17191   2.933   4.058   6.256
 5431SOL    HW117192   2.969   4.139   6.210
 5431SOL    HW217193   2.983   4.044   6.341
 5432SOL     OW17194   5.067   5.330   6.985
 5432SOL    HW117195   5.134   5.256   6.973
 5432SOL    HW217196   5.112   5.418   6.974
 5433SOL     OW17197   1.628   0.421   1.090
 5433SOL    HW117198   1.558   0.410   1.160
 5433SOL    HW217199   1.585   0.446   1.003
 5434SOL     OW17200   4.682   0.690   4.409
 5434SOL    HW117201   4.719   0.688   4.502
 5434SOL    HW217202   4.755   0.713   4.345
 5435SOL     OW17203   6.454   3.739   1.057
 5435SOL    HW117204   6.380   3.794   1.096
 5435SOL    HW217205   6.418   3.681   0.984
 5436SOL     OW17206   6.544   5.178   4.161
 5436SOL    HW117207   6.634   5.135   4.160
 5436SOL    HW217208   6.479   5.118   4.209
 5437SOL     OW17209   3.806   4.564   5.603
 5437SOL    HW117210   3.886   4.538   5.657
 5437SOL    HW217211   3.726   4.569   5.662
 5438SOL     OW17212   4.958   5.323   2.091
 5438SOL    HW117213   4.913   5.317   2.002
 5438SOL    HW217214   4.894   5.360   2.158
 5439SOL     OW17215   0.881   3.723   0.192
 5439SOL    HW117216   0.791   3.751   0.224
 5439SOL    HW217217   0.881   3.715   0.093
 5440SOL     OW17218   5.688   6.551   3.626
 5440SOL    HW117219   5.727   6.533   3.716
 5440SOL    HW217220   5.607   6.609   3.636
 5441SOL     OW17221   5.294   3.482   3.108
 5441SOL    HW117222   5.258   3.461   3.017
 5441SOL    HW217223   5.371   3.421   3.128
 5442SOL     OW17224   3.601   0.010   3.387
 5442SOL    HW117225   3.514   0.019   3.340
 5442SOL    HW217226   3.585   7.009   3.483
 5443SOL     OW17227   4.368   6.616   4.138
 5443SOL    HW117228   4.322   6.611   4.227
 5443SOL    HW217229   4.313   6.668   4.074
 5444SOL     OW17230   6.802   1.587   3.900
 5444SOL    HW117231   6.813   1.514   3.832
 5444SOL    HW217232   6.795   1.547   3.991
 5445SOL     OW17233   5.229   4.521   3.485
 5445SOL    HW117234   5.290   4.534   3.563
 5445SOL    HW217235   5.283   4.518   3.401
 5446SOL     OW17236   5.956   4.647   4.593
 5446SOL    HW117237   5.906   4.601   4.519
 5446SOL    HW217238   5.991   4.578   4.656
 5447SOL     OW17239   1.817   1.735   1.228
 5447SOL    HW117240   1.820   1.635   1.218
 5447SOL    HW217241   1.902   1.774   1.194
 5448SOL     OW17242   4.789   4.905   3.817
 5448SOL    HW117243   4.790   5.001   3.846
 5448SOL    HW217244   4.845   4.895   3.736
 5449SOL     OW17245   2.254   1.437   1.478
 5449SOL    HW117246   2.284   1.370   1.545
 5449SOL    HW217247   2.229   1.522   1.525
 5450SOL     OW17248   3.701   6.369   1.360
 5450SOL    HW117249   3.602   6.353   1.359
 5450SOL    HW217250   3.724   6.439   1.292
 5451SOL     OW17251   1.504   5.977   3.658
 5451SOL    HW117252   1.435   6.045   3.682
 5451SOL    HW217253   1.496   5.954   3.561
 5452SOL     OW17254   2.764   4.573   0.999
 5452SOL    HW117255   2.729   4.480   0.986
 5452SOL    HW217256   2.709   4.637   0.946
 5453SOL     OW17257   5.064   4.098   2.030
 5453SOL    HW117258   5.098   4.146   1.949
 5453SOL    HW217259   4.983   4.045   2.005
 5454SOL     OW17260   5.412   5.994   1.612
 5454SOL    HW117261   5.379   6.089   1.616
 5454SOL    HW217262   5.339   5.935   1.577
 5455SOL     OW17263   0.087   1.899   3.442
 5455SOL    HW117264   7.021   1.886   3.487
 5455SOL    HW217265   0.159   1.854   3.495
 5456SOL     OW17266   3.942   1.544   6.201
 5456SOL    HW117267   3.863   1.551   6.141
 5456SOL    HW217268   3.946   1.452   6.240
 5457SOL     OW17269   6.379   1.926   0.762
 5457SOL    HW117270   6.363   1.852   0.828
 5457SOL    HW217271   6.418   1.887   0.678
 5458SOL     OW17272   6.892   4.826   1.008
 5458SOL    HW117273   6.861   4.868   0.923
 5458SOL    HW217274   6.984   4.857   1.030
 5459SOL     OW17275   2.075   4.957   4.757
 5459SOL    HW117276   2.034   4.925   4.671
 5459SOL    HW217277   2.003   4.978   4.823
 5460SOL     OW17278   2.843   0.486   2.356
 5460SOL    HW117279   2.919   0.549   2.338
 5460SOL    HW217280   2.860   0.437   2.441
 5461SOL     OW17281   0.832   1.277   4.865
 5461SOL    HW117282   0.749   1.226   4.888
 5461SOL    HW217283   0.808   1.369   4.834
 5462SOL     OW17284   5.457   6.423   6.306
 5462SOL    HW117285   5.453   6.465   6.215
 5462SOL    HW217286   5.398   6.342   6.308
 5463SOL     OW17287   6.669   1.957   6.653
 5463SOL    HW117288   6.603   2.029   6.670
 5463SOL    HW217289   6.650   1.879   6.713
 5464SOL     OW17290   5.908   5.645   5.169
 5464SOL    HW117291   5.989   5.663   5.113
 5464SOL    HW217292   5.866   5.732   5.195
 5465SOL     OW17293   0.037   0.286   3.049
 5465SOL    HW117294   0.084   0.313   2.965
 5465SOL    HW217295   0.059   0.191   3.070
 5466SOL     OW17296   6.274   2.699   5.509
 5466SOL    HW117297   6.262   2.603   5.535
 5466SOL    HW217298   6.211   2.756   5.562
 5467SOL     OW17299   5.761   3.828   3.097
 5467SOL    HW117300   5.793   3.778   3.016
 5467SOL    HW217301   5.746   3.763   3.172
 5468SOL     OW17302   6.971   2.529   4.354
 5468SOL    HW117303   6.892   2.588   4.340
 5468SOL    HW217304   6.942   2.443   4.395
 5469SOL     OW17305   3.396   5.728   6.158
 5469SOL    HW117306   3.476   5.672   6.179
 5469SOL    HW217307   3.397   5.754   6.061
 5470SOL     OW17308   3.781   5.255   3.847
 5470SOL    HW117309   3.760   5.166   3.887
 5470SOL    HW217310   3.876   5.279   3.867
 5471SOL     OW17311   5.510   0.544   2.300
 5471SOL    HW117312   5.446   0.618   2.319
 5471SOL    HW217313   5.500   0.514   2.205
 5472SOL     OW17314   2.907   3.744   6.705
 5472SOL    HW117315   2.958   3.804   6.766
 5472SOL    HW217316   2.856   3.799   6.639
 5473SOL     OW17317   1.983   4.040   0.088
 5473SOL    HW117318   2.033   3.995   0.161
 5473SOL    HW217319   1.886   4.047   0.113
 5474SOL     OW17320   0.249   5.804   4.121
 5474SOL    HW117321   0.334   5.776   4.165
 5474SOL    HW217322   0.173   5.793   4.184
 5475SOL     OW17323   1.632   1.809   1.022
 5475SOL    HW117324   1.672   1.828   1.112
 5475SOL    HW217325   1.593   1.717   1.022
 5476SOL     OW17326   2.178   4.813   5.071
 5476SOL    HW117327   2.209   4.816   4.976
 5476SOL    HW217328   2.257   4.810   5.131
 5477SOL     OW17329   1.729   3.571   3.028
 5477SOL    HW117330   1.810   3.624   3.054
 5477SOL    HW217331   1.647   3.621   3.056
 5478SOL     OW17332   4.910   6.429   5.693
 5478SOL    HW117333   4.895   6.371   5.613
 5478SOL    HW217334   5.003   6.467   5.689
 5479SOL     OW17335   4.362   1.565   4.900
 5479SOL    HW117336   4.319   1.607   4.980
 5479SOL    HW217337   4.361   1.465   4.910
 5480SOL     OW17338   5.827   4.909   5.189
 5480SOL    HW117339   5.900   4.901   5.258
 5480SOL    HW217340   5.747   4.857   5.219
 5481SOL     OW17341   4.905   0.828   4.744
 5481SOL    HW117342   4.941   0.840   4.836
 5481SOL    HW217343   4.867   0.736   4.734
 5482SOL     OW17344   3.407   4.142   2.826
 5482SOL    HW117345   3.473   4.091   2.772
 5482SOL    HW217346   3.314   4.110   2.805
 5483SOL     OW17347   6.768   2.005   5.216
 5483SOL    HW117348   6.832   1.949   5.164
 5483SOL    HW217349   6.738   1.955   5.297
 5484SOL     OW17350   6.185   0.328   3.556
 5484SOL    HW117351   6.244   0.402   3.587
 5484SOL    HW217352   6.158   0.272   3.635
 5485SOL     OW17353   3.146   6.496   4.634
 5485SOL    HW117354   3.111   6.563   4.698
 5485SOL    HW217355   3.198   6.543   4.562
 5486SOL     OW17356   1.443   6.172   4.495
 5486SOL    HW117357   1.404   6.180   4.403
 5486SOL    HW217358   1.476   6.079   4.509
 5487SOL     OW17359   5.592   3.257   6.573
 5487SOL    HW117360   5.616   3.343   6.620
 5487SOL    HW217361   5.574   3.186   6.641
 5488SOL     OW17362   5.562   1.395   1.341
 5488SOL    HW117363   5.591   1.319   1.283
 5488SOL    HW217364   5.480   1.436   1.302
 5489SOL     OW17365   0.905   4.583   1.114
 5489SOL    HW117366   0.986   4.552   1.064
 5489SOL    HW217367   0.826   4.583   1.052
 5490SOL     OW17368   3.290   0.423   1.036
 5490SOL    HW117369   3.345   0.417   0.952
 5490SOL    HW217370   3.254   0.516   1.045
 5491SOL     OW17371   1.835   3.383   6.235
 5491SOL    HW117372   1.839   3.288   6.266
 5491SOL    HW217373   1.855   3.386   6.137
 5492SOL     OW17374   0.963   1.864   6.766
 5492SOL    HW117375   0.963   1.909   6.676
 5492SOL    HW217376   0.948   1.766   6.753
 5493SOL     OW17377   3.969   3.616   4.249
 5493SOL    HW117378   4.019   3.627   4.163
 5493SOL    HW217379   3.971   3.520   4.277
 5494SOL     OW17380   6.128   2.639   0.013
 5494SOL    HW117381   6.214   2.624   6.987
 5494SOL    HW217382   6.051   2.611   6.978
 5495SOL     OW17383   3.747   2.589   1.311
 5495SOL    HW117384   3.750   2.498   1.270
 5495SOL    HW217385   3.655   2.627   1.301
 5496SOL     OW17386   2.546   0.015   3.617
 5496SOL    HW117387   2.532   6.962   3.552
 5496SOL    HW217388   2.528   0.102   3.571
 5497SOL     OW17389   0.156   2.136   3.744
 5497SOL    HW117390   0.249   2.168   3.759
 5497SOL    HW217391   0.149   2.039   3.769
 5498SOL     OW17392   5.361   6.949   1.529
 5498SOL    HW117393   5.317   6.899   1.455
 5498SOL    HW217394   5.306   0.007   1.551
 5499SOL     OW17395   0.718   0.803   3.404
 5499SOL    HW117396   0.625   0.826   3.435
 5499SOL    HW217397   0.715   0.721   3.347
 5500SOL     OW17398   1.824   6.427   6.780
 5500SOL    HW117399   1.751   6.495   6.773
 5500SOL    HW217400   1.795   6.341   6.739
 5501SOL     OW17401   3.652   0.179   1.122
 5501SOL    HW117402   3.690   0.197   1.032
 5501SOL    HW217403   3.552   0.188   1.120
 5502SOL     OW17404   5.518   4.031   0.025
 5502SOL    HW117405   5.546   4.092   6.973
 5502SOL    HW217406   5.444   3.972   7.016
 5503SOL     OW17407   0.116   5.270   2.997
 5503SOL    HW117408   0.050   5.196   2.987
 5503SOL    HW217409   0.196   5.238   3.047
 5504SOL     OW17410   4.146   1.235   5.116
 5504SOL    HW117411   4.073   1.166   5.111
 5504SOL    HW217412   4.106   1.326   5.110
 5505SOL     OW17413   1.935   5.649   4.209
 5505SOL    HW117414   2.034   5.662   4.214
 5505SOL    HW217415   1.889   5.730   4.246
 5506SOL     OW17416   0.343   1.155   6.120
 5506SOL    HW117417   0.371   1.067   6.158
 5506SOL    HW217418   0.423   1.214   6.111
 5507SOL     OW17419   2.429   6.882   3.057
 5507SOL    HW117420   2.527   6.895   3.040
 5507SOL    HW217421   2.379   6.963   3.025
 5508SOL     OW17422   1.926   1.016   6.905
 5508SOL    HW117423   1.909   0.946   6.974
 5508SOL    HW217424   2.015   1.000   6.863
 5509SOL     OW17425   0.999   6.516   1.053
 5509SOL    HW117426   0.906   6.491   1.028
 5509SOL    HW217427   1.019   6.483   1.145
 5510SOL     OW17428   5.460   6.209   0.506
 5510SOL    HW117429   5.381   6.162   0.545
 5510SOL    HW217430   5.441   6.307   0.502
 5511SOL     OW17431   2.806   0.253   4.098
 5511SOL    HW117432   2.732   0.288   4.040
 5511SOL    HW217433   2.891   0.300   4.076
 5512SOL     OW17434   5.736   2.229   1.619
 5512SOL    HW117435   5.735   2.316   1.670
 5512SOL    HW217436   5.822   2.220   1.570
 5513SOL     OW17437   4.139   4.154   6.069
 5513SOL    HW117438   4.169   4.059   6.083
 5513SOL    HW217439   4.082   4.182   6.145
 5514SOL     OW17440   4.904   6.018   2.088
 5514SOL    HW117441   4.901   5.973   1.998
 5514SOL    HW217442   4.820   6.070   2.102
 5515SOL     OW17443   0.070   4.864   1.354
 5515SOL    HW117444   0.131   4.789   1.328
 5515SOL    HW217445   0.058   4.926   1.277
 5516SOL     OW17446   0.816   3.715   6.430
 5516SOL    HW117447   0.797   3.742   6.524
 5516SOL    HW217448   0.900   3.660   6.427
 5517SOL     OW17449   2.124   2.902   2.136
 5517SOL    HW117450   2.103   2.987   2.184
 5517SOL    HW217451   2.038   2.858   2.108
 5518SOL     OW17452   6.089   6.728   6.117
 5518SOL    HW117453   6.090   6.801   6.186
 5518SOL    HW217454   6.170   6.735   6.059
 5519SOL     OW17455   5.258   3.430   2.845
 5519SOL    HW117456   5.162   3.403   2.840
 5519SOL    HW217457   5.277   3.499   2.775
 5520SOL     OW17458   0.239   5.672   2.495
 5520SOL    HW117459   0.218   5.757   2.543
 5520SOL    HW217460   0.171   5.603   2.518
 5521SOL     OW17461   4.341   6.915   2.070
 5521SOL    HW117462   4.286   6.840   2.034
 5521SOL    HW217463   4.282   6.980   2.118
 5522SOL     OW17464   0.193   5.545   0.953
 5522SOL    HW117465   0.127   5.535   0.879
 5522SOL    HW217466   0.259   5.471   0.949
 5523SOL     OW17467   3.107   6.993   2.320
 5523SOL    HW117468   3.050   6.922   2.360
 5523SOL    HW217469   3.189   7.005   2.376
 5524SOL     OW17470   5.142   5.409   4.731
 5524SOL    HW117471   5.221   5.470   4.720
 5524SOL    HW217472   5.163   5.320   4.692
 5525SOL     OW17473   6.724   3.185   6.876
 5525SOL    HW117474   6.761   3.119   6.941
 5525SOL    HW217475   6.725   3.146   6.784
 5526SOL     OW17476   5.385   4.729   4.576
 5526SOL    HW117477   5.300   4.680   4.597
 5526SOL    HW217478   5.365   4.825   4.558
 5527SOL     OW17479   6.828   3.843   4.468
 5527SOL    HW117480   6.802   3.831   4.372
 5527SOL    HW217481   6.877   3.763   4.500
 5528SOL     OW17482   1.163   1.853   0.023
 5528SOL    HW117483   1.107   1.929   7.014
 5528SOL    HW217484   1.206   1.808   6.967
 5529SOL     OW17485   1.874   0.520   4.238
 5529SOL    HW117486   1.876   0.530   4.338
 5529SOL    HW217487   1.891   0.424   4.214
 5530SOL     OW17488   0.354   2.187   2.280
 5530SOL    HW117489   0.415   2.241   2.339
 5530SOL    HW217490   0.323   2.244   2.204
 5531SOL     OW17491   3.925   3.299   2.422
 5531SOL    HW117492   3.929   3.399   2.431
 5531SOL    HW217493   3.876   3.276   2.338
 5532SOL     OW17494   1.365   1.936   0.180
 5532SOL    HW117495   1.296   1.890   0.125
 5532SOL    HW217496   1.334   2.030   0.200
 5533SOL     OW17497   3.064   0.856   3.350
 5533SOL    HW117498   3.016   0.938   3.381
 5533SOL    HW217499   3.148   0.882   3.303
 5534SOL     OW17500   0.825   1.805   5.595
 5534SOL    HW117501   0.885   1.744   5.543
 5534SOL    HW217502   0.743   1.824   5.542
 5535SOL     OW17503   0.643   3.493   4.398
 5535SOL    HW117504   0.587   3.534   4.470
 5535SOL    HW217505   0.604   3.405   4.371
 5536SOL     OW17506   2.772   0.621   4.491
 5536SOL    HW117507   2.808   0.631   4.399
 5536SOL    HW217508   2.674   0.605   4.487
 5537SOL     OW17509   3.044   0.433   4.105
 5537SOL    HW117510   3.107   0.497   4.063
 5537SOL    HW217511   3.051   0.439   4.205
 5538SOL     OW17512   3.270   6.863   4.996
 5538SOL    HW117513   3.290   6.766   4.979
 5538SOL    HW217514   3.324   6.919   4.933
 5539SOL     OW17515   1.622   2.642   0.294
 5539SOL    HW117516   1.646   2.645   0.197
 5539SOL    HW217517   1.649   2.554   0.332
 5540SOL     OW17518   6.256   3.505   3.077
 5540SOL    HW117519   6.327   3.511   3.007
 5540SOL    HW217520   6.254   3.413   3.115
 5541SOL     OW17521   5.605   0.905   6.405
 5541SOL    HW117522   5.631   0.808   6.409
 5541SOL    HW217523   5.514   0.913   6.366
 5542SOL     OW17524   6.270   5.944   6.441
 5542SOL    HW117525   6.298   6.036   6.414
 5542SOL    HW217526   6.263   5.886   6.359
 5543SOL     OW17527   3.195   5.357   5.695
 5543SOL    HW117528   3.150   5.444   5.712
 5543SOL    HW217529   3.288   5.360   5.731
 5544SOL     OW17530   5.382   6.542   6.085
 5544SOL    HW117531   5.415   6.520   5.993
 5544SOL    HW217532   5.302   6.602   6.078
 5545SOL     OW17533   4.405   1.957   3.522
 5545SOL    HW117534   4.479   1.987   3.462
 5545SOL    HW217535   4.440   1.890   3.587
 5546SOL     OW17536   1.203   6.513   4.661
 5546SOL    HW117537   1.115   6.558   4.678
 5546SOL    HW217538   1.193   6.414   4.671
 5547SOL     OW17539   3.785   0.862   4.293
 5547SOL    HW117540   3.748   0.955   4.295
 5547SOL    HW217541   3.713   0.797   4.316
 5548SOL     OW17542   5.918   3.686   5.093
 5548SOL    HW117543   5.863   3.624   5.036
 5548SOL    HW217544   6.003   3.708   5.045
 5549SOL     OW17545   4.483   4.189   0.594
 5549SOL    HW117546   4.530   4.277   0.582
 5549SOL    HW217547   4.387   4.205   0.619
 5550SOL     OW17548   2.487   4.526   2.427
 5550SOL    HW117549   2.576   4.555   2.461
 5550SOL    HW217550   2.431   4.494   2.502
 5551SOL     OW17551   1.951   5.824   3.567
 5551SOL    HW117552   1.948   5.847   3.470
 5551SOL    HW217553   1.880   5.757   3.588
 5552SOL     OW17554   6.539   0.356   6.620
 5552SOL    HW117555   6.623   0.411   6.625
 5552SOL    HW217556   6.531   0.315   6.529
 5553SOL     OW17557   5.023   6.583   0.726
 5553SOL    HW117558   5.091   6.575   0.799
 5553SOL    HW217559   4.970   6.498   0.720
 5554SOL     OW17560   4.456   1.774   6.002
 5554SOL    HW117561   4.374   1.793   6.056
 5554SOL    HW217562   4.454   1.679   5.970
 5555SOL     OW17563   1.439   4.072   3.677
 5555SOL    HW117564   1.490   4.158   3.681
 5555SOL    HW217565   1.349   4.084   3.719
 5556SOL     OW17566   6.727   1.536   3.124
 5556SOL    HW117567   6.727   1.632   3.152
 5556SOL    HW217568   6.739   1.530   3.025
 5557SOL     OW17569   3.210   6.719   2.762
 5557SOL    HW117570   3.162   6.783   2.821
 5557SOL    HW217571   3.265   6.657   2.818
 5558SOL     OW17572   4.155   3.597   5.676
 5558SOL    HW117573   4.242   3.552   5.659
 5558SOL    HW217574   4.081   3.530   5.674
 5559SOL     OW17575   1.776   0.300   1.695
 5559SOL    HW117576   1.763   0.293   1.794
 5559SOL    HW217577   1.792   0.395   1.669
 5560SOL     OW17578   0.740   6.275   2.412
 5560SOL    HW117579   0.839   6.281   2.397
 5560SOL    HW217580   0.696   6.246   2.327
 5561SOL     OW17581   1.008   1.796   4.147
 5561SOL    HW117582   0.920   1.748   4.144
 5561SOL    HW217583   1.031   1.816   4.242
 5562SOL     OW17584   4.195   1.932   6.186
 5562SOL    HW117585   4.235   1.977   6.106
 5562SOL    HW217586   4.223   1.981   6.269
 5563SOL     OW17587   3.973   5.337   2.083
 5563SOL    HW117588   3.937   5.276   2.155
 5563SOL    HW217589   4.006   5.281   2.006
 5564SOL     OW17590   4.655   0.680   1.274
 5564SOL    HW117591   4.689   0.596   1.232
 5564SOL    HW217592   4.726   0.718   1.334
 5565SOL     OW17593   4.757   1.537   5.929
 5565SOL    HW117594   4.816   1.461   5.958
 5565SOL    HW217595   4.688   1.503   5.865
 5566SOL     OW17596   1.474   4.970   6.744
 5566SOL    HW117597   1.495   4.883   6.789
 5566SOL    HW217598   1.461   4.955   6.646
 5567SOL     OW17599   7.002   2.754   1.034
 5567SOL    HW117600   7.015   2.827   1.101
 5567SOL    HW217601   6.908   2.721   1.039
 5568SOL     OW17602   4.497   2.171   3.818
 5568SOL    HW117603   4.412   2.122   3.802
 5568SOL    HW217604   4.574   2.111   3.797
 5569SOL     OW17605   1.355   1.828   2.988
 5569SOL    HW117606   1.326   1.806   2.894
 5569SOL    HW217607   1.416   1.756   3.022
 5570SOL     OW17608   6.361   4.481   5.000
 5570SOL    HW117609   6.357   4.427   5.084
 5570SOL    HW217610   6.379   4.419   4.923
 5571SOL     OW17611   0.024   6.119   0.366
 5571SOL    HW117612   7.004   6.033   0.395
 5571SOL    HW217613   7.001   6.153   0.284
 5572SOL     OW17614   0.953   2.145   5.593
 5572SOL    HW117615   0.963   2.069   5.528
 5572SOL    HW217616   1.007   2.127   5.674
 5573SOL     OW17617   2.080   4.137   5.253
 5573SOL    HW117618   2.130   4.160   5.169
 5573SOL    HW217619   2.065   4.038   5.256
 5574SOL     OW17620   6.801   2.012   2.720
 5574SOL    HW117621   6.841   1.923   2.699
 5574SOL    HW217622   6.783   2.018   2.818
 5575SOL     OW17623   0.165   1.165   0.905
 5575SOL    HW117624   0.071   1.200   0.905
 5575SOL    HW217625   0.187   1.132   0.997
 5576SOL     OW17626   1.325   5.423   1.800
 5576SOL    HW117627   1.251   5.465   1.747
 5576SOL    HW217628   1.302   5.425   1.897
 5577SOL     OW17629   3.004   3.192   5.003
 5577SOL    HW117630   3.073   3.151   4.944
 5577SOL    HW217631   2.924   3.217   4.949
 5578SOL     OW17632   3.357   4.033   0.328
 5578SOL    HW117633   3.341   3.997   0.237
 5578SOL    HW217634   3.285   4.001   0.390
 5579SOL     OW17635   1.001   3.699   5.960
 5579SOL    HW117636   1.078   3.719   6.019
 5579SOL    HW217637   1.031   3.698   5.864
 5580SOL     OW17638   5.288   2.837   5.855
 5580SOL    HW117639   5.333   2.839   5.944
 5580SOL    HW217640   5.315   2.917   5.802
 5581SOL     OW17641   1.689   6.977   1.516
 5581SOL    HW117642   1.598   6.959   1.554
 5581SOL    HW217643   1.743   6.893   1.519
 5582SOL     OW17644   3.207   3.646   4.688
 5582SOL    HW117645   3.204   3.553   4.651
 5582SOL    HW217646   3.225   3.642   4.786
 5583SOL     OW17647   4.551   0.652   2.449
 5583SOL    HW117648   4.545   0.619   2.355
 5583SOL    HW217649   4.489   0.730   2.461
 5584SOL     OW17650   5.676   4.452   4.042
 5584SOL    HW117651   5.596   4.447   4.101
 5584SOL    HW217652   5.755   4.413   4.089
 5585SOL     OW17653   5.063   6.395   3.724
 5585SOL    HW117654   5.131   6.466   3.706
 5585SOL    HW217655   4.988   6.433   3.778
 5586SOL     OW17656   0.026   2.441   6.821
 5586SOL    HW117657   0.100   2.509   6.820
 5586SOL    HW217658   6.999   2.446   6.907
 5587SOL     OW17659   4.015   6.015   2.402
 5587SOL    HW117660   4.097   6.072   2.392
 5587SOL    HW217661   4.004   5.959   2.320
 5588SOL     OW17662   1.986   6.042   2.844
 5588SOL    HW117663   1.993   6.004   2.936
 5588SOL    HW217664   2.053   6.116   2.834
 5589SOL     OW17665   6.039   4.104   5.633
 5589SOL    HW117666   6.038   4.101   5.533
 5589SOL    HW217667   6.099   4.032   5.667
 5590SOL     OW17668   6.267   6.024   4.016
 5590SOL    HW117669   6.198   5.999   3.948
 5590SOL    HW217670   6.255   5.968   4.098
 5591SOL     OW17671   5.667   1.790   0.566
 5591SOL    HW117672   5.614   1.851   0.625
 5591SOL    HW217673   5.674   1.700   0.610
 5592SOL     OW17674   6.941   5.100   2.909
 5592SOL    HW117675   6.870   5.154   2.953
 5592SOL    HW217676   6.921   5.003   2.918
 5593SOL     OW17677   0.144   2.927   6.787
 5593SOL    HW117678   0.150   2.833   6.821
 5593SOL    HW217679   0.229   2.975   6.807
 5594SOL     OW17680   3.447   1.205   6.627
 5594SOL    HW117681   3.367   1.206   6.567
 5594SOL    HW217682   3.528   1.235   6.577
 5595SOL     OW17683   6.422   0.600   5.123
 5595SOL    HW117684   6.436   0.638   5.032
 5595SOL    HW217685   6.486   0.524   5.137
 5596SOL     OW17686   4.735   0.725   3.459
 5596SOL    HW117687   4.766   0.698   3.368
 5596SOL    HW217688   4.723   0.824   3.462
 5597SOL     OW17689   5.844   2.617   5.280
 5597SOL    HW117690   5.902   2.684   5.235
 5597SOL    HW217691   5.890   2.583   5.362
 5598SOL     OW17692   6.363   3.385   3.719
 5598SOL    HW117693   6.286   3.354   3.775
 5598SOL    HW217694   6.446   3.338   3.747
 5599SOL     OW17695   1.016   2.788   1.878
 5599SOL    HW117696   0.932   2.783   1.933
 5599SOL    HW217697   1.079   2.854   1.920
 5600SOL     OW17698   1.994   0.392   2.501
 5600SOL    HW117699   1.960   0.405   2.594
 5600SOL    HW217700   1.990   0.479   2.451
 5601SOL     OW17701   2.598   0.957   5.998
 5601SOL    HW117702   2.596   0.863   6.029
 5601SOL    HW217703   2.551   0.964   5.910
 5602SOL     OW17704   0.217   0.892   1.672
 5602SOL    HW117705   0.161   0.974   1.680
 5602SOL    HW217706   0.167   0.822   1.620
 5603SOL     OW17707   5.433   2.483   0.069
 5603SOL    HW117708   5.478   2.480   0.158
 5603SOL    HW217709   5.481   2.548   0.010
 5604SOL     OW17710   6.513   2.218   4.672
 5604SOL    HW117711   6.483   2.187   4.762
 5604SOL    HW217712   6.579   2.292   4.682
 5605SOL     OW17713   0.516   0.776   4.710
 5605SOL    HW117714   0.510   0.833   4.628
 5605SOL    HW217715   0.533   0.833   4.790
 5606SOL     OW17716   5.189   6.900   0.837
 5606SOL    HW117717   5.264   6.874   0.777
 5606SOL    HW217718   5.209   6.989   0.878
 5607SOL     OW17719   5.901   1.283   3.725
 5607SOL    HW117720   5.879   1.331   3.640
 5607SOL    HW217721   5.969   1.336   3.776
 5608SOL     OW17722   6.666   0.784   3.366
 5608SOL    HW117723   6.698   0.755   3.276
 5608SOL    HW217724   6.631   0.878   3.360
 5609SOL     OW17725   4.217   5.805   1.901
 5609SOL    HW117726   4.190   5.737   1.968
 5609SOL    HW217727   4.173   5.785   1.813
 5610SOL     OW17728   4.654   5.014   1.830
 5610SOL    HW117729   4.733   4.954   1.822
 5610SOL    HW217730   4.660   5.067   1.914
 5611SOL     OW17731   0.819   5.091   3.165
 5611SOL    HW117732   0.889   5.040   3.215
 5611SOL    HW217733   0.729   5.066   3.199
 5612SOL     OW17734   4.441   3.039   6.565
 5612SOL    HW117735   4.372   2.980   6.523
 5612SOL    HW217736   4.492   3.087   6.494
 5613SOL     OW17737   5.618   5.800   5.177
 5613SOL    HW117738   5.704   5.841   5.209
 5613SOL    HW217739   5.581   5.741   5.249
 5614SOL     OW17740   4.993   2.472   4.739
 5614SOL    HW117741   4.913   2.453   4.682
 5614SOL    HW217742   5.053   2.536   4.691
 5615SOL     OW17743   6.396   1.846   3.843
 5615SOL    HW117744   6.316   1.786   3.841
 5615SOL    HW217745   6.398   1.902   3.760
 5616SOL     OW17746   2.381   2.440   5.673
 5616SOL    HW117747   2.372   2.356   5.726
 5616SOL    HW217748   2.322   2.511   5.712
 5617SOL     OW17749   2.368   6.078   5.676
 5617SOL    HW117750   2.368   5.978   5.668
 5617SOL    HW217751   2.281   6.114   5.643
 5618SOL     OW17752   6.614   4.887   4.375
 5618SOL    HW117753   6.522   4.908   4.410
 5618SOL    HW217754   6.614   4.796   4.334
 5619SOL     OW17755   3.942   3.863   4.620
 5619SOL    HW117756   4.005   3.825   4.688
 5619SOL    HW217757   3.989   3.873   4.533
 5620SOL     OW17758   3.838   3.642   0.148
 5620SOL    HW117759   3.904   3.714   0.128
 5620SOL    HW217760   3.886   3.561   0.183
 5621SOL     OW17761   2.077   2.541   0.137
 5621SOL    HW117762   1.986   2.524   0.098
 5621SOL    HW217763   2.129   2.456   0.139
 5622SOL     OW17764   3.939   0.132   5.840
 5622SOL    HW117765   3.881   0.196   5.891
 5622SOL    HW217766   3.915   0.137   5.743
 5623SOL     OW17767   4.812   6.383   5.207
 5623SOL    HW117768   4.776   6.467   5.166
 5623SOL    HW217769   4.899   6.360   5.165
 5624SOL     OW17770   0.784   4.159   3.762
 5624SOL    HW117771   0.773   4.197   3.670
 5624SOL    HW217772   0.696   4.127   3.795
 5625SOL     OW17773   6.716   6.965   5.577
 5625SOL    HW117774   6.672   0.019   5.530
 5625SOL    HW217775   6.805   6.993   5.612
 5626SOL     OW17776   2.645   6.516   4.032
 5626SOL    HW117777   2.547   6.517   4.015
 5626SOL    HW217778   2.694   6.514   3.945
 5627SOL     OW17779   0.850   5.301   6.638
 5627SOL    HW117780   0.767   5.333   6.684
 5627SOL    HW217781   0.826   5.252   6.555
 5628SOL     OW17782   2.219   2.635   1.943
 5628SOL    HW117783   2.177   2.726   1.937
 5628SOL    HW217784   2.207   2.587   1.856
 5629SOL     OW17785   4.411   3.147   1.737
 5629SOL    HW117786   4.468   3.082   1.788
 5629SOL    HW217787   4.380   3.106   1.652
 5630SOL     OW17788   1.855   3.514   6.477
 5630SOL    HW117789   1.826   3.474   6.390
 5630SOL    HW217790   1.785   3.578   6.509
 5631SOL     OW17791   4.651   1.371   2.011
 5631SOL    HW117792   4.745   1.381   1.977
 5631SOL    HW217793   4.632   1.442   2.079
 5632SOL     OW17794   3.166   2.599   5.548
 5632SOL    HW117795   3.152   2.665   5.474
 5632SOL    HW217796   3.147   2.507   5.513
 5633SOL     OW17797   5.810   5.184   4.330
 5633SOL    HW117798   5.900   5.225   4.333
 5633SOL    HW217799   5.776   5.185   4.235
 5634SOL     OW17800   1.866   4.745   3.946
 5634SOL    HW117801   1.877   4.843   3.928
 5634SOL    HW217802   1.817   4.733   4.033
 5635SOL     OW17803   2.236   5.719   0.051
 5635SOL    HW117804   2.142   5.749   0.066
 5635SOL    HW217805   2.236   5.627   0.012
 5636SOL     OW17806   5.009   6.793   4.952
 5636SOL    HW117807   4.926   6.832   4.911
 5636SOL    HW217808   5.077   6.866   4.963
 5637SOL     OW17809   4.597   6.833   3.240
 5637SOL    HW117810   4.504   6.797   3.252
 5637SOL    HW217811   4.630   6.809   3.149
 5638SOL     OW17812   0.166   3.726   0.840
 5638SOL    HW117813   0.246   3.782   0.815
 5638SOL    HW217814   0.186   3.674   0.923
 5639SOL     OW17815   2.070   0.212   2.287
 5639SOL    HW117816   2.026   0.297   2.316
 5639SOL    HW217817   2.126   0.176   2.361
 5640SOL     OW17818   3.102   0.675   2.902
 5640SOL    HW117819   3.167   0.751   2.901
 5640SOL    HW217820   3.151   0.589   2.898
 5641SOL     OW17821   0.558   4.711   5.340
 5641SOL    HW117822   0.538   4.765   5.258
 5641SOL    HW217823   0.473   4.675   5.378
 5642SOL     OW17824   0.913   5.798   5.138
 5642SOL    HW117825   0.982   5.806   5.067
 5642SOL    HW217826   0.825   5.831   5.104
 5643SOL     OW17827   4.204   1.205   3.741
 5643SOL    HW117828   4.173   1.128   3.797
 5643SOL    HW217829   4.283   1.247   3.784
 5644SOL     OW17830   3.441   6.846   5.218
 5644SOL    HW117831   3.401   6.874   5.305
 5644SOL    HW217832   3.370   6.845   5.147
 5645SOL     OW17833   5.763   4.776   2.676
 5645SOL    HW117834   5.797   4.714   2.606
 5645SOL    HW217835   5.836   4.797   2.741
 5646SOL     OW17836   0.577   6.095   3.942
 5646SOL    HW117837   0.644   6.062   4.008
 5646SOL    HW217838   0.596   6.057   3.852
 5647SOL     OW17839   4.641   6.516   0.858
 5647SOL    HW117840   4.575   6.542   0.928
 5647SOL    HW217841   4.607   6.436   0.808
 5648SOL     OW17842   1.493   0.148   3.579
 5648SOL    HW117843   1.411   0.201   3.599
 5648SOL    HW217844   1.478   0.095   3.495
 5649SOL     OW17845   0.200   0.911   4.549
 5649SOL    HW117846   0.211   0.812   4.555
 5649SOL    HW217847   0.276   0.950   4.497
 5650SOL     OW17848   0.581   5.192   0.533
 5650SOL    HW117849   0.662   5.218   0.585
 5650SOL    HW217850   0.499   5.231   0.575
 5651SOL     OW17851   1.673   1.308   1.636
 5651SOL    HW117852   1.761   1.349   1.657
 5651SOL    HW217853   1.648   1.244   1.708
 5652SOL     OW17854   6.330   6.901   2.402
 5652SOL    HW117855   6.325   6.942   2.311
 5652SOL    HW217856   6.274   6.818   2.405
 5653SOL     OW17857   6.588   6.345   6.636
 5653SOL    HW117858   6.596   6.251   6.602
 5653SOL    HW217859   6.613   6.348   6.733
 5654SOL     OW17860   6.323   6.997   5.493
 5654SOL    HW117861   6.232   6.957   5.503
 5654SOL    HW217862   6.389   6.925   5.475
 5655SOL     OW17863   1.331   3.761   4.809
 5655SOL    HW117864   1.305   3.703   4.886
 5655SOL    HW217865   1.264   3.835   4.798
 5656SOL     OW17866   0.099   3.712   6.639
 5656SOL    HW117867   0.093   3.812   6.643
 5656SOL    HW217868   0.061   3.680   6.552
 5657SOL     OW17869   5.540   1.673   0.367
 5657SOL    HW117870   5.508   1.585   0.401
 5657SOL    HW217871   5.589   1.721   0.440
 5658SOL     OW17872   3.895   3.726   6.662
 5658SOL    HW117873   3.983   3.707   6.705
 5658SOL    HW217874   3.894   3.688   6.570
 5659SOL     OW17875   3.873   3.074   5.076
 5659SOL    HW117876   3.941   3.061   5.003
 5659SOL    HW217877   3.805   3.141   5.046
 5660SOL     OW17878   4.955   0.014   0.690
 5660SOL    HW117879   5.031   6.972   0.694
 5660SOL    HW217880   4.871   6.988   0.666
 5661SOL     OW17881   1.699   5.832   5.154
 5661SOL    HW117882   1.699   5.920   5.201
 5661SOL    HW217883   1.769   5.772   5.194
 5662SOL     OW17884   2.529   5.986   3.314
 5662SOL    HW117885   2.621   6.025   3.316
 5662SOL    HW217886   2.533   5.888   3.335
 5663SOL     OW17887   1.481   3.117   0.010
 5663SOL    HW117888   1.485   3.216   0.015
 5663SOL    HW217889   1.494   3.087   6.938
 5664SOL     OW17890   6.714   4.082   4.039
 5664SOL    HW117891   6.767   4.002   4.067
 5664SOL    HW217892   6.629   4.053   3.996
 5665SOL     OW17893   1.918   0.810   0.171
 5665SOL    HW117894   1.877   0.763   0.249
 5665SOL    HW217895   1.898   0.759   0.087
 5666SOL     OW17896   6.137   6.620   2.947
 5666SOL    HW117897   6.077   6.544   2.926
 5666SOL    HW217898   6.213   6.589   3.004
 5667SOL     OW17899   1.538   5.137   4.638
 5667SOL    HW117900   1.621   5.081   4.627
 5667SOL    HW217901   1.460   5.078   4.658
 5668SOL     OW17902   5.044   2.384   3.958
 5668SOL    HW117903   4.982   2.381   3.879
 5668SOL    HW217904   5.113   2.312   3.948
 5669SOL     OW17905   6.942   3.637   6.837
 5669SOL    HW117906   7.021   3.679   6.791
 5669SOL    HW217907   6.870   3.620   6.770
 5670SOL     OW17908   6.966   2.914   4.283
 5670SOL    HW117909   6.923   3.000   4.309
 5670SOL    HW217910   7.014   2.876   4.362
 5671SOL     OW17911   6.370   6.393   6.393
 5671SOL    HW117912   6.397   6.478   6.348
 5671SOL    HW217913   6.439   6.368   6.461
 5672SOL     OW17914   4.254   4.003   6.841
 5672SOL    HW117915   4.163   3.994   6.800
 5672SOL    HW217916   4.292   4.093   6.820
 5673SOL     OW17917   1.186   0.774   2.174
 5673SOL    HW117918   1.240   0.858   2.171
 5673SOL    HW217919   1.089   0.796   2.161
 5674SOL     OW17920   0.484   5.043   4.857
 5674SOL    HW117921   0.487   5.113   4.786
 5674SOL    HW217922   0.447   5.083   4.941
 5675SOL     OW17923   4.080   2.831   0.032
 5675SOL    HW117924   4.127   2.865   6.973
 5675SOL    HW217925   3.983   2.857   0.028
 5676SOL     OW17926   2.468   2.637   2.046
 5676SOL    HW117927   2.545   2.633   1.983
 5676SOL    HW217928   2.382   2.628   1.995
 5677SOL     OW17929   0.999   1.585   0.340
 5677SOL    HW117930   1.056   1.547   0.266
 5677SOL    HW217931   1.036   1.557   0.428
 5678SOL     OW17932   4.213   6.475   2.446
 5678SOL    HW117933   4.287   6.516   2.393
 5678SOL    HW217934   4.240   6.383   2.477
 5679SOL     OW17935   0.232   1.197   4.024
 5679SOL    HW117936   0.202   1.283   4.067
 5679SOL    HW217937   0.246   1.128   4.095
 5680SOL     OW17938   1.875   4.966   6.282
 5680SOL    HW117939   1.834   4.996   6.368
 5680SOL    HW217940   1.973   4.985   6.282
 5681SOL     OW17941   0.148   4.087   0.911
 5681SOL    HW117942   0.231   4.071   0.858
 5681SOL    HW217943   0.152   4.037   0.997
 5682SOL     OW17944   2.397   4.546   5.296
 5682SOL    HW117945   2.497   4.537   5.291
 5682SOL    HW217946   2.369   4.633   5.257
 5683SOL     OW17947   4.483   0.997   6.442
 5683SOL    HW117948   4.408   1.060   6.421
 5683SOL    HW217949   4.452   0.903   6.431
 5684SOL     OW17950   2.870   3.567   5.426
 5684SOL    HW117951   2.901   3.661   5.440
 5684SOL    HW217952   2.772   3.567   5.406
 5685SOL     OW17953   1.950   2.380   2.239
 5685SOL    HW117954   1.949   2.480   2.233
 5685SOL    HW217955   2.010   2.343   2.168
 5686SOL     OW17956   2.780   1.187   6.579
 5686SOL    HW117957   2.767   1.229   6.669
 5686SOL    HW217958   2.840   1.108   6.587
 5687SOL     OW17959   0.771   5.064   0.208
 5687SOL    HW117960   0.816   5.151   0.227
 5687SOL    HW217961   0.753   5.057   0.110
 5688SOL     OW17962   0.365   2.466   1.578
 5688SOL    HW117963   0.357   2.367   1.566
 5688SOL    HW217964   0.460   2.490   1.594
 5689SOL     OW17965   3.807   1.117   0.494
 5689SOL    HW117966   3.754   1.032   0.498
 5689SOL    HW217967   3.905   1.095   0.490
 5690SOL     OW17968   2.438   5.466   0.371
 5690SOL    HW117969   2.510   5.501   0.311
 5690SOL    HW217970   2.371   5.414   0.316
 5691SOL     OW17971   3.361   0.568   2.142
 5691SOL    HW117972   3.369   0.564   2.042
 5691SOL    HW217973   3.328   0.480   2.176
 5692SOL     OW17974   5.483   3.350   0.913
 5692SOL    HW117975   5.396   3.315   0.947
 5692SOL    HW217976   5.524   3.283   0.852
 5693SOL     OW17977   5.185   2.479   2.709
 5693SOL    HW117978   5.102   2.521   2.746
 5693SOL    HW217979   5.262   2.495   2.772
 5694SOL     OW17980   0.754   1.640   3.483
 5694SOL    HW117981   0.734   1.661   3.388
 5694SOL    HW217982   0.841   1.592   3.490
 5695SOL     OW17983   1.596   2.335   2.987
 5695SOL    HW117984   1.547   2.369   3.068
 5695SOL    HW217985   1.694   2.337   3.005
 5696SOL     OW17986   1.090   1.049   3.296
 5696SOL    HW117987   1.061   0.995   3.218
 5696SOL    HW217988   1.013   1.062   3.359
 5697SOL     OW17989   5.467   2.152   1.005
 5697SOL    HW117990   5.518   2.162   1.091
 5697SOL    HW217991   5.521   2.191   0.930
 5698SOL     OW17992   1.190   4.238   3.737
 5698SOL    HW117993   1.218   4.304   3.807
 5698SOL    HW217994   1.118   4.179   3.774
 5699SOL     OW17995   0.382   2.932   3.302
 5699SOL    HW117996   0.382   2.893   3.210
 5699SOL    HW217997   0.367   3.030   3.297
 5700SOL     OW17998   6.906   6.956   3.017
 5700SOL    HW117999   6.871   0.021   2.982
 5700SOL    HW218000   6.859   6.933   3.103
 5701SOL     OW18001   1.566   0.769   1.977
 5701SOL    HW118002   1.557   0.862   2.013
 5701SOL    HW218003   1.559   0.703   2.052
 5702SOL     OW18004   2.669   5.752   4.592
 5702SOL    HW118005   2.742   5.761   4.659
 5702SOL    HW218006   2.685   5.815   4.516
 5703SOL     OW18007   6.486   4.576   1.894
 5703SOL    HW118008   6.453   4.510   1.961
 5703SOL    HW218009   6.535   4.650   1.940
 5704SOL     OW18010   4.791   4.555   3.146
 5704SOL    HW118011   4.830   4.537   3.055
 5704SOL    HW218012   4.865   4.559   3.213
 5705SOL     OW18013   4.917   0.103   6.994
 5705SOL    HW118014   4.824   0.137   7.006
 5705SOL    HW218015   4.917   0.003   6.995
 5706SOL     OW18016   6.858   3.863   1.144
 5706SOL    HW118017   6.828   3.833   1.054
 5706SOL    HW218018   6.901   3.953   1.137
 5707SOL     OW18019   0.234   6.499   0.288
 5707SOL    HW118020   0.201   6.593   0.288
 5707SOL    HW218021   0.306   6.489   0.357
 5708SOL     OW18022   5.178   5.746   2.195
 5708SOL    HW118023   5.255   5.809   2.186
 5708SOL    HW218024   5.094   5.797   2.214
 5709SOL     OW18025   0.993   0.880   2.507
 5709SOL    HW118026   1.077   0.829   2.491
 5709SOL    HW218027   0.973   0.938   2.428
 5710SOL     OW18028   2.406   2.663   0.596
 5710SOL    HW118029   2.312   2.648   0.624
 5710SOL    HW218030   2.410   2.739   0.531
 5711SOL     OW18031   5.545   0.794   2.616
 5711SOL    HW118032   5.478   0.861   2.584
 5711SOL    HW218033   5.599   0.761   2.538
 5712SOL     OW18034   6.337   0.578   6.295
 5712SOL    HW118035   6.428   0.545   6.271
 5712SOL    HW218036   6.343   0.637   6.376
 5713SOL     OW18037   3.491   3.047   1.844
 5713SOL    HW118038   3.422   2.977   1.857
 5713SOL    HW218039   3.529   3.040   1.751
 5714SOL     OW18040   0.415   5.788   0.121
 5714SOL    HW118041   0.473   5.807   0.200
 5714SOL    HW218042   0.319   5.790   0.149
 5715SOL     OW18043   0.795   0.797   2.693
 5715SOL    HW118044   0.818   0.702   2.713
 5715SOL    HW218045   0.876   0.846   2.661
 5716SOL     OW18046   1.738   4.153   6.384
 5716SOL    HW118047   1.682   4.071   6.375
 5716SOL    HW218048   1.682   4.234   6.368
 5717SOL     OW18049   1.518   4.989   1.342
 5717SOL    HW118050   1.557   4.989   1.250
 5717SOL    HW218051   1.541   4.903   1.388
 5718SOL     OW18052   0.009   3.191   5.119
 5718SOL    HW118053   7.014   3.285   5.149
 5718SOL    HW218054   6.946   3.139   5.120
 5719SOL     OW18055   2.703   1.991   6.521
 5719SOL    HW118056   2.776   1.966   6.584
 5719SOL    HW218057   2.737   2.055   6.453
 5720SOL     OW18058   1.684   5.739   4.686
 5720SOL    HW118059   1.773   5.710   4.652
 5720SOL    HW218060   1.654   5.677   4.759
 5721SOL     OW18061   6.706   3.384   1.262
 5721SOL    HW118062   6.700   3.469   1.209
 5721SOL    HW218063   6.634   3.321   1.232
 5722SOL     OW18064   6.762   1.226   4.829
 5722SOL    HW118065   6.664   1.247   4.830
 5722SOL    HW218066   6.802   1.260   4.743
 5723SOL     OW18067   4.695   2.874   0.724
 5723SOL    HW118068   4.622   2.916   0.671
 5723SOL    HW218069   4.665   2.861   0.818
 5724SOL     OW18070   5.594   2.675   4.863
 5724SOL    HW118071   5.662   2.602   4.877
 5724SOL    HW218072   5.595   2.704   4.767
 5725SOL     OW18073   5.035   5.781   4.619
 5725SOL    HW118074   5.124   5.773   4.664
 5725SOL    HW218075   4.962   5.770   4.686
 5726SOL     OW18076   0.092   5.037   4.673
 5726SOL    HW118077   0.060   4.944   4.690
 5726SOL    HW218078   0.188   5.035   4.647
 5727SOL     OW18079   0.019   1.721   3.951
 5727SOL    HW118080   0.048   1.733   4.046
 5727SOL    HW218081   6.954   1.672   3.948
 5728SOL     OW18082   3.784   0.316   5.961
 5728SOL    HW118083   3.824   0.330   6.052
 5728SOL    HW218084   3.693   0.275   5.971
 5729SOL     OW18085   1.462   0.948   0.607
 5729SOL    HW118086   1.530   1.013   0.575
 5729SOL    HW218087   1.493   0.905   0.692
 5730SOL     OW18088   5.273   4.916   6.518
 5730SOL    HW118089   5.318   4.992   6.470
 5730SOL    HW218090   5.231   4.854   6.451
 5731SOL     OW18091   0.222   6.572   3.655
 5731SOL    HW118092   0.213   6.667   3.687
 5731SOL    HW218093   0.152   6.554   3.586
 5732SOL     OW18094   6.726   5.641   4.862
 5732SOL    HW118095   6.768   5.557   4.898
 5732SOL    HW218096   6.769   5.665   4.776
 5733SOL     OW18097   4.186   6.744   5.449
 5733SOL    HW118098   4.275   6.708   5.478
 5733SOL    HW218099   4.138   6.781   5.529
 5734SOL     OW18100   1.311   6.737   5.566
 5734SOL    HW118101   1.231   6.796   5.580
 5734SOL    HW218102   1.323   6.678   5.646
 5735SOL     OW18103   4.263   1.987   1.736
 5735SOL    HW118104   4.264   2.084   1.712
 5735SOL    HW218105   4.255   1.977   1.835
 5736SOL     OW18106   6.209   4.167   6.951
 5736SOL    HW118107   6.229   4.134   0.021
 5736SOL    HW218108   6.112   4.189   6.943
 5737SOL     OW18109   5.865   6.594   1.320
 5737SOL    HW118110   5.912   6.506   1.330
 5737SOL    HW218111   5.933   6.668   1.317
 5738SOL     OW18112   2.382   3.141   6.193
 5738SOL    HW118113   2.474   3.181   6.183
 5738SOL    HW218114   2.317   3.197   6.142
 5739SOL     OW18115   1.642   0.646   6.128
 5739SOL    HW118116   1.656   0.722   6.191
 5739SOL    HW218117   1.585   0.576   6.172
 5740SOL     OW18118   4.204   3.730   1.366
 5740SOL    HW118119   4.279   3.668   1.342
 5740SOL    HW218120   4.152   3.752   1.284
 5741SOL     OW18121   0.576   4.392   4.174
 5741SOL    HW118122   0.544   4.372   4.267
 5741SOL    HW218123   0.499   4.386   4.110
 5742SOL     OW18124   5.452   6.845   2.195
 5742SOL    HW118125   5.479   6.925   2.142
 5742SOL    HW218126   5.392   6.787   2.140
 5743SOL     OW18127   2.385   5.122   5.248
 5743SOL    HW118128   2.331   5.199   5.213
 5743SOL    HW218129   2.444   5.087   5.175
 5744SOL     OW18130   4.790   0.838   2.018
 5744SOL    HW118131   4.784   0.931   2.053
 5744SOL    HW218132   4.815   0.841   1.921
 5745SOL     OW18133   2.062   1.199   3.756
 5745SOL    HW118134   1.982   1.141   3.736
 5745SOL    HW218135   2.143   1.158   3.715
 5746SOL     OW18136   6.289   6.833   1.585
 5746SOL    HW118137   6.317   6.910   1.642
 5746SOL    HW218138   6.190   6.831   1.576
 5747SOL     OW18139   0.053   4.434   2.877
 5747SOL    HW118140   0.014   4.484   2.954
 5747SOL    HW218141   0.019   4.339   2.879
 5748SOL     OW18142   1.647   5.921   1.023
 5748SOL    HW118143   1.633   5.875   0.935
 5748SOL    HW218144   1.664   5.852   1.094
 5749SOL     OW18145   1.644   0.417   4.514
 5749SOL    HW118146   1.623   0.409   4.611
 5749SOL    HW218147   1.744   0.422   4.502
 5750SOL     OW18148   5.072   6.554   4.612
 5750SOL    HW118149   4.984   6.601   4.625
 5750SOL    HW218150   5.069   6.502   4.527
 5751SOL     OW18151   2.559   2.537   4.799
 5751SOL    HW118152   2.552   2.637   4.810
 5751SOL    HW218153   2.467   2.499   4.786
 5752SOL     OW18154   6.401   0.715   7.008
 5752SOL    HW118155   6.352   0.780   0.043
 5752SOL    HW218156   6.347   0.695   6.926
 5753SOL     OW18157   3.850   3.942   5.648
 5753SOL    HW118158   3.891   3.866   5.598
 5753SOL    HW218159   3.834   3.915   5.743
 5754SOL     OW18160   6.418   4.217   1.464
 5754SOL    HW118161   6.392   4.204   1.368
 5754SOL    HW218162   6.444   4.312   1.479
 5755SOL     OW18163   2.142   3.240   6.371
 5755SOL    HW118164   2.128   3.335   6.398
 5755SOL    HW218165   2.240   3.222   6.363
 5756SOL     OW18166   6.047   6.293   3.661
 5756SOL    HW118167   6.063   6.267   3.756
 5756SOL    HW218168   6.033   6.392   3.656
 5757SOL     OW18169   6.654   6.635   2.478
 5757SOL    HW118170   6.612   6.544   2.473
 5757SOL    HW218171   6.665   6.671   2.385
 5758SOL     OW18172   2.490   0.885   4.649
 5758SOL    HW118173   2.452   0.794   4.632
 5758SOL    HW218174   2.477   0.942   4.567
 5759SOL     OW18175   5.142   1.264   6.612
 5759SOL    HW118176   5.106   1.186   6.561
 5759SOL    HW218177   5.234   1.285   6.581
 5760SOL     OW18178   0.664   4.877   0.929
 5760SOL    HW118179   0.755   4.885   0.970
 5760SOL    HW218180   0.662   4.926   0.842
 5761SOL     OW18181   5.688   0.140   6.264
 5761SOL    HW118182   5.647   0.051   6.285
 5761SOL    HW218183   5.686   0.154   6.165
 5762SOL     OW18184   4.563   5.825   0.222
 5762SOL    HW118185   4.577   5.863   0.314
 5762SOL    HW218186   4.472   5.784   0.216
 5763SOL     OW18187   6.738   0.829   6.704
 5763SOL    HW118188   6.770   0.903   6.645
 5763SOL    HW218189   6.708   0.866   6.791
 5764SOL     OW18190   4.524   4.673   6.080
 5764SOL    HW118191   4.601   4.641   6.136
 5764SOL    HW218192   4.534   4.638   5.987
 5765SOL     OW18193   6.660   3.989   6.986
 5765SOL    HW118194   6.615   3.922   0.023
 5765SOL    HW218195   6.592   4.054   6.952
 5766SOL     OW18196   2.503   2.423   0.486
 5766SOL    HW118197   2.444   2.351   0.448
 5766SOL    HW218198   2.462   2.460   0.569
 5767SOL     OW18199   2.175   6.715   0.344
 5767SOL    HW118200   2.148   6.752   0.255
 5767SOL    HW218201   2.275   6.715   0.351
 5768SOL     OW18202   0.371   6.991   2.828
 5768SOL    HW118203   0.382   0.064   2.800
 5768SOL    HW218204   0.298   6.949   2.774
 5769SOL     OW18205   2.266   6.458   4.234
 5769SOL    HW118206   2.198   6.397   4.275
 5769SOL    HW218207   2.223   6.546   4.213
 5770SOL     OW18208   6.071   0.440   6.731
 5770SOL    HW118209   6.063   0.538   6.715
 5770SOL    HW218210   6.031   0.417   6.820
 5771SOL     OW18211   1.250   6.216   2.916
 5771SOL    HW118212   1.313   6.186   2.987
 5771SOL    HW218213   1.301   6.239   2.833
 5772SOL     OW18214   6.451   2.661   0.303
 5772SOL    HW118215   6.501   2.581   0.337
 5772SOL    HW218216   6.372   2.678   0.362
 5773SOL     OW18217   4.753   1.023   4.149
 5773SOL    HW118218   4.827   0.964   4.181
 5773SOL    HW218219   4.791   1.099   4.097
 5774SOL     OW18220   2.670   5.212   3.866
 5774SOL    HW118221   2.618   5.159   3.933
 5774SOL    HW218222   2.619   5.295   3.843
 5775SOL     OW18223   1.608   0.338   1.927
 5775SOL    HW118224   1.551   0.412   1.891
 5775SOL    HW218225   1.556   0.253   1.929
 5776SOL     OW18226   6.805   1.302   6.062
 5776SOL    HW118227   6.858   1.273   6.142
 5776SOL    HW218228   6.800   1.402   6.060
 5777SOL     OW18229   6.308   0.693   4.424
 5777SOL    HW118230   6.212   0.691   4.396
 5777SOL    HW218231   6.341   0.599   4.436
 5778SOL     OW18232   1.867   0.163   1.468
 5778SOL    HW118233   1.829   0.220   1.541
 5778SOL    HW218234   1.808   0.084   1.453
 5779SOL     OW18235   3.950   1.379   0.568
 5779SOL    HW118236   3.997   1.385   0.656
 5779SOL    HW218237   3.945   1.283   0.540
 5780SOL     OW18238   5.744   5.642   2.854
 5780SOL    HW118239   5.779   5.556   2.891
 5780SOL    HW218240   5.812   5.714   2.866
 5781SOL     OW18241   1.102   3.781   4.540
 5781SOL    HW118242   1.097   3.683   4.563
 5781SOL    HW218243   1.086   3.835   4.622
 5782SOL     OW18244   1.724   0.925   1.247
 5782SOL    HW118245   1.784   0.985   1.299
 5782SOL    HW218246   1.640   0.909   1.299
 5783SOL     OW18247   2.094   1.265   1.014
 5783SOL    HW118248   1.996   1.250   1.029
 5783SOL    HW218249   2.145   1.185   1.045
 5784SOL     OW18250   0.225   6.941   0.087
 5784SOL    HW118251   0.288   6.932   0.010
 5784SOL    HW218252   0.264   7.003   0.155
 5785SOL     OW18253   1.875   1.669   1.859
 5785SOL    HW118254   1.969   1.645   1.880
 5785SOL    HW218255   1.862   1.671   1.760
 5786SOL     OW18256   0.714   3.979   0.566
 5786SOL    HW118257   0.752   4.027   0.486
 5786SOL    HW218258   0.735   3.882   0.559
 5787SOL     OW18259   4.484   2.494   4.607
 5787SOL    HW118260   4.503   2.582   4.562
 5787SOL    HW218261   4.550   2.479   4.681
 5788SOL     OW18262   3.370   0.776   1.608
 5788SOL    HW118263   3.304   0.844   1.575
 5788SOL    HW218264   3.364   0.694   1.551
 5789SOL     OW18265   3.421   3.198   6.130
 5789SOL    HW118266   3.378   3.152   6.052
 5789SOL    HW218267   3.478   3.132   6.180
 5790SOL     OW18268   0.534   4.848   4.647
 5790SOL    HW118269   0.486   4.760   4.646
 5790SOL    HW218270   0.503   4.901   4.726
 5791SOL     OW18271   2.773   2.267   2.271
 5791SOL    HW118272   2.821   2.288   2.186
 5791SOL    HW218273   2.684   2.227   2.250
 5792SOL     OW18274   5.646   3.728   2.326
 5792SOL    HW118275   5.551   3.761   2.321
 5792SOL    HW218276   5.673   3.693   2.236
 5793SOL     OW18277   5.797   0.480   4.749
 5793SOL    HW118278   5.756   0.560   4.792
 5793SOL    HW218279   5.776   0.399   4.805
 5794SOL     OW18280   3.172   6.873   6.947
 5794SOL    HW118281   3.168   6.784   6.902
 5794SOL    HW218282   3.246   6.927   6.908
 5795SOL     OW18283   7.018   6.996   1.109
 5795SOL    HW118284   6.941   6.934   1.124
 5795SOL    HW218285   7.011   0.014   1.018
 5796SOL     OW18286   4.124   0.837   6.541
 5796SOL    HW118287   4.163   0.745   6.535
 5796SOL    HW218288   4.179   0.893   6.602
 5797SOL     OW18289   5.283   1.206   0.429
 5797SOL    HW118290   5.269   1.177   0.335
 5797SOL    HW218291   5.195   1.216   0.475
 5798SOL     OW18292   6.974   4.281   4.632
 5798SOL    HW118293   6.984   4.202   4.572
 5798SOL    HW218294   0.031   4.342   4.621
 5799SOL     OW18295   0.015   0.420   3.970
 5799SOL    HW118296   0.032   0.381   3.880
 5799SOL    HW218297   6.992   0.509   3.961
 5800SOL     OW18298   0.891   6.739   1.812
 5800SOL    HW118299   0.854   6.807   1.876
 5800SOL    HW218300   0.980   6.770   1.778
 5801SOL     OW18301   1.997   2.377   3.449
 5801SOL    HW118302   2.025   2.437   3.525
 5801SOL    HW218303   2.072   2.368   3.384
 5802SOL     OW18304   6.193   3.227   2.500
 5802SOL    HW118305   6.237   3.310   2.535
 5802SOL    HW218306   6.138   3.185   2.573
 5803SOL     OW18307   1.294   4.944   3.641
 5803SOL    HW118308   1.328   5.012   3.576
 5803SOL    HW218309   1.349   4.946   3.724
 5804SOL     OW18310   7.016   5.827   3.063
 5804SOL    HW118311   6.946   5.776   3.013
 5804SOL    HW218312   0.019   5.909   3.012
 5805SOL     OW18313   1.644   2.409   0.439
 5805SOL    HW118314   1.616   2.425   0.533
 5805SOL    HW218315   1.620   2.315   0.413
 5806SOL     OW18316   0.330   5.036   5.092
 5806SOL    HW118317   0.283   4.949   5.110
 5806SOL    HW218318   0.263   5.110   5.096
 5807SOL     OW18319   1.135   5.681   1.223
 5807SOL    HW118320   1.050   5.631   1.235
 5807SOL    HW218321   1.123   5.776   1.253
 5808SOL     OW18322   6.861   6.594   4.560
 5808SOL    HW118323   6.932   6.525   4.576
 5808SOL    HW218324   6.901   6.672   4.511
 5809SOL     OW18325   6.473   2.064   5.427
 5809SOL    HW118326   6.386   2.015   5.439
 5809SOL    HW218327   6.548   2.007   5.457
 5810SOL     OW18328   4.636   1.139   5.728
 5810SOL    HW118329   4.616   1.163   5.823
 5810SOL    HW218330   4.590   1.054   5.704
 5811SOL     OW18331   3.266   1.661   5.145
 5811SOL    HW118332   3.175   1.630   5.118
 5811SOL    HW218333   3.329   1.651   5.068
 5812SOL     OW18334   4.906   3.295   5.944
 5812SOL    HW118335   4.983   3.233   5.930
 5812SOL    HW218336   4.875   3.331   5.856
 5813SOL     OW18337   2.804   0.558   0.761
 5813SOL    HW118338   2.777   0.652   0.781
 5813SOL    HW218339   2.731   0.514   0.709
 5814SOL     OW18340   0.175   2.999   2.149
 5814SOL    HW118341   0.273   3.012   2.165
 5814SOL    HW218342   0.124   3.076   2.188
 5815SOL     OW18343   4.744   1.782   4.183
 5815SOL    HW118344   4.699   1.859   4.137
 5815SOL    HW218345   4.687   1.700   4.176
 5816SOL     OW18346   6.159   4.837   0.759
 5816SOL    HW118347   6.085   4.898   0.732
 5816SOL    HW218348   6.122   4.759   0.809
 5817SOL     OW18349   6.133   5.168   5.737
 5817SOL    HW118350   6.110   5.226   5.815
 5817SOL    HW218351   6.199   5.098   5.765
 5818SOL     OW18352   6.997   5.571   5.102
 5818SOL    HW118353   0.066   5.533   5.086
 5818SOL    HW218354   6.932   5.529   5.039
 5819SOL     OW18355   3.302   5.421   6.841
 5819SOL    HW118356   3.385   5.438   6.789
 5819SOL    HW218357   3.255   5.340   6.806
 5820SOL     OW18358   4.418   4.668   2.637
 5820SOL    HW118359   4.400   4.642   2.542
 5820SOL    HW218360   4.516   4.681   2.651
 5821SOL     OW18361   6.733   0.470   1.085
 5821SOL    HW118362   6.720   0.391   1.025
 5821SOL    HW218363   6.811   0.454   1.146
 5822SOL     OW18364   2.025   2.416   1.512
 5822SOL    HW118365   1.930   2.390   1.527
 5822SOL    HW218366   2.040   2.430   1.414
 5823SOL     OW18367   2.851   6.833   4.824
 5823SOL    HW118368   2.876   6.906   4.887
 5823SOL    HW218369   2.757   6.805   4.842
 5824SOL     OW18370   0.123   6.166   3.797
 5824SOL    HW118371   0.100   6.125   3.709
 5824SOL    HW218372   0.184   6.104   3.847
 5825SOL     OW18373   0.243   5.849   5.118
 5825SOL    HW118374   0.335   5.827   5.088
 5825SOL    HW218375   0.241   5.857   5.218
 5826SOL     OW18376   0.723   6.128   6.014
 5826SOL    HW118377   0.758   6.221   6.007
 5826SOL    HW218378   0.800   6.064   6.015
 5827SOL     OW18379   1.243   3.152   4.603
 5827SOL    HW118380   1.277   3.067   4.561
 5827SOL    HW218381   1.308   3.226   4.585
 5828SOL     OW18382   4.908   0.889   3.294
 5828SOL    HW118383   4.876   0.931   3.210
 5828SOL    HW218384   4.922   0.791   3.280
 5829SOL     OW18385   1.354   0.702   4.914
 5829SOL    HW118386   1.322   0.663   5.000
 5829SOL    HW218387   1.408   0.784   4.932
 5830SOL     OW18388   4.526   0.253   5.389
 5830SOL    HW118389   4.615   0.298   5.381
 5830SOL    HW218390   4.529   0.164   5.343
 5831SOL     OW18391   1.597   1.336   5.869
 5831SOL    HW118392   1.505   1.296   5.863
 5831SOL    HW218393   1.666   1.264   5.861
 5832SOL     OW18394   3.692   4.443   0.319
 5832SOL    HW118395   3.715   4.381   0.394
 5832SOL    HW218396   3.699   4.393   0.232
 5833SOL     OW18397   4.210   3.586   5.302
 5833SOL    HW118398   4.304   3.622   5.298
 5833SOL    HW218399   4.213   3.490   5.333
 5834SOL     OW18400   6.470   4.082   6.524
 5834SOL    HW118401   6.481   4.089   6.425
 5834SOL    HW218402   6.407   4.152   6.557
 5835SOL     OW18403   5.828   1.851   2.788
 5835SOL    HW118404   5.913   1.874   2.740
 5835SOL    HW218405   5.797   1.760   2.760
 5836SOL     OW18406   2.874   7.014   2.096
 5836SOL    HW118407   2.940   6.995   2.169
 5836SOL    HW218408   2.865   0.090   2.083
 5837SOL     OW18409   3.720   3.434   6.663
 5837SOL    HW118410   3.689   3.481   6.581
 5837SOL    HW218411   3.686   3.481   6.744
 5838SOL     OW18412   3.218   2.039   1.751
 5838SOL    HW118413   3.308   1.996   1.741
 5838SOL    HW218414   3.221   2.131   1.712
 5839SOL     OW18415   0.844   1.822   0.628
 5839SOL    HW118416   0.815   1.824   0.724
 5839SOL    HW218417   0.863   1.915   0.597
 5840SOL     OW18418   0.803   3.728   0.567
 5840SOL    HW118419   0.853   3.736   0.653
 5840SOL    HW218420   0.800   3.632   0.539
 5841SOL     OW18421   5.469   0.639   1.833
 5841SOL    HW118422   5.460   0.579   1.913
 5841SOL    HW218423   5.534   0.599   1.769
 5842SOL     OW18424   4.938   2.445   1.993
 5842SOL    HW118425   4.914   2.469   1.899
 5842SOL    HW218426   4.884   2.501   2.056
 5843SOL     OW18427   1.071   4.243   1.714
 5843SOL    HW118428   1.025   4.292   1.788
 5843SOL    HW218429   1.107   4.156   1.749
 5844SOL     OW18430   1.460   5.982   5.532
 5844SOL    HW118431   1.514   6.028   5.603
 5844SOL    HW218432   1.451   6.042   5.453
 5845SOL     OW18433   1.035   0.417   2.044
 5845SOL    HW118434   0.995   0.501   2.079
 5845SOL    HW218435   1.001   0.339   2.096
 5846SOL     OW18436   5.540   3.370   5.439
 5846SOL    HW118437   5.451   3.373   5.392
 5846SOL    HW218438   5.566   3.275   5.455
 5847SOL     OW18439   2.870   2.618   1.692
 5847SOL    HW118440   2.824   2.569   1.618
 5847SOL    HW218441   2.921   2.552   1.749
 5848SOL     OW18442   1.721   5.649   3.560
 5848SOL    HW118443   1.769   5.562   3.572
 5848SOL    HW218444   1.651   5.659   3.631
 5849SOL     OW18445   1.867   0.154   4.820
 5849SOL    HW118446   1.771   0.166   4.845
 5849SOL    HW218447   1.924   0.210   4.879
 5850SOL     OW18448   0.157   3.290   1.942
 5850SOL    HW118449   0.150   3.388   1.961
 5850SOL    HW218450   0.068   3.247   1.955
 5851SOL     OW18451   5.264   3.986   4.022
 5851SOL    HW118452   5.329   3.984   3.946
 5851SOL    HW218453   5.291   3.917   4.089
 5852SOL     OW18454   4.896   6.103   2.777
 5852SOL    HW118455   4.940   6.170   2.717
 5852SOL    HW218456   4.869   6.147   2.862
 5853SOL     OW18457   4.140   5.037   5.812
 5853SOL    HW118458   4.157   5.052   5.910
 5853SOL    HW218459   4.206   5.089   5.759
 5854SOL     OW18460   4.340   4.334   5.550
 5854SOL    HW118461   4.354   4.294   5.459
 5854SOL    HW218462   4.384   4.277   5.619
 5855SOL     OW18463   1.275   1.327   4.795
 5855SOL    HW118464   1.292   1.386   4.874
 5855SOL    HW218465   1.353   1.329   4.733
 5856SOL     OW18466   1.157   5.983   3.206
 5856SOL    HW118467   1.241   6.027   3.174
 5856SOL    HW218468   1.104   6.048   3.260
 5857SOL     OW18469   6.351   3.297   5.160
 5857SOL    HW118470   6.442   3.330   5.133
 5857SOL    HW218471   6.312   3.243   5.085
 5858SOL     OW18472   2.283   2.408   3.036
 5858SOL    HW118473   2.333   2.484   2.993
 5858SOL    HW218474   2.348   2.339   3.067
 5859SOL     OW18475   6.529   6.077   1.304
 5859SOL    HW118476   6.554   6.170   1.276
 5859SOL    HW218477   6.611   6.025   1.324
 5860SOL     OW18478   7.000   5.409   2.827
 5860SOL    HW118479   6.906   5.385   2.852
 5860SOL    HW218480   0.042   5.347   2.871
 5861SOL     OW18481   5.438   0.989   4.097
 5861SOL    HW118482   5.446   1.062   4.165
 5861SOL    HW218483   5.519   0.988   4.039
 5862SOL     OW18484   5.862   5.114   1.467
 5862SOL    HW118485   5.885   5.025   1.427
 5862SOL    HW218486   5.798   5.101   1.543
 5863SOL     OW18487   2.891   2.030   4.674
 5863SOL    HW118488   2.898   2.056   4.577
 5863SOL    HW218489   2.931   2.102   4.730
 5864SOL     OW18490   3.152   3.482   2.542
 5864SOL    HW118491   3.084   3.418   2.508
 5864SOL    HW218492   3.128   3.575   2.515
 5865SOL     OW18493   5.592   0.452   5.175
 5865SOL    HW118494   5.544   0.511   5.240
 5865SOL    HW218495   5.662   0.400   5.223
 5866SOL     OW18496   3.535   3.201   1.562
 5866SOL    HW118497   3.503   3.273   1.500
 5866SOL    HW218498   3.634   3.192   1.553
 5867SOL     OW18499   2.320   3.165   1.484
 5867SOL    HW118500   2.404   3.168   1.539
 5867SOL    HW218501   2.292   3.070   1.472
 5868SOL     OW18502   1.799   1.534   6.137
 5868SOL    HW118503   1.793   1.633   6.145
 5868SOL    HW218504   1.711   1.494   6.164
 5869SOL     OW18505   1.948   4.938   2.982
 5869SOL    HW118506   1.867   4.908   2.931
 5869SOL    HW218507   2.020   4.964   2.918
 5870SOL     OW18508   5.058   6.331   5.144
 5870SOL    HW118509   5.113   6.256   5.180
 5870SOL    HW218510   5.084   6.350   5.049
 5871SOL     OW18511   3.890   3.185   1.672
 5871SOL    HW118512   3.855   3.097   1.702
 5871SOL    HW218513   3.852   3.258   1.729
 5872SOL     OW18514   3.961   6.759   1.271
 5872SOL    HW118515   3.873   6.800   1.296
 5872SOL    HW218516   4.030   6.786   1.337
 5873SOL     OW18517   3.306   6.172   2.172
 5873SOL    HW118518   3.232   6.219   2.125
 5873SOL    HW218519   3.390   6.225   2.163
 5874SOL     OW18520   2.350   4.302   4.678
 5874SOL    HW118521   2.382   4.235   4.745
 5874SOL    HW218522   2.419   4.374   4.667
 5875SOL     OW18523   3.833   1.484   0.313
 5875SOL    HW118524   3.903   1.442   0.371
 5875SOL    HW218525   3.744   1.445   0.334
 5876SOL     OW18526   3.854   3.468   1.731
 5876SOL    HW118527   3.779   3.526   1.699
 5876SOL    HW218528   3.902   3.515   1.805
 5877SOL     OW18529   6.338   6.496   1.012
 5877SOL    HW118530   6.435   6.476   1.005
 5877SOL    HW218531   6.301   6.516   0.921
 5878SOL     OW18532   0.074   5.491   4.036
 5878SOL    HW118533   0.056   5.586   4.008
 5878SOL    HW218534   0.129   5.446   3.965
 5879SOL     OW18535   1.151   3.994   0.112
 5879SOL    HW118536   1.189   4.065   0.172
 5879SOL    HW218537   1.053   4.010   0.101
 5880SOL     OW18538   4.339   3.965   0.261
 5880SOL    HW118539   4.368   3.951   0.356
 5880SOL    HW218540   4.418   3.961   0.201
 5881SOL     OW18541   0.256   5.831   2.762
 5881SOL    HW118542   0.232   5.890   2.839
 5881SOL    HW218543   0.211   5.743   2.773
 5882SOL     OW18544   0.190   6.381   0.866
 5882SOL    HW118545   0.168   6.477   0.883
 5882SOL    HW218546   0.115   6.337   0.817
 5883SOL     OW18547   0.986   1.218   6.294
 5883SOL    HW118548   0.906   1.159   6.279
 5883SOL    HW218549   0.976   1.301   6.240
 5884SOL     OW18550   2.974   1.451   4.417
 5884SOL    HW118551   2.964   1.537   4.367
 5884SOL    HW218552   2.888   1.429   4.463
 5885SOL     OW18553   0.537   0.560   2.746
 5885SOL    HW118554   0.492   0.592   2.830
 5885SOL    HW218555   0.614   0.620   2.726
 5886SOL     OW18556   0.061   2.213   4.693
 5886SOL    HW118557   7.008   2.239   4.752
 5886SOL    HW218558   0.027   2.159   4.616
 5887SOL     OW18559   2.904   1.306   3.470
 5887SOL    HW118560   2.911   1.377   3.540
 5887SOL    HW218561   2.827   1.327   3.409
 5888SOL     OW18562   3.038   1.054   1.939
 5888SOL    HW118563   3.107   1.032   2.007
 5888SOL    HW218564   3.006   0.969   1.895
 5889SOL     OW18565   1.239   6.719   1.365
 5889SOL    HW118566   1.183   6.773   1.428
 5889SOL    HW218567   1.335   6.724   1.394
 5890SOL     OW18568   2.048   0.688   4.090
 5890SOL    HW118569   1.989   0.630   4.146
 5890SOL    HW218570   2.006   0.701   4.000
 5891SOL     OW18571   3.187   3.174   5.936
 5891SOL    HW118572   3.178   3.188   5.838
 5891SOL    HW218573   3.133   3.094   5.964
 5892SOL     OW18574   0.301   5.245   1.525
 5892SOL    HW118575   0.338   5.318   1.582
 5892SOL    HW218576   0.368   5.171   1.517
 5893SOL     OW18577   1.733   4.316   4.734
 5893SOL    HW118578   1.707   4.377   4.808
 5893SOL    HW218579   1.715   4.361   4.646
 5894SOL     OW18580   6.306   5.314   4.316
 5894SOL    HW118581   6.314   5.342   4.412
 5894SOL    HW218582   6.397   5.307   4.276
 5895SOL     OW18583   5.353   3.338   4.137
 5895SOL    HW118584   5.367   3.251   4.090
 5895SOL    HW218585   5.256   3.360   4.138
 5896SOL     OW18586   4.464   0.846   6.964
 5896SOL    HW118587   4.499   0.940   6.956
 5896SOL    HW218588   4.365   0.847   6.956
 5897SOL     OW18589   4.179   0.833   1.519
 5897SOL    HW118590   4.178   0.832   1.619
 5897SOL    HW218591   4.271   0.815   1.485
 5898SOL     OW18592   2.445   6.473   3.086
 5898SOL    HW118593   2.456   6.444   2.991
 5898SOL    HW218594   2.472   6.399   3.147
 5899SOL     OW18595   5.202   6.544   5.831
 5899SOL    HW118596   5.181   6.606   5.906
 5899SOL    HW218597   5.233   6.456   5.867
 5900SOL     OW18598   5.061   4.922   3.348
 5900SOL    HW118599   4.997   4.976   3.403
 5900SOL    HW218600   5.056   4.952   3.253
 5901SOL     OW18601   2.592   0.539   0.350
 5901SOL    HW118602   2.641   0.574   0.270
 5901SOL    HW218603   2.618   0.444   0.366
 5902SOL     OW18604   6.719   2.620   5.970
 5902SOL    HW118605   6.685   2.701   5.923
 5902SOL    HW218606   6.816   2.607   5.949
 5903SOL     OW18607   3.983   3.907   0.052
 5903SOL    HW118608   3.950   3.945   6.988
 5903SOL    HW218609   3.933   3.948   0.128
 5904SOL     OW18610   1.159   3.686   1.901
 5904SOL    HW118611   1.063   3.666   1.924
 5904SOL    HW218612   1.190   3.765   1.954
 5905SOL     OW18613   6.496   6.200   2.851
 5905SOL    HW118614   6.547   6.116   2.867
 5905SOL    HW218615   6.497   6.257   2.933
 5906SOL     OW18616   4.299   2.371   3.428
 5906SOL    HW118617   4.207   2.332   3.425
 5906SOL    HW218618   4.351   2.341   3.348
 5907SOL     OW18619   0.924   4.886   1.030
 5907SOL    HW118620   0.969   4.807   1.071
 5907SOL    HW218621   0.966   4.970   1.065
 5908SOL     OW18622   0.217   2.675   6.853
 5908SOL    HW118623   0.274   2.670   6.935
 5908SOL    HW218624   0.267   2.640   6.774
 5909SOL     OW18625   6.624   5.628   0.848
 5909SOL    HW118626   6.614   5.585   0.937
 5909SOL    HW218627   6.636   5.558   0.778
 5910SOL     OW18628   0.391   3.201   4.010
 5910SOL    HW118629   0.409   3.207   3.912
 5910SOL    HW218630   0.396   3.106   4.040
 5911SOL     OW18631   6.517   6.707   6.503
 5911SOL    HW118632   6.529   6.649   6.422
 5911SOL    HW218633   6.523   6.803   6.476
 5912SOL     OW18634   6.921   0.890   5.956
 5912SOL    HW118635   6.842   0.932   6.002
 5912SOL    HW218636   6.894   0.856   5.866
 5913SOL     OW18637   4.726   2.966   6.646
 5913SOL    HW118638   4.629   2.985   6.659
 5913SOL    HW218639   4.766   3.036   6.588
 5914SOL     OW18640   1.653   5.063   0.145
 5914SOL    HW118641   1.750   5.051   0.127
 5914SOL    HW218642   1.622   5.149   0.106
 5915SOL     OW18643   4.904   6.075   0.909
 5915SOL    HW118644   4.822   6.018   0.909
 5915SOL    HW218645   4.983   6.019   0.936
 5916SOL     OW18646   6.036   6.263   3.374
 5916SOL    HW118647   6.043   6.232   3.469
 5916SOL    HW218648   6.122   6.305   3.346
 5917SOL     OW18649   3.302   4.041   4.121
 5917SOL    HW118650   3.277   4.040   4.218
 5917SOL    HW218651   3.233   3.992   4.068
 5918SOL     OW18652   2.388   4.189   5.300
 5918SOL    HW118653   2.379   4.117   5.232
 5918SOL    HW218654   2.328   4.169   5.378
 5919SOL     OW18655   3.873   3.269   3.521
 5919SOL    HW118656   3.810   3.207   3.568
 5919SOL    HW218657   3.967   3.247   3.547
 5920SOL     OW18658   5.004   0.965   6.652
 5920SOL    HW118659   5.058   0.995   6.574
 5920SOL    HW218660   5.035   0.875   6.682
 5921SOL     OW18661   3.953   4.888   6.514
 5921SOL    HW118662   4.052   4.877   6.508
 5921SOL    HW218663   3.930   4.941   6.596
 5922SOL     OW18664   5.920   3.619   3.499
 5922SOL    HW118665   5.844   3.626   3.435
 5922SOL    HW218666   5.969   3.533   3.483
 5923SOL     OW18667   0.248   1.658   1.908
 5923SOL    HW118668   0.153   1.655   1.877
 5923SOL    HW218669   0.309   1.629   1.834
 5924SOL     OW18670   6.649   6.835   2.647
 5924SOL    HW118671   6.583   6.820   2.721
 5924SOL    HW218672   6.658   6.751   2.594
 5925SOL     OW18673   3.935   6.714   1.805
 5925SOL    HW118674   3.859   6.756   1.755
 5925SOL    HW218675   3.975   6.641   1.750
 5926SOL     OW18676   3.917   5.300   2.533
 5926SOL    HW118677   3.901   5.308   2.631
 5926SOL    HW218678   3.886   5.211   2.501
 5927SOL     OW18679   1.134   4.781   2.423
 5927SOL    HW118680   1.168   4.847   2.490
 5927SOL    HW218681   1.126   4.825   2.334
 5928SOL     OW18682   3.475   6.686   1.027
 5928SOL    HW118683   3.472   6.596   0.982
 5928SOL    HW218684   3.486   6.757   0.958
 5929SOL     OW18685   6.661   0.661   5.992
 5929SOL    HW118686   6.604   0.666   6.074
 5929SOL    HW218687   6.649   0.743   5.937
 5930SOL     OW18688   6.695   4.203   2.964
 5930SOL    HW118689   6.719   4.159   2.878
 5930SOL    HW218690   6.653   4.292   2.946
 5931SOL     OW18691   5.984   6.310   2.590
 5931SOL    HW118692   5.933   6.225   2.574
 5931SOL    HW218693   5.920   6.387   2.587
 5932SOL     OW18694   3.057   6.834   1.110
 5932SOL    HW118695   3.019   6.771   1.178
 5932SOL    HW218696   3.109   6.906   1.156
 5933SOL     OW18697   6.521   4.861   3.997
 5933SOL    HW118698   6.591   4.801   4.036
 5933SOL    HW218699   6.461   4.894   4.070
 5934SOL     OW18700   3.305   3.022   4.899
 5934SOL    HW118701   3.343   2.963   4.970
 5934SOL    HW218702   3.329   3.117   4.918
 5935SOL     OW18703   6.851   5.327   6.439
 5935SOL    HW118704   6.828   5.230   6.447
 5935SOL    HW218705   6.769   5.382   6.452
 5936SOL     OW18706   3.244   2.982   1.504
 5936SOL    HW118707   3.247   3.073   1.545
 5936SOL    HW218708   3.192   2.920   1.564
 5937SOL     OW18709   6.135   3.165   1.934
 5937SOL    HW118710   6.039   3.185   1.953
 5937SOL    HW218711   6.182   3.141   2.019
 5938SOL     OW18712   6.416   5.798   3.415
 5938SOL    HW118713   6.465   5.717   3.384
 5938SOL    HW218714   6.325   5.800   3.374
 5939SOL     OW18715   2.179   5.928   3.030
 5939SOL    HW118716   2.183   5.950   3.127
 5939SOL    HW218717   2.231   5.996   2.978
 5940SOL     OW18718   4.698   5.258   2.620
 5940SOL    HW118719   4.670   5.294   2.531
 5940SOL    HW218720   4.649   5.173   2.638
 5941SOL     OW18721   6.225   3.964   2.176
 5941SOL    HW118722   6.159   3.891   2.191
 5941SOL    HW218723   6.185   4.034   2.117
 5942SOL     OW18724   5.081   3.976   0.018
 5942SOL    HW118725   5.088   3.978   0.118
 5942SOL    HW218726   5.155   3.921   7.003
 5943SOL     OW18727   3.336   4.201   5.952
 5943SOL    HW118728   3.304   4.109   5.974
 5943SOL    HW218729   3.258   4.258   5.928
 5944SOL     OW18730   6.809   2.236   0.253
 5944SOL    HW118731   6.846   2.271   0.339
 5944SOL    HW218732   6.874   2.171   0.213
 5945SOL     OW18733   6.362   4.762   5.013
 5945SOL    HW118734   6.364   4.668   4.979
 5945SOL    HW218735   6.351   4.761   5.113
 5946SOL     OW18736   3.154   3.638   6.080
 5946SOL    HW118737   3.159   3.686   6.168
 5946SOL    HW218738   3.118   3.700   6.011
 5947SOL     OW18739   3.694   3.339   2.571
 5947SOL    HW118740   3.770   3.312   2.512
 5947SOL    HW218741   3.711   3.305   2.664
 5948SOL     OW18742   4.448   4.916   2.514
 5948SOL    HW118743   4.358   4.908   2.471
 5948SOL    HW218744   4.470   4.831   2.561
 5949SOL     OW18745   5.246   4.014   1.738
 5949SOL    HW118746   5.330   4.030   1.789
 5949SOL    HW218747   5.181   3.964   1.795
 5950SOL     OW18748   5.170   1.571   5.170
 5950SOL    HW118749   5.178   1.655   5.117
 5950SOL    HW218750   5.137   1.497   5.111
 5951SOL     OW18751   1.378   4.961   3.955
 5951SOL    HW118752   1.464   4.942   3.908
 5951SOL    HW218753   1.394   4.958   4.054
 5952SOL     OW18754   5.291   5.388   3.101
 5952SOL    HW118755   5.310   5.313   3.165
 5952SOL    HW218756   5.327   5.364   3.011
 5953SOL     OW18757   6.858   3.762   5.592
 5953SOL    HW118758   6.931   3.826   5.616
 5953SOL    HW218759   6.783   3.769   5.658
 5954SOL     OW18760   6.329   5.781   5.951
 5954SOL    HW118761   6.369   5.731   5.873
 5954SOL    HW218762   6.317   5.877   5.926
 5955SOL     OW18763   4.771   5.395   1.892
 5955SOL    HW118764   4.815   5.483   1.910
 5955SOL    HW218765   4.675   5.400   1.922
 5956SOL     OW18766   4.631   1.986   4.034
 5956SOL    HW118767   4.541   1.979   4.076
 5956SOL    HW218768   4.680   2.064   4.073
 5957SOL     OW18769   2.870   1.074   4.343
 5957SOL    HW118770   2.881   1.157   4.398
 5957SOL    HW218771   2.854   0.996   4.404
 5958SOL     OW18772   4.310   6.704   2.852
 5958SOL    HW118773   4.323   6.642   2.774
 5958SOL    HW218774   4.389   6.766   2.857
 5959SOL     OW18775   4.267   2.977   5.459
 5959SOL    HW118776   4.176   2.999   5.426
 5959SOL    HW218777   4.314   3.062   5.485
 5960SOL     OW18778   3.907   5.170   5.016
 5960SOL    HW118779   3.828   5.120   5.054
 5960SOL    HW218780   3.888   5.195   4.921
 5961SOL     OW18781   4.436   2.325   2.745
 5961SOL    HW118782   4.356   2.329   2.685
 5961SOL    HW218783   4.499   2.255   2.712
 5962SOL     OW18784   6.192   6.734   6.713
 5962SOL    HW118785   6.253   6.657   6.699
 5962SOL    HW218786   6.112   6.705   6.765
 5963SOL     OW18787   3.197   3.827   6.280
 5963SOL    HW118788   3.106   3.854   6.310
 5963SOL    HW218789   3.256   3.812   6.360
 5964SOL     OW18790   1.420   6.553   5.082
 5964SOL    HW118791   1.326   6.528   5.057
 5964SOL    HW218792   1.479   6.542   5.003
 5965SOL     OW18793   1.807   1.755   0.184
 5965SOL    HW118794   1.788   1.666   0.144
 5965SOL    HW218795   1.905   1.774   0.180
 5966SOL     OW18796   2.671   6.123   5.909
 5966SOL    HW118797   2.733   6.047   5.888
 5966SOL    HW218798   2.610   6.095   5.983
 5967SOL     OW18799   2.933   0.206   6.115
 5967SOL    HW118800   2.834   0.211   6.107
 5967SOL    HW218801   2.976   0.260   6.043
 5968SOL     OW18802   5.413   2.082   0.212
 5968SOL    HW118803   5.457   2.167   0.183
 5968SOL    HW218804   5.339   2.060   0.148
 5969SOL     OW18805   6.272   0.734   6.735
 5969SOL    HW118806   6.319   0.646   6.730
 5969SOL    HW218807   6.234   0.756   6.645
 5970SOL     OW18808   0.127   4.132   2.546
 5970SOL    HW118809   0.169   4.219   2.570
 5970SOL    HW218810   0.053   4.147   2.481
 5971SOL     OW18811   0.394   1.488   2.101
 5971SOL    HW118812   0.480   1.464   2.055
 5971SOL    HW218813   0.349   1.562   2.051
 5972SOL     OW18814   5.206   5.740   6.258
 5972SOL    HW118815   5.175   5.829   6.225
 5972SOL    HW218816   5.148   5.710   6.334
 5973SOL     OW18817   1.538   3.036   1.895
 5973SOL    HW118818   1.515   3.109   1.830
 5973SOL    HW218819   1.574   2.957   1.845
 5974SOL     OW18820   5.596   5.854   6.901
 5974SOL    HW118821   5.615   5.950   6.922
 5974SOL    HW218822   5.573   5.844   6.804
 5975SOL     OW18823   4.214   7.016   1.267
 5975SOL    HW118824   4.251   0.021   1.178
 5975SOL    HW218825   4.116   0.013   1.269
 5976SOL     OW18826   4.153   2.584   6.280
 5976SOL    HW118827   4.178   2.544   6.192
 5976SOL    HW218828   4.059   2.619   6.275
 5977SOL     OW18829   1.117   6.129   0.808
 5977SOL    HW118830   1.210   6.168   0.811
 5977SOL    HW218831   1.092   6.095   0.899
 5978SOL     OW18832   4.051   5.472   1.401
 5978SOL    HW118833   4.043   5.413   1.321
 5978SOL    HW218834   4.146   5.472   1.433
 5979SOL     OW18835   6.181   0.612   2.983
 5979SOL    HW118836   6.208   0.522   2.948
 5979SOL    HW218837   6.199   0.616   3.082
 5980SOL     OW18838   3.598   4.154   1.898
 5980SOL    HW118839   3.499   4.143   1.899
 5980SOL    HW218840   3.640   4.088   1.960
 5981SOL     OW18841   5.866   1.778   0.978
 5981SOL    HW118842   5.931   1.712   0.940
 5981SOL    HW218843   5.889   1.795   1.074
 5982SOL     OW18844   6.183   2.192   2.011
 5982SOL    HW118845   6.125   2.197   1.930
 5982SOL    HW218846   6.264   2.138   1.990
 5983SOL     OW18847   1.190   0.848   4.332
 5983SOL    HW118848   1.277   0.824   4.290
 5983SOL    HW218849   1.118   0.787   4.299
 5984SOL     OW18850   5.681   5.987   3.107
 5984SOL    HW118851   5.606   6.027   3.054
 5984SOL    HW218852   5.662   5.999   3.205
 5985SOL     OW18853   0.097   3.246   4.091
 5985SOL    HW118854   0.118   3.317   4.025
 5985SOL    HW218855   0.117   3.279   4.183
 5986SOL     OW18856   3.249   3.988   4.422
 5986SOL    HW118857   3.284   3.896   4.434
 5986SOL    HW218858   3.269   4.043   4.503
 5987SOL     OW18859   5.914   0.174   4.014
 5987SOL    HW118860   5.973   0.246   4.051
 5987SOL    HW218861   5.835   0.161   4.075
 5988SOL     OW18862   4.109   0.679   5.348
 5988SOL    HW118863   4.172   0.678   5.425
 5988SOL    HW218864   4.161   0.676   5.263
 5989SOL     OW18865   2.093   5.826   6.547
 5989SOL    HW118866   2.105   5.776   6.462
 5989SOL    HW218867   2.001   5.863   6.552
 5990SOL     OW18868   3.302   3.302   1.044
 5990SOL    HW118869   3.218   3.324   1.095
 5990SOL    HW218870   3.304   3.204   1.025
 5991SOL     OW18871   3.725   5.611   6.755
 5991SOL    HW118872   3.717   5.532   6.816
 5991SOL    HW218873   3.695   5.693   6.802
 5992SOL     OW18874   3.667   0.301   2.199
 5992SOL    HW118875   3.611   0.301   2.282
 5992SOL    HW218876   3.636   0.229   2.138
 5993SOL     OW18877   3.626   4.332   6.347
 5993SOL    HW118878   3.702   4.335   6.282
 5993SOL    HW218879   3.540   4.321   6.297
 5994SOL     OW18880   6.774   2.348   0.588
 5994SOL    HW118881   6.806   2.303   0.672
 5994SOL    HW218882   6.852   2.388   0.541
 5995SOL     OW18883   5.004   3.500   2.105
 5995SOL    HW118884   4.936   3.474   2.037
 5995SOL    HW218885   5.059   3.420   2.129
 5996SOL     OW18886   0.457   6.543   0.922
 5996SOL    HW118887   0.367   6.536   0.879
 5996SOL    HW218888   0.513   6.609   0.871
 5997SOL     OW18889   0.382   5.065   2.273
 5997SOL    HW118890   0.310   4.999   2.250
 5997SOL    HW218891   0.340   5.146   2.316
 5998SOL     OW18892   6.398   1.728   2.967
 5998SOL    HW118893   6.388   1.636   3.005
 5998SOL    HW218894   6.328   1.788   3.005
 5999SOL     OW18895   2.887   2.964   1.449
 5999SOL    HW118896   2.948   2.886   1.461
 5999SOL    HW218897   2.931   3.034   1.393
 6000SOL     OW18898   2.361   6.677   0.025
 6000SOL    HW118899   2.288   6.613   0.050
 6000SOL    HW218900   2.449   6.629   0.024
 6001SOL     OW18901   0.097   5.003   6.852
 6001SOL    HW118902   0.029   5.059   6.899
 6001SOL    HW218903   0.164   5.063   6.808
 6002SOL     OW18904   6.091   0.736   0.444
 6002SOL    HW118905   6.014   0.684   0.407
 6002SOL    HW218906   6.084   0.739   0.544
 6003SOL     OW18907   5.340   2.270   4.693
 6003SOL    HW118908   5.276   2.198   4.665
 6003SOL    HW218909   5.342   2.342   4.624
 6004SOL     OW18910   0.048   3.750   2.816
 6004SOL    HW118911   6.987   3.696   2.826
 6004SOL    HW218912   0.032   3.844   2.848
 6005SOL     OW18913   5.180   5.845   4.975
 6005SOL    HW118914   5.142   5.753   4.964
 6005SOL    HW218915   5.276   5.844   4.945
 6006SOL     OW18916   2.590   0.589   5.558
 6006SOL    HW118917   2.671   0.540   5.526
 6006SOL    HW218918   2.522   0.524   5.592
 6007SOL     OW18919   5.577   3.682   5.609
 6007SOL    HW118920   5.636   3.657   5.532
 6007SOL    HW218921   5.633   3.689   5.692
 6008SOL     OW18922   2.936   4.824   5.259
 6008SOL    HW118923   2.880   4.892   5.212
 6008SOL    HW218924   2.917   4.733   5.222
 6009SOL     OW18925   2.210   0.719   3.295
 6009SOL    HW118926   2.296   0.669   3.303
 6009SOL    HW218927   2.228   0.817   3.292
 6010SOL     OW18928   1.137   5.157   3.953
 6010SOL    HW118929   1.207   5.086   3.943
 6010SOL    HW218930   1.143   5.221   3.877
 6011SOL     OW18931   5.767   3.132   3.378
 6011SOL    HW118932   5.680   3.096   3.343
 6011SOL    HW218933   5.750   3.184   3.462
 6012SOL     OW18934   5.774   0.592   0.903
 6012SOL    HW118935   5.743   0.679   0.941
 6012SOL    HW218936   5.694   0.536   0.879
 6013SOL     OW18937   5.448   1.109   2.909
 6013SOL    HW118938   5.428   1.186   2.849
 6013SOL    HW218939   5.368   1.049   2.914
 6014SOL     OW18940   3.818   4.010   3.332
 6014SOL    HW118941   3.724   4.041   3.347
 6014SOL    HW218942   3.833   3.996   3.234
 6015SOL     OW18943   5.696   3.825   4.392
 6015SOL    HW118944   5.684   3.768   4.311
 6015SOL    HW218945   5.753   3.904   4.369
 6016SOL     OW18946   6.348   2.312   5.763
 6016SOL    HW118947   6.398   2.300   5.678
 6016SOL    HW218948   6.390   2.385   5.817
 6017SOL     OW18949   6.160   4.796   3.687
 6017SOL    HW118950   6.159   4.883   3.636
 6017SOL    HW218951   6.253   4.761   3.689
 6018SOL     OW18952   4.020   0.594   6.230
 6018SOL    HW118953   3.927   0.632   6.238
 6018SOL    HW218954   4.048   0.595   6.134
 6019SOL     OW18955   0.872   2.964   4.369
 6019SOL    HW118956   0.912   2.872   4.374
 6019SOL    HW218957   0.867   3.003   4.460
 6020SOL     OW18958   0.831   5.250   0.625
 6020SOL    HW118959   0.879   5.201   0.698
 6020SOL    HW218960   0.897   5.282   0.557
 6021SOL     OW18961   4.563   0.594   2.830
 6021SOL    HW118962   4.509   0.539   2.766
 6021SOL    HW218963   4.571   0.545   2.917
 6022SOL     OW18964   6.003   1.889   3.328
 6022SOL    HW118965   6.055   1.839   3.397
 6022SOL    HW218966   6.058   1.900   3.246
 6023SOL     OW18967   5.932   0.941   1.513
 6023SOL    HW118968   5.911   0.903   1.603
 6023SOL    HW218969   6.006   1.007   1.522
 6024SOL     OW18970   1.444   4.726   2.159
 6024SOL    HW118971   1.458   4.816   2.118
 6024SOL    HW218972   1.347   4.708   2.168
 6025SOL     OW18973   3.498   1.923   3.328
 6025SOL    HW118974   3.444   1.968   3.399
 6025SOL    HW218975   3.523   1.990   3.258
 6026SOL     OW18976   0.219   4.503   5.782
 6026SOL    HW118977   0.231   4.538   5.689
 6026SOL    HW218978   0.134   4.449   5.786
 6027SOL     OW18979   0.710   3.133   4.859
 6027SOL    HW118980   0.696   3.138   4.958
 6027SOL    HW218981   0.754   3.046   4.836
 6028SOL     OW18982   6.053   4.977   0.385
 6028SOL    HW118983   6.035   5.002   0.480
 6028SOL    HW218984   6.110   5.047   0.343
 6029SOL     OW18985   2.191   6.771   4.469
 6029SOL    HW118986   2.237   6.848   4.514
 6029SOL    HW218987   2.221   6.685   4.510
 6030SOL     OW18988   4.105   5.065   2.697
 6030SOL    HW118989   4.014   5.053   2.656
 6030SOL    HW218990   4.125   4.987   2.755
 6031SOL     OW18991   3.402   5.509   4.431
 6031SOL    HW118992   3.340   5.453   4.486
 6031SOL    HW218993   3.354   5.541   4.349
 6032SOL     OW18994   2.186   4.490   2.518
 6032SOL    HW118995   2.145   4.556   2.580
 6032SOL    HW218996   2.151   4.504   2.426
 6033SOL     OW18997   2.463   2.609   2.908
 6033SOL    HW118998   2.524   2.607   2.987
 6033SOL    HW218999   2.500   2.551   2.836
 6034SOL     OW19000   1.451   0.152   5.115
 6034SOL    HW119001   1.357   0.124   5.137
 6034SOL    HW219002   1.510   0.133   5.193
 6035SOL     OW19003   0.833   1.408   2.154
 6035SOL    HW119004   0.925   1.423   2.116
 6035SOL    HW219005   0.776   1.488   2.133
 6036SOL     OW19006   5.394   4.725   2.881
 6036SOL    HW119007   5.341   4.750   2.961
 6036SOL    HW219008   5.333   4.711   2.803
 6037SOL     OW19009   3.963   6.847   0.336
 6037SOL    HW119010   3.949   6.766   0.279
 6037SOL    HW219011   3.994   6.818   0.427
 6038SOL     OW19012   1.391   2.771   5.768
 6038SOL    HW119013   1.300   2.774   5.811
 6038SOL    HW219014   1.422   2.676   5.762
 6039SOL     OW19015   3.737   2.918   2.729
 6039SOL    HW119016   3.742   2.857   2.650
 6039SOL    HW219017   3.643   2.925   2.760
 6040SOL     OW19018   1.443   2.012   1.050
 6040SOL    HW119019   1.501   1.944   1.004
 6040SOL    HW219020   1.474   2.104   1.025
 6041SOL     OW19021   3.023   0.957   5.340
 6041SOL    HW119022   2.925   0.968   5.326
 6041SOL    HW219023   3.041   0.870   5.385
 6042SOL     OW19024   4.052   6.815   2.420
 6042SOL    HW119025   4.002   6.730   2.433
 6042SOL    HW219026   4.148   6.803   2.448
 6043SOL     OW19027   0.985   5.893   5.667
 6043SOL    HW119028   0.955   5.805   5.702
 6043SOL    HW219029   1.072   5.882   5.617
 6044SOL     OW19030   1.591   2.828   1.478
 6044SOL    HW119031   1.650   2.820   1.397
 6044SOL    HW219032   1.539   2.913   1.472
 6045SOL     OW19033   6.450   4.097   2.245
 6045SOL    HW119034   6.478   4.130   2.154
 6045SOL    HW219035   6.366   4.044   2.236
 6046SOL     OW19036   3.404   2.516   1.007
 6046SOL    HW119037   3.310   2.484   1.015
 6046SOL    HW219038   3.443   2.482   0.921
 6047SOL     OW19039   5.498   1.713   2.156
 6047SOL    HW119040   5.419   1.741   2.101
 6047SOL    HW219041   5.570   1.678   2.096
 6048SOL     OW19042   4.670   5.348   5.171
 6048SOL    HW119043   4.717   5.262   5.189
 6048SOL    HW219044   4.696   5.415   5.241
 6049SOL     OW19045   4.820   3.297   0.081
 6049SOL    HW119046   4.740   3.237   0.077
 6049SOL    HW219047   4.791   3.391   0.063
 6050SOL     OW19048   3.266   4.900   5.964
 6050SOL    HW119049   3.201   4.955   5.911
 6050SOL    HW219050   3.308   4.956   6.035
 6051SOL     OW19051   1.402   0.209   3.875
 6051SOL    HW119052   1.446   0.215   3.965
 6051SOL    HW219053   1.472   0.210   3.804
 6052SOL     OW19054   5.399   1.450   0.779
 6052SOL    HW119055   5.423   1.448   0.682
 6052SOL    HW219056   5.324   1.385   0.796
 6053SOL     OW19057   4.402   1.287   6.119
 6053SOL    HW119058   4.393   1.360   6.051
 6053SOL    HW219059   4.465   1.217   6.085
 6054SOL     OW19060   2.852   2.914   7.014
 6054SOL    HW119061   2.877   2.955   6.927
 6054SOL    HW219062   2.754   2.930   0.009
 6055SOL     OW19063   5.202   0.117   5.692
 6055SOL    HW119064   5.110   0.097   5.725
 6055SOL    HW219065   5.243   0.034   5.654
 6056SOL     OW19066   4.908   3.420   4.869
 6056SOL    HW119067   4.907   3.333   4.919
 6056SOL    HW219068   4.855   3.488   4.918
 6057SOL     OW19069   0.008   1.386   2.985
 6057SOL    HW119070   7.011   1.480   3.014
 6057SOL    HW219071   0.034   1.386   2.888
 6058SOL     OW19072   4.652   3.890   1.615
 6058SOL    HW119073   4.639   3.792   1.631
 6058SOL    HW219074   4.563   3.935   1.610
 6059SOL     OW19075   5.345   5.363   6.040
 6059SOL    HW119076   5.384   5.407   6.122
 6059SOL    HW219077   5.280   5.293   6.068
 6060SOL     OW19078   2.962   3.300   6.301
 6060SOL    HW119079   3.005   3.369   6.360
 6060SOL    HW219080   2.930   3.343   6.217
 6061SOL     OW19081   4.468   3.138   1.216
 6061SOL    HW119082   4.506   3.149   1.308
 6061SOL    HW219083   4.376   3.100   1.223
 6062SOL     OW19084   2.709   1.511   5.620
 6062SOL    HW119085   2.724   1.544   5.713
 6062SOL    HW219086   2.626   1.553   5.583
 6063SOL     OW19087   4.479   2.359   6.370
 6063SOL    HW119088   4.455   2.456   6.365
 6063SOL    HW219089   4.549   2.345   6.440
 6064SOL     OW19090   0.892   6.707   1.428
 6064SOL    HW119091   0.811   6.731   1.481
 6064SOL    HW219092   0.959   6.780   1.434
 6065SOL     OW19093   0.875   6.366   3.213
 6065SOL    HW119094   0.822   6.447   3.237
 6065SOL    HW219095   0.819   6.304   3.158
 6066SOL     OW19096   4.434   1.787   5.364
 6066SOL    HW119097   4.419   1.883   5.386
 6066SOL    HW219098   4.533   1.768   5.361
 6067SOL     OW19099   6.005   0.950   5.657
 6067SOL    HW119100   5.978   1.046   5.650
 6067SOL    HW219101   6.089   0.935   5.604
 6068SOL     OW19102   4.627   2.727   4.564
 6068SOL    HW119103   4.606   2.776   4.649
 6068SOL    HW219104   4.652   2.793   4.493
 6069SOL     OW19105   6.007   2.791   5.181
 6069SOL    HW119106   6.040   2.814   5.089
 6069SOL    HW219107   6.070   2.831   5.248
 6070SOL     OW19108   2.801   2.235   1.290
 6070SOL    HW119109   2.723   2.213   1.347
 6070SOL    HW219110   2.773   2.295   1.216
 6071SOL     OW19111   5.665   5.583   4.797
 6071SOL    HW119112   5.762   5.567   4.785
 6071SOL    HW219113   5.613   5.502   4.769
 6072SOL     OW19114   6.608   0.061   1.249
 6072SOL    HW119115   6.563   7.013   1.304
 6072SOL    HW219116   6.704   0.070   1.277
 6073SOL     OW19117   5.638   2.878   0.877
 6073SOL    HW119118   5.572   2.822   0.826
 6073SOL    HW219119   5.620   2.869   0.975
 6074SOL     OW19120   0.996   6.328   2.411
 6074SOL    HW119121   1.046   6.374   2.338
 6074SOL    HW219122   1.016   6.373   2.498
 6075SOL     OW19123   4.870   0.433   5.827
 6075SOL    HW119124   4.840   0.482   5.745
 6075SOL    HW219125   4.827   0.475   5.908
 6076SOL     OW19126   3.410   5.604   3.724
 6076SOL    HW119127   3.477   5.676   3.708
 6076SOL    HW219128   3.456   5.522   3.759
 6077SOL     OW19129   6.614   5.397   0.631
 6077SOL    HW119130   6.644   5.311   0.590
 6077SOL    HW219131   6.607   5.467   0.560
 6078SOL     OW19132   4.714   5.695   0.559
 6078SOL    HW119133   4.775   5.766   0.594
 6078SOL    HW219134   4.767   5.612   0.539
 6079SOL     OW19135   4.505   3.717   6.110
 6079SOL    HW119136   4.561   3.634   6.119
 6079SOL    HW219137   4.432   3.715   6.177
 6080SOL     OW19138   0.002   6.253   0.682
 6080SOL    HW119139   0.018   6.304   0.598
 6080SOL    HW219140   6.928   6.230   0.690
 6081SOL     OW19141   6.695   2.486   5.154
 6081SOL    HW119142   6.723   2.474   5.249
 6081SOL    HW219143   6.723   2.406   5.101
 6082SOL     OW19144   2.094   1.504   3.459
 6082SOL    HW119145   2.059   1.415   3.433
 6082SOL    HW219146   2.098   1.510   3.559
 6083SOL     OW19147   5.934   6.315   0.182
 6083SOL    HW119148   5.980   6.393   0.138
 6083SOL    HW219149   5.958   6.314   0.279
 6084SOL     OW19150   0.845   6.745   3.360
 6084SOL    HW119151   0.789   6.667   3.332
 6084SOL    HW219152   0.809   6.784   3.445
 6085SOL     OW19153   0.121   6.747   0.274
 6085SOL    HW119154   0.023   6.726   0.276
 6085SOL    HW219155   0.138   6.817   0.205
 6086SOL     OW19156   3.090   1.084   5.584
 6086SOL    HW119157   3.008   1.081   5.641
 6086SOL    HW219158   3.072   1.036   5.498
 6087SOL     OW19159   4.071   5.836   1.282
 6087SOL    HW119160   4.005   5.781   1.333
 6087SOL    HW219161   4.113   5.903   1.343
 6088SOL     OW19162   5.292   6.692   4.507
 6088SOL    HW119163   5.218   6.658   4.564
 6088SOL    HW219164   5.276   6.665   4.412
 6089SOL     OW19165   5.459   2.836   2.415
 6089SOL    HW119166   5.361   2.834   2.432
 6089SOL    HW219167   5.508   2.803   2.496
 6090SOL     OW19168   2.176   6.046   4.697
 6090SOL    HW119169   2.272   6.043   4.726
 6090SOL    HW219170   2.117   6.054   4.777
 6091SOL     OW19171   2.050   1.082   0.437
 6091SOL    HW119172   2.100   1.064   0.352
 6091SOL    HW219173   2.099   1.042   0.514
 6092SOL     OW19174   4.441   0.245   2.321
 6092SOL    HW119175   4.513   0.206   2.377
 6092SOL    HW219176   4.354   0.242   2.370
 6093SOL     OW19177   2.284   2.951   1.776
 6093SOL    HW119178   2.311   2.934   1.871
 6093SOL    HW219179   2.231   3.035   1.771
 6094SOL     OW19180   1.903   6.452   2.173
 6094SOL    HW119181   1.891   6.472   2.270
 6094SOL    HW219182   1.998   6.428   2.155
 6095SOL     OW19183   5.514   4.370   0.541
 6095SOL    HW119184   5.478   4.370   0.448
 6095SOL    HW219185   5.442   4.340   0.604
 6096SOL     OW19186   5.797   6.896   3.609
 6096SOL    HW119187   5.760   6.908   3.702
 6096SOL    HW219188   5.889   6.936   3.605
 6097SOL     OW19189   1.828   5.871   2.200
 6097SOL    HW119190   1.917   5.831   2.223
 6097SOL    HW219191   1.757   5.829   2.256
 6098SOL     OW19192   0.615   1.355   5.177
 6098SOL    HW119193   0.554   1.335   5.254
 6098SOL    HW219194   0.573   1.425   5.119
 6099SOL     OW19195   5.294   6.315   6.750
 6099SOL    HW119196   5.290   6.252   6.828
 6099SOL    HW219197   5.204   6.320   6.707
 6100SOL     OW19198   5.645   5.977   1.133
 6100SOL    HW119199   5.686   5.966   1.042
 6100SOL    HW219200   5.699   6.042   1.186
 6101SOL     OW19201   6.781   3.610   3.394
 6101SOL    HW119202   6.776   3.592   3.296
 6101SOL    HW219203   6.760   3.527   3.445
 6102SOL     OW19204   3.283   6.058   2.982
 6102SOL    HW119205   3.327   5.978   3.022
 6102SOL    HW219206   3.346   6.136   2.986
 6103SOL     OW19207   5.926   1.840   1.445
 6103SOL    HW119208   5.935   1.875   1.539
 6103SOL    HW219209   5.846   1.781   1.439
 6104SOL     OW19210   5.767   0.743   6.052
 6104SOL    HW119211   5.684   0.782   6.013
 6104SOL    HW219212   5.847   0.772   5.999
 6105SOL     OW19213   3.150   5.714   6.923
 6105SOL    HW119214   3.219   5.719   6.850
 6105SOL    HW219215   3.082   5.785   6.910
 6106SOL     OW19216   0.945   4.304   6.672
 6106SOL    HW119217   0.960   4.250   6.754
 6106SOL    HW219218   0.867   4.268   6.621
 6107SOL     OW19219   4.004   5.540   4.753
 6107SOL    HW119220   4.084   5.515   4.807
 6107SOL    HW219221   4.002   5.486   4.669
 6108SOL     OW19222   2.522   2.808   1.713
 6108SOL    HW119223   2.609   2.849   1.685
 6108SOL    HW219224   2.453   2.879   1.723
 6109SOL     OW19225   5.466   1.761   4.956
 6109SOL    HW119226   5.375   1.780   4.991
 6109SOL    HW219227   5.534   1.809   5.013
 6110SOL     OW19228   3.409   3.848   0.788
 6110SOL    HW119229   3.347   3.783   0.745
 6110SOL    HW219230   3.474   3.799   0.847
 6111SOL     OW19231   1.205   4.066   2.555
 6111SOL    HW119232   1.127   4.027   2.506
 6111SOL    HW219233   1.277   3.998   2.563
 6112SOL     OW19234   3.225   0.413   2.886
 6112SOL    HW119235   3.303   0.372   2.933
 6112SOL    HW219236   3.206   0.364   2.801
 6113SOL     OW19237   3.050   2.295   6.116
 6113SOL    HW119238   2.959   2.319   6.082
 6113SOL    HW219239   3.071   2.200   6.094
 6114SOL     OW19240   4.836   4.826   2.056
 6114SOL    HW119241   4.781   4.906   2.029
 6114SOL    HW219242   4.881   4.789   1.975
 6115SOL     OW19243   5.833   0.388   3.798
 6115SOL    HW119244   5.835   0.303   3.851
 6115SOL    HW219245   5.927   0.418   3.780
 6116SOL     OW19246   4.080   1.663   5.850
 6116SOL    HW119247   4.151   1.687   5.916
 6116SOL    HW219248   4.113   1.590   5.790
 6117SOL     OW19249   1.199   1.299   3.221
 6117SOL    HW119250   1.286   1.285   3.268
 6117SOL    HW219251   1.140   1.220   3.235
 6118SOL     OW19252   0.399   1.155   1.958
 6118SOL    HW119253   0.407   1.207   1.872
 6118SOL    HW219254   0.471   1.184   2.021
 6119SOL     OW19255   0.639   3.879   6.947
 6119SOL    HW119256   0.576   3.816   6.992
 6119SOL    HW219257   0.727   3.833   6.932
 6120SOL     OW19258   3.784   6.294   5.330
 6120SOL    HW119259   3.783   6.235   5.411
 6120SOL    HW219260   3.761   6.240   5.249
 6121SOL     OW19261   0.735   3.173   5.136
 6121SOL    HW119262   0.716   3.110   5.211
 6121SOL    HW219263   0.778   3.256   5.171
 6122SOL     OW19264   4.524   5.357   0.628
 6122SOL    HW119265   4.468   5.343   0.546
 6122SOL    HW219266   4.523   5.454   0.652
 6123SOL     OW19267   5.220   0.205   6.208
 6123SOL    HW119268   5.183   0.274   6.146
 6123SOL    HW219269   5.276   0.250   6.277
 6124SOL     OW19270   1.779   6.845   6.104
 6124SOL    HW119271   1.785   6.873   6.008
 6124SOL    HW219272   1.795   6.924   6.163
 6125SOL     OW19273   2.293   4.374   0.627
 6125SOL    HW119274   2.298   4.280   0.662
 6125SOL    HW219275   2.234   4.428   0.687
 6126SOL     OW19276   0.875   6.864   4.584
 6126SOL    HW119277   0.893   6.945   4.640
 6126SOL    HW219278   0.820   6.890   4.505
 6127SOL     OW19279   3.042   0.566   1.423
 6127SOL    HW119280   2.997   0.588   1.336
 6127SOL    HW219281   3.138   0.593   1.419
 6128SOL     OW19282   6.289   4.018   0.693
 6128SOL    HW119283   6.319   4.112   0.679
 6128SOL    HW219284   6.223   3.993   0.622
 6129SOL     OW19285   7.006   3.382   2.437
 6129SOL    HW119286   6.919   3.391   2.387
 6129SOL    HW219287   6.999   3.430   2.524
 6130SOL     OW19288   5.722   2.919   2.690
 6130SOL    HW119289   5.695   2.826   2.663
 6130SOL    HW219290   5.792   2.914   2.761
 6131SOL     OW19291   0.689   1.862   4.586
 6131SOL    HW119292   0.770   1.843   4.641
 6131SOL    HW219293   0.609   1.868   4.644
 6132SOL     OW19294   4.735   1.801   0.040
 6132SOL    HW119295   4.807   1.759   0.096
 6132SOL    HW219296   4.646   1.784   0.082
 6133SOL     OW19297   1.898   3.344   2.185
 6133SOL    HW119298   1.815   3.292   2.163
 6133SOL    HW219299   1.880   3.403   2.264
 6134SOL     OW19300   4.268   4.375   6.933
 6134SOL    HW119301   4.319   4.455   6.964
 6134SOL    HW219302   4.294   4.295   6.988
 6135SOL     OW19303   0.239   0.781   0.499
 6135SOL    HW119304   0.280   0.799   0.410
 6135SOL    HW219305   0.256   0.858   0.560
 6136SOL     OW19306   1.166   3.046   2.035
 6136SOL    HW119307   1.237   2.982   2.062
 6136SOL    HW219308   1.091   3.044   2.101
 6137SOL     OW19309   6.833   3.955   2.479
 6137SOL    HW119310   6.844   4.054   2.488
 6137SOL    HW219311   6.911   3.917   2.428
 6138SOL     OW19312   3.721   6.626   2.845
 6138SOL    HW119313   3.649   6.562   2.818
 6138SOL    HW219314   3.728   6.629   2.945
 6139SOL     OW19315   1.703   6.252   6.158
 6139SOL    HW119316   1.746   6.341   6.175
 6139SOL    HW219317   1.774   6.184   6.141
 6140SOL     OW19318   0.783   6.435   1.831
 6140SOL    HW119319   0.796   6.356   1.891
 6140SOL    HW219320   0.728   6.408   1.752
 6141SOL     OW19321   0.517   6.527   6.163
 6141SOL    HW119322   0.606   6.518   6.207
 6141SOL    HW219323   0.500   6.447   6.105
 6142SOL     OW19324   1.028   6.777   0.010
 6142SOL    HW119325   1.041   6.678   7.022
 6142SOL    HW219326   0.937   6.795   0.048
 6143SOL     OW19327   6.649   3.118   0.949
 6143SOL    HW119328   6.618   3.156   1.037
 6143SOL    HW219329   6.743   3.145   0.933
 6144SOL     OW19330   5.043   4.386   4.119
 6144SOL    HW119331   4.944   4.376   4.106
 6144SOL    HW219332   5.078   4.309   4.172
 6145SOL     OW19333   5.051   5.299   3.770
 6145SOL    HW119334   5.062   5.209   3.811
 6145SOL    HW219335   5.107   5.306   3.688
 6146SOL     OW19336   2.994   5.405   3.748
 6146SOL    HW119337   3.039   5.326   3.789
 6146SOL    HW219338   2.908   5.376   3.706
 6147SOL     OW19339   2.086   1.775   4.162
 6147SOL    HW119340   1.988   1.776   4.182
 6147SOL    HW219341   2.113   1.683   4.134
 6148SOL     OW19342   4.998   6.997   5.376
 6148SOL    HW119343   5.071   6.952   5.428
 6148SOL    HW219344   4.967   6.936   5.303
 6149SOL     OW19345   2.702   6.340   1.512
 6149SOL    HW119346   2.617   6.352   1.563
 6149SOL    HW219347   2.720   6.243   1.498
 6150SOL     OW19348   5.060   5.408   0.259
 6150SOL    HW119349   5.099   5.487   0.212
 6150SOL    HW219350   5.028   5.341   0.192
 6151SOL     OW19351   6.065   4.926   6.523
 6151SOL    HW119352   6.153   4.971   6.507
 6151SOL    HW219353   6.012   4.927   6.438
 6152SOL     OW19354   6.153   5.598   4.752
 6152SOL    HW119355   6.066   5.550   4.755
 6152SOL    HW219356   6.137   5.696   4.738
 6153SOL     OW19357   5.080   4.654   1.343
 6153SOL    HW119358   4.982   4.632   1.348
 6153SOL    HW219359   5.129   4.576   1.304
 6154SOL     OW19360   5.977   2.537   2.641
 6154SOL    HW119361   5.946   2.534   2.736
 6154SOL    HW219362   5.898   2.530   2.580
 6155SOL     OW19363   1.378   1.725   3.357
 6155SOL    HW119364   1.447   1.699   3.425
 6155SOL    HW219365   1.385   1.823   3.338
 6156SOL     OW19366   4.346   4.668   1.744
 6156SOL    HW119367   4.406   4.654   1.824
 6156SOL    HW219368   4.257   4.628   1.762
 6157SOL     OW19369   0.130   1.538   4.636
 6157SOL    HW119370   0.132   1.451   4.685
 6157SOL    HW219371   0.113   1.522   4.539
 6158SOL     OW19372   3.715   2.133   5.918
 6158SOL    HW119373   3.773   2.173   5.846
 6158SOL    HW219374   3.773   2.101   5.993
 6159SOL     OW19375   4.942   1.857   2.227
 6159SOL    HW119376   5.013   1.833   2.293
 6159SOL    HW219377   4.973   1.935   2.172
 6160SOL     OW19378   5.424   1.241   6.327
 6160SOL    HW119379   5.336   1.278   6.298
 6160SOL    HW219380   5.467   1.303   6.393
 6161SOL     OW19381   4.610   1.638   5.035
 6161SOL    HW119382   4.529   1.689   5.008
 6161SOL    HW219383   4.583   1.556   5.085
 6162SOL     OW19384   0.073   6.036   3.579
 6162SOL    HW119385   0.153   6.000   3.531
 6162SOL    HW219386   0.009   5.962   3.598
 6163SOL     OW19387   6.274   7.011   1.167
 6163SOL    HW119388   6.323   0.015   1.084
 6163SOL    HW219389   6.338   6.970   1.232
 6164SOL     OW19390   3.231   4.019   3.260
 6164SOL    HW119391   3.243   4.036   3.357
 6164SOL    HW219392   3.290   4.082   3.208
 6165SOL     OW19393   4.887   1.863   6.833
 6165SOL    HW119394   4.831   1.853   6.916
 6165SOL    HW219395   4.858   1.796   6.765
 6166SOL     OW19396   5.339   1.589   6.703
 6166SOL    HW119397   5.241   1.606   6.699
 6166SOL    HW219398   5.381   1.652   6.768
 6167SOL     OW19399   1.215   5.024   2.564
 6167SOL    HW119400   1.167   5.075   2.636
 6167SOL    HW219401   1.261   5.088   2.503
 6168SOL     OW19402   1.793   3.439   1.934
 6168SOL    HW119403   1.847   3.423   2.016
 6168SOL    HW219404   1.701   3.469   1.959
 6169SOL     OW19405   1.789   2.257   6.830
 6169SOL    HW119406   1.829   2.288   6.916
 6169SOL    HW219407   1.757   2.163   6.840
 6170SOL     OW19408   1.986   4.325   5.446
 6170SOL    HW119409   2.042   4.282   5.375
 6170SOL    HW219410   1.984   4.266   5.527
 6171SOL     OW19411   1.494   3.148   1.061
 6171SOL    HW119412   1.588   3.140   1.030
 6171SOL    HW219413   1.432   3.118   0.988
 6172SOL     OW19414   1.623   2.856   2.708
 6172SOL    HW119415   1.637   2.797   2.787
 6172SOL    HW219416   1.585   2.803   2.632
 6173SOL     OW19417   6.656   5.553   1.955
 6173SOL    HW119418   6.590   5.607   1.902
 6173SOL    HW219419   6.625   5.548   2.050
 6174SOL     OW19420   5.131   4.364   3.852
 6174SOL    HW119421   5.230   4.366   3.837
 6174SOL    HW219422   5.108   4.419   3.933
 6175SOL     OW19423   4.681   0.441   3.517
 6175SOL    HW119424   4.684   0.541   3.518
 6175SOL    HW219425   4.623   0.409   3.591
 6176SOL     OW19426   5.152   3.720   6.763
 6176SOL    HW119427   5.223   3.711   6.693
 6176SOL    HW219428   5.140   3.817   6.786
 6177SOL     OW19429   5.702   0.793   1.072
 6177SOL    HW119430   5.686   0.788   1.171
 6177SOL    HW219431   5.705   0.888   1.043
 6178SOL     OW19432   5.160   4.749   2.708
 6178SOL    HW119433   5.098   4.770   2.783
 6178SOL    HW219434   5.138   4.807   2.629
 6179SOL     OW19435   0.202   4.898   3.914
 6179SOL    HW119436   0.223   4.995   3.917
 6179SOL    HW219437   0.288   4.846   3.905
 6180SOL     OW19438   3.775   4.247   0.107
 6180SOL    HW119439   3.865   4.269   0.070
 6180SOL    HW219440   3.772   4.150   0.131
 6181SOL     OW19441   3.802   6.861   0.875
 6181SOL    HW119442   3.737   6.796   0.837
 6181SOL    HW219443   3.809   6.941   0.816
 6182SOL     OW19444   5.296   2.748   4.949
 6182SOL    HW119445   5.312   2.845   4.933
 6182SOL    HW219446   5.381   2.697   4.940
 6183SOL     OW19447   2.016   1.979   3.400
 6183SOL    HW119448   1.961   1.904   3.440
 6183SOL    HW219449   1.995   1.987   3.303
 6184SOL     OW19450   1.812   6.516   6.134
 6184SOL    HW119451   1.911   6.530   6.127
 6184SOL    HW219452   1.771   6.592   6.185
 6185SOL     OW19453   0.390   3.830   6.274
 6185SOL    HW119454   0.389   3.797   6.369
 6185SOL    HW219455   0.476   3.876   6.256
 6186SOL     OW19456   0.089   6.793   6.369
 6186SOL    HW119457   0.152   6.859   6.330
 6186SOL    HW219458   0.014   6.776   6.304
 6187SOL     OW19459   4.710   4.960   2.974
 6187SOL    HW119460   4.689   4.893   3.045
 6187SOL    HW219461   4.685   5.051   3.006
 6188SOL     OW19462   2.289   0.351   0.914
 6188SOL    HW119463   2.352   0.403   0.856
 6188SOL    HW219464   2.208   0.407   0.932
 6189SOL     OW19465   5.003   4.254   3.345
 6189SOL    HW119466   5.049   4.191   3.283
 6189SOL    HW219467   5.059   4.268   3.426
 6190SOL     OW19468   0.550   3.924   5.590
 6190SOL    HW119469   0.580   3.954   5.500
 6190SOL    HW219470   0.579   3.829   5.604
 6191SOL     OW19471   3.333   1.903   0.231
 6191SOL    HW119472   3.406   1.969   0.250
 6191SOL    HW219473   3.296   1.919   0.140
 6192SOL     OW19474   3.783   2.409   6.130
 6192SOL    HW119475   3.732   2.323   6.143
 6192SOL    HW219476   3.879   2.388   6.113
 6193SOL     OW19477   5.412   1.027   2.539
 6193SOL    HW119478   5.461   1.114   2.529
 6193SOL    HW219479   5.314   1.045   2.545
 6194SOL     OW19480   1.485   0.206   1.668
 6194SOL    HW119481   1.570   0.257   1.682
 6194SOL    HW219482   1.507   0.110   1.649
 6195SOL     OW19483   4.235   6.127   6.108
 6195SOL    HW119484   4.224   6.037   6.066
 6195SOL    HW219485   4.221   6.120   6.207
 6196SOL     OW19486   5.825   2.474   1.715
 6196SOL    HW119487   5.912   2.515   1.745
 6196SOL    HW219488   5.801   2.509   1.625
 6197SOL     OW19489   4.297   4.529   0.415
 6197SOL    HW119490   4.245   4.551   0.497
 6197SOL    HW219491   4.242   4.470   0.355
 6198SOL     OW19492   3.813   6.614   2.227
 6198SOL    HW119493   3.865   6.550   2.285
 6198SOL    HW219494   3.736   6.650   2.279
 6199SOL     OW19495   1.347   1.031   0.327
 6199SOL    HW119496   1.386   1.107   0.380
 6199SOL    HW219497   1.418   0.963   0.310
 6200SOL     OW19498   1.265   1.283   5.727
 6200SOL    HW119499   1.354   1.263   5.687
 6200SOL    HW219500   1.237   1.376   5.703
 6201SOL     OW19501   1.266   3.590   5.011
 6201SOL    HW119502   1.276   3.578   5.109
 6201SOL    HW219503   1.277   3.502   4.965
 6202SOL     OW19504   4.039   1.488   2.614
 6202SOL    HW119505   4.062   1.513   2.708
 6202SOL    HW219506   4.040   1.388   2.604
 6203SOL     OW19507   6.918   6.631   2.688
 6203SOL    HW119508   6.826   6.595   2.701
 6203SOL    HW219509   6.914   6.729   2.671
 6204SOL     OW19510   0.350   5.003   4.517
 6204SOL    HW119511   0.402   4.923   4.548
 6204SOL    HW219512   0.311   4.984   4.427
 6205SOL     OW19513   6.309   6.519   0.733
 6205SOL    HW119514   6.364   6.437   0.719
 6205SOL    HW219515   6.347   6.594   0.677
 6206SOL     OW19516   6.557   1.649   3.696
 6206SOL    HW119517   6.539   1.730   3.751
 6206SOL    HW219518   6.535   1.668   3.600
 6207SOL     OW19519   1.117   5.321   5.307
 6207SOL    HW119520   1.025   5.339   5.273
 6207SOL    HW219521   1.123   5.225   5.335
 6208SOL     OW19522   5.467   2.095   5.662
 6208SOL    HW119523   5.503   2.114   5.754
 6208SOL    HW219524   5.404   2.167   5.635
 6209SOL     OW19525   4.367   5.586   6.878
 6209SOL    HW119526   4.455   5.611   6.837
 6209SOL    HW219527   4.336   5.499   6.839
 6210SOL     OW19528   5.159   3.267   3.257
 6210SOL    HW119529   5.210   3.203   3.200
 6210SOL    HW219530   5.180   3.361   3.230
 6211SOL     OW19531   3.278   6.773   5.451
 6211SOL    HW119532   3.269   6.739   5.545
 6211SOL    HW219533   3.191   6.813   5.422
 6212SOL     OW19534   1.897   5.643   3.944
 6212SOL    HW119535   1.908   5.634   4.043
 6212SOL    HW219536   1.808   5.685   3.924
 6213SOL     OW19537   6.239   6.865   0.469
 6213SOL    HW119538   6.256   6.935   0.400
 6213SOL    HW219539   6.198   6.785   0.425
 6214SOL     OW19540   5.200   4.941   4.192
 6214SOL    HW119541   5.266   4.866   4.188
 6214SOL    HW219542   5.248   5.029   4.183
 6215SOL     OW19543   4.164   1.476   0.377
 6215SOL    HW119544   4.151   1.575   0.370
 6215SOL    HW219545   4.119   1.442   0.460
 6216SOL     OW19546   6.234   1.555   2.100
 6216SOL    HW119547   6.227   1.466   2.054
 6216SOL    HW219548   6.264   1.541   2.194
 6217SOL     OW19549   0.379   3.959   2.752
 6217SOL    HW119550   0.337   3.921   2.670
 6217SOL    HW219551   0.447   3.895   2.787
 6218SOL     OW19552   3.993   5.949   6.920
 6218SOL    HW119553   3.950   5.913   7.003
 6218SOL    HW219554   3.923   5.963   6.849
 6219SOL     OW19555   1.474   2.329   4.783
 6219SOL    HW119556   1.458   2.391   4.706
 6219SOL    HW219557   1.387   2.312   4.830
 6220SOL     OW19558   2.086   1.498   4.974
 6220SOL    HW119559   2.167   1.522   4.920
 6220SOL    HW219560   2.106   1.512   5.071
 6221SOL     OW19561   5.827   6.161   6.575
 6221SOL    HW119562   5.812   6.257   6.549
 6221SOL    HW219563   5.739   6.119   6.599
 6222SOL     OW19564   0.958   6.498   1.596
 6222SOL    HW119565   0.939   6.584   1.548
 6222SOL    HW219566   0.956   6.514   1.695
 6223SOL     OW19567   0.934   5.176   4.193
 6223SOL    HW119568   0.936   5.120   4.110
 6223SOL    HW219569   0.987   5.132   4.265
 6224SOL     OW19570   2.834   1.551   6.050
 6224SOL    HW119571   2.742   1.526   6.022
 6224SOL    HW219572   2.833   1.586   6.143
 6225SOL     OW19573   4.210   3.789   0.098
 6225SOL    HW119574   4.121   3.828   0.077
 6225SOL    HW219575   4.254   3.843   0.170
 6226SOL     OW19576   0.003   1.709   5.293
 6226SOL    HW119577   6.975   1.754   5.219
 6226SOL    HW219578   0.050   1.777   5.348
 6227SOL     OW19579   3.295   6.034   5.220
 6227SOL    HW119580   3.304   6.004   5.125
 6227SOL    HW219581   3.210   5.996   5.258
 6228SOL     OW19582   1.415   3.069   2.700
 6228SOL    HW119583   1.328   3.040   2.738
 6228SOL    HW219584   1.487   3.006   2.731
 6229SOL     OW19585   0.668   2.361   3.232
 6229SOL    HW119586   0.646   2.356   3.329
 6229SOL    HW219587   0.759   2.401   3.220
 6230SOL     OW19588   0.608   1.604   3.737
 6230SOL    HW119589   0.550   1.525   3.717
 6230SOL    HW219590   0.668   1.622   3.659
 6231SOL     OW19591   6.395   6.030   0.958
 6231SOL    HW119592   6.455   5.975   0.900
 6231SOL    HW219593   6.377   5.981   1.043
 6232SOL     OW19594   0.168   0.788   0.847
 6232SOL    HW119595   0.266   0.808   0.848
 6232SOL    HW219596   0.130   0.815   0.759
 6233SOL     OW19597   0.114   1.521   1.187
 6233SOL    HW119598   0.031   1.489   1.142
 6233SOL    HW219599   0.090   1.577   1.266
 6234SOL     OW19600   6.599   1.594   5.485
 6234SOL    HW119601   6.623   1.597   5.582
 6234SOL    HW219602   6.502   1.571   5.475
 6235SOL     OW19603   1.029   6.815   1.129
 6235SOL    HW119604   1.113   6.870   1.126
 6235SOL    HW219605   1.044   6.734   1.185
 6236SOL     OW19606   0.782   3.614   1.210
 6236SOL    HW119607   0.756   3.710   1.223
 6236SOL    HW219608   0.854   3.609   1.141
 6237SOL     OW19609   3.304   0.589   6.408
 6237SOL    HW119610   3.233   0.595   6.337
 6237SOL    HW219611   3.391   0.566   6.365
 6238SOL     OW19612   4.153   4.768   2.586
 6238SOL    HW119613   4.106   4.786   2.673
 6238SOL    HW219614   4.237   4.717   2.604
 6239SOL     OW19615   3.090   0.518   1.870
 6239SOL    HW119616   3.047   0.580   1.805
 6239SOL    HW219617   3.112   0.569   1.954
 6240SOL     OW19618   2.128   3.131   5.393
 6240SOL    HW119619   2.053   3.163   5.452
 6240SOL    HW219620   2.214   3.136   5.444
 6241SOL     OW19621   3.575   0.067   1.556
 6241SOL    HW119622   3.621   0.088   1.643
 6241SOL    HW219623   3.519   0.145   1.528
 6242SOL     OW19624   4.388   0.561   4.192
 6242SOL    HW119625   4.374   0.660   4.187
 6242SOL    HW219626   4.431   0.530   4.107
 6243SOL     OW19627   6.036   6.379   4.298
 6243SOL    HW119628   6.076   6.413   4.384
 6243SOL    HW219629   6.109   6.368   4.230
 6244SOL     OW19630   6.916   2.405   1.849
 6244SOL    HW119631   6.898   2.465   1.926
 6244SOL    HW219632   7.001   2.432   1.804
 6245SOL     OW19633   1.632   4.035   0.557
 6245SOL    HW119634   1.727   4.039   0.526
 6245SOL    HW219635   1.613   4.115   0.613
 6246SOL     OW19636   2.056   1.885   5.529
 6246SOL    HW119637   2.012   1.894   5.619
 6246SOL    HW219638   1.986   1.868   5.460
 6247SOL     OW19639   6.822   5.471   4.478
 6247SOL    HW119640   6.869   5.490   4.392
 6247SOL    HW219641   6.852   5.536   4.548
 6248SOL     OW19642   3.397   3.517   0.623
 6248SOL    HW119643   3.396   3.429   0.575
 6248SOL    HW219644   3.441   3.586   0.565
 6249SOL     OW19645   0.495   3.684   0.480
 6249SOL    HW119646   0.478   3.586   0.474
 6249SOL    HW219647   0.549   3.704   0.562
 6250SOL     OW19648   6.812   0.470   6.570
 6250SOL    HW119649   6.867   0.519   6.637
 6250SOL    HW219650   6.806   0.523   6.485
 6251SOL     OW19651   4.096   5.782   6.414
 6251SOL    HW119652   4.185   5.741   6.434
 6251SOL    HW219653   4.048   5.802   6.500
 6252SOL     OW19654   2.114   6.152   5.570
 6252SOL    HW119655   2.027   6.108   5.550
 6252SOL    HW219656   2.098   6.245   5.603
 6253SOL     OW19657   2.367   4.327   3.596
 6253SOL    HW119658   2.287   4.386   3.593
 6253SOL    HW219659   2.416   4.332   3.508
 6254SOL     OW19660   5.451   1.175   1.174
 6254SOL    HW119661   5.492   1.091   1.138
 6254SOL    HW219662   5.458   1.247   1.106
 6255SOL     OW19663   3.145   0.663   1.047
 6255SOL    HW119664   3.184   0.740   1.097
 6255SOL    HW219665   3.110   0.694   0.959
 6256SOL     OW19666   3.623   5.623   1.783
 6256SOL    HW119667   3.591   5.536   1.822
 6256SOL    HW219668   3.674   5.674   1.852
 6257SOL     OW19669   5.142   1.942   0.882
 6257SOL    HW119670   5.109   2.009   0.815
 6257SOL    HW219671   5.180   1.863   0.834
 6258SOL     OW19672   3.557   0.592   3.516
 6258SOL    HW119673   3.471   0.562   3.558
 6258SOL    HW219674   3.539   0.670   3.457
 6259SOL     OW19675   2.075   2.447   6.788
 6259SOL    HW119676   2.129   2.377   6.834
 6259SOL    HW219677   2.115   2.537   6.806
 6260SOL     OW19678   3.650   5.603   0.211
 6260SOL    HW119679   3.583   5.577   0.280
 6260SOL    HW219680   3.616   5.682   0.160
 6261SOL     OW19681   3.745   1.199   6.861
 6261SOL    HW119682   3.813   1.271   6.875
 6261SOL    HW219683   3.657   1.228   6.899
 6262SOL     OW19684   2.473   6.391   1.638
 6262SOL    HW119685   2.471   6.322   1.710
 6262SOL    HW219686   2.514   6.475   1.674
 6263SOL     OW19687   6.827   1.111   5.223
 6263SOL    HW119688   6.814   1.074   5.132
 6263SOL    HW219689   6.798   1.044   5.291
 6264SOL     OW19690   1.437   0.131   1.972
 6264SOL    HW119691   1.363   0.114   2.036
 6264SOL    HW219692   1.419   0.082   1.887
 6265SOL     OW19693   3.883   3.176   0.029
 6265SOL    HW119694   3.979   3.168   0.005
 6265SOL    HW219695   3.863   3.119   0.109
 6266SOL     OW19696   4.041   0.751   4.370
 6266SOL    HW119697   4.100   0.829   4.347
 6266SOL    HW219698   3.959   0.754   4.314
 6267SOL     OW19699   2.300   6.976   6.292
 6267SOL    HW119700   2.245   6.895   6.315
 6267SOL    HW219701   2.345   7.009   6.375
 6268SOL     OW19702   2.545   0.316   3.155
 6268SOL    HW119703   2.604   0.380   3.204
 6268SOL    HW219704   2.560   0.324   3.057
 6269SOL     OW19705   0.014   6.645   1.660
 6269SOL    HW119706   6.998   6.735   1.680
 6269SOL    HW219707   0.112   6.653   1.641
 6270SOL     OW19708   1.504   0.067   6.100
 6270SOL    HW119709   1.458   0.027   6.179
 6270SOL    HW219710   1.445   0.057   6.019
 6271SOL     OW19711   6.353   2.399   6.438
 6271SOL    HW119712   6.339   2.383   6.340
 6271SOL    HW219713   6.323   2.491   6.462
 6272SOL     OW19714   0.320   2.612   0.090
 6272SOL    HW119715   0.369   2.584   0.173
 6272SOL    HW219716   0.251   2.681   0.114
 6273SOL     OW19717   0.594   6.363   2.626
 6273SOL    HW119718   0.574   6.452   2.668
 6273SOL    HW219719   0.660   6.375   2.552
 6274SOL     OW19720   3.420   5.788   5.905
 6274SOL    HW119721   3.495   5.845   5.873
 6274SOL    HW219722   3.402   5.716   5.837
 6275SOL     OW19723   2.536   6.302   6.445
 6275SOL    HW119724   2.501   6.344   6.362
 6275SOL    HW219725   2.460   6.263   6.497
 6276SOL     OW19726   1.605   4.103   3.880
 6276SOL    HW119727   1.547   4.066   3.808
 6276SOL    HW219728   1.549   4.150   3.948
 6277SOL     OW19729   5.350   3.356   1.893
 6277SOL    HW119730   5.289   3.406   1.832
 6277SOL    HW219731   5.295   3.302   1.957
 6278SOL     OW19732   5.089   6.518   4.921
 6278SOL    HW119733   5.037   6.601   4.941
 6278SOL    HW219734   5.105   6.512   4.822
 6279SOL     OW19735   3.773   6.622   6.790
 6279SOL    HW119736   3.744   6.661   6.703
 6279SOL    HW219737   3.761   6.523   6.789
 6280SOL     OW19738   0.934   2.410   4.807
 6280SOL    HW119739   0.869   2.361   4.865
 6280SOL    HW219740   0.919   2.386   4.711
 6281SOL     OW19741   0.647   5.026   4.194
 6281SOL    HW119742   0.732   5.074   4.217
 6281SOL    HW219743   0.641   4.942   4.248
 6282SOL     OW19744   0.763   5.855   5.496
 6282SOL    HW119745   0.768   5.915   5.575
 6282SOL    HW219746   0.824   5.776   5.510
 6283SOL     OW19747   6.615   3.299   5.096
 6283SOL    HW119748   6.655   3.338   5.178
 6283SOL    HW219749   6.648   3.349   5.016
 6284SOL     OW19750   1.003   5.591   4.821
 6284SOL    HW119751   0.991   5.569   4.917
 6284SOL    HW219752   1.075   5.660   4.811
 6285SOL     OW19753   0.275   4.188   4.991
 6285SOL    HW119754   0.331   4.269   5.007
 6285SOL    HW219755   0.181   4.214   4.973
 6286SOL     OW19756   5.859   1.752   4.274
 6286SOL    HW119757   5.910   1.797   4.201
 6286SOL    HW219758   5.799   1.818   4.319
 6287SOL     OW19759   3.526   5.086   4.774
 6287SOL    HW119760   3.451   5.022   4.789
 6287SOL    HW219761   3.499   5.178   4.803
 6288SOL     OW19762   4.967   4.448   2.644
 6288SOL    HW119763   4.894   4.399   2.596
 6288SOL    HW219764   5.030   4.487   2.578
 6289SOL     OW19765   1.612   4.956   1.084
 6289SOL    HW119766   1.700   4.986   1.120
 6289SOL    HW219767   1.614   4.958   0.984
 6290SOL     OW19768   6.617   5.293   5.577
 6290SOL    HW119769   6.576   5.232   5.510
 6290SOL    HW219770   6.662   5.369   5.529
 6291SOL     OW19771   4.172   3.534   4.588
 6291SOL    HW119772   4.165   3.496   4.680
 6291SOL    HW219773   4.265   3.525   4.554
 6292SOL     OW19774   1.270   2.068   4.672
 6292SOL    HW119775   1.323   2.145   4.637
 6292SOL    HW219776   1.173   2.081   4.648
 6293SOL     OW19777   3.418   0.809   0.667
 6293SOL    HW119778   3.364   0.794   0.584
 6293SOL    HW219779   3.360   0.853   0.736
 6294SOL     OW19780   3.597   6.677   4.087
 6294SOL    HW119781   3.567   6.663   3.992
 6294SOL    HW219782   3.521   6.713   4.141
 6295SOL     OW19783   5.613   4.523   5.931
 6295SOL    HW119784   5.585   4.528   5.835
 6295SOL    HW219785   5.542   4.478   5.985
 6296SOL     OW19786   0.787   6.395   5.957
 6296SOL    HW119787   0.784   6.490   5.987
 6296SOL    HW219788   0.811   6.392   5.860
 6297SOL     OW19789   5.681   1.068   3.939
 6297SOL    HW119790   5.695   1.069   3.840
 6297SOL    HW219791   5.674   1.163   3.972
 6298SOL     OW19792   1.843   2.459   7.012
 6298SOL    HW119793   1.894   2.497   6.935
 6298SOL    HW219794   1.762   2.515   0.007
 6299SOL     OW19795   5.911   1.936   0.448
 6299SOL    HW119796   5.926   2.029   0.483
 6299SOL    HW219797   5.826   1.900   0.486
 6300SOL     OW19798   6.734   0.651   0.352
 6300SOL    HW119799   6.636   0.669   0.343
 6300SOL    HW219800   6.755   0.560   0.317
 6301SOL     OW19801   3.922   6.606   0.183
 6301SOL    HW119802   3.848   6.655   0.136
 6301SOL    HW219803   3.894   6.511   0.197
 6302SOL     OW19804   1.510   0.348   3.304
 6302SOL    HW119805   1.470   0.262   3.273
 6302SOL    HW219806   1.528   0.343   3.402
 6303SOL     OW19807   2.027   1.476   3.754
 6303SOL    HW119808   2.030   1.377   3.767
 6303SOL    HW219809   1.932   1.507   3.750
 6304SOL     OW19810   2.411   0.641   1.342
 6304SOL    HW119811   2.346   0.633   1.267
 6304SOL    HW219812   2.484   0.574   1.330
 6305SOL     OW19813   6.284   7.008   0.892
 6305SOL    HW119814   6.248   0.051   0.825
 6305SOL    HW219815   6.211   6.982   0.956
 6306SOL     OW19816   0.538   4.039   3.910
 6306SOL    HW119817   0.536   4.103   3.987
 6306SOL    HW219818   0.460   4.058   3.850
 6307SOL     OW19819   3.304   3.962   5.312
 6307SOL    HW119820   3.308   3.882   5.371
 6307SOL    HW219821   3.279   4.042   5.366
 6308SOL     OW19822   2.217   2.099   4.507
 6308SOL    HW119823   2.278   2.147   4.445
 6308SOL    HW219824   2.193   2.159   4.583
 6309SOL     OW19825   6.034   4.554   5.094
 6309SOL    HW119826   6.108   4.573   5.158
 6309SOL    HW219827   6.004   4.459   5.103
 6310SOL     OW19828   2.168   6.046   2.348
 6310SOL    HW119829   2.182   6.117   2.280
 6310SOL    HW219830   2.254   6.028   2.395
 6311SOL     OW19831   5.214   1.191   6.029
 6311SOL    HW119832   5.166   1.223   6.110
 6311SOL    HW219833   5.222   1.265   5.962
 6312SOL     OW19834   6.364   5.666   5.251
 6312SOL    HW119835   6.354   5.646   5.153
 6312SOL    HW219836   6.353   5.582   5.304
 6313SOL     OW19837   6.755   5.993   4.965
 6313SOL    HW119838   6.762   6.090   4.990
 6313SOL    HW219839   6.846   5.951   4.971
 6314SOL     OW19840   3.714   6.789   1.671
 6314SOL    HW119841   3.616   6.786   1.689
 6314SOL    HW219842   3.730   6.787   1.572
 6315SOL     OW19843   2.170   2.683   5.470
 6315SOL    HW119844   2.211   2.679   5.561
 6315SOL    HW219845   2.217   2.753   5.416
 6316SOL     OW19846   5.104   1.979   0.023
 6316SOL    HW119847   5.031   2.024   0.075
 6316SOL    HW219848   5.076   1.967   6.951
 6317SOL     OW19849   4.352   5.333   1.771
 6317SOL    HW119850   4.371   5.259   1.706
 6317SOL    HW219851   4.435   5.357   1.820
 6318SOL     OW19852   3.549   1.039   5.871
 6318SOL    HW119853   3.504   0.999   5.791
 6318SOL    HW219854   3.479   1.076   5.932
 6319SOL     OW19855   6.277   1.673   4.651
 6319SOL    HW119856   6.204   1.700   4.588
 6319SOL    HW219857   6.239   1.619   4.726
 6320SOL     OW19858   6.202   6.399   5.350
 6320SOL    HW119859   6.116   6.443   5.325
 6320SOL    HW219860   6.253   6.376   5.267
 6321SOL     OW19861   3.894   3.515   0.715
 6321SOL    HW119862   3.926   3.535   0.807
 6321SOL    HW219863   3.867   3.600   0.670
 6322SOL     OW19864   2.089   2.092   0.813
 6322SOL    HW119865   2.034   2.071   0.732
 6322SOL    HW219866   2.182   2.059   0.800
 6323SOL     OW19867   3.055   2.758   1.538
 6323SOL    HW119868   3.012   2.712   1.616
 6323SOL    HW219869   3.106   2.691   1.484
 6324SOL     OW19870   5.441   0.321   0.203
 6324SOL    HW119871   5.429   0.415   0.171
 6324SOL    HW219872   5.358   0.291   0.251
 6325SOL     OW19873   1.548   2.353   2.476
 6325SOL    HW119874   1.524   2.415   2.400
 6325SOL    HW219875   1.602   2.277   2.440
 6326SOL     OW19876   4.735   5.263   1.640
 6326SOL    HW119877   4.663   5.195   1.627
 6326SOL    HW219878   4.728   5.302   1.732
 6327SOL     OW19879   6.879   0.595   4.987
 6327SOL    HW119880   6.881   0.675   5.047
 6327SOL    HW219881   6.828   0.617   4.904
 6328SOL     OW19882   3.457   3.298   0.172
 6328SOL    HW119883   3.460   3.371   0.241
 6328SOL    HW219884   3.443   3.338   0.082
 6329SOL     OW19885   2.440   2.209   3.134
 6329SOL    HW119886   2.475   2.171   3.049
 6329SOL    HW219887   2.467   2.151   3.211
 6330SOL     OW19888   5.018   0.342   1.208
 6330SOL    HW119889   4.995   0.245   1.194
 6330SOL    HW219890   5.072   0.352   1.291
 6331SOL     OW19891   6.402   2.717   5.256
 6331SOL    HW119892   6.449   2.643   5.208
 6331SOL    HW219893   6.364   2.682   5.342
 6332SOL     OW19894   0.443   3.388   0.673
 6332SOL    HW119895   0.345   3.399   0.690
 6332SOL    HW219896   0.490   3.475   0.688
 6333SOL     OW19897   4.211   5.396   4.898
 6333SOL    HW119898   4.299   5.438   4.877
 6333SOL    HW219899   4.208   5.303   4.862
 6334SOL     OW19900   2.846   0.844   2.343
 6334SOL    HW119901   2.897   0.883   2.420
 6334SOL    HW219902   2.833   0.913   2.273
 6335SOL     OW19903   3.328   0.528   0.505
 6335SOL    HW119904   3.314   0.604   0.442
 6335SOL    HW219905   3.261   0.534   0.580
 6336SOL     OW19906   0.833   2.432   6.097
 6336SOL    HW119907   0.839   2.440   5.997
 6336SOL    HW219908   0.796   2.517   6.135
 6337SOL     OW19909   4.833   4.738   5.824
 6337SOL    HW119910   4.913   4.723   5.766
 6337SOL    HW219911   4.846   4.821   5.878
 6338SOL     OW19912   3.243   1.732   4.215
 6338SOL    HW119913   3.259   1.746   4.117
 6338SOL    HW219914   3.311   1.668   4.251
 6339SOL     OW19915   0.906   3.651   3.509
 6339SOL    HW119916   0.831   3.716   3.523
 6339SOL    HW219917   0.884   3.590   3.433
 6340SOL     OW19918   2.144   5.195   2.571
 6340SOL    HW119919   2.182   5.288   2.567
 6340SOL    HW219920   2.045   5.199   2.584
 6341SOL     OW19921   0.293   4.267   4.555
 6341SOL    HW119922   0.332   4.271   4.647
 6341SOL    HW219923   0.297   4.357   4.513
 6342SOL     OW19924   1.777   0.994   2.153
 6342SOL    HW119925   1.811   1.021   2.243
 6342SOL    HW219926   1.840   0.927   2.113
 6343SOL     OW19927   4.837   2.231   6.782
 6343SOL    HW119928   4.795   2.252   6.694
 6343SOL    HW219929   4.829   2.134   6.802
 6344SOL     OW19930   5.070   2.515   4.214
 6344SOL    HW119931   5.056   2.448   4.141
 6344SOL    HW219932   5.114   2.597   4.177
 6345SOL     OW19933   6.152   2.879   2.419
 6345SOL    HW119934   6.228   2.932   2.380
 6345SOL    HW219935   6.072   2.938   2.428
 6346SOL     OW19936   6.664   5.430   4.078
 6346SOL    HW119937   6.657   5.459   3.983
 6346SOL    HW219938   6.638   5.334   4.085
 6347SOL     OW19939   2.134   0.409   0.604
 6347SOL    HW119940   2.090   0.320   0.596
 6347SOL    HW219941   2.200   0.407   0.679
 6348SOL     OW19942   1.257   3.439   5.483
 6348SOL    HW119943   1.163   3.451   5.515
 6348SOL    HW219944   1.321   3.475   5.550
 6349SOL     OW19945   2.171   0.593   1.225
 6349SOL    HW119946   2.149   0.500   1.198
 6349SOL    HW219947   2.092   0.634   1.271
 6350SOL     OW19948   0.721   5.379   4.233
 6350SOL    HW119949   0.780   5.306   4.264
 6350SOL    HW219950   0.697   5.365   4.137
 6351SOL     OW19951   6.435   4.026   3.951
 6351SOL    HW119952   6.418   4.094   4.022
 6351SOL    HW219953   6.356   3.966   3.943
 6352SOL     OW19954   3.768   5.958   5.007
 6352SOL    HW119955   3.702   5.981   5.078
 6352SOL    HW219956   3.720   5.919   4.928
 6353SOL     OW19957   0.758   6.652   6.304
 6353SOL    HW119958   0.783   6.671   6.210
 6353SOL    HW219959   0.707   6.730   6.342
 6354SOL     OW19960   2.345   5.903   2.586
 6354SOL    HW119961   2.429   5.874   2.633
 6354SOL    HW219962   2.267   5.856   2.626
 6355SOL     OW19963   0.858   5.518   0.045
 6355SOL    HW119964   0.780   5.562   0.090
 6355SOL    HW219965   0.859   5.544   6.970
 6356SOL     OW19966   5.005   6.210   1.798
 6356SOL    HW119967   4.946   6.281   1.837
 6356SOL    HW219968   4.958   6.167   1.721
 6357SOL     OW19969   6.019   3.667   2.468
 6357SOL    HW119970   6.076   3.689   2.547
 6357SOL    HW219971   5.959   3.590   2.490
 6358SOL     OW19972   0.700   2.322   6.375
 6358SOL    HW119973   0.641   2.243   6.360
 6358SOL    HW219974   0.783   2.313   6.321
 6359SOL     OW19975   6.050   0.170   6.694
 6359SOL    HW119976   6.049   0.270   6.697
 6359SOL    HW219977   5.961   0.136   6.663
 6360SOL     OW19978   1.494   4.570   4.151
 6360SOL    HW119979   1.492   4.561   4.051
 6360SOL    HW219980   1.545   4.493   4.190
 6361SOL     OW19981   1.179   6.762   1.861
 6361SOL    HW119982   1.204   6.668   1.841
 6361SOL    HW219983   1.229   6.794   1.942
 6362SOL     OW19984   6.614   6.348   6.896
 6362SOL    HW119985   6.547   6.403   6.946
 6362SOL    HW219986   6.705   6.386   6.910
 6363SOL     OW19987   1.748   5.044   3.612
 6363SOL    HW119988   1.767   5.102   3.691
 6363SOL    HW219989   1.650   5.023   3.607
 6364SOL     OW19990   2.994   1.332   6.114
 6364SOL    HW119991   2.941   1.279   6.180
 6364SOL    HW219992   2.939   1.410   6.083
 6365SOL     OW19993   5.636   0.271   3.639
 6365SOL    HW119994   5.702   0.298   3.709
 6365SOL    HW219995   5.549   0.319   3.655
 6366SOL     OW19996   1.169   6.234   6.224
 6366SOL    HW119997   1.180   6.220   6.126
 6366SOL    HW219998   1.189   6.330   6.247
 6367SOL     OW19999   3.895   1.251   4.885
 6367SOL    HW120000   3.882   1.205   4.973
 6367SOL    HW220001   3.809   1.296   4.858
 6368SOL     OW20002   3.887   4.955   3.669
 6368SOL    HW120003   3.985   4.937   3.673
 6368SOL    HW220004   3.856   4.988   3.758
 6369SOL     OW20005   2.268   5.602   3.953
 6369SOL    HW120006   2.181   5.646   3.931
 6369SOL    HW220007   2.328   5.667   4.001
 6370SOL     OW20008   0.128   3.350   3.824
 6370SOL    HW120009   0.084   3.269   3.786
 6370SOL    HW220010   0.203   3.378   3.764
 6371SOL     OW20011   4.977   4.599   3.322
 6371SOL    HW120012   4.979   4.673   3.389
 6371SOL    HW220013   5.041   4.527   3.351
 6372SOL     OW20014   2.106   0.614   2.179
 6372SOL    HW120015   2.113   0.544   2.108
 6372SOL    HW220016   2.196   0.650   2.199
 6373SOL     OW20017   4.854   3.962   2.259
 6373SOL    HW120018   4.821   4.050   2.223
 6373SOL    HW220019   4.853   3.894   2.186
 6374SOL     OW20020   3.428   4.139   3.101
 6374SOL    HW120021   3.508   4.080   3.103
 6374SOL    HW220022   3.414   4.173   3.008
 6375SOL     OW20023   6.846   1.885   3.832
 6375SOL    HW120024   6.777   1.925   3.892
 6375SOL    HW220025   6.873   1.795   3.866
 6376SOL     OW20026   5.670   2.118   5.034
 6376SOL    HW120027   5.607   2.139   4.959
 6376SOL    HW220028   5.764   2.130   5.003
 6377SOL     OW20029   6.894   1.850   5.605
 6377SOL    HW120030   6.977   1.869   5.554
 6377SOL    HW220031   6.918   1.823   5.699
 6378SOL     OW20032   4.297   4.890   4.193
 6378SOL    HW120033   4.386   4.909   4.152
 6378SOL    HW220034   4.286   4.945   4.276
 6379SOL     OW20035   1.596   3.853   4.582
 6379SOL    HW120036   1.652   3.930   4.613
 6379SOL    HW220037   1.506   3.887   4.554
 6380SOL     OW20038   0.223   1.563   5.581
 6380SOL    HW120039   0.234   1.587   5.485
 6380SOL    HW220040   0.129   1.533   5.598
 6381SOL     OW20041   4.195   3.070   1.548
 6381SOL    HW120042   4.212   3.032   1.457
 6381SOL    HW220043   4.124   3.017   1.594
 6382SOL     OW20044   2.568   2.158   0.941
 6382SOL    HW120045   2.615   2.235   0.984
 6382SOL    HW220046   2.635   2.101   0.892
 6383SOL     OW20047   1.634   2.540   2.804
 6383SOL    HW120048   1.624   2.456   2.858
 6383SOL    HW220049   1.543   2.575   2.781
 6384SOL     OW20050   6.905   4.232   2.425
 6384SOL    HW120051   6.887   4.235   2.327
 6384SOL    HW220052   6.859   4.308   2.470
 6385SOL     OW20053   0.237   4.253   3.803
 6385SOL    HW120054   0.145   4.277   3.773
 6385SOL    HW220055   0.236   4.233   3.901
 6386SOL     OW20056   2.562   5.063   5.707
 6386SOL    HW120057   2.550   4.964   5.706
 6386SOL    HW220058   2.533   5.102   5.620
 6387SOL     OW20059   0.072   1.640   6.421
 6387SOL    HW120060   0.110   1.717   6.472
 6387SOL    HW220061   0.135   1.563   6.426
 6388SOL     OW20062   3.831   5.968   1.847
 6388SOL    HW120063   3.797   5.933   1.760
 6388SOL    HW220064   3.808   6.065   1.855
 6389SOL     OW20065   0.262   5.841   2.296
 6389SOL    HW120066   0.230   5.771   2.360
 6389SOL    HW220067   0.195   5.850   2.222
 6390SOL     OW20068   0.698   0.826   5.912
 6390SOL    HW120069   0.686   0.737   5.958
 6390SOL    HW220070   0.720   0.896   5.980
 6391SOL     OW20071   3.025   6.808   5.785
 6391SOL    HW120072   3.031   6.792   5.883
 6391SOL    HW220073   2.930   6.827   5.760
 6392SOL     OW20074   2.784   5.714   2.825
 6392SOL    HW120075   2.776   5.615   2.825
 6392SOL    HW220076   2.805   5.746   2.918
 6393SOL     OW20077   7.020   6.885   2.360
 6393SOL    HW120078   0.096   6.871   2.348
 6393SOL    HW220079   6.994   6.973   2.321
 6394SOL     OW20080   1.597   4.935   0.822
 6394SOL    HW120081   1.536   4.857   0.807
 6394SOL    HW220082   1.602   4.990   0.738
 6395SOL     OW20083   0.701   2.434   0.989
 6395SOL    HW120084   0.700   2.512   1.052
 6395SOL    HW220085   0.609   2.418   0.955
 6396SOL     OW20086   4.959   3.387   6.718
 6396SOL    HW120087   4.936   3.457   6.786
 6396SOL    HW220088   4.876   3.338   6.692
 6397SOL     OW20089   5.614   1.785   0.891
 6397SOL    HW120090   5.713   1.778   0.906
 6397SOL    HW220091   5.593   1.872   0.846
 6398SOL     OW20092   2.366   6.843   1.992
 6398SOL    HW120093   2.291   6.780   2.012
 6398SOL    HW220094   2.367   6.865   1.895
 6399SOL     OW20095   1.799   6.347   6.489
 6399SOL    HW120096   1.704   6.369   6.465
 6399SOL    HW220097   1.839   6.422   6.540
 6400SOL     OW20098   2.693   6.070   2.227
 6400SOL    HW120099   2.791   6.053   2.231
 6400SOL    HW220100   2.673   6.161   2.264
 6401SOL     OW20101   5.682   5.171   3.283
 6401SOL    HW120102   5.692   5.205   3.190
 6401SOL    HW220103   5.729   5.232   3.346
 6402SOL     OW20104   3.255   2.093   3.037
 6402SOL    HW120105   3.177   2.126   2.983
 6402SOL    HW220106   3.340   2.121   2.992
 6403SOL     OW20107   6.962   6.436   6.816
 6403SOL    HW120108   0.021   6.470   6.768
 6403SOL    HW220109   6.909   6.377   6.755
 6404SOL     OW20110   4.631   0.941   2.332
 6404SOL    HW120111   4.620   0.975   2.239
 6404SOL    HW220112   4.544   0.946   2.381
 6405SOL     OW20113   3.059   0.295   3.838
 6405SOL    HW120114   3.151   0.313   3.873
 6405SOL    HW220115   2.992   0.343   3.895
 6406SOL     OW20116   0.811   3.064   2.938
 6406SOL    HW120117   0.760   3.048   2.853
 6406SOL    HW220118   0.884   2.996   2.946
 6407SOL     OW20119   2.690   6.200   4.009
 6407SOL    HW120120   2.712   6.293   3.982
 6407SOL    HW220121   2.771   6.157   4.050
 6408SOL     OW20122   5.620   1.736   6.712
 6408SOL    HW120123   5.621   1.725   6.811
 6408SOL    HW220124   5.647   1.650   6.668
 6409SOL     OW20125   6.722   4.448   3.555
 6409SOL    HW120126   6.758   4.357   3.572
 6409SOL    HW220127   6.791   4.517   3.582
 6410SOL     OW20128   1.887   1.307   6.842
 6410SOL    HW120129   1.801   1.257   6.829
 6410SOL    HW220130   1.953   1.280   6.772
 6411SOL     OW20131   0.743   3.035   3.212
 6411SOL    HW120132   0.827   3.055   3.262
 6411SOL    HW220133   0.760   3.042   3.114
 6412SOL     OW20134   0.773   2.202   4.876
 6412SOL    HW120135   0.731   2.182   4.964
 6412SOL    HW220136   0.740   2.137   4.808
 6413SOL     OW20137   3.802   4.995   3.963
 6413SOL    HW120138   3.893   4.984   4.004
 6413SOL    HW220139   3.733   4.964   4.028
 6414SOL     OW20140   5.214   0.887   0.617
 6414SOL    HW120141   5.217   0.788   0.607
 6414SOL    HW220142   5.305   0.925   0.599
 6415SOL     OW20143   1.556   3.428   2.879
 6415SOL    HW120144   1.640   3.464   2.919
 6415SOL    HW220145   1.579   3.364   2.805
 6416SOL     OW20146   0.722   1.358   6.848
 6416SOL    HW120147   0.800   1.296   6.843
 6416SOL    HW220148   0.754   1.451   6.862
 6417SOL     OW20149   6.374   5.044   1.043
 6417SOL    HW120150   6.281   5.007   1.054
 6417SOL    HW220151   6.372   5.143   1.057
 6418SOL     OW20152   4.828   3.903   1.903
 6418SOL    HW120153   4.763   3.830   1.881
 6418SOL    HW220154   4.802   3.986   1.855
 6419SOL     OW20155   2.254   4.658   3.321
 6419SOL    HW120156   2.176   4.684   3.379
 6419SOL    HW220157   2.237   4.688   3.227
 6420SOL     OW20158   2.982   5.660   4.427
 6420SOL    HW120159   2.987   5.561   4.413
 6420SOL    HW220160   3.055   5.690   4.489
 6421SOL     OW20161   5.033   0.246   2.594
 6421SOL    HW120162   5.076   0.156   2.593
 6421SOL    HW220163   5.066   0.298   2.673
 6422SOL     OW20164   0.018   1.138   4.270
 6422SOL    HW120165   0.073   1.058   4.246
 6422SOL    HW220166   6.944   1.111   4.278
 6423SOL     OW20167   4.797   5.383   2.854
 6423SOL    HW120168   4.819   5.323   2.930
 6423SOL    HW220169   4.768   5.328   2.775
 6424SOL     OW20170   6.889   5.597   6.111
 6424SOL    HW120171   6.856   5.605   6.017
 6424SOL    HW220172   6.921   5.504   6.128
 6425SOL     OW20173   6.516   6.416   2.459
 6425SOL    HW120174   6.523   6.363   2.374
 6425SOL    HW220175   6.455   6.369   2.523
 6426SOL     OW20176   1.654   5.004   2.564
 6426SOL    HW120177   1.617   5.096   2.564
 6426SOL    HW220178   1.580   4.938   2.549
 6427SOL     OW20179   3.791   3.730   4.889
 6427SOL    HW120180   3.721   3.764   4.826
 6427SOL    HW220181   3.880   3.730   4.844
 6428SOL     OW20182   5.684   3.379   6.100
 6428SOL    HW120183   5.782   3.397   6.109
 6428SOL    HW220184   5.669   3.308   6.032
 6429SOL     OW20185   1.742   1.740   5.869
 6429SOL    HW120186   1.766   1.752   5.965
 6429SOL    HW220187   1.787   1.811   5.814
 6430SOL     OW20188   6.507   0.965   2.702
 6430SOL    HW120189   6.437   1.028   2.734
 6430SOL    HW220190   6.494   0.876   2.746
 6431SOL     OW20191   5.472   6.527   4.055
 6431SOL    HW120192   5.491   6.612   4.007
 6431SOL    HW220193   5.536   6.516   4.132
 6432SOL     OW20194   4.291   4.691   6.225
 6432SOL    HW120195   4.347   4.675   6.144
 6432SOL    HW220196   4.209   4.741   6.199
 6433SOL     OW20197   2.194   4.988   6.623
 6433SOL    HW120198   2.237   4.981   6.713
 6433SOL    HW220199   2.140   5.072   6.618
 6434SOL     OW20200   2.337   4.311   6.813
 6434SOL    HW120201   2.349   4.276   6.906
 6434SOL    HW220202   2.421   4.355   6.782
 6435SOL     OW20203   4.630   6.946   0.629
 6435SOL    HW120204   4.689   6.893   0.690
 6435SOL    HW220205   4.647   0.021   0.643
 6436SOL     OW20206   1.816   2.982   2.950
 6436SOL    HW120207   1.813   2.949   2.855
 6436SOL    HW220208   1.749   2.933   3.004
 6437SOL     OW20209   2.154   1.345   0.359
 6437SOL    HW120210   2.056   1.341   0.340
 6437SOL    HW220211   2.173   1.304   0.448
 6438SOL     OW20212   6.238   4.487   6.044
 6438SOL    HW120213   6.312   4.474   6.111
 6438SOL    HW220214   6.172   4.413   6.053
 6439SOL     OW20215   5.611   0.863   1.770
 6439SOL    HW120216   5.553   0.800   1.819
 6439SOL    HW220217   5.560   0.947   1.750
 6440SOL     OW20218   1.836   1.214   5.738
 6440SOL    HW120219   1.884   1.143   5.686
 6440SOL    HW220220   1.839   1.300   5.687
 6441SOL     OW20221   6.813   6.706   2.255
 6441SOL    HW120222   6.777   6.737   2.167
 6441SOL    HW220223   6.891   6.763   2.282
 6442SOL     OW20224   2.273   0.844   4.198
 6442SOL    HW120225   2.256   0.942   4.183
 6442SOL    HW220226   2.192   0.792   4.171
 6443SOL     OW20227   4.050   2.058   5.592
 6443SOL    HW120228   3.981   2.021   5.529
 6443SOL    HW220229   4.036   2.018   5.683
 6444SOL     OW20230   5.786   2.734   4.095
 6444SOL    HW120231   5.772   2.814   4.037
 6444SOL    HW220232   5.699   2.702   4.131
 6445SOL     OW20233   4.084   3.608   5.059
 6445SOL    HW120234   3.987   3.595   5.079
 6445SOL    HW220235   4.136   3.604   5.145
 6446SOL     OW20236   1.496   1.558   6.369
 6446SOL    HW120237   1.573   1.609   6.407
 6446SOL    HW220238   1.530   1.477   6.322
 6447SOL     OW20239   5.527   4.991   2.829
 6447SOL    HW120240   5.604   4.993   2.893
 6447SOL    HW220241   5.477   4.905   2.840
 6448SOL     OW20242   3.829   5.701   1.939
 6448SOL    HW120243   3.883   5.634   1.888
 6448SOL    HW220244   3.859   5.794   1.915
 6449SOL     OW20245   3.647   5.385   0.641
 6449SOL    HW120246   3.645   5.482   0.663
 6449SOL    HW220247   3.583   5.336   0.701
 6450SOL     OW20248   0.616   3.932   0.916
 6450SOL    HW120249   0.551   4.003   0.890
 6450SOL    HW220250   0.708   3.970   0.920
 6451SOL     OW20251   2.190   0.783   4.506
 6451SOL    HW120252   2.171   0.709   4.441
 6451SOL    HW220253   2.138   0.767   4.590
 6452SOL     OW20254   4.282   5.970   4.119
 6452SOL    HW120255   4.312   6.050   4.067
 6452SOL    HW220256   4.213   5.919   4.067
 6453SOL     OW20257   2.376   6.357   1.208
 6453SOL    HW120258   2.374   6.457   1.199
 6453SOL    HW220259   2.344   6.316   1.123
 6454SOL     OW20260   1.942   2.030   3.137
 6454SOL    HW120261   1.913   2.125   3.127
 6454SOL    HW220262   1.953   1.989   3.047
 6455SOL     OW20263   0.091   2.932   3.816
 6455SOL    HW120264   0.047   2.843   3.801
 6455SOL    HW220265   0.073   2.963   3.909
 6456SOL     OW20266   0.825   1.027   3.825
 6456SOL    HW120267   0.807   0.993   3.917
 6456SOL    HW220268   0.815   0.952   3.759
 6457SOL     OW20269   4.819   1.844   0.895
 6457SOL    HW120270   4.823   1.935   0.853
 6457SOL    HW220271   4.724   1.817   0.908
 6458SOL     OW20272   0.805   6.541   3.990
 6458SOL    HW120273   0.717   6.588   3.984
 6458SOL    HW220274   0.817   6.483   3.909
 6459SOL     OW20275   6.320   3.154   0.931
 6459SOL    HW120276   6.224   3.130   0.918
 6459SOL    HW220277   6.344   3.229   0.869
 6460SOL     OW20278   5.643   6.150   5.361
 6460SOL    HW120279   5.708   6.179   5.291
 6460SOL    HW220280   5.587   6.228   5.390
 6461SOL     OW20281   2.507   4.801   5.655
 6461SOL    HW120282   2.490   4.721   5.598
 6461SOL    HW220283   2.574   4.778   5.725
 6462SOL     OW20284   2.371   2.602   4.508
 6462SOL    HW120285   2.316   2.649   4.439
 6462SOL    HW220286   2.362   2.650   4.596
 6463SOL     OW20287   6.228   3.339   6.478
 6463SOL    HW120288   6.135   3.376   6.474
 6463SOL    HW220289   6.290   3.409   6.511
 6464SOL     OW20290   0.801   5.726   4.702
 6464SOL    HW120291   0.759   5.800   4.754
 6464SOL    HW220292   0.860   5.672   4.762
 6465SOL     OW20293   0.150   3.268   2.810
 6465SOL    HW120294   0.181   3.284   2.904
 6465SOL    HW220295   0.218   3.214   2.761
 6466SOL     OW20296   1.293   1.298   6.006
 6466SOL    HW120297   1.267   1.294   5.910
 6466SOL    HW220298   1.231   1.359   6.055
 6467SOL     OW20299   3.366   1.494   0.187
 6467SOL    HW120300   3.283   1.516   0.134
 6467SOL    HW220301   3.350   1.515   0.283
 6468SOL     OW20302   3.374   6.263   0.270
 6468SOL    HW120303   3.373   6.180   0.326
 6468SOL    HW220304   3.382   6.343   0.329
 6469SOL     OW20305   5.192   0.715   4.647
 6469SOL    HW120306   5.104   0.746   4.684
 6469SOL    HW220307   5.265   0.773   4.682
 6470SOL     OW20308   6.294   3.612   0.547
 6470SOL    HW120309   6.201   3.644   0.529
 6470SOL    HW220310   6.327   3.559   0.469
 6471SOL     OW20311   6.732   6.529   5.633
 6471SOL    HW120312   6.815   6.485   5.599
 6471SOL    HW220313   6.756   6.601   5.698
 6472SOL     OW20314   0.536   5.902   1.576
 6472SOL    HW120315   0.563   5.966   1.647
 6472SOL    HW220316   0.500   5.819   1.618
 6473SOL     OW20317   3.179   0.992   4.508
 6473SOL    HW120318   3.254   0.977   4.442
 6473SOL    HW220319   3.167   1.090   4.523
 6474SOL     OW20320   2.354   4.487   6.044
 6474SOL    HW120321   2.331   4.524   5.954
 6474SOL    HW220322   2.272   4.446   6.085
 6475SOL     OW20323   5.963   5.182   3.777
 6475SOL    HW120324   6.037   5.213   3.718
 6475SOL    HW220325   5.971   5.083   3.790
 6476SOL     OW20326   4.137   3.457   1.248
 6476SOL    HW120327   4.071   3.395   1.204
 6476SOL    HW220328   4.226   3.447   1.204
 6477SOL     OW20329   6.192   4.734   1.331
 6477SOL    HW120330   6.162   4.643   1.304
 6477SOL    HW220331   6.283   4.752   1.292
 6478SOL     OW20332   3.687   0.611   1.823
 6478SOL    HW120333   3.691   0.697   1.771
 6478SOL    HW220334   3.645   0.540   1.767
 6479SOL     OW20335   4.234   5.247   3.690
 6479SOL    HW120336   4.297   5.325   3.690
 6479SOL    HW220337   4.283   5.166   3.720
 6480SOL     OW20338   3.043   1.740   6.332
 6480SOL    HW120339   3.133   1.744   6.288
 6480SOL    HW220340   2.993   1.824   6.313
 6481SOL     OW20341   3.681   1.932   2.027
 6481SOL    HW120342   3.776   1.902   2.036
 6481SOL    HW220343   3.674   2.030   2.043
 6482SOL     OW20344   6.955   0.964   6.368
 6482SOL    HW120345   0.011   1.018   6.338
 6482SOL    HW220346   6.896   0.945   6.289
 6483SOL     OW20347   1.128   6.337   1.946
 6483SOL    HW120348   1.061   6.401   1.984
 6483SOL    HW220349   1.161   6.276   2.018
 6484SOL     OW20350   3.370   6.944   1.451
 6484SOL    HW120351   3.360   6.853   1.492
 6484SOL    HW220352   3.436   6.998   1.504
 6485SOL     OW20353   1.570   4.856   3.790
 6485SOL    HW120354   1.651   4.802   3.816
 6485SOL    HW220355   1.536   4.825   3.702
 6486SOL     OW20356   2.428   4.430   3.322
 6486SOL    HW120357   2.391   4.523   3.326
 6486SOL    HW220358   2.434   4.401   3.227
 6487SOL     OW20359   0.013   6.188   5.116
 6487SOL    HW120360   0.100   6.163   5.072
 6487SOL    HW220361   0.029   6.200   5.214
 6488SOL     OW20362   3.655   5.788   4.512
 6488SOL    HW120363   3.665   5.776   4.413
 6488SOL    HW220364   3.563   5.821   4.532
 6489SOL     OW20365   3.138   2.460   6.491
 6489SOL    HW120366   3.164   2.436   6.398
 6489SOL    HW220367   3.207   2.520   6.531
 6490SOL     OW20368   3.965   0.753   6.760
 6490SOL    HW120369   4.011   0.765   6.672
 6490SOL    HW220370   3.932   0.842   6.793
 6491SOL     OW20371   3.798   0.733   0.594
 6491SOL    HW120372   3.763   0.754   0.685
 6491SOL    HW220373   3.741   0.662   0.552
 6492SOL     OW20374   4.279   5.136   6.975
 6492SOL    HW120375   4.279   5.044   7.016
 6492SOL    HW220376   4.185   5.161   6.951
 6493SOL     OW20377   1.120   4.990   5.243
 6493SOL    HW120378   1.215   4.976   5.269
 6493SOL    HW220379   1.091   4.917   5.181
 6494SOL     OW20380   7.019   0.492   3.486
 6494SOL    HW120381   6.961   0.437   3.426
 6494SOL    HW220382   6.990   0.588   3.482
 6495SOL     OW20383   5.423   0.193   4.220
 6495SOL    HW120384   5.400   0.271   4.278
 6495SOL    HW220385   5.374   0.112   4.254
 6496SOL     OW20386   6.819   0.476   3.001
 6496SOL    HW120387   6.898   0.417   2.987
 6496SOL    HW220388   6.780   0.501   2.912
 6497SOL     OW20389   1.534   2.332   1.015
 6497SOL    HW120390   1.570   2.411   0.965
 6497SOL    HW220391   1.609   2.274   1.044
 6498SOL     OW20392   2.158   3.823   3.357
 6498SOL    HW120393   2.186   3.902   3.302
 6498SOL    HW220394   2.080   3.778   3.313
 6499SOL     OW20395   5.082   3.024   4.816
 6499SOL    HW120396   5.172   3.037   4.860
 6499SOL    HW220397   5.011   3.064   4.874
 6500SOL     OW20398   6.790   4.180   3.636
 6500SOL    HW120399   6.838   4.149   3.718
 6500SOL    HW220400   6.723   4.111   3.608
 6501SOL     OW20401   6.564   2.194   6.825
 6501SOL    HW120402   6.571   2.118   6.890
 6501SOL    HW220403   6.628   2.266   6.852
 6502SOL     OW20404   6.511   2.253   1.699
 6502SOL    HW120405   6.511   2.343   1.743
 6502SOL    HW220406   6.417   2.226   1.677
 6503SOL     OW20407   4.891   1.454   3.369
 6503SOL    HW120408   4.980   1.480   3.405
 6503SOL    HW220409   4.886   1.354   3.359
 6504SOL     OW20410   4.600   5.667   5.991
 6504SOL    HW120411   4.540   5.598   6.031
 6504SOL    HW220412   4.556   5.706   5.910
 6505SOL     OW20413   5.586   5.970   0.746
 6505SOL    HW120414   5.666   5.954   0.803
 6505SOL    HW220415   5.615   5.988   0.652
 6506SOL     OW20416   6.715   2.740   2.632
 6506SOL    HW120417   6.765   2.654   2.618
 6506SOL    HW220418   6.627   2.721   2.675
 6507SOL     OW20419   2.143   5.380   5.762
 6507SOL    HW120420   2.201   5.344   5.689
 6507SOL    HW220421   2.075   5.442   5.723
 6508SOL     OW20422   1.462   0.729   2.929
 6508SOL    HW120423   1.394   0.707   3.000
 6508SOL    HW220424   1.419   0.787   2.859
 6509SOL     OW20425   3.509   1.794   4.443
 6509SOL    HW120426   3.461   1.881   4.447
 6509SOL    HW220427   3.601   1.805   4.481
 6510SOL     OW20428   6.541   5.484   0.014
 6510SOL    HW120429   6.589   5.505   0.099
 6510SOL    HW220430   6.534   5.567   6.981
 6511SOL     OW20431   4.496   1.344   4.384
 6511SOL    HW120432   4.587   1.312   4.356
 6511SOL    HW220433   4.498   1.368   4.481
 6512SOL     OW20434   4.903   6.399   2.146
 6512SOL    HW120435   4.842   6.366   2.218
 6512SOL    HW220436   4.853   6.402   2.059
 6513SOL     OW20437   2.952   5.242   2.932
 6513SOL    HW120438   2.987   5.244   2.838
 6513SOL    HW220439   2.979   5.156   2.975
 6514SOL     OW20440   5.938   1.089   4.158
 6514SOL    HW120441   5.923   1.086   4.256
 6514SOL    HW220442   5.871   1.150   4.115
 6515SOL     OW20443   0.326   4.498   4.377
 6515SOL    HW120444   0.229   4.479   4.369
 6515SOL    HW220445   0.346   4.592   4.350
 6516SOL     OW20446   0.307   3.569   1.062
 6516SOL    HW120447   0.366   3.511   1.007
 6516SOL    HW220448   0.247   3.512   1.119
 6517SOL     OW20449   6.509   0.491   0.736
 6517SOL    HW120450   6.437   0.443   0.686
 6517SOL    HW220451   6.562   0.425   0.789
 6518SOL     OW20452   6.852   0.213   6.676
 6518SOL    HW120453   6.844   0.309   6.652
 6518SOL    HW220454   6.816   0.198   6.768
 6519SOL     OW20455   1.408   1.983   3.273
 6519SOL    HW120456   1.434   1.957   3.180
 6519SOL    HW220457   1.332   2.048   3.270
 6520SOL     OW20458   5.584   5.877   2.423
 6520SOL    HW120459   5.662   5.910   2.369
 6520SOL    HW220460   5.604   5.786   2.459
 6521SOL     OW20461   2.081   2.433   4.284
 6521SOL    HW120462   2.097   2.531   4.279
 6521SOL    HW220463   2.161   2.388   4.324
 6522SOL     OW20464   3.806   4.585   6.902
 6522SOL    HW120465   3.799   4.683   6.921
 6522SOL    HW220466   3.836   4.572   6.807
 6523SOL     OW20467   4.321   1.678   6.355
 6523SOL    HW120468   4.267   1.659   6.274
 6523SOL    HW220469   4.411   1.635   6.346
 6524SOL     OW20470   2.867   4.121   1.730
 6524SOL    HW120471   2.776   4.161   1.720
 6524SOL    HW220472   2.867   4.029   1.691
 6525SOL     OW20473   2.046   4.689   2.615
 6525SOL    HW120474   2.068   4.755   2.544
 6525SOL    HW220475   2.073   4.726   2.704
 6526SOL     OW20476   2.224   6.720   6.731
 6526SOL    HW120477   2.315   6.762   6.740
 6526SOL    HW220478   2.177   6.724   6.818
 6527SOL     OW20479   0.953   2.715   4.695
 6527SOL    HW120480   0.983   2.806   4.669
 6527SOL    HW220481   1.026   2.649   4.676
 6528SOL     OW20482   6.912   0.750   5.200
 6528SOL    HW120483   7.000   0.797   5.203
 6528SOL    HW220484   6.854   0.783   5.274
 6529SOL     OW20485   1.249   1.416   2.501
 6529SOL    HW120486   1.212   1.508   2.514
 6529SOL    HW220487   1.186   1.349   2.539
 6530SOL     OW20488   6.496   3.845   0.129
 6530SOL    HW120489   6.563   3.813   0.196
 6530SOL    HW220490   6.406   3.851   0.172
 6531SOL     OW20491   5.491   3.027   5.233
 6531SOL    HW120492   5.548   2.952   5.267
 6531SOL    HW220493   5.535   3.070   5.155
 6532SOL     OW20494   6.708   1.083   0.539
 6532SOL    HW120495   6.681   1.094   0.635
 6532SOL    HW220496   6.753   1.167   0.508
 6533SOL     OW20497   4.600   0.003   1.628
 6533SOL    HW120498   4.676   6.982   1.678
 6533SOL    HW220499   4.545   0.056   1.692
 6534SOL     OW20500   3.663   4.817   1.391
 6534SOL    HW120501   3.576   4.867   1.387
 6534SOL    HW220502   3.650   4.724   1.358
 6535SOL     OW20503   5.982   3.928   4.131
 6535SOL    HW120504   5.996   3.980   4.047
 6535SOL    HW220505   5.926   3.982   4.194
 6536SOL     OW20506   0.994   1.537   5.831
 6536SOL    HW120507   0.947   1.468   5.777
 6536SOL    HW220508   1.084   1.555   5.791
 6537SOL     OW20509   6.569   5.304   0.299
 6537SOL    HW120510   6.648   5.363   0.317
 6537SOL    HW220511   6.485   5.354   0.320
 6538SOL     OW20512   2.462   3.671   6.886
 6538SOL    HW120513   2.454   3.769   6.899
 6538SOL    HW220514   2.372   3.632   6.864
 6539SOL     OW20515   4.103   0.567   5.965
 6539SOL    HW120516   4.183   0.619   5.935
 6539SOL    HW220517   4.026   0.587   5.905
 6540SOL     OW20518   4.592   1.998   5.481
 6540SOL    HW120519   4.523   2.047   5.533
 6540SOL    HW220520   4.666   1.969   5.542
 6541SOL     OW20521   4.838   1.866   5.144
 6541SOL    HW120522   4.840   1.782   5.089
 6541SOL    HW220523   4.891   1.937   5.097
 6542SOL     OW20524   5.886   4.297   3.869
 6542SOL    HW120525   5.838   4.330   3.951
 6542SOL    HW220526   5.826   4.306   3.790
 6543SOL     OW20527   5.898   3.209   5.526
 6543SOL    HW120528   5.863   3.136   5.466
 6543SOL    HW220529   5.914   3.172   5.617
 6544SOL     OW20530   0.322   6.640   2.897
 6544SOL    HW120531   0.306   6.589   2.813
 6544SOL    HW220532   0.235   6.663   2.940
 6545SOL     OW20533   4.584   1.973   0.497
 6545SOL    HW120534   4.651   1.954   0.425
 6545SOL    HW220535   4.510   1.906   0.492
 6546SOL     OW20536   3.203   4.580   7.007
 6546SOL    HW120537   3.211   4.644   6.930
 6546SOL    HW220538   3.294   4.546   0.009
 6547SOL     OW20539   4.904   1.148   5.679
 6547SOL    HW120540   4.805   1.145   5.689
 6547SOL    HW220541   4.935   1.244   5.684
 6548SOL     OW20542   1.461   3.564   0.260
 6548SOL    HW120543   1.428   3.555   0.167
 6548SOL    HW220544   1.398   3.621   0.313
 6549SOL     OW20545   4.697   0.928   1.463
 6549SOL    HW120546   4.760   0.851   1.474
 6549SOL    HW220547   4.718   0.999   1.530
 6550SOL     OW20548   0.178   6.680   4.335
 6550SOL    HW120549   0.224   6.654   4.420
 6550SOL    HW220550   0.080   6.690   4.353
 6551SOL     OW20551   1.898   5.100   2.739
 6551SOL    HW120552   1.806   5.072   2.710
 6551SOL    HW220553   1.891   5.176   2.803
 6552SOL     OW20554   1.863   6.501   5.868
 6552SOL    HW120555   1.831   6.537   5.956
 6552SOL    HW220556   1.867   6.401   5.872
 6553SOL     OW20557   0.667   2.322   3.526
 6553SOL    HW120558   0.714   2.390   3.581
 6553SOL    HW220559   0.577   2.303   3.566
 6554SOL     OW20560   0.146   0.925   5.048
 6554SOL    HW120561   0.119   0.965   4.961
 6554SOL    HW220562   0.178   0.831   5.032
 6555SOL     OW20563   0.006   2.227   2.779
 6555SOL    HW120564   6.960   2.155   2.770
 6555SOL    HW220565   6.990   2.303   2.831
 6556SOL     OW20566   5.614   4.570   4.645
 6556SOL    HW120567   5.543   4.629   4.607
 6556SOL    HW220568   5.681   4.625   4.694
 6557SOL     OW20569   2.949   6.831   1.880
 6557SOL    HW120570   3.029   6.886   1.856
 6557SOL    HW220571   2.901   6.874   1.956
 6558SOL     OW20572   6.599   4.793   0.096
 6558SOL    HW120573   6.569   4.837   0.180
 6558SOL    HW220574   6.675   4.846   0.057
 6559SOL     OW20575   1.014   4.021   6.096
 6559SOL    HW120576   1.047   3.927   6.093
 6559SOL    HW220577   1.042   4.069   6.013
 6560SOL     OW20578   4.387   5.213   1.194
 6560SOL    HW120579   4.482   5.233   1.218
 6560SOL    HW220580   4.382   5.128   1.143
 6561SOL     OW20581   3.565   3.929   1.516
 6561SOL    HW120582   3.597   4.020   1.541
 6561SOL    HW220583   3.471   3.934   1.482
 6562SOL     OW20584   5.925   3.785   1.026
 6562SOL    HW120585   5.993   3.713   1.017
 6562SOL    HW220586   5.841   3.748   1.066
 6563SOL     OW20587   5.585   6.671   0.447
 6563SOL    HW120588   5.668   6.615   0.441
 6563SOL    HW220589   5.548   6.686   0.356
 6564SOL     OW20590   7.013   4.589   3.097
 6564SOL    HW120591   0.069   4.564   3.155
 6564SOL    HW220592   6.931   4.546   3.133
 6565SOL     OW20593   6.769   2.881   3.807
 6565SOL    HW120594   6.780   2.878   3.906
 6565SOL    HW220595   6.842   2.829   3.764
 6566SOL     OW20596   3.576   6.169   2.513
 6566SOL    HW120597   3.566   6.127   2.603
 6566SOL    HW220598   3.512   6.246   2.505
 6567SOL     OW20599   4.184   1.270   2.003
 6567SOL    HW120600   4.165   1.191   1.946
 6567SOL    HW220601   4.243   1.334   1.954
 6568SOL     OW20602   3.795   1.386   3.821
 6568SOL    HW120603   3.757   1.304   3.863
 6568SOL    HW220604   3.889   1.398   3.851
 6569SOL     OW20605   2.561   3.380   6.460
 6569SOL    HW120606   2.643   3.410   6.508
 6569SOL    HW220607   2.496   3.456   6.453
 6570SOL     OW20608   3.530   0.279   2.450
 6570SOL    HW120609   3.600   0.301   2.518
 6570SOL    HW220610   3.526   0.180   2.437
 6571SOL     OW20611   2.365   5.716   1.929
 6571SOL    HW120612   2.369   5.771   2.013
 6571SOL    HW220613   2.380   5.620   1.952
 6572SOL     OW20614   6.569   4.952   6.271
 6572SOL    HW120615   6.474   4.923   6.274
 6572SOL    HW220616   6.625   4.880   6.230
 6573SOL     OW20617   2.273   1.585   2.170
 6573SOL    HW120618   2.290   1.672   2.215
 6573SOL    HW220619   2.359   1.539   2.150
 6574SOL     OW20620   3.370   5.447   3.007
 6574SOL    HW120621   3.331   5.365   3.051
 6574SOL    HW220622   3.345   5.447   2.911
 6575SOL     OW20623   1.316   0.309   2.358
 6575SOL    HW120624   1.323   0.376   2.284
 6575SOL    HW220625   1.332   0.354   2.446
 6576SOL     OW20626   2.709   5.649   6.232
 6576SOL    HW120627   2.795   5.696   6.216
 6576SOL    HW220628   2.671   5.677   6.320
 6577SOL     OW20629   0.452   0.874   4.164
 6577SOL    HW120630   0.510   0.838   4.092
 6577SOL    HW220631   0.465   0.973   4.171
 6578SOL     OW20632   1.479   4.768   2.891
 6578SOL    HW120633   1.402   4.733   2.945
 6578SOL    HW220634   1.452   4.777   2.796
 6579SOL     OW20635   6.616   3.715   5.125
 6579SOL    HW120636   6.659   3.798   5.161
 6579SOL    HW220637   6.568   3.668   5.200
 6580SOL     OW20638   0.010   1.994   0.272
 6580SOL    HW120639   0.040   1.967   0.364
 6580SOL    HW220640   0.043   1.927   0.206
 6581SOL     OW20641   2.722   1.115   0.006
 6581SOL    HW120642   2.653   1.138   0.075
 6581SOL    HW220643   2.798   1.179   0.011
 6582SOL     OW20644   1.308   1.454   1.859
 6582SOL    HW120645   1.377   1.527   1.863
 6582SOL    HW220646   1.325   1.395   1.780
 6583SOL     OW20647   3.530   0.661   4.600
 6583SOL    HW120648   3.549   0.563   4.609
 6583SOL    HW220649   3.527   0.703   4.691
 6584SOL     OW20650   4.509   1.704   0.183
 6584SOL    HW120651   4.564   1.621   0.188
 6584SOL    HW220652   4.461   1.717   0.269
 6585SOL     OW20653   6.340   6.728   0.171
 6585SOL    HW120654   6.420   6.746   0.228
 6585SOL    HW220655   6.363   6.742   0.075
 6586SOL     OW20656   0.140   1.753   6.002
 6586SOL    HW120657   0.146   1.657   6.031
 6586SOL    HW220658   0.183   1.811   6.071
 6587SOL     OW20659   2.330   6.309   4.561
 6587SOL    HW120660   2.429   6.299   4.544
 6587SOL    HW220661   2.296   6.226   4.605
 6588SOL     OW20662   0.749   4.005   1.651
 6588SOL    HW120663   0.735   4.095   1.693
 6588SOL    HW220664   0.696   3.937   1.702
 6589SOL     OW20665   4.750   0.576   0.218
 6589SOL    HW120666   4.721   0.655   0.271
 6589SOL    HW220667   4.765   0.604   0.123
 6590SOL     OW20668   0.937   0.744   4.990
 6590SOL    HW120669   1.011   0.731   5.056
 6590SOL    HW220670   0.856   0.780   5.037
 6591SOL     OW20671   5.729   5.818   2.034
 6591SOL    HW120672   5.662   5.835   1.961
 6591SOL    HW220673   5.819   5.802   1.992
 6592SOL     OW20674   6.475   6.973   4.147
 6592SOL    HW120675   6.388   0.000   4.155
 6592SOL    HW220676   6.550   0.016   4.140
 6593SOL     OW20677   2.930   2.005   2.415
 6593SOL    HW120678   2.949   1.968   2.505
 6593SOL    HW220679   2.837   1.981   2.388
 6594SOL     OW20680   3.534   2.378   6.968
 6594SOL    HW120681   3.633   2.380   6.957
 6594SOL    HW220682   3.490   2.377   6.878
 6595SOL     OW20683   0.669   3.877   0.300
 6595SOL    HW120684   0.642   3.803   0.362
 6595SOL    HW220685   0.599   3.949   0.302
 6596SOL     OW20686   2.932   6.219   4.393
 6596SOL    HW120687   2.921   6.305   4.443
 6596SOL    HW220688   2.911   6.142   4.454
 6597SOL     OW20689   2.536   5.364   1.952
 6597SOL    HW120690   2.442   5.334   1.937
 6597SOL    HW220691   2.576   5.312   2.027
 6598SOL     OW20692   1.255   6.543   4.218
 6598SOL    HW120693   1.280   6.566   4.312
 6598SOL    HW220694   1.318   6.588   4.155
 6599SOL     OW20695   4.728   6.733   5.822
 6599SOL    HW120696   4.702   6.829   5.835
 6599SOL    HW220697   4.781   6.701   5.900
 6600SOL     OW20698   5.128   4.889   5.659
 6600SOL    HW120699   5.142   4.812   5.721
 6600SOL    HW220700   5.109   4.972   5.711
 6601SOL     OW20701   0.957   1.665   5.019
 6601SOL    HW120702   0.876   1.683   5.075
 6601SOL    HW220703   0.952   1.717   4.934
 6602SOL     OW20704   0.610   1.379   1.890
 6602SOL    HW120705   0.633   1.312   1.960
 6602SOL    HW220706   0.681   1.449   1.887
 6603SOL     OW20707   0.300   2.764   4.065
 6603SOL    HW120708   0.273   2.675   4.102
 6603SOL    HW220709   0.219   2.821   4.054
 6604SOL     OW20710   2.279   6.899   1.706
 6604SOL    HW120711   2.323   6.855   1.628
 6604SOL    HW220712   2.181   6.878   1.706
 6605SOL     OW20713   5.886   3.476   1.647
 6605SOL    HW120714   5.850   3.389   1.682
 6605SOL    HW220715   5.883   3.474   1.547
 6606SOL     OW20716   6.794   5.899   1.831
 6606SOL    HW120717   6.723   5.957   1.870
 6606SOL    HW220718   6.754   5.840   1.760
 6607SOL     OW20719   1.408   3.161   2.267
 6607SOL    HW120720   1.447   3.127   2.352
 6607SOL    HW220721   1.313   3.189   2.281
 6608SOL     OW20722   6.407   6.612   1.272
 6608SOL    HW120723   6.358   6.584   1.355
 6608SOL    HW220724   6.356   6.584   1.191
 6609SOL     OW20725   4.451   0.626   5.689
 6609SOL    HW120726   4.484   0.687   5.616
 6609SOL    HW220727   4.362   0.590   5.665
 6610SOL     OW20728   2.838   0.500   6.702
 6610SOL    HW120729   2.775   0.571   6.731
 6610SOL    HW220730   2.787   0.417   6.678
 6611SOL     OW20731   6.178   3.046   3.565
 6611SOL    HW120732   6.133   2.972   3.616
 6611SOL    HW220733   6.261   3.074   3.613
 6612SOL     OW20734   6.300   2.046   6.171
 6612SOL    HW120735   6.212   2.033   6.216
 6612SOL    HW220736   6.313   2.142   6.150
 6613SOL     OW20737   6.576   6.270   5.127
 6613SOL    HW120738   6.636   6.338   5.168
 6613SOL    HW220739   6.554   6.200   5.194
 6614SOL     OW20740   5.428   6.335   0.907
 6614SOL    HW120741   5.342   6.344   0.856
 6614SOL    HW220742   5.420   6.262   0.974
 6615SOL     OW20743   1.532   4.772   2.427
 6615SOL    HW120744   1.597   4.709   2.470
 6615SOL    HW220745   1.533   4.760   2.328
 6616SOL     OW20746   4.000   1.361   5.902
 6616SOL    HW120747   3.919   1.396   5.948
 6616SOL    HW220748   4.058   1.313   5.969
 6617SOL     OW20749   3.585   5.187   2.880
 6617SOL    HW120750   3.672   5.221   2.918
 6617SOL    HW220751   3.598   5.163   2.784
 6618SOL     OW20752   1.101   3.072   2.452
 6618SOL    HW120753   1.055   3.080   2.364
 6618SOL    HW220754   1.122   2.976   2.470
 6619SOL     OW20755   6.218   0.060   4.202
 6619SOL    HW120756   6.207   0.157   4.179
 6619SOL    HW220757   6.127   0.019   4.214
 6620SOL     OW20758   1.535   2.762   5.440
 6620SOL    HW120759   1.596   2.683   5.443
 6620SOL    HW220760   1.440   2.731   5.441
 6621SOL     OW20761   2.329   2.902   6.351
 6621SOL    HW120762   2.400   2.838   6.323
 6621SOL    HW220763   2.346   2.992   6.312
 6622SOL     OW20764   6.024   0.123   1.516
 6622SOL    HW120765   5.957   0.145   1.446
 6622SOL    HW220766   6.112   0.163   1.492
 6623SOL     OW20767   2.592   2.761   6.338
 6623SOL    HW120768   2.632   2.765   6.246
 6623SOL    HW220769   2.648   2.816   6.400
 6624SOL     OW20770   1.211   5.589   5.598
 6624SOL    HW120771   1.300   5.544   5.590
 6624SOL    HW220772   1.145   5.546   5.536
 6625SOL     OW20773   5.067   2.365   5.535
 6625SOL    HW120774   5.055   2.456   5.496
 6625SOL    HW220775   5.156   2.360   5.581
 6626SOL     OW20776   4.845   5.792   5.590
 6626SOL    HW120777   4.820   5.848   5.512
 6626SOL    HW220778   4.768   5.735   5.617
 6627SOL     OW20779   2.356   6.969   4.575
 6627SOL    HW120780   2.345   6.987   4.673
 6627SOL    HW220781   2.447   6.997   4.546
 6628SOL     OW20782   4.527   4.543   4.770
 6628SOL    HW120783   4.493   4.507   4.684
 6628SOL    HW220784   4.453   4.545   4.837
 6629SOL     OW20785   4.437   6.110   0.121
 6629SOL    HW120786   4.493   6.039   0.163
 6629SOL    HW220787   4.341   6.083   0.122
 6630SOL     OW20788   4.085   0.818   2.023
 6630SOL    HW120789   4.020   0.770   2.082
 6630SOL    HW220790   4.179   0.797   2.051
 6631SOL     OW20791   2.608   5.353   3.110
 6631SOL    HW120792   2.668   5.429   3.084
 6631SOL    HW220793   2.645   5.308   3.191
 6632SOL     OW20794   0.401   6.526   1.205
 6632SOL    HW120795   0.438   6.504   1.115
 6632SOL    HW220796   0.311   6.569   1.194
 6633SOL     OW20797   0.718   4.272   6.525
 6633SOL    HW120798   0.662   4.204   6.479
 6633SOL    HW220799   0.721   4.356   6.471
 6634SOL     OW20800   5.895   2.192   3.868
 6634SOL    HW120801   5.987   2.152   3.865
 6634SOL    HW220802   5.869   2.206   3.964
 6635SOL     OW20803   4.501   4.474   3.333
 6635SOL    HW120804   4.495   4.527   3.248
 6635SOL    HW220805   4.581   4.414   3.329
 6636SOL     OW20806   4.537   2.830   5.659
 6636SOL    HW120807   4.443   2.860   5.669
 6636SOL    HW220808   4.558   2.815   5.562
 6637SOL     OW20809   1.617   6.952   6.654
 6637SOL    HW120810   1.674   6.928   6.733
 6637SOL    HW220811   1.521   6.954   6.682
 6638SOL     OW20812   3.171   3.639   4.103
 6638SOL    HW120813   3.257   3.606   4.142
 6638SOL    HW220814   3.095   3.582   4.134
 6639SOL     OW20815   5.727   4.603   6.502
 6639SOL    HW120816   5.742   4.692   6.544
 6639SOL    HW220817   5.641   4.564   6.535
 6640SOL     OW20818   1.177   1.707   5.178
 6640SOL    HW120819   1.205   1.803   5.189
 6640SOL    HW220820   1.122   1.698   5.095
 6641SOL     OW20821   2.065   1.749   6.864
 6641SOL    HW120822   2.035   1.670   6.811
 6641SOL    HW220823   2.018   1.831   6.831
 6642SOL     OW20824   2.937   5.043   6.503
 6642SOL    HW120825   2.858   5.008   6.452
 6642SOL    HW220826   3.010   5.068   6.439
 6643SOL     OW20827   6.142   5.657   0.299
 6643SOL    HW120828   6.098   5.575   0.263
 6643SOL    HW220829   6.167   5.718   0.224
 6644SOL     OW20830   2.455   4.933   2.024
 6644SOL    HW120831   2.484   4.850   2.071
 6644SOL    HW220832   2.355   4.942   2.030
 6645SOL     OW20833   6.637   5.582   0.413
 6645SOL    HW120834   6.566   5.632   0.364
 6645SOL    HW220835   6.725   5.627   0.400
 6646SOL     OW20836   3.761   0.133   5.010
 6646SOL    HW120837   3.713   0.130   4.923
 6646SOL    HW220838   3.846   0.186   5.000
 6647SOL     OW20839   4.390   0.836   2.126
 6647SOL    HW120840   4.364   0.932   2.138
 6647SOL    HW220841   4.429   0.824   2.035
 6648SOL     OW20842   4.179   6.904   2.735
 6648SOL    HW120843   4.081   6.917   2.748
 6648SOL    HW220844   4.206   6.816   2.775
 6649SOL     OW20845   5.353   0.692   6.926
 6649SOL    HW120846   5.419   0.658   6.859
 6649SOL    HW220847   5.321   0.616   6.983
 6650SOL     OW20848   2.990   1.593   5.110
 6650SOL    HW120849   2.941   1.600   5.197
 6650SOL    HW220850   2.985   1.499   5.077
 6651SOL     OW20851   2.495   1.681   5.564
 6651SOL    HW120852   2.479   1.758   5.503
 6651SOL    HW220853   2.411   1.626   5.571
 6652SOL     OW20854   0.266   4.694   0.877
 6652SOL    HW120855   0.275   4.596   0.893
 6652SOL    HW220856   0.354   4.738   0.894
 6653SOL     OW20857   3.252   2.939   2.946
 6653SOL    HW120858   3.261   2.985   3.035
 6653SOL    HW220859   3.184   2.987   2.890
 6654SOL     OW20860   1.851   3.922   1.535
 6654SOL    HW120861   1.915   3.918   1.612
 6654SOL    HW220862   1.765   3.963   1.565
 6655SOL     OW20863   1.391   6.858   2.977
 6655SOL    HW120864   1.482   6.900   2.978
 6655SOL    HW220865   1.333   6.903   2.909
 6656SOL     OW20866   6.169   1.880   3.086
 6656SOL    HW120867   6.212   1.956   3.038
 6656SOL    HW220868   6.070   1.882   3.070
 6657SOL     OW20869   5.940   6.330   6.272
 6657SOL    HW120870   5.977   6.361   6.359
 6657SOL    HW220871   6.010   6.277   6.223
 6658SOL     OW20872   6.763   0.913   5.395
 6658SOL    HW120873   6.667   0.883   5.394
 6658SOL    HW220874   6.781   0.964   5.479
 6659SOL     OW20875   2.299   2.211   0.382
 6659SOL    HW120876   2.213   2.259   0.362
 6659SOL    HW220877   2.279   2.115   0.400
 6660SOL     OW20878   0.764   5.478   0.940
 6660SOL    HW120879   0.769   5.388   0.983
 6660SOL    HW220880   0.691   5.479   0.872
 6661SOL     OW20881   0.874   6.634   5.017
 6661SOL    HW120882   0.859   6.543   4.977
 6661SOL    HW220883   0.815   6.701   4.971
 6662SOL     OW20884   1.092   1.439   0.128
 6662SOL    HW120885   1.157   1.416   0.056
 6662SOL    HW220886   1.067   1.356   0.179
 6663SOL     OW20887   6.983   5.228   4.269
 6663SOL    HW120888   0.029   5.195   4.203
 6663SOL    HW220889   6.942   5.313   4.236
 6664SOL     OW20890   2.688   5.890   6.863
 6664SOL    HW120891   2.622   5.818   6.885
 6664SOL    HW220892   2.768   5.849   6.820
 6665SOL     OW20893   1.670   6.303   3.980
 6665SOL    HW120894   1.739   6.266   3.918
 6665SOL    HW220895   1.591   6.242   3.981
 6666SOL     OW20896   5.844   6.689   5.566
 6666SOL    HW120897   5.746   6.674   5.550
 6666SOL    HW220898   5.872   6.639   5.648
 6667SOL     OW20899   6.591   6.066   6.571
 6667SOL    HW120900   6.561   6.081   6.477
 6667SOL    HW220901   6.519   6.018   6.622
 6668SOL     OW20902   6.837   5.410   1.500
 6668SOL    HW120903   6.916   5.352   1.518
 6668SOL    HW220904   6.850   5.500   1.541
 6669SOL     OW20905   1.593   2.960   3.596
 6669SOL    HW120906   1.677   3.014   3.587
 6669SOL    HW220907   1.567   2.956   3.692
 6670SOL     OW20908   3.731   2.173   5.273
 6670SOL    HW120909   3.679   2.258   5.280
 6670SOL    HW220910   3.813   2.189   5.218
 6671SOL     OW20911   6.346   5.690   0.689
 6671SOL    HW120912   6.321   5.770   0.634
 6671SOL    HW220913   6.442   5.667   0.673
 6672SOL     OW20914   6.257   1.775   6.352
 6672SOL    HW120915   6.233   1.862   6.395
 6672SOL    HW220916   6.251   1.784   6.253
 6673SOL     OW20917   5.614   5.829   4.004
 6673SOL    HW120918   5.634   5.792   3.913
 6673SOL    HW220919   5.585   5.924   3.995
 6674SOL     OW20920   0.781   5.107   6.171
 6674SOL    HW120921   0.726   5.165   6.231
 6674SOL    HW220922   0.737   5.100   6.082
 6675SOL     OW20923   4.668   3.607   1.680
 6675SOL    HW120924   4.570   3.587   1.679
 6675SOL    HW220925   4.708   3.577   1.594
 6676SOL     OW20926   6.970   3.850   5.961
 6676SOL    HW120927   7.007   3.779   5.901
 6676SOL    HW220928   6.871   3.857   5.946
 6677SOL     OW20929   1.308   1.778   6.792
 6677SOL    HW120930   1.272   1.767   6.699
 6677SOL    HW220931   1.367   1.701   6.814
 6678SOL     OW20932   3.145   3.266   6.651
 6678SOL    HW120933   3.196   3.222   6.725
 6678SOL    HW220934   3.197   3.259   6.565
 6679SOL     OW20935   2.133   1.492   4.157
 6679SOL    HW120936   2.081   1.410   4.132
 6679SOL    HW220937   2.219   1.493   4.107
 6680SOL     OW20938   4.563   7.010   6.613
 6680SOL    HW120939   4.606   0.037   6.688
 6680SOL    HW220940   4.587   0.030   6.526
 6681SOL     OW20941   4.318   5.666   1.211
 6681SOL    HW120942   4.229   5.706   1.191
 6681SOL    HW220943   4.387   5.705   1.150
 6682SOL     OW20944   1.031   4.231   3.112
 6682SOL    HW120945   1.031   4.191   3.021
 6682SOL    HW220946   1.125   4.248   3.142
 6683SOL     OW20947   5.856   2.976   5.414
 6683SOL    HW120948   5.921   2.902   5.432
 6683SOL    HW220949   5.868   3.010   5.321
 6684SOL     OW20950   2.675   6.885   1.808
 6684SOL    HW120951   2.672   6.853   1.713
 6684SOL    HW220952   2.770   6.883   1.840
 6685SOL     OW20953   6.260   3.564   5.828
 6685SOL    HW120954   6.245   3.591   5.733
 6685SOL    HW220955   6.312   3.479   5.831
 6686SOL     OW20956   5.272   6.016   4.331
 6686SOL    HW120957   5.226   6.104   4.337
 6686SOL    HW220958   5.346   6.021   4.264
 6687SOL     OW20959   1.048   3.274   6.925
 6687SOL    HW120960   1.119   3.255   6.856
 6687SOL    HW220961   1.091   3.280   7.015
 6688SOL     OW20962   0.286   4.496   1.926
 6688SOL    HW120963   0.217   4.564   1.948
 6688SOL    HW220964   0.275   4.416   1.985
 6689SOL     OW20965   4.641   2.660   0.172
 6689SOL    HW120966   4.715   2.605   0.133
 6689SOL    HW220967   4.603   2.614   0.252
 6690SOL     OW20968   2.292   0.748   0.909
 6690SOL    HW120969   2.352   0.710   0.980
 6690SOL    HW220970   2.310   0.702   0.822
 6691SOL     OW20971   2.725   6.068   1.510
 6691SOL    HW120972   2.630   6.072   1.477
 6691SOL    HW220973   2.741   5.980   1.554
 6692SOL     OW20974   3.774   4.105   5.261
 6692SOL    HW120975   3.826   4.059   5.189
 6692SOL    HW220976   3.703   4.162   5.220
 6693SOL     OW20977   4.303   3.834   5.582
 6693SOL    HW120978   4.324   3.892   5.660
 6693SOL    HW220979   4.236   3.764   5.610
 6694SOL     OW20980   4.564   5.605   0.752
 6694SOL    HW120981   4.631   5.580   0.821
 6694SOL    HW220982   4.609   5.650   0.676
 6695SOL     OW20983   3.360   1.580   6.869
 6695SOL    HW120984   3.389   1.488   6.896
 6695SOL    HW220985   3.295   1.615   6.936
 6696SOL     OW20986   1.531   2.990   5.658
 6696SOL    HW120987   1.476   2.918   5.700
 6696SOL    HW220988   1.553   2.963   5.564
 6697SOL     OW20989   4.538   2.195   2.255
 6697SOL    HW120990   4.592   2.131   2.200
 6697SOL    HW220991   4.448   2.208   2.214
 6698SOL     OW20992   3.003   2.584   1.288
 6698SOL    HW120993   2.939   2.547   1.356
 6698SOL    HW220994   2.952   2.610   1.206
 6699SOL     OW20995   2.876   5.232   6.192
 6699SOL    HW120996   2.966   5.191   6.184
 6699SOL    HW220997   2.810   5.163   6.223
 6700SOL     OW20998   0.046   6.948   0.704
 6700SOL    HW120999   0.140   6.920   0.688
 6700SOL    HW221000   0.010   6.992   0.621
 6701SOL     OW21001   5.714   2.594   1.480
 6701SOL    HW121002   5.620   2.561   1.491
 6701SOL    HW221003   5.736   2.600   1.383
 6702SOL     OW21004   2.915   1.800   1.541
 6702SOL    HW121005   2.878   1.776   1.451
 6702SOL    HW221006   2.847   1.852   1.592
 6703SOL     OW21007   6.410   2.154   6.581
 6703SOL    HW121008   6.384   2.237   6.531
 6703SOL    HW221009   6.475   2.178   6.653
 6704SOL     OW21010   3.615   2.167   3.218
 6704SOL    HW121011   3.640   2.129   3.307
 6704SOL    HW221012   3.644   2.263   3.214
 6705SOL     OW21013   6.491   2.464   1.129
 6705SOL    HW121014   6.525   2.376   1.095
 6705SOL    HW221015   6.528   2.538   1.073
 6706SOL     OW21016   1.081   4.001   1.821
 6706SOL    HW121017   1.153   3.977   1.887
 6706SOL    HW221018   1.061   3.922   1.764
 6707SOL     OW21019   6.620   6.293   3.593
 6707SOL    HW121020   6.689   6.226   3.620
 6707SOL    HW221021   6.566   6.320   3.673
 6708SOL     OW21022   0.005   5.342   2.065
 6708SOL    HW121023   6.960   5.338   1.992
 6708SOL    HW221024   7.016   5.264   2.126
 6709SOL     OW21025   3.003   6.960   2.608
 6709SOL    HW121026   3.016   6.879   2.551
 6709SOL    HW221027   2.926   7.014   2.573
 6710SOL     OW21028   3.352   1.165   6.016
 6710SOL    HW121029   3.351   1.119   6.105
 6710SOL    HW221030   3.260   1.197   5.994
 6711SOL     OW21031   5.189   5.373   6.544
 6711SOL    HW121032   5.124   5.313   6.590
 6711SOL    HW221033   5.142   5.455   6.511
 6712SOL     OW21034   4.982   4.679   0.151
 6712SOL    HW121035   5.012   4.631   0.068
 6712SOL    HW221036   4.977   4.777   0.133
 6713SOL     OW21037   2.125   0.899   2.736
 6713SOL    HW121038   2.171   0.832   2.677
 6713SOL    HW221039   2.067   0.959   2.680
 6714SOL     OW21040   6.380   1.130   6.251
 6714SOL    HW121041   6.347   1.124   6.346
 6714SOL    HW221042   6.442   1.207   6.242
 6715SOL     OW21043   6.640   6.856   6.227
 6715SOL    HW121044   6.589   6.942   6.230
 6715SOL    HW221045   6.692   6.845   6.312
 6716SOL     OW21046   0.202   5.979   1.531
 6716SOL    HW121047   0.209   5.958   1.629
 6716SOL    HW221048   0.197   6.078   1.518
 6717SOL     OW21049   4.177   2.668   6.725
 6717SOL    HW121050   4.083   2.637   6.740
 6717SOL    HW221051   4.186   2.704   6.632
 6718SOL     OW21052   4.843   0.308   6.488
 6718SOL    HW121053   4.877   0.237   6.549
 6718SOL    HW221054   4.749   0.286   6.460
 6719SOL     OW21055   1.843   0.212   6.771
 6719SOL    HW121056   1.773   0.209   6.700
 6719SOL    HW221057   1.907   0.137   6.758
 6720SOL     OW21058   0.782   6.357   3.762
 6720SOL    HW121059   0.688   6.387   3.746
 6720SOL    HW221060   0.819   6.318   3.678
 6721SOL     OW21061   6.709   0.229   6.146
 6721SOL    HW121062   6.793   0.284   6.144
 6721SOL    HW221063   6.698   0.182   6.059
 6722SOL     OW21064   6.936   3.222   1.309
 6722SOL    HW121065   6.915   3.218   1.407
 6722SOL    HW221066   6.878   3.290   1.265
 6723SOL     OW21067   2.351   6.678   3.239
 6723SOL    HW121068   2.381   6.593   3.195
 6723SOL    HW221069   2.384   6.756   3.187
 6724SOL     OW21070   1.319   3.554   5.867
 6724SOL    HW121071   1.372   3.518   5.791
 6724SOL    HW221072   1.267   3.480   5.909
 6725SOL     OW21073   1.057   3.813   1.242
 6725SOL    HW121074   0.983   3.863   1.288
 6725SOL    HW221075   1.121   3.778   1.309
 6726SOL     OW21076   0.720   1.721   5.173
 6726SOL    HW121077   0.645   1.701   5.110
 6726SOL    HW221078   0.687   1.780   5.247
 6727SOL     OW21079   6.154   3.872   5.724
 6727SOL    HW121080   6.251   3.851   5.731
 6727SOL    HW221081   6.114   3.818   5.650
 6728SOL     OW21082   4.382   1.705   3.404
 6728SOL    HW121083   4.383   1.606   3.389
 6728SOL    HW221084   4.428   1.750   3.328
 6729SOL     OW21085   0.503   1.476   2.349
 6729SOL    HW121086   0.436   1.472   2.275
 6729SOL    HW221087   0.470   1.540   2.419
 6730SOL     OW21088   2.768   6.059   6.542
 6730SOL    HW121089   2.784   5.981   6.603
 6730SOL    HW221090   2.836   6.130   6.562
 6731SOL     OW21091   0.965   6.143   1.318
 6731SOL    HW121092   0.869   6.120   1.333
 6731SOL    HW221093   1.023   6.068   1.350
 6732SOL     OW21094   5.280   4.667   5.932
 6732SOL    HW121095   5.325   4.697   5.848
 6732SOL    HW221096   5.344   4.609   5.984
 6733SOL     OW21097   4.097   4.375   0.244
 6733SOL    HW121098   4.056   4.381   0.152
 6733SOL    HW221099   4.024   4.369   0.312
 6734SOL     OW21100   6.384   2.137   4.922
 6734SOL    HW121101   6.316   2.066   4.936
 6734SOL    HW221102   6.417   2.169   5.011
 6735SOL     OW21103   6.932   4.574   4.510
 6735SOL    HW121104   6.980   4.603   4.594
 6735SOL    HW221105   6.835   4.560   4.530
 6736SOL     OW21106   3.299   3.603   6.801
 6736SOL    HW121107   3.211   3.573   6.837
 6736SOL    HW221108   3.308   3.577   6.705
 6737SOL     OW21109   2.149   2.611   0.656
 6737SOL    HW121110   2.098   2.529   0.683
 6737SOL    HW221111   2.116   2.643   0.568
 6738SOL     OW21112   1.733   4.599   2.545
 6738SOL    HW121113   1.807   4.539   2.576
 6738SOL    HW221114   1.649   4.576   2.593
 6739SOL     OW21115   3.905   5.114   5.680
 6739SOL    HW121116   3.990   5.063   5.693
 6739SOL    HW221117   3.858   5.080   5.599
 6740SOL     OW21118   1.703   1.326   3.979
 6740SOL    HW121119   1.701   1.393   4.054
 6740SOL    HW221120   1.706   1.374   3.891
 6741SOL     OW21121   4.426   0.937   5.670
 6741SOL    HW121122   4.374   0.906   5.591
 6741SOL    HW221123   4.364   0.981   5.735
 6742SOL     OW21124   6.671   6.009   2.923
 6742SOL    HW121125   6.726   6.062   2.988
 6742SOL    HW221126   6.677   5.912   2.945
 6743SOL     OW21127   4.515   4.383   0.341
 6743SOL    HW121128   4.436   4.429   0.382
 6743SOL    HW221129   4.531   4.419   0.249
 6744SOL     OW21130   5.046   5.631   6.028
 6744SOL    HW121131   5.119   5.598   5.968
 6744SOL    HW221132   5.086   5.666   6.113
 6745SOL     OW21133   0.274   0.143   2.607
 6745SOL    HW121134   0.205   0.119   2.675
 6745SOL    HW221135   0.230   0.172   2.523
 6746SOL     OW21136   1.131   1.332   2.962
 6746SOL    HW121137   1.046   1.372   2.928
 6746SOL    HW221138   1.129   1.327   3.061
 6747SOL     OW21139   5.448   0.627   5.317
 6747SOL    HW121140   5.496   0.676   5.390
 6747SOL    HW221141   5.438   0.687   5.238
 6748SOL     OW21142   1.159   0.411   3.338
 6748SOL    HW121143   1.219   0.489   3.357
 6748SOL    HW221144   1.088   0.438   3.273
 6749SOL     OW21145   2.820   5.787   0.341
 6749SOL    HW121146   2.864   5.703   0.309
 6749SOL    HW221147   2.773   5.769   0.428
 6750SOL     OW21148   4.270   1.717   5.119
 6750SOL    HW121149   4.212   1.797   5.133
 6750SOL    HW221150   4.345   1.718   5.185
 6751SOL     OW21151   4.278   1.054   3.528
 6751SOL    HW121152   4.191   1.025   3.488
 6751SOL    HW221153   4.262   1.103   3.613
 6752SOL     OW21154   0.487   2.947   2.809
 6752SOL    HW121155   0.425   2.870   2.793
 6752SOL    HW221156   0.440   3.019   2.859
 6753SOL     OW21157   4.345   0.778   6.343
 6753SOL    HW121158   4.303   0.838   6.275
 6753SOL    HW221159   4.280   0.707   6.370
 6754SOL     OW21160   6.795   1.642   0.215
 6754SOL    HW121161   6.786   1.543   0.210
 6754SOL    HW221162   6.852   1.674   0.139
 6755SOL     OW21163   4.587   1.080   3.309
 6755SOL    HW121164   4.651   1.066   3.385
 6755SOL    HW221165   4.520   1.150   3.335
 6756SOL     OW21166   4.045   4.858   4.946
 6756SOL    HW121167   4.014   4.950   4.967
 6756SOL    HW221168   4.050   4.804   5.030
 6757SOL     OW21169   4.255   0.474   1.303
 6757SOL    HW121170   4.240   0.382   1.339
 6757SOL    HW221171   4.321   0.523   1.360
 6758SOL     OW21172   6.915   2.885   0.689
 6758SOL    HW121173   6.949   2.895   0.782
 6758SOL    HW221174   6.965   2.811   0.643
 6759SOL     OW21175   1.009   4.277   4.609
 6759SOL    HW121176   0.959   4.207   4.558
 6759SOL    HW221177   0.971   4.367   4.588
 6760SOL     OW21178   6.762   4.810   3.768
 6760SOL    HW121179   6.694   4.882   3.756
 6760SOL    HW221180   6.829   4.839   3.837
 6761SOL     OW21181   5.702   2.391   6.182
 6761SOL    HW121182   5.703   2.360   6.278
 6761SOL    HW221183   5.762   2.470   6.172
 6762SOL     OW21184   7.014   5.661   3.303
 6762SOL    HW121185   0.014   5.563   3.302
 6762SOL    HW221186   6.992   5.691   3.211
 6763SOL     OW21187   0.023   5.155   3.741
 6763SOL    HW121188   6.971   5.089   3.755
 6763SOL    HW221189   0.109   5.105   3.729
 6764SOL     OW21190   2.489   4.738   6.762
 6764SOL    HW121191   2.447   4.659   6.718
 6764SOL    HW221192   2.588   4.725   6.768
 6765SOL     OW21193   4.940   5.029   4.187
 6765SOL    HW121194   5.039   5.013   4.188
 6765SOL    HW221195   4.922   5.126   4.200
 6766SOL     OW21196   4.515   6.160   6.434
 6766SOL    HW121197   4.455   6.240   6.430
 6766SOL    HW221198   4.538   6.131   6.341
 6767SOL     OW21199   0.668   2.275   0.614
 6767SOL    HW121200   0.717   2.192   0.586
 6767SOL    HW221201   0.733   2.345   0.641
 6768SOL     OW21202   0.071   6.613   3.343
 6768SOL    HW121203   0.017   6.557   3.406
 6768SOL    HW221204   0.022   6.623   3.257
 6769SOL     OW21205   2.834   0.521   5.356
 6769SOL    HW121206   2.867   0.471   5.276
 6769SOL    HW221207   2.877   0.485   5.438
 6770SOL     OW21208   6.428   2.194   3.319
 6770SOL    HW121209   6.340   2.227   3.355
 6770SOL    HW221210   6.502   2.249   3.356
 6771SOL     OW21211   3.326   0.985   2.658
 6771SOL    HW121212   3.360   0.891   2.658
 6771SOL    HW221213   3.402   1.048   2.649
 6772SOL     OW21214   5.142   2.571   2.381
 6772SOL    HW121215   5.192   2.485   2.381
 6772SOL    HW221216   5.050   2.556   2.416
 6773SOL     OW21217   6.803   6.503   1.635
 6773SOL    HW121218   6.889   6.553   1.632
 6773SOL    HW221219   6.728   6.567   1.650
 6774SOL     OW21220   2.118   2.523   4.596
 6774SOL    HW121221   2.197   2.530   4.535
 6774SOL    HW221222   2.113   2.604   4.653
 6775SOL     OW21223   0.745   1.981   3.827
 6775SOL    HW121224   0.766   2.004   3.732
 6775SOL    HW221225   0.746   2.065   3.882
 6776SOL     OW21226   3.741   3.514   1.137
 6776SOL    HW121227   3.722   3.590   1.074
 6776SOL    HW221228   3.733   3.547   1.231
 6777SOL     OW21229   4.453   5.995   0.665
 6777SOL    HW121230   4.358   6.025   0.659
 6777SOL    HW221231   4.491   5.987   0.572
 6778SOL     OW21232   6.396   3.708   2.477
 6778SOL    HW121233   6.368   3.804   2.481
 6778SOL    HW221234   6.489   3.699   2.514
 6779SOL     OW21235   5.493   4.757   6.649
 6779SOL    HW121236   5.412   4.814   6.632
 6779SOL    HW221237   5.552   4.802   6.716
 6780SOL     OW21238   1.328   3.727   2.556
 6780SOL    HW121239   1.396   3.800   2.567
 6780SOL    HW221240   1.334   3.690   2.463
 6781SOL     OW21241   6.624   1.918   4.000
 6781SOL    HW121242   6.568   1.858   3.943
 6781SOL    HW221243   6.569   1.995   4.032
 6782SOL     OW21244   0.617   1.250   3.021
 6782SOL    HW121245   0.528   1.274   2.982
 6782SOL    HW221246   0.661   1.333   3.056
 6783SOL     OW21247   0.612   3.672   5.574
 6783SOL    HW121248   0.672   3.656   5.653
 6783SOL    HW221249   0.532   3.613   5.581
 6784SOL     OW21250   2.155   4.443   1.292
 6784SOL    HW121251   2.230   4.376   1.296
 6784SOL    HW221252   2.103   4.440   1.377
 6785SOL     OW21253   5.828   5.216   5.732
 6785SOL    HW121254   5.749   5.211   5.793
 6785SOL    HW221255   5.813   5.155   5.654
 6786SOL     OW21256   0.296   3.377   6.573
 6786SOL    HW121257   0.255   3.287   6.563
 6786SOL    HW221258   0.293   3.405   6.669
 6787SOL     OW21259   3.290   1.982   1.315
 6787SOL    HW121260   3.323   2.071   1.345
 6787SOL    HW221261   3.191   1.977   1.327
 6788SOL     OW21262   0.508   3.894   2.180
 6788SOL    HW121263   0.486   3.952   2.102
 6788SOL    HW221264   0.500   3.946   2.265
 6789SOL     OW21265   0.090   4.661   4.039
 6789SOL    HW121266   0.019   4.688   4.105
 6789SOL    HW221267   0.129   4.743   3.997
 6790SOL     OW21268   0.080   4.266   6.829
 6790SOL    HW121269   0.037   4.297   6.913
 6790SOL    HW221270   0.015   4.212   6.776
 6791SOL     OW21271   4.496   2.011   2.770
 6791SOL    HW121272   4.436   1.958   2.710
 6791SOL    HW221273   4.461   2.007   2.864
 6792SOL     OW21274   4.514   0.189   5.035
 6792SOL    HW121275   4.433   0.245   5.052
 6792SOL    HW221276   4.557   0.167   5.122
 6793SOL     OW21277   3.026   1.239   6.882
 6793SOL    HW121278   3.029   1.243   6.982
 6793SOL    HW221279   3.020   1.332   6.845
 6794SOL     OW21280   4.705   1.030   5.277
 6794SOL    HW121281   4.729   1.116   5.232
 6794SOL    HW221282   4.773   1.007   5.346
 6795SOL     OW21283   0.927   0.021   0.404
 6795SOL    HW121284   0.846   0.053   0.354
 6795SOL    HW221285   0.987   6.994   0.342
 6796SOL     OW21286   5.688   0.418   2.678
 6796SOL    HW121287   5.695   0.395   2.775
 6796SOL    HW221288   5.777   0.451   2.645
 6797SOL     OW21289   6.386   1.259   0.447
 6797SOL    HW121290   6.427   1.170   0.427
 6797SOL    HW221291   6.457   1.324   0.475
 6798SOL     OW21292   6.379   0.658   0.945
 6798SOL    HW121293   6.413   0.579   0.895
 6798SOL    HW221294   6.456   0.716   0.973
 6799SOL     OW21295   5.502   0.169   2.427
 6799SOL    HW121296   5.504   0.092   2.490
 6799SOL    HW221297   5.485   0.254   2.477
 6800SOL     OW21298   2.402   2.264   1.747
 6800SOL    HW121299   2.337   2.340   1.744
 6800SOL    HW221300   2.481   2.290   1.803
 6801SOL     OW21301   0.456   6.350   3.925
 6801SOL    HW121302   0.494   6.270   3.877
 6801SOL    HW221303   0.432   6.420   3.859
 6802SOL     OW21304   3.721   5.567   0.923
 6802SOL    HW121305   3.719   5.666   0.917
 6802SOL    HW221306   3.814   5.537   0.946
 6803SOL     OW21307   4.472   3.930   0.006
 6803SOL    HW121308   4.385   3.933   6.979
 6803SOL    HW221309   4.544   3.897   6.967
 6804SOL     OW21310   3.351   5.042   2.599
 6804SOL    HW121311   3.445   5.016   2.616
 6804SOL    HW221312   3.333   5.133   2.636
 6805SOL     OW21313   0.622   5.148   6.854
 6805SOL    HW121314   0.711   5.101   6.850
 6805SOL    HW221315   0.612   5.206   6.773
 6806SOL     OW21316   6.877   0.663   4.005
 6806SOL    HW121317   6.934   0.734   3.965
 6806SOL    HW221318   6.885   0.665   4.105
 6807SOL     OW21319   3.591   4.165   3.389
 6807SOL    HW121320   3.604   4.133   3.483
 6807SOL    HW221321   3.537   4.249   3.389
 6808SOL     OW21322   5.801   1.066   5.102
 6808SOL    HW121323   5.854   1.006   5.163
 6808SOL    HW221324   5.862   1.108   5.035
 6809SOL     OW21325   6.089   3.790   0.539
 6809SOL    HW121326   6.070   3.794   0.441
 6809SOL    HW221327   6.007   3.815   0.590
 6810SOL     OW21328   3.238   0.916   2.934
 6810SOL    HW121329   3.255   0.949   2.841
 6810SOL    HW221330   3.150   0.952   2.966
 6811SOL     OW21331   6.673   3.119   2.384
 6811SOL    HW121332   6.575   3.101   2.393
 6811SOL    HW221333   6.720   3.035   2.356
 6812SOL     OW21334   3.347   3.835   5.053
 6812SOL    HW121335   3.303   3.879   5.132
 6812SOL    HW221336   3.444   3.859   5.052
 6813SOL     OW21337   5.525   3.320   2.323
 6813SOL    HW121338   5.501   3.345   2.417
 6813SOL    HW221339   5.623   3.303   2.317
 6814SOL     OW21340   4.823   1.689   6.647
 6814SOL    HW121341   4.780   1.756   6.586
 6814SOL    HW221342   4.759   1.615   6.666
 6815SOL     OW21343   2.185   5.930   6.797
 6815SOL    HW121344   2.204   5.835   6.821
 6815SOL    HW221345   2.131   5.932   6.713
 6816SOL     OW21346   6.938   1.601   4.881
 6816SOL    HW121347   7.005   1.600   4.807
 6816SOL    HW221348   6.960   1.528   4.947
 6817SOL     OW21349   2.382   2.717   3.876
 6817SOL    HW121350   2.423   2.806   3.895
 6817SOL    HW221351   2.320   2.724   3.798
 6818SOL     OW21352   2.255   6.351   0.336
 6818SOL    HW121353   2.349   6.316   0.344
 6818SOL    HW221354   2.247   6.402   0.250
 6819SOL     OW21355   4.676   1.009   2.644
 6819SOL    HW121356   4.718   0.971   2.726
 6819SOL    HW221357   4.598   0.953   2.617
 6820SOL     OW21358   1.294   5.666   1.492
 6820SOL    HW121359   1.346   5.750   1.472
 6820SOL    HW221360   1.238   5.642   1.413
 6821SOL     OW21361   4.760   3.012   5.767
 6821SOL    HW121362   4.779   3.046   5.859
 6821SOL    HW221363   4.676   2.958   5.769
 6822SOL     OW21364   6.500   2.774   6.435
 6822SOL    HW121365   6.443   2.752   6.355
 6822SOL    HW221366   6.541   2.690   6.470
 6823SOL     OW21367   5.481   4.350   6.930
 6823SOL    HW121368   5.402   4.298   6.962
 6823SOL    HW221369   5.529   4.389   7.009
 6824SOL     OW21370   1.809   1.464   0.490
 6824SOL    HW121371   1.823   1.390   0.424
 6824SOL    HW221372   1.843   1.436   0.579
 6825SOL     OW21373   6.341   0.045   0.292
 6825SOL    HW121374   6.266   0.094   0.246
 6825SOL    HW221375   6.406   0.111   0.328
 6826SOL     OW21376   1.293   3.908   3.883
 6826SOL    HW121377   1.364   3.843   3.909
 6826SOL    HW221378   1.231   3.865   3.817
 6827SOL     OW21379   5.254   5.552   5.877
 6827SOL    HW121380   5.296   5.541   5.787
 6827SOL    HW221381   5.281   5.476   5.936
 6828SOL     OW21382   4.019   1.219   2.628
 6828SOL    HW121383   3.966   1.259   2.703
 6828SOL    HW221384   3.971   1.140   2.591
 6829SOL     OW21385   5.307   6.624   5.609
 6829SOL    HW121386   5.290   6.606   5.706
 6829SOL    HW221387   5.401   6.653   5.596
 6830SOL     OW21388   5.821   0.996   3.392
 6830SOL    HW121389   5.899   0.999   3.454
 6830SOL    HW221390   5.755   0.928   3.423
 6831SOL     OW21391   1.626   0.673   5.652
 6831SOL    HW121392   1.581   0.756   5.684
 6831SOL    HW221393   1.685   0.695   5.574
 6832SOL     OW21394   2.322   3.876   0.600
 6832SOL    HW121395   2.230   3.859   0.635
 6832SOL    HW221396   2.341   3.812   0.525
 6833SOL     OW21397   2.729   5.012   6.291
 6833SOL    HW121398   2.689   4.973   6.208
 6833SOL    HW221399   2.694   4.964   6.371
 6834SOL     OW21400   5.634   0.351   1.148
 6834SOL    HW121401   5.580   0.267   1.161
 6834SOL    HW221402   5.575   0.425   1.117
 6835SOL     OW21403   3.596   1.293   4.657
 6835SOL    HW121404   3.650   1.319   4.577
 6835SOL    HW221405   3.627   1.345   4.737
 6836SOL     OW21406   1.912   4.396   6.329
 6836SOL    HW121407   1.821   4.402   6.371
 6836SOL    HW221408   1.980   4.375   6.398
 6837SOL     OW21409   0.858   1.437   2.854
 6837SOL    HW121410   0.818   1.390   2.776
 6837SOL    HW221411   0.913   1.514   2.822
 6838SOL     OW21412   2.334   4.218   5.809
 6838SOL    HW121413   2.391   4.298   5.826
 6838SOL    HW221414   2.390   4.145   5.771
 6839SOL     OW21415   5.553   1.589   4.100
 6839SOL    HW121416   5.595   1.588   4.009
 6839SOL    HW221417   5.602   1.654   4.158
 6840SOL     OW21418   2.850   6.258   5.499
 6840SOL    HW121419   2.931   6.244   5.556
 6840SOL    HW221420   2.816   6.169   5.467
 6841SOL     OW21421   3.968   4.888   0.908
 6841SOL    HW121422   4.021   4.971   0.924
 6841SOL    HW221423   3.948   4.844   0.996
 6842SOL     OW21424   2.135   2.817   0.026
 6842SOL    HW121425   2.121   2.794   6.952
 6842SOL    HW221426   2.173   2.738   0.074
 6843SOL     OW21427   5.113   0.929   2.251
 6843SOL    HW121428   5.176   0.949   2.326
 6843SOL    HW221429   5.041   0.868   2.283
 6844SOL     OW21430   5.783   6.099   4.004
 6844SOL    HW121431   5.703   6.159   4.011
 6844SOL    HW221432   5.829   6.096   4.093
 6845SOL     OW21433   5.050   4.586   2.440
 6845SOL    HW121434   5.106   4.669   2.444
 6845SOL    HW221435   5.091   4.522   2.374
 6846SOL     OW21436   4.205   3.491   1.494
 6846SOL    HW121437   4.190   3.586   1.468
 6846SOL    HW221438   4.199   3.433   1.413
 6847SOL     OW21439   6.637   3.639   1.763
 6847SOL    HW121440   6.561   3.666   1.702
 6847SOL    HW221441   6.607   3.645   1.858
 6848SOL     OW21442   2.764   6.145   3.264
 6848SOL    HW121443   2.713   6.146   3.177
 6848SOL    HW221444   2.856   6.110   3.247
 6849SOL     OW21445   2.421   5.724   4.769
 6849SOL    HW121446   2.504   5.727   4.714
 6849SOL    HW221447   2.444   5.739   4.866
 6850SOL     OW21448   5.156   3.347   2.427
 6850SOL    HW121449   5.249   3.332   2.462
 6850SOL    HW221450   5.116   3.259   2.401
 6851SOL     OW21451   1.440   2.671   4.347
 6851SOL    HW121452   1.459   2.651   4.251
 6851SOL    HW221453   1.419   2.768   4.358
 6852SOL     OW21454   1.183   4.537   0.982
 6852SOL    HW121455   1.249   4.470   1.016
 6852SOL    HW221456   1.232   4.608   0.931
 6853SOL     OW21457   6.675   3.441   6.544
 6853SOL    HW121458   6.679   3.533   6.582
 6853SOL    HW221459   6.601   3.390   6.587
 6854SOL     OW21460   5.635   1.481   5.629
 6854SOL    HW121461   5.675   1.421   5.699
 6854SOL    HW221462   5.605   1.566   5.672
 6855SOL     OW21463   3.649   5.689   2.698
 6855SOL    HW121464   3.702   5.760   2.652
 6855SOL    HW221465   3.556   5.722   2.714
 6856SOL     OW21466   4.909   4.345   5.499
 6856SOL    HW121467   4.949   4.295   5.576
 6856SOL    HW221468   4.933   4.300   5.413
 6857SOL     OW21469   3.996   1.832   6.912
 6857SOL    HW121470   4.054   1.752   6.896
 6857SOL    HW221471   3.901   1.804   6.920
 6858SOL     OW21472   4.105   3.774   4.836
 6858SOL    HW121473   4.121   3.741   4.929
 6858SOL    HW221474   4.147   3.711   4.771
 6859SOL     OW21475   1.506   6.752   1.376
 6859SOL    HW121476   1.563   6.671   1.389
 6859SOL    HW221477   1.528   6.794   1.288
 6860SOL     OW21478   5.422   5.543   1.798
 6860SOL    HW121479   5.345   5.554   1.860
 6860SOL    HW221480   5.447   5.632   1.759
 6861SOL     OW21481   5.826   4.557   1.378
 6861SOL    HW121482   5.791   4.467   1.351
 6861SOL    HW221483   5.918   4.569   1.340
 6862SOL     OW21484   2.198   4.671   4.336
 6862SOL    HW121485   2.221   4.574   4.345
 6862SOL    HW221486   2.254   4.725   4.399
 6863SOL     OW21487   5.461   1.518   4.408
 6863SOL    HW121488   5.513   1.596   4.443
 6863SOL    HW221489   5.464   1.518   4.308
 6864SOL     OW21490   3.479   6.247   3.859
 6864SOL    HW121491   3.565   6.236   3.908
 6864SOL    HW221492   3.424   6.163   3.867
 6865SOL     OW21493   6.244   5.505   2.585
 6865SOL    HW121494   6.148   5.517   2.612
 6865SOL    HW221495   6.254   5.420   2.534
 6866SOL     OW21496   6.379   4.411   2.070
 6866SOL    HW121497   6.383   4.435   2.167
 6866SOL    HW221498   6.383   4.312   2.059
 6867SOL     OW21499   1.392   4.441   1.531
 6867SOL    HW121500   1.335   4.490   1.596
 6867SOL    HW221501   1.335   4.384   1.472
 6868SOL     OW21502   1.903   5.375   5.391
 6868SOL    HW121503   1.985   5.324   5.367
 6868SOL    HW221504   1.901   5.461   5.340
 6869SOL     OW21505   5.661   2.400   5.209
 6869SOL    HW121506   5.739   2.433   5.260
 6869SOL    HW221507   5.683   2.312   5.167
 6870SOL     OW21508   6.842   4.495   2.507
 6870SOL    HW121509   6.934   4.472   2.477
 6870SOL    HW221510   6.800   4.558   2.441
 6871SOL     OW21511   6.109   5.178   2.172
 6871SOL    HW121512   6.070   5.086   2.161
 6871SOL    HW221513   6.073   5.220   2.256
 6872SOL     OW21514   1.185   3.522   0.546
 6872SOL    HW121515   1.169   3.523   0.447
 6872SOL    HW221516   1.256   3.589   0.568
 6873SOL     OW21517   6.142   3.724   4.933
 6873SOL    HW121518   6.241   3.715   4.945
 6873SOL    HW221519   6.120   3.721   4.835
 6874SOL     OW21520   1.078   4.869   3.069
 6874SOL    HW121521   1.135   4.811   3.010
 6874SOL    HW221522   1.013   4.919   3.013
 6875SOL     OW21523   1.079   2.972   3.738
 6875SOL    HW121524   1.092   3.024   3.654
 6875SOL    HW221525   0.989   2.929   3.737
 6876SOL     OW21526   3.985   5.738   5.400
 6876SOL    HW121527   4.011   5.747   5.303
 6876SOL    HW221528   3.904   5.680   5.407
 6877SOL     OW21529   2.559   4.284   6.118
 6877SOL    HW121530   2.505   4.324   6.045
 6877SOL    HW221531   2.501   4.268   6.198
 6878SOL     OW21532   2.675   2.584   5.184
 6878SOL    HW121533   2.633   2.497   5.207
 6878SOL    HW221534   2.709   2.581   5.089
 6879SOL     OW21535   0.922   2.066   0.207
 6879SOL    HW121536   0.963   1.981   0.238
 6879SOL    HW221537   0.831   2.048   0.169
 6880SOL     OW21538   2.027   3.410   5.022
 6880SOL    HW121539   2.071   3.326   5.052
 6880SOL    HW221540   2.092   3.466   4.971
 6881SOL     OW21541   0.216   3.552   1.938
 6881SOL    HW121542   0.261   3.600   2.014
 6881SOL    HW221543   0.278   3.546   1.861
 6882SOL     OW21544   3.080   0.464   5.547
 6882SOL    HW121545   3.149   0.534   5.566
 6882SOL    HW221546   3.117   0.397   5.482
 6883SOL     OW21547   3.774   1.214   0.771
 6883SOL    HW121548   3.868   1.235   0.800
 6883SOL    HW221549   3.776   1.178   0.678
 6884SOL     OW21550   1.675   3.338   4.717
 6884SOL    HW121551   1.591   3.306   4.673
 6884SOL    HW221552   1.681   3.437   4.709
 6885SOL     OW21553   4.087   5.561   5.131
 6885SOL    HW121554   4.145   5.555   5.212
 6885SOL    HW221555   4.110   5.488   5.068
 6886SOL     OW21556   6.905   0.735   3.483
 6886SOL    HW121557   6.908   0.703   3.578
 6886SOL    HW221558   6.810   0.751   3.457
 6887SOL     OW21559   5.007   6.978   5.841
 6887SOL    HW121560   5.010   6.896   5.784
 6887SOL    HW221561   4.936   0.018   5.807
 6888SOL     OW21562   5.452   6.786   6.562
 6888SOL    HW121563   5.419   6.719   6.629
 6888SOL    HW221564   5.444   6.748   6.470
 6889SOL     OW21565   1.548   2.274   5.747
 6889SOL    HW121566   1.545   2.184   5.704
 6889SOL    HW221567   1.641   2.311   5.740
 6890SOL     OW21568   3.481   6.539   1.690
 6890SOL    HW121569   3.521   6.560   1.780
 6890SOL    HW221570   3.490   6.441   1.672
 6891SOL     OW21571   2.230   4.122   4.292
 6891SOL    HW121572   2.226   4.034   4.245
 6891SOL    HW221573   2.156   4.129   4.359
 6892SOL     OW21574   3.322   1.005   3.246
 6892SOL    HW121575   3.358   1.081   3.298
 6892SOL    HW221576   3.289   1.037   3.157
 6893SOL     OW21577   5.633   5.721   0.646
 6893SOL    HW121578   5.598   5.814   0.646
 6893SOL    HW221579   5.620   5.680   0.556
 6894SOL     OW21580   6.422   5.602   6.718
 6894SOL    HW121581   6.393   5.515   6.757
 6894SOL    HW221582   6.444   5.666   6.792
 6895SOL     OW21583   3.063   5.331   6.404
 6895SOL    HW121584   2.987   5.348   6.341
 6895SOL    HW221585   3.135   5.398   6.389
 6896SOL     OW21586   1.755   6.928   4.050
 6896SOL    HW121587   1.833   6.990   4.058
 6896SOL    HW221588   1.719   6.933   3.956
 6897SOL     OW21589   2.039   3.474   0.036
 6897SOL    HW121590   2.005   3.410   0.105
 6897SOL    HW221591   2.136   3.456   0.019
 6898SOL     OW21592   4.165   1.487   2.360
 6898SOL    HW121593   4.118   1.499   2.448
 6898SOL    HW221594   4.170   1.389   2.338
 6899SOL     OW21595   4.938   6.819   0.985
 6899SOL    HW121596   5.037   6.817   0.968
 6899SOL    HW221597   4.890   6.831   0.898
 6900SOL     OW21598   6.273   0.893   5.881
 6900SOL    HW121599   6.232   0.959   5.944
 6900SOL    HW221600   6.373   0.901   5.883
 6901SOL     OW21601   0.884   6.939   5.926
 6901SOL    HW121602   0.859   6.934   5.829
 6901SOL    HW221603   0.811   6.984   5.977
 6902SOL     OW21604   6.625   6.589   0.734
 6902SOL    HW121605   6.574   6.668   0.702
 6902SOL    HW221606   6.663   6.539   0.656
 6903SOL     OW21607   4.400   5.247   5.109
 6903SOL    HW121608   4.491   5.278   5.134
 6903SOL    HW221609   4.374   5.287   5.021
 6904SOL     OW21610   5.916   1.985   4.109
 6904SOL    HW121611   5.861   2.068   4.115
 6904SOL    HW221612   6.000   2.004   4.058
 6905SOL     OW21613   5.805   7.002   0.168
 6905SOL    HW121614   5.753   0.058   0.132
 6905SOL    HW221615   5.839   0.001   0.259
 6906SOL     OW21616   4.164   0.756   3.735
 6906SOL    HW121617   4.097   0.683   3.746
 6906SOL    HW221618   4.146   0.804   3.649
 6907SOL     OW21619   4.835   1.346   1.446
 6907SOL    HW121620   4.886   1.320   1.528
 6907SOL    HW221621   4.892   1.331   1.365
 6908SOL     OW21622   1.119   6.973   5.578
 6908SOL    HW121623   1.023   6.947   5.585
 6908SOL    HW221624   1.136   7.014   5.488
 6909SOL     OW21625   5.476   4.564   1.565
 6909SOL    HW121626   5.518   4.475   1.547
 6909SOL    HW221627   5.429   4.562   1.653
 6910SOL     OW21628   6.791   2.737   3.535
 6910SOL    HW121629   6.820   2.727   3.439
 6910SOL    HW221630   6.770   2.647   3.573
 6911SOL     OW21631   3.843   6.805   3.303
 6911SOL    HW121632   3.759   6.858   3.292
 6911SOL    HW221633   3.922   6.863   3.283
 6912SOL     OW21634   4.508   4.951   0.292
 6912SOL    HW121635   4.457   4.985   0.371
 6912SOL    HW221636   4.571   4.878   0.321
 6913SOL     OW21637   5.649   4.746   6.091
 6913SOL    HW121638   5.656   4.842   6.064
 6913SOL    HW221639   5.616   4.692   6.013
 6914SOL     OW21640   6.152   5.174   0.049
 6914SOL    HW121641   6.251   5.177   0.034
 6914SOL    HW221642   6.106   5.151   6.986
 6915SOL     OW21643   6.259   4.716   1.792
 6915SOL    HW121644   6.274   4.721   1.693
 6915SOL    HW221645   6.338   4.675   1.836
 6916SOL     OW21646   6.039   3.531   0.315
 6916SOL    HW121647   6.002   3.473   0.242
 6916SOL    HW221648   6.138   3.526   0.315
 6917SOL     OW21649   3.393   5.738   0.628
 6917SOL    HW121650   3.355   5.801   0.561
 6917SOL    HW221651   3.488   5.718   0.604
 6918SOL     OW21652   1.413   2.937   4.467
 6918SOL    HW121653   1.496   2.988   4.487
 6918SOL    HW221654   1.372   2.972   4.382
 6919SOL     OW21655   0.681   6.071   3.300
 6919SOL    HW121656   0.597   6.019   3.310
 6919SOL    HW221657   0.691   6.100   3.205
 6920SOL     OW21658   4.502   5.615   6.260
 6920SOL    HW121659   4.506   5.545   6.331
 6920SOL    HW221660   4.408   5.622   6.226
 6921SOL     OW21661   4.886   5.778   3.014
 6921SOL    HW121662   4.893   5.772   3.113
 6921SOL    HW221663   4.862   5.688   2.977
 6922SOL     OW21664   2.443   5.305   6.621
 6922SOL    HW121665   2.424   5.400   6.596
 6922SOL    HW221666   2.427   5.246   6.542
 6923SOL     OW21667   5.055   5.701   4.027
 6923SOL    HW121668   5.154   5.690   4.038
 6923SOL    HW221669   5.020   5.761   4.099
 6924SOL     OW21670   1.063   4.361   0.094
 6924SOL    HW121671   1.154   4.324   0.114
 6924SOL    HW221672   1.036   4.335   0.001
 6925SOL     OW21673   3.903   5.796   4.709
 6925SOL    HW121674   3.925   5.698   4.719
 6925SOL    HW221675   3.847   5.809   4.627
 6926SOL     OW21676   3.172   3.028   2.492
 6926SOL    HW121677   3.232   3.108   2.485
 6926SOL    HW221678   3.161   2.987   2.401
 6927SOL     OW21679   5.098   3.582   5.742
 6927SOL    HW121680   5.134   3.569   5.834
 6927SOL    HW221681   5.173   3.578   5.675
 6928SOL     OW21682   6.590   6.387   0.944
 6928SOL    HW121683   6.631   6.441   0.871
 6928SOL    HW221684   6.650   6.310   0.966
 6929SOL     OW21685   4.918   5.371   1.187
 6929SOL    HW121686   4.910   5.455   1.240
 6929SOL    HW221687   5.006   5.369   1.139
 6930SOL     OW21688   0.014   0.145   1.667
 6930SOL    HW121689   0.035   0.157   1.764
 6930SOL    HW221690   0.096   0.158   1.613
 6931SOL     OW21691   1.504   0.824   2.486
 6931SOL    HW121692   1.531   0.905   2.433
 6931SOL    HW221693   1.519   0.743   2.430
 6932SOL     OW21694   3.962   0.437   1.038
 6932SOL    HW121695   3.928   0.355   0.991
 6932SOL    HW221696   4.061   0.441   1.030
 6933SOL     OW21697   3.333   5.943   4.966
 6933SOL    HW121698   3.305   5.985   4.879
 6933SOL    HW221699   3.382   5.858   4.948
 6934SOL     OW21700   5.070   4.294   6.227
 6934SOL    HW121701   5.047   4.365   6.161
 6934SOL    HW221702   5.048   4.204   6.189
 6935SOL     OW21703   4.573   6.142   3.776
 6935SOL    HW121704   4.661   6.140   3.822
 6935SOL    HW221705   4.500   6.128   3.843
 6936SOL     OW21706   6.709   3.208   2.844
 6936SOL    HW121707   6.794   3.181   2.798
 6936SOL    HW221708   6.730   3.263   2.924
 6937SOL     OW21709   6.382   6.189   0.032
 6937SOL    HW121710   6.457   6.151   7.001
 6937SOL    HW221711   6.328   6.251   6.997
 6938SOL     OW21712   4.771   3.639   5.398
 6938SOL    HW121713   4.732   3.605   5.312
 6938SOL    HW221714   4.871   3.639   5.392
 6939SOL     OW21715   0.272   4.436   0.989
 6939SOL    HW121716   0.356   4.382   0.989
 6939SOL    HW221717   0.207   4.396   0.925
 6940SOL     OW21718   5.222   1.090   0.180
 6940SOL    HW121719   5.123   1.072   0.181
 6940SOL    HW221720   5.267   1.023   0.122
 6941SOL     OW21721   3.615   2.940   3.322
 6941SOL    HW121722   3.540   2.883   3.355
 6941SOL    HW221723   3.624   2.930   3.223
 6942SOL     OW21724   6.310   2.773   0.515
 6942SOL    HW121725   6.214   2.746   0.527
 6942SOL    HW221726   6.337   2.834   0.589
 6943SOL     OW21727   5.148   6.462   0.039
 6943SOL    HW121728   5.101   6.491   6.977
 6943SOL    HW221729   5.160   6.542   0.098
 6944SOL     OW21730   1.498   4.500   6.097
 6944SOL    HW121731   1.594   4.473   6.111
 6944SOL    HW221732   1.476   4.493   6.000
 6945SOL     OW21733   5.576   2.981   6.318
 6945SOL    HW121734   5.590   2.963   6.415
 6945SOL    HW221735   5.604   3.075   6.297
 6946SOL     OW21736   6.467   6.328   1.764
 6946SOL    HW121737   6.513   6.389   1.700
 6946SOL    HW221738   6.392   6.377   1.809
 6947SOL     OW21739   3.234   7.011   5.683
 6947SOL    HW121740   3.295   6.953   5.737
 6947SOL    HW221741   3.139   6.988   5.704
 6948SOL     OW21742   6.150   0.766   6.461
 6948SOL    HW121743   6.158   0.866   6.468
 6948SOL    HW221744   6.072   0.743   6.404
 6949SOL     OW21745   5.422   6.893   4.191
 6949SOL    HW121746   5.355   6.926   4.124
 6949SOL    HW221747   5.392   6.919   4.283
 6950SOL     OW21748   1.742   0.363   3.947
 6950SOL    HW121749   1.792   0.349   4.033
 6950SOL    HW221750   1.746   0.279   3.893
 6951SOL     OW21751   6.146   6.278   6.084
 6951SOL    HW121752   6.126   6.340   6.009
 6951SOL    HW221753   6.243   6.283   6.108
 6952SOL     OW21754   7.004   5.818   3.987
 6952SOL    HW121755   6.950   5.902   3.988
 6952SOL    HW221756   0.076   5.839   4.016
 6953SOL     OW21757   4.644   0.157   6.822
 6953SOL    HW121758   4.627   0.113   6.910
 6953SOL    HW221759   4.606   0.250   6.824
 6954SOL     OW21760   0.546   4.092   4.201
 6954SOL    HW121761   0.547   3.996   4.230
 6954SOL    HW221762   0.460   4.135   4.231
 6955SOL     OW21763   6.779   0.980   2.668
 6955SOL    HW121764   6.818   0.888   2.672
 6955SOL    HW221765   6.681   0.976   2.685
 6956SOL     OW21766   4.360   6.192   2.854
 6956SOL    HW121767   4.367   6.095   2.829
 6956SOL    HW221768   4.265   6.221   2.848
 6957SOL     OW21769   5.547   5.006   1.306
 6957SOL    HW121770   5.607   5.002   1.226
 6957SOL    HW221771   5.520   4.913   1.331
 6958SOL     OW21772   2.876   3.772   5.042
 6958SOL    HW121773   2.926   3.754   4.957
 6958SOL    HW221774   2.779   3.781   5.022
 6959SOL     OW21775   2.794   1.188   4.597
 6959SOL    HW121776   2.699   1.205   4.570
 6959SOL    HW221777   2.812   1.090   4.596
 6960SOL     OW21778   1.261   5.464   1.138
 6960SOL    HW121779   1.216   5.551   1.155
 6960SOL    HW221780   1.337   5.452   1.203
 6961SOL     OW21781   6.274   2.991   4.379
 6961SOL    HW121782   6.363   2.990   4.425
 6961SOL    HW221783   6.249   2.897   4.354
 6962SOL     OW21784   5.167   6.124   2.434
 6962SOL    HW121785   5.223   6.066   2.493
 6962SOL    HW221786   5.201   6.121   2.340
 6963SOL     OW21787   6.692   5.443   1.081
 6963SOL    HW121788   6.788   5.454   1.057
 6963SOL    HW221789   6.683   5.378   1.157
 6964SOL     OW21790   3.795   5.191   4.762
 6964SOL    HW121791   3.778   5.277   4.713
 6964SOL    HW221792   3.707   5.148   4.784
 6965SOL     OW21793   0.588   3.613   6.288
 6965SOL    HW121794   0.647   3.683   6.328
 6965SOL    HW221795   0.574   3.539   6.353
 6966SOL     OW21796   6.759   2.512   3.672
 6966SOL    HW121797   6.822   2.457   3.726
 6966SOL    HW221798   6.685   2.545   3.730
 6967SOL     OW21799   1.823   0.419   5.553
 6967SOL    HW121800   1.858   0.373   5.634
 6967SOL    HW221801   1.729   0.390   5.535
 6968SOL     OW21802   3.910   6.823   2.835
 6968SOL    HW121803   3.864   6.736   2.818
 6968SOL    HW221804   3.842   6.892   2.860
 6969SOL     OW21805   3.141   2.148   1.083
 6969SOL    HW121806   3.122   2.050   1.093
 6969SOL    HW221807   3.224   2.161   1.029
 6970SOL     OW21808   4.394   3.777   6.775
 6970SOL    HW121809   4.486   3.815   6.767
 6970SOL    HW221810   4.330   3.849   6.803
 6971SOL     OW21811   6.868   4.578   1.180
 6971SOL    HW121812   6.907   4.660   1.139
 6971SOL    HW221813   6.809   4.532   1.114
 6972SOL     OW21814   5.359   4.722   3.870
 6972SOL    HW121815   5.385   4.743   3.964
 6972SOL    HW221816   5.261   4.703   3.865
 6973SOL     OW21817   1.092   3.657   5.659
 6973SOL    HW121818   1.087   3.558   5.671
 6973SOL    HW221819   1.042   3.683   5.577
 6974SOL     OW21820   4.019   3.125   3.093
 6974SOL    HW121821   3.993   3.064   3.167
 6974SOL    HW221822   3.995   3.083   3.005
 6975SOL     OW21823   2.536   6.296   5.739
 6975SOL    HW121824   2.593   6.228   5.786
 6975SOL    HW221825   2.454   6.251   5.702
 6976SOL     OW21826   4.271   5.223   5.341
 6976SOL    HW121827   4.291   5.313   5.380
 6976SOL    HW221828   4.318   5.213   5.253
 6977SOL     OW21829   4.487   2.483   1.717
 6977SOL    HW121830   4.484   2.582   1.723
 6977SOL    HW221831   4.495   2.456   1.621
 6978SOL     OW21832   5.256   2.052   1.941
 6978SOL    HW121833   5.218   2.141   1.915
 6978SOL    HW221834   5.188   1.981   1.927
 6979SOL     OW21835   1.107   4.665   0.674
 6979SOL    HW121836   1.161   4.653   0.757
 6979SOL    HW221837   1.156   4.727   0.612
 6980SOL     OW21838   1.277   1.341   3.667
 6980SOL    HW121839   1.184   1.378   3.660
 6980SOL    HW221840   1.287   1.264   3.604
 6981SOL     OW21841   3.085   3.044   6.268
 6981SOL    HW121842   3.042   3.134   6.269
 6981SOL    HW221843   3.066   2.998   6.181
 6982SOL     OW21844   1.773   1.153   4.370
 6982SOL    HW121845   1.833   1.127   4.294
 6982SOL    HW221846   1.732   1.242   4.352
 6983SOL     OW21847   5.332   2.233   3.662
 6983SOL    HW121848   5.267   2.227   3.738
 6983SOL    HW221849   5.301   2.174   3.587
 6984SOL     OW21850   2.392   2.285   4.282
 6984SOL    HW121851   2.437   2.200   4.310
 6984SOL    HW221852   2.446   2.363   4.314
 6985SOL     OW21853   4.200   5.418   1.157
 6985SOL    HW121854   4.251   5.503   1.170
 6985SOL    HW221855   4.263   5.340   1.156
 6986SOL     OW21856   2.295   6.077   6.442
 6986SOL    HW121857   2.288   6.114   6.535
 6986SOL    HW221858   2.205   6.047   6.412
 6987SOL     OW21859   0.513   1.729   6.232
 6987SOL    HW121860   0.422   1.771   6.230
 6987SOL    HW221861   0.527   1.676   6.149
 6988SOL     OW21862   6.375   1.078   5.539
 6988SOL    HW121863   6.432   1.143   5.489
 6988SOL    HW221864   6.423   0.991   5.547
 6989SOL     OW21865   0.376   3.652   4.187
 6989SOL    HW121866   0.292   3.651   4.241
 6989SOL    HW221867   0.374   3.577   4.121
 6990SOL     OW21868   4.961   2.076   1.587
 6990SOL    HW121869   5.016   2.146   1.633
 6990SOL    HW221870   5.013   2.034   1.514
 6991SOL     OW21871   3.201   4.968   3.609
 6991SOL    HW121872   3.298   4.955   3.629
 6991SOL    HW221873   3.168   5.050   3.655
 6992SOL     OW21874   5.251   6.928   5.486
 6992SOL    HW121875   5.310   6.922   5.405
 6992SOL    HW221876   5.274   6.854   5.549
 6993SOL     OW21877   0.015   1.245   3.432
 6993SOL    HW121878   0.036   1.149   3.414
 6993SOL    HW221879   6.988   1.283   3.354
 6994SOL     OW21880   0.603   3.360   4.743
 6994SOL    HW121881   0.638   3.283   4.795
 6994SOL    HW221882   0.553   3.326   4.663
 6995SOL     OW21883   6.340   4.777   6.269
 6995SOL    HW121884   6.270   4.718   6.310
 6995SOL    HW221885   6.298   4.835   6.200
 6996SOL     OW21886   2.696   0.295   6.657
 6996SOL    HW121887   2.613   0.287   6.601
 6996SOL    HW221888   2.688   0.238   6.738
 6997SOL     OW21889   5.751   6.410   5.518
 6997SOL    HW121890   5.753   6.350   5.599
 6997SOL    HW221891   5.826   6.475   5.523
 6998SOL     OW21892   1.935   2.440   0.784
 6998SOL    HW121893   2.025   2.425   0.825
 6998SOL    HW221894   1.907   2.358   0.734
 6999SOL     OW21895   2.512   2.658   5.900
 6999SOL    HW121896   2.510   2.674   5.999
 6999SOL    HW221897   2.596   2.697   5.862
 7000SOL     OW21898   6.562   6.069   1.572
 7000SOL    HW121899   6.519   6.077   1.482
 7000SOL    HW221900   6.492   6.075   1.643
 7001SOL     OW21901   2.461   3.165   5.475
 7001SOL    HW121902   2.453   3.155   5.376
 7001SOL    HW221903   2.427   3.083   5.521
 7002SOL     OW21904   1.898   5.423   2.620
 7002SOL    HW121905   1.867   5.392   2.710
 7002SOL    HW221906   1.853   5.509   2.597
 7003SOL     OW21907   4.333   5.863   7.007
 7003SOL    HW121908   4.391   5.924   6.954
 7003SOL    HW221909   4.389   5.793   0.029
 7004SOL     OW21910   2.095   4.795   1.851
 7004SOL    HW121911   2.129   4.848   1.928
 7004SOL    HW221912   2.125   4.837   1.765
 7005SOL     OW21913   1.786   6.334   0.126
 7005SOL    HW121914   1.729   6.252   0.127
 7005SOL    HW221915   1.882   6.307   0.116
 7006SOL     OW21916   5.119   4.841   4.473
 7006SOL    HW121917   5.144   4.860   4.378
 7006SOL    HW221918   5.073   4.921   4.512
 7007SOL     OW21919   4.495   6.440   3.936
 7007SOL    HW121920   4.517   6.504   3.862
 7007SOL    HW221921   4.451   6.489   4.011
 7008SOL     OW21922   1.665   4.545   5.240
 7008SOL    HW121923   1.717   4.464   5.264
 7008SOL    HW221924   1.590   4.520   5.179
 7009SOL     OW21925   6.453   5.610   2.392
 7009SOL    HW121926   6.442   5.705   2.364
 7009SOL    HW221927   6.383   5.586   2.459
 7010SOL     OW21928   4.613   4.300   5.885
 7010SOL    HW121929   4.544   4.267   5.950
 7010SOL    HW221930   4.609   4.245   5.801
 7011SOL     OW21931   3.267   7.005   6.145
 7011SOL    HW121932   3.192   6.960   6.097
 7011SOL    HW221933   3.230   0.040   6.218
 7012SOL     OW21934   1.551   1.322   2.633
 7012SOL    HW121935   1.487   1.343   2.559
 7012SOL    HW221936   1.577   1.407   2.680
 7013SOL     OW21937   0.578   0.657   0.723
 7013SOL    HW121938   0.582   0.618   0.815
 7013SOL    HW221939   0.618   0.594   0.657
 7014SOL     OW21940   4.638   3.092   1.445
 7014SOL    HW121941   4.672   3.141   1.525
 7014SOL    HW221942   4.620   2.997   1.469
 7015SOL     OW21943   5.850   4.614   2.492
 7015SOL    HW121944   5.890   4.618   2.401
 7015SOL    HW221945   5.881   4.530   2.538
 7016SOL     OW21946   3.595   4.887   1.681
 7016SOL    HW121947   3.539   4.850   1.607
 7016SOL    HW221948   3.597   4.822   1.757
 7017SOL     OW21949   2.517   6.814   2.771
 7017SOL    HW121950   2.477   6.772   2.690
 7017SOL    HW221951   2.477   6.773   2.853
 7018SOL     OW21952   6.151   4.396   4.452
 7018SOL    HW121953   6.195   4.348   4.528
 7018SOL    HW221954   6.219   4.416   4.381
 7019SOL     OW21955   2.244   3.718   6.261
 7019SOL    HW121956   2.335   3.753   6.237
 7019SOL    HW221957   2.189   3.791   6.301
 7020SOL     OW21958   6.273   6.971   6.592
 7020SOL    HW121959   6.242   6.888   6.639
 7020SOL    HW221960   6.226   0.028   6.630
 7021SOL     OW21961   1.769   1.478   5.646
 7021SOL    HW121962   1.730   1.497   5.737
 7021SOL    HW221963   1.695   1.468   5.580
 7022SOL     OW21964   4.599   5.930   0.466
 7022SOL    HW121965   4.631   5.836   0.480
 7022SOL    HW221966   4.678   5.991   0.463
 7023SOL     OW21967   0.493   1.850   3.820
 7023SOL    HW121968   0.582   1.889   3.845
 7023SOL    HW221969   0.502   1.752   3.805
 7024SOL     OW21970   1.637   4.183   5.839
 7024SOL    HW121971   1.631   4.227   5.749
 7024SOL    HW221972   1.563   4.117   5.848
 7025SOL     OW21973   2.341   1.193   7.000
 7025SOL    HW121974   2.356   1.108   0.029
 7025SOL    HW221975   2.244   1.217   7.004
 7026SOL     OW21976   3.097   1.508   2.401
 7026SOL    HW121977   3.139   1.545   2.318
 7026SOL    HW221978   3.028   1.572   2.435
 7027SOL     OW21979   2.779   4.779   3.689
 7027SOL    HW121980   2.822   4.776   3.599
 7027SOL    HW221981   2.703   4.714   3.692
 7028SOL     OW21982   4.712   6.998   4.428
 7028SOL    HW121983   4.749   0.069   4.421
 7028SOL    HW221984   4.785   6.932   4.418
 7029SOL     OW21985   4.857   5.591   5.842
 7029SOL    HW121986   4.941   5.575   5.893
 7029SOL    HW221987   4.792   5.642   5.898
 7030SOL     OW21988   0.229   1.900   4.971
 7030SOL    HW121989   0.214   1.997   4.952
 7030SOL    HW221990   0.194   1.846   4.895
 7031SOL     OW21991   1.690   6.456   4.792
 7031SOL    HW121992   1.632   6.520   4.842
 7031SOL    HW221993   1.662   6.453   4.696
 7032SOL     OW21994   3.687   0.375   3.622
 7032SOL    HW121995   3.645   0.285   3.629
 7032SOL    HW221996   3.637   0.431   3.557
 7033SOL     OW21997   1.462   2.313   3.549
 7033SOL    HW121998   1.431   2.397   3.594
 7033SOL    HW221999   1.436   2.315   3.453
 7034SOL     OW22000   6.234   6.910   3.392
 7034SOL    HW122001   6.172   6.874   3.323
 7034SOL    HW222002   6.304   6.967   3.349
 7035SOL     OW22003   1.525   6.303   1.609
 7035SOL    HW122004   1.533   6.281   1.512
 7035SOL    HW222005   1.435   6.343   1.627
 7036SOL     OW22006   0.330   0.937   2.860
 7036SOL    HW122007   0.405   0.983   2.812
 7036SOL    HW222008   0.257   1.004   2.878
 7037SOL     OW22009   1.663   0.258   6.557
 7037SOL    HW122010   1.735   0.247   6.488
 7037SOL    HW222011   1.628   0.351   6.553
 7038SOL     OW22012   1.713   2.989   4.524
 7038SOL    HW122013   1.710   2.890   4.511
 7038SOL    HW222014   1.799   3.024   4.487
 7039SOL     OW22015   2.941   5.005   1.549
 7039SOL    HW122016   2.947   4.907   1.527
 7039SOL    HW222017   2.845   5.032   1.552
 7040SOL     OW22018   5.791   1.867   4.785
 7040SOL    HW122019   5.824   1.917   4.865
 7040SOL    HW222020   5.799   1.768   4.801
 7041SOL     OW22021   0.972   2.415   1.651
 7041SOL    HW122022   0.960   2.513   1.662
 7041SOL    HW222023   1.063   2.388   1.684
 7042SOL     OW22024   5.460   5.775   6.147
 7042SOL    HW122025   5.448   5.801   6.051
 7042SOL    HW222026   5.370   5.766   6.190
 7043SOL     OW22027   2.157   3.171   2.519
 7043SOL    HW122028   2.075   3.149   2.466
 7043SOL    HW222029   2.209   3.087   2.535
 7044SOL     OW22030   4.690   5.557   3.016
 7044SOL    HW122031   4.731   5.490   2.955
 7044SOL    HW222032   4.590   5.545   3.018
 7045SOL     OW22033   5.184   5.958   2.762
 7045SOL    HW122034   5.191   5.864   2.794
 7045SOL    HW222035   5.088   5.987   2.766
 7046SOL     OW22036   3.481   1.681   2.904
 7046SOL    HW122037   3.394   1.645   2.939
 7046SOL    HW222038   3.528   1.731   2.976
 7047SOL     OW22039   0.685   2.860   2.130
 7047SOL    HW122040   0.701   2.784   2.067
 7047SOL    HW222041   0.731   2.842   2.217
 7048SOL     OW22042   6.697   6.159   2.465
 7048SOL    HW122043   6.776   6.181   2.523
 7048SOL    HW222044   6.729   6.134   2.374
 7049SOL     OW22045   3.393   1.869   0.770
 7049SOL    HW122046   3.466   1.878   0.839
 7049SOL    HW222047   3.433   1.839   0.684
 7050SOL     OW22048   3.916   3.846   2.457
 7050SOL    HW122049   3.968   3.854   2.542
 7050SOL    HW222050   3.833   3.902   2.463
 7051SOL     OW22051   0.804   0.272   1.191
 7051SOL    HW122052   0.806   0.341   1.119
 7051SOL    HW222053   0.759   0.310   1.272
 7052SOL     OW22054   5.623   2.826   3.519
 7052SOL    HW122055   5.524   2.819   3.521
 7052SOL    HW222056   5.654   2.834   3.424
 7053SOL     OW22057   1.017   3.975   5.387
 7053SOL    HW122058   0.980   3.915   5.458
 7053SOL    HW222059   1.107   3.943   5.359
 7054SOL     OW22060   0.731   6.450   0.570
 7054SOL    HW122061   0.732   6.453   0.670
 7054SOL    HW222062   0.792   6.520   0.533
 7055SOL     OW22063   3.402   5.710   5.438
 7055SOL    HW122064   3.422   5.633   5.377
 7055SOL    HW222065   3.465   5.785   5.418
 7056SOL     OW22066   5.852   5.485   2.432
 7056SOL    HW122067   5.863   5.405   2.373
 7056SOL    HW222068   5.863   5.458   2.527
 7057SOL     OW22069   0.900   5.781   3.444
 7057SOL    HW122070   0.903   5.811   3.349
 7057SOL    HW222071   0.973   5.715   3.461
 7058SOL     OW22072   6.808   5.870   6.142
 7058SOL    HW122073   6.856   5.792   6.180
 7058SOL    HW222074   6.789   5.854   6.045
 7059SOL     OW22075   6.572   0.822   3.872
 7059SOL    HW122076   6.615   0.801   3.784
 7059SOL    HW222077   6.533   0.739   3.910
 7060SOL     OW22078   4.014   0.074   1.511
 7060SOL    HW122079   3.960   0.109   1.435
 7060SOL    HW222080   3.960   0.008   1.563
 7061SOL     OW22081   0.312   3.484   4.000
 7061SOL    HW122082   0.346   3.392   4.022
 7061SOL    HW222083   0.231   3.476   3.942
 7062SOL     OW22084   5.117   1.205   5.319
 7062SOL    HW122085   5.049   1.138   5.349
 7062SOL    HW222086   5.122   1.279   5.385
 7063SOL     OW22087   0.894   0.505   1.583
 7063SOL    HW122088   0.936   0.483   1.495
 7063SOL    HW222089   0.947   0.463   1.656
 7064SOL     OW22090   4.241   2.048   2.398
 7064SOL    HW122091   4.269   2.123   2.338
 7064SOL    HW222092   4.153   2.013   2.368
 7065SOL     OW22093   4.348   3.460   6.488
 7065SOL    HW122094   4.306   3.521   6.555
 7065SOL    HW222095   4.284   3.388   6.462
 7066SOL     OW22096   4.258   6.788   0.638
 7066SOL    HW122097   4.256   6.887   0.623
 7066SOL    HW222098   4.318   6.745   0.572
 7067SOL     OW22099   1.789   1.913   5.376
 7067SOL    HW122100   1.828   1.970   5.303
 7067SOL    HW222101   1.720   1.852   5.337
 7068SOL     OW22102   0.317   4.224   4.248
 7068SOL    HW122103   0.316   4.294   4.177
 7068SOL    HW222104   0.294   4.265   4.336
 7069SOL     OW22105   5.631   1.348   3.879
 7069SOL    HW122106   5.582   1.422   3.833
 7069SOL    HW222107   5.725   1.345   3.845
 7070SOL     OW22108   6.192   6.304   4.704
 7070SOL    HW122109   6.287   6.275   4.717
 7070SOL    HW222110   6.149   6.320   4.793
 7071SOL     OW22111   1.987   6.165   6.448
 7071SOL    HW122112   2.037   6.182   6.533
 7071SOL    HW222113   1.905   6.223   6.446
 7072SOL     OW22114   0.813   6.557   6.829
 7072SOL    HW122115   0.888   6.523   6.885
 7072SOL    HW222116   0.747   6.483   6.813
 7073SOL     OW22117   5.053   0.042   4.445
 7073SOL    HW122118   5.056   0.101   4.364
 7073SOL    HW222119   5.010   0.091   4.521
 7074SOL     OW22120   4.620   2.002   2.056
 7074SOL    HW122121   4.538   1.991   2.001
 7074SOL    HW222122   4.699   1.969   2.004
 7075SOL     OW22123   1.587   5.142   5.044
 7075SOL    HW122124   1.682   5.116   5.027
 7075SOL    HW222125   1.565   5.127   5.141
 7076SOL     OW22126   5.816   2.300   6.768
 7076SOL    HW122127   5.788   2.263   6.680
 7076SOL    HW222128   5.738   2.306   6.830
 7077SOL     OW22129   2.386   4.482   4.119
 7077SOL    HW122130   2.321   4.556   4.101
 7077SOL    HW222131   2.410   4.482   4.216
 7078SOL     OW22132   0.135   0.069   1.340
 7078SOL    HW122133   0.110   0.040   1.248
 7078SOL    HW222134   0.119   7.017   1.405
 7079SOL     OW22135   6.635   6.298   4.874
 7079SOL    HW122136   6.734   6.291   4.880
 7079SOL    HW222137   6.594   6.279   4.963
 7080SOL     OW22138   2.458   2.464   3.889
 7080SOL    HW122139   2.522   2.449   3.964
 7080SOL    HW222140   2.420   2.556   3.895
 7081SOL     OW22141   2.726   1.290   6.821
 7081SOL    HW122142   2.758   1.369   6.874
 7081SOL    HW222143   2.708   1.214   6.883
 7082SOL     OW22144   6.462   4.631   6.949
 7082SOL    HW122145   6.464   4.539   6.988
 7082SOL    HW222146   6.527   4.689   6.999
 7083SOL     OW22147   2.694   0.730   0.515
 7083SOL    HW122148   2.666   0.666   0.443
 7083SOL    HW222149   2.794   0.732   0.520
 7084SOL     OW22150   0.200   6.785   5.480
 7084SOL    HW122151   0.286   6.733   5.479
 7084SOL    HW222152   0.212   6.870   5.430
 7085SOL     OW22153   1.117   2.224   2.011
 7085SOL    HW122154   1.161   2.139   1.983
 7085SOL    HW222155   1.131   2.239   2.109
 7086SOL     OW22156   5.226   1.050   5.107
 7086SOL    HW122157   5.308   1.096   5.074
 7086SOL    HW222158   5.188   1.101   5.184
 7087SOL     OW22159   6.552   3.679   3.624
 7087SOL    HW122160   6.457   3.651   3.608
 7087SOL    HW222161   6.614   3.611   3.585
 7088SOL     OW22162   5.512   3.040   3.308
 7088SOL    HW122163   5.467   3.038   3.398
 7088SOL    HW222164   5.445   3.018   3.237
 7089SOL     OW22165   3.212   2.153   4.721
 7089SOL    HW122166   3.176   2.210   4.795
 7089SOL    HW222167   3.193   2.198   4.633
 7090SOL     OW22168   2.560   0.866   6.637
 7090SOL    HW122169   2.583   0.889   6.543
 7090SOL    HW222170   2.502   0.938   6.676
 7091SOL     OW22171   0.345   1.533   6.798
 7091SOL    HW122172   0.309   1.551   6.706
 7091SOL    HW222173   0.312   1.603   6.861
 7092SOL     OW22174   4.482   2.635   6.444
 7092SOL    HW122175   4.523   2.619   6.533
 7092SOL    HW222176   4.392   2.679   6.455
 7093SOL     OW22177   3.059   3.797   3.538
 7093SOL    HW122178   3.019   3.788   3.629
 7093SOL    HW222179   3.143   3.851   3.542
 7094SOL     OW22180   1.026   5.896   6.222
 7094SOL    HW122181   1.006   5.934   6.132
 7094SOL    HW222182   0.987   5.956   6.293
 7095SOL     OW22183   2.819   3.736   6.056
 7095SOL    HW122184   2.783   3.829   6.052
 7095SOL    HW222185   2.884   3.722   5.982
 7096SOL     OW22186   6.265   0.848   3.624
 7096SOL    HW122187   6.251   0.929   3.680
 7096SOL    HW222188   6.313   0.873   3.540
 7097SOL     OW22189   5.785   1.068   1.090
 7097SOL    HW122190   5.768   1.148   1.147
 7097SOL    HW222191   5.883   1.062   1.069
 7098SOL     OW22192   1.263   0.337   4.735
 7098SOL    HW122193   1.191   0.300   4.675
 7098SOL    HW222194   1.291   0.427   4.701
 7099SOL     OW22195   2.388   0.682   5.222
 7099SOL    HW122196   2.372   0.640   5.133
 7099SOL    HW222197   2.485   0.699   5.234
 7100SOL     OW22198   5.428   2.395   1.261
 7100SOL    HW122199   5.347   2.381   1.318
 7100SOL    HW222200   5.463   2.488   1.276
 7101SOL     OW22201   2.371   1.262   4.737
 7101SOL    HW122202   2.356   1.355   4.771
 7101SOL    HW222203   2.451   1.260   4.678
 7102SOL     OW22204   4.520   0.858   0.810
 7102SOL    HW122205   4.554   0.779   0.759
 7102SOL    HW222206   4.487   0.829   0.899
 7103SOL     OW22207   4.707   5.082   2.091
 7103SOL    HW122208   4.650   5.039   2.161
 7103SOL    HW222209   4.726   5.176   2.117
 7104SOL     OW22210   0.550   2.912   4.541
 7104SOL    HW122211   0.524   2.828   4.492
 7104SOL    HW222212   0.649   2.923   4.538
 7105SOL     OW22213   2.800   2.735   5.378
 7105SOL    HW122214   2.783   2.721   5.475
 7105SOL    HW222215   2.760   2.660   5.326
 7106SOL     OW22216   2.879   3.454   2.891
 7106SOL    HW122217   2.822   3.456   2.973
 7106SOL    HW222218   2.960   3.511   2.906
 7107SOL     OW22219   3.167   1.658   0.022
 7107SOL    HW122220   3.153   1.742   6.993
 7107SOL    HW222221   3.092   1.644   0.087
 7108SOL     OW22222   4.136   6.244   2.729
 7108SOL    HW122223   4.106   6.335   2.757
 7108SOL    HW222224   4.056   6.186   2.713
 7109SOL     OW22225   2.772   0.626   5.851
 7109SOL    HW122226   2.835   0.687   5.803
 7109SOL    HW222227   2.765   0.539   5.802
 7110SOL     OW22228   3.676   5.514   4.423
 7110SOL    HW122229   3.579   5.501   4.401
 7110SOL    HW222230   3.695   5.611   4.436
 7111SOL     OW22231   1.413   2.027   4.033
 7111SOL    HW122232   1.471   2.053   3.956
 7111SOL    HW222233   1.462   2.042   4.118
 7112SOL     OW22234   1.091   5.542   4.450
 7112SOL    HW122235   1.128   5.482   4.522
 7112SOL    HW222236   1.013   5.593   4.486
 7113SOL     OW22237   3.482   4.138   5.169
 7113SOL    HW122238   3.509   4.105   5.079
 7113SOL    HW222239   3.444   4.062   5.222
 7114SOL     OW22240   3.874   7.016   1.770
 7114SOL    HW122241   3.782   0.020   1.802
 7114SOL    HW222242   3.907   6.939   1.824
 7115SOL     OW22243   5.529   3.207   1.749
 7115SOL    HW122244   5.483   3.270   1.812
 7115SOL    HW222245   5.498   3.114   1.768
 7116SOL     OW22246   6.421   4.331   3.226
 7116SOL    HW122247   6.468   4.407   3.181
 7116SOL    HW222248   6.345   4.301   3.169
 7117SOL     OW22249   6.658   5.870   5.199
 7117SOL    HW122250   6.710   5.907   5.122
 7117SOL    HW222251   6.604   5.791   5.169
 7118SOL     OW22252   2.492   3.761   0.992
 7118SOL    HW122253   2.495   3.859   0.971
 7118SOL    HW222254   2.565   3.739   1.057
 7119SOL     OW22255   5.491   2.190   2.927
 7119SOL    HW122256   5.561   2.213   2.860
 7119SOL    HW222257   5.424   2.264   2.933
 7120SOL     OW22258   3.812   2.107   3.040
 7120SOL    HW122259   3.775   2.109   2.947
 7120SOL    HW222260   3.738   2.122   3.106
 7121SOL     OW22261   1.971   6.947   3.121
 7121SOL    HW122262   2.018   6.913   3.039
 7121SOL    HW222263   1.986   6.883   3.196
 7122SOL     OW22264   1.380   0.138   5.845
 7122SOL    HW122265   1.305   0.072   5.847
 7122SOL    HW222266   1.352   0.223   5.889
 7123SOL     OW22267   2.124   4.390   3.169
 7123SOL    HW122268   2.088   4.297   3.174
 7123SOL    HW222269   2.215   4.388   3.128
 7124SOL     OW22270   6.831   2.308   0.851
 7124SOL    HW122271   6.909   2.362   0.884
 7124SOL    HW222272   6.787   2.262   0.928
 7125SOL     OW22273   6.646   7.018   0.536
 7125SOL    HW122274   6.597   6.987   0.617
 7125SOL    HW222275   6.681   0.088   0.551
 7126SOL     OW22276   3.178   5.213   0.092
 7126SOL    HW122277   3.118   5.284   0.056
 7126SOL    HW222278   3.272   5.247   0.096
 7127SOL     OW22279   1.654   5.309   5.415
 7127SOL    HW122280   1.627   5.223   5.371
 7127SOL    HW222281   1.752   5.323   5.403
 7128SOL     OW22282   3.038   4.994   0.485
 7128SOL    HW122283   3.027   4.895   0.472
 7128SOL    HW222284   3.029   5.016   0.582
 7129SOL     OW22285   2.070   1.235   0.029
 7129SOL    HW122286   2.073   1.335   0.035
 7129SOL    HW222287   1.991   1.207   6.998
 7130SOL     OW22288   4.110   5.605   5.591
 7130SOL    HW122289   4.079   5.679   5.531
 7130SOL    HW222290   4.181   5.552   5.544
 7131SOL     OW22291   2.529   0.637   1.062
 7131SOL    HW122292   2.557   0.587   0.980
 7131SOL    HW222293   2.563   0.589   1.143
 7132SOL     OW22294   3.714   3.876   6.796
 7132SOL    HW122295   3.777   3.819   6.744
 7132SOL    HW222296   3.695   3.960   6.744
 7133SOL     OW22297   5.346   5.502   5.613
 7133SOL    HW122298   5.437   5.524   5.647
 7133SOL    HW222299   5.318   5.570   5.545
 7134SOL     OW22300   6.053   6.891   1.939
 7134SOL    HW122301   5.960   6.919   1.963
 7134SOL    HW222302   6.057   6.868   1.842
 7135SOL     OW22303   0.838   3.471   3.242
 7135SOL    HW122304   0.812   3.552   3.190
 7135SOL    HW222305   0.909   3.421   3.193
 7136SOL     OW22306   2.098   2.760   0.892
 7136SOL    HW122307   2.095   2.733   0.796
 7136SOL    HW222308   2.150   2.693   0.944
 7137SOL     OW22309   3.762   7.007   6.991
 7137SOL    HW122310   3.721   0.052   0.030
 7137SOL    HW222311   3.819   0.031   6.923
 7138SOL     OW22312   1.552   2.362   6.981
 7138SOL    HW122313   1.540   2.351   0.058
 7138SOL    HW222314   1.631   2.308   6.951
 7139SOL     OW22315   5.520   3.644   1.888
 7139SOL    HW122316   5.443   3.643   1.825
 7139SOL    HW222317   5.503   3.579   1.962
 7140SOL     OW22318   5.599   4.297   4.264
 7140SOL    HW122319   5.559   4.331   4.349
 7140SOL    HW222320   5.553   4.212   4.237
 7141SOL     OW22321   3.776   6.320   1.798
 7141SOL    HW122322   3.814   6.382   1.729
 7141SOL    HW222323   3.740   6.374   1.874
 7142SOL     OW22324   4.356   0.567   3.428
 7142SOL    HW122325   4.326   0.529   3.516
 7142SOL    HW222326   4.391   0.660   3.442
 7143SOL     OW22327   1.309   2.192   6.453
 7143SOL    HW122328   1.241   2.164   6.385
 7143SOL    HW222329   1.300   2.135   6.535
 7144SOL     OW22330   1.649   2.040   2.193
 7144SOL    HW122331   1.561   2.066   2.152
 7144SOL    HW222332   1.723   2.059   2.129
 7145SOL     OW22333   4.192   6.693   0.206
 7145SOL    HW122334   4.218   6.772   0.150
 7145SOL    HW222335   4.092   6.683   0.204
 7146SOL     OW22336   1.968   0.400   1.351
 7146SOL    HW122337   1.901   0.333   1.382
 7146SOL    HW222338   2.047   0.353   1.312
 7147SOL     OW22339   0.617   6.837   3.555
 7147SOL    HW122340   0.561   6.855   3.474
 7147SOL    HW222341   0.567   6.869   3.636
 7148SOL     OW22342   0.723   6.196   0.429
 7148SOL    HW122343   0.723   6.296   0.425
 7148SOL    HW222344   0.734   6.167   0.524
 7149SOL     OW22345   5.777   6.678   3.002
 7149SOL    HW122346   5.869   6.642   3.018
 7149SOL    HW222347   5.750   6.659   2.908
 7150SOL     OW22348   3.604   2.070   2.323
 7150SOL    HW122349   3.619   2.117   2.236
 7150SOL    HW222350   3.631   1.974   2.314
 7151SOL     OW22351   1.847   6.388   0.879
 7151SOL    HW122352   1.811   6.299   0.904
 7151SOL    HW222353   1.834   6.452   0.955
 7152SOL     OW22354   1.415   0.970   5.026
 7152SOL    HW122355   1.318   0.993   5.035
 7152SOL    HW222356   1.459   1.033   4.963
 7153SOL     OW22357   3.459   5.130   2.209
 7153SOL    HW122358   3.387   5.147   2.275
 7153SOL    HW222359   3.503   5.216   2.184
 7154SOL     OW22360   3.759   0.486   3.877
 7154SOL    HW122361   3.680   0.483   3.939
 7154SOL    HW222362   3.735   0.440   3.791
 7155SOL     OW22363   2.058   3.107   1.676
 7155SOL    HW122364   1.979   3.081   1.731
 7155SOL    HW222365   2.105   3.184   1.719
 7156SOL     OW22366   0.192   4.000   4.559
 7156SOL    HW122367   0.248   4.082   4.570
 7156SOL    HW222368   0.250   3.922   4.534
 7157SOL     OW22369   5.908   3.932   1.981
 7157SOL    HW122370   5.968   3.943   2.060
 7157SOL    HW222371   5.870   3.839   1.980
 7158SOL     OW22372   1.067   6.777   2.954
 7158SOL    HW122373   0.983   6.810   2.995
 7158SOL    HW222374   1.134   6.851   2.950
 7159SOL     OW22375   0.446   4.680   2.582
 7159SOL    HW122376   0.464   4.584   2.604
 7159SOL    HW222377   0.350   4.700   2.598
 7160SOL     OW22378   4.901   0.025   3.049
 7160SOL    HW122379   4.911   0.104   3.110
 7160SOL    HW222380   4.817   0.035   2.996
 7161SOL     OW22381   2.902   3.352   4.571
 7161SOL    HW122382   2.806   3.326   4.562
 7161SOL    HW222383   2.915   3.403   4.656
 7162SOL     OW22384   1.678   5.515   6.422
 7162SOL    HW122385   1.617   5.539   6.496
 7162SOL    HW222386   1.627   5.512   6.336
 7163SOL     OW22387   2.714   6.513   3.060
 7163SOL    HW122388   2.614   6.510   3.070
 7163SOL    HW222389   2.744   6.441   2.997
 7164SOL     OW22390   1.849   1.027   3.730
 7164SOL    HW122391   1.769   1.087   3.720
 7164SOL    HW222392   1.822   0.945   3.780
 7165SOL     OW22393   6.894   1.244   2.199
 7165SOL    HW122394   6.899   1.205   2.107
 7165SOL    HW222395   6.856   1.176   2.262
 7166SOL     OW22396   6.037   2.760   0.454
 7166SOL    HW122397   6.067   2.678   0.502
 7166SOL    HW222398   5.961   2.802   0.504
 7167SOL     OW22399   5.416   3.559   3.961
 7167SOL    HW122400   5.377   3.483   4.014
 7167SOL    HW222401   5.512   3.571   3.986
 7168SOL     OW22402   1.785   2.562   3.235
 7168SOL    HW122403   1.876   2.545   3.274
 7168SOL    HW222404   1.717   2.559   3.308
 7169SOL     OW22405   6.431   2.488   5.014
 7169SOL    HW122406   6.407   2.392   5.002
 7169SOL    HW222407   6.524   2.496   5.048
 7170SOL     OW22408   5.231   6.154   3.681
 7170SOL    HW122409   5.161   6.216   3.715
 7170SOL    HW222410   5.196   6.105   3.601
 7171SOL     OW22411   5.116   3.612   0.224
 7171SOL    HW122412   5.205   3.628   0.266
 7171SOL    HW222413   5.127   3.602   0.125
 7172SOL     OW22414   1.559   0.447   4.777
 7172SOL    HW122415   1.468   0.481   4.798
 7172SOL    HW222416   1.565   0.350   4.801
 7173SOL     OW22417   6.901   4.427   6.032
 7173SOL    HW122418   6.939   4.367   6.102
 7173SOL    HW222419   6.969   4.495   6.006
 7174SOL     OW22420   0.332   4.657   0.336
 7174SOL    HW122421   0.335   4.607   0.250
 7174SOL    HW222422   0.420   4.700   0.353
 7175SOL     OW22423   5.208   2.444   6.544
 7175SOL    HW122424   5.234   2.525   6.492
 7175SOL    HW222425   5.108   2.442   6.555
 7176SOL     OW22426   0.600   6.835   2.912
 7176SOL    HW122427   0.580   6.787   2.827
 7176SOL    HW222428   0.517   6.880   2.946
 7177SOL     OW22429   1.570   5.470   4.417
 7177SOL    HW122430   1.668   5.485   4.431
 7177SOL    HW222431   1.552   5.373   4.406
 7178SOL     OW22432   2.125   2.150   5.920
 7178SOL    HW122433   2.220   2.153   5.888
 7178SOL    HW222434   2.092   2.056   5.919
 7179SOL     OW22435   2.163   3.920   4.115
 7179SOL    HW122436   2.205   3.832   4.090
 7179SOL    HW222437   2.128   3.965   4.033
 7180SOL     OW22438   2.457   5.141   0.337
 7180SOL    HW122439   2.421   5.179   0.422
 7180SOL    HW222440   2.557   5.138   0.342
 7181SOL     OW22441   2.384   6.165   0.585
 7181SOL    HW122442   2.331   6.246   0.612
 7181SOL    HW222443   2.328   6.105   0.529
 7182SOL     OW22444   1.364   2.523   5.077
 7182SOL    HW122445   1.397   2.617   5.071
 7182SOL    HW222446   1.312   2.499   4.995
 7183SOL     OW22447   2.599   5.994   0.539
 7183SOL    HW122448   2.628   5.985   0.444
 7183SOL    HW222449   2.512   6.042   0.543
 7184SOL     OW22450   6.611   1.446   3.372
 7184SOL    HW122451   6.660   1.409   3.451
 7184SOL    HW222452   6.665   1.519   3.331
 7185SOL     OW22453   5.196   0.516   5.312
 7185SOL    HW122454   5.189   0.476   5.403
 7185SOL    HW222455   5.282   0.568   5.305
 7186SOL     OW22456   6.601   0.904   6.955
 7186SOL    HW122457   6.513   0.868   6.985
 7186SOL    HW222458   6.671   0.885   0.002
 7187SOL     OW22459   3.618   4.418   6.604
 7187SOL    HW122460   3.635   4.382   6.512
 7187SOL    HW222461   3.549   4.490   6.599
 7188SOL     OW22462   0.080   0.337   0.421
 7188SOL    HW122463   0.070   0.358   0.324
 7188SOL    HW222464   0.066   0.421   0.474
 7189SOL     OW22465   0.550   0.876   5.696
 7189SOL    HW122466   0.488   0.802   5.670
 7189SOL    HW222467   0.608   0.846   5.772
 7190SOL     OW22468   0.265   3.895   2.522
 7190SOL    HW122469   0.228   3.987   2.505
 7190SOL    HW222470   0.200   3.826   2.491
 7191SOL     OW22471   0.468   4.212   2.613
 7191SOL    HW122472   0.432   4.134   2.664
 7191SOL    HW222473   0.555   4.241   2.652
 7192SOL     OW22474   3.434   4.502   5.632
 7192SOL    HW122475   3.345   4.456   5.637
 7192SOL    HW222476   3.496   4.446   5.576
 7193SOL     OW22477   1.713   2.409   2.004
 7193SOL    HW122478   1.715   2.482   2.073
 7193SOL    HW222479   1.762   2.329   2.039
 7194SOL     OW22480   2.651   1.970   0.687
 7194SOL    HW122481   2.660   1.913   0.606
 7194SOL    HW222482   2.725   2.038   0.689
 7195SOL     OW22483   0.081   4.491   0.109
 7195SOL    HW122484   0.006   4.432   0.079
 7195SOL    HW222485   0.163   4.436   0.122
 7196SOL     OW22486   3.615   4.559   1.358
 7196SOL    HW122487   3.673   4.480   1.377
 7196SOL    HW222488   3.534   4.555   1.416
 7197SOL     OW22489   0.355   2.604   5.779
 7197SOL    HW122490   0.391   2.684   5.731
 7197SOL    HW222491   0.317   2.631   5.867
 7198SOL     OW22492   0.420   0.687   6.675
 7198SOL    HW122493   0.391   0.740   6.595
 7198SOL    HW222494   0.390   0.734   6.758
 7199SOL     OW22495   2.134   1.054   2.992
 7199SOL    HW122496   2.188   1.042   2.909
 7199SOL    HW222497   2.042   1.018   2.977
 7200SOL     OW22498   2.701   1.896   0.445
 7200SOL    HW122499   2.668   1.990   0.431
 7200SOL    HW222500   2.788   1.885   0.397
 7201SOL     OW22501   0.738   5.953   4.117
 7201SOL    HW122502   0.779   5.864   4.138
 7201SOL    HW222503   0.790   6.025   4.164
 7202SOL     OW22504   4.167   0.327   6.081
 7202SOL    HW122505   4.139   0.422   6.069
 7202SOL    HW222506   4.223   0.298   6.003
 7203SOL     OW22507   0.191   1.940   0.824
 7203SOL    HW122508   0.165   1.844   0.811
 7203SOL    HW222509   0.117   1.988   0.870
 7204SOL     OW22510   0.311   6.991   5.870
 7204SOL    HW122511   0.235   6.930   5.894
 7204SOL    HW222512   0.388   6.973   5.931
 7205SOL     OW22513   1.118   5.589   3.510
 7205SOL    HW122514   1.079   5.505   3.547
 7205SOL    HW222515   1.161   5.641   3.584
 7206SOL     OW22516   1.850   0.561   1.149
 7206SOL    HW122517   1.773   0.514   1.105
 7206SOL    HW222518   1.882   0.507   1.227
 7207SOL     OW22519   3.555   0.389   2.892
 7207SOL    HW122520   3.535   0.396   2.989
 7207SOL    HW222521   3.606   0.470   2.862
 7208SOL     OW22522   3.662   6.546   3.603
 7208SOL    HW122523   3.724   6.537   3.525
 7208SOL    HW222524   3.708   6.514   3.686
 7209SOL     OW22525   2.860   3.501   2.378
 7209SOL    HW122526   2.905   3.590   2.393
 7209SOL    HW222527   2.810   3.504   2.291
 7210SOL     OW22528   4.468   0.416   3.932
 7210SOL    HW122529   4.446   0.503   3.886
 7210SOL    HW222530   4.522   0.359   3.871
 7211SOL     OW22531   2.524   5.989   3.872
 7211SOL    HW122532   2.444   6.045   3.850
 7211SOL    HW222533   2.592   6.045   3.918
 7212SOL     OW22534   0.258   6.105   5.036
 7212SOL    HW122535   0.356   6.116   5.015
 7212SOL    HW222536   0.239   6.009   5.057
 7213SOL     OW22537   5.161   0.163   0.086
 7213SOL    HW122538   5.167   0.150   0.185
 7213SOL    HW222539   5.065   0.159   0.058
 7214SOL     OW22540   0.058   5.080   5.536
 7214SOL    HW122541   7.015   5.057   5.608
 7214SOL    HW222542   0.029   5.164   5.489
 7215SOL     OW22543   0.263   3.742   5.469
 7215SOL    HW122544   0.311   3.830   5.462
 7215SOL    HW222545   0.181   3.753   5.525
 7216SOL     OW22546   3.332   6.317   6.417
 7216SOL    HW122547   3.346   6.379   6.340
 7216SOL    HW222548   3.421   6.295   6.458
 7217SOL     OW22549   2.384   4.408   2.678
 7217SOL    HW122550   2.306   4.407   2.615
 7217SOL    HW222551   2.399   4.316   2.714
 7218SOL     OW22552   4.758   2.486   5.332
 7218SOL    HW122553   4.704   2.512   5.412
 7218SOL    HW222554   4.818   2.562   5.307
 7219SOL     OW22555   4.613   6.706   4.765
 7219SOL    HW122556   4.624   6.686   4.863
 7219SOL    HW222557   4.696   6.678   4.716
 7220SOL     OW22558   0.980   5.487   5.072
 7220SOL    HW122559   1.009   5.522   5.161
 7220SOL    HW222560   0.899   5.429   5.083
 7221SOL     OW22561   4.063   5.651   4.361
 7221SOL    HW122562   4.023   5.569   4.402
 7221SOL    HW222563   4.133   5.689   4.422
 7222SOL     OW22564   6.075   0.136   2.838
 7222SOL    HW122565   6.125   0.058   2.800
 7222SOL    HW222566   5.999   0.102   2.894
 7223SOL     OW22567   3.128   2.233   1.439
 7223SOL    HW122568   3.095   2.158   1.381
 7223SOL    HW222569   3.069   2.241   1.519
 7224SOL     OW22570   5.793   2.090   3.601
 7224SOL    HW122571   5.790   2.108   3.699
 7224SOL    HW222572   5.825   2.172   3.553
 7225SOL     OW22573   1.230   6.049   0.334
 7225SOL    HW122574   1.142   6.025   0.293
 7225SOL    HW222575   1.228   6.028   0.431
 7226SOL     OW22576   6.911   0.996   1.156
 7226SOL    HW122577   6.994   0.942   1.142
 7226SOL    HW222578   6.905   1.065   1.083
 7227SOL     OW22579   1.164   2.613   1.003
 7227SOL    HW122580   1.070   2.636   0.980
 7227SOL    HW222581   1.169   2.580   1.097
 7228SOL     OW22582   0.775   1.584   2.461
 7228SOL    HW122583   0.692   1.532   2.442
 7228SOL    HW222584   0.756   1.682   2.448
 7229SOL     OW22585   1.548   6.472   5.307
 7229SOL    HW122586   1.573   6.549   5.365
 7229SOL    HW222587   1.503   6.506   5.225
 7230SOL     OW22588   4.607   5.089   4.543
 7230SOL    HW122589   4.605   5.042   4.455
 7230SOL    HW222590   4.676   5.162   4.541
 7231SOL     OW22591   4.806   0.124   0.311
 7231SOL    HW122592   4.835   0.219   0.321
 7231SOL    HW222593   4.733   0.105   0.377
 7232SOL     OW22594   5.397   5.431   2.606
 7232SOL    HW122595   5.429   5.496   2.675
 7232SOL    HW222596   5.326   5.474   2.550
 7233SOL     OW22597   0.472   2.668   4.425
 7233SOL    HW122598   0.441   2.602   4.494
 7233SOL    HW222599   0.424   2.651   4.340
 7234SOL     OW22600   5.513   3.580   3.398
 7234SOL    HW122601   5.442   3.622   3.342
 7234SOL    HW222602   5.493   3.483   3.411
 7235SOL     OW22603   6.714   3.985   1.843
 7235SOL    HW122604   6.686   4.027   1.757
 7235SOL    HW222605   6.718   3.886   1.832
 7236SOL     OW22606   2.320   1.823   2.287
 7236SOL    HW122607   2.393   1.874   2.241
 7236SOL    HW222608   2.234   1.836   2.239
 7237SOL     OW22609   5.342   0.382   4.940
 7237SOL    HW122610   5.379   0.354   5.028
 7237SOL    HW222611   5.286   0.464   4.952
 7238SOL     OW22612   3.015   2.023   1.346
 7238SOL    HW122613   2.930   2.063   1.311
 7238SOL    HW222614   2.995   1.934   1.387
 7239SOL     OW22615   1.764   2.204   2.383
 7239SOL    HW122616   1.831   2.265   2.340
 7239SOL    HW222617   1.711   2.158   2.312
 7240SOL     OW22618   2.614   4.880   6.037
 7240SOL    HW122619   2.649   4.887   5.944
 7240SOL    HW222620   2.517   4.903   6.038
 7241SOL     OW22621   2.416   0.752   0.611
 7241SOL    HW122622   2.345   0.783   0.547
 7241SOL    HW222623   2.505   0.756   0.567
 7242SOL     OW22624   6.054   6.044   0.405
 7242SOL    HW122625   6.033   6.135   0.440
 7242SOL    HW222626   6.071   6.049   0.307
 7243SOL     OW22627   6.635   4.498   5.974
 7243SOL    HW122628   6.634   4.594   6.004
 7243SOL    HW222629   6.724   4.458   5.994
 7244SOL     OW22630   6.158   0.448   0.853
 7244SOL    HW122631   6.115   0.538   0.848
 7244SOL    HW222632   6.148   0.412   0.945
 7245SOL     OW22633   0.483   1.923   5.149
 7245SOL    HW122634   0.410   1.907   5.082
 7245SOL    HW222635   0.552   1.982   5.109
 7246SOL     OW22636   6.450   0.312   3.988
 7246SOL    HW122637   6.387   0.371   4.040
 7246SOL    HW222638   6.536   0.303   4.038
 7247SOL     OW22639   3.119   7.012   4.276
 7247SOL    HW122640   3.090   6.918   4.261
 7247SOL    HW222641   3.136   0.034   4.188
 7248SOL     OW22642   3.628   0.911   3.559
 7248SOL    HW122643   3.705   0.968   3.528
 7248SOL    HW222644   3.548   0.931   3.502
 7249SOL     OW22645   5.624   4.536   2.137
 7249SOL    HW122646   5.616   4.579   2.047
 7249SOL    HW222647   5.676   4.595   2.198
 7250SOL     OW22648   3.990   6.119   6.360
 7250SOL    HW122649   3.918   6.186   6.380
 7250SOL    HW222650   3.950   6.028   6.351
 7251SOL     OW22651   0.491   6.896   5.341
 7251SOL    HW122652   0.519   6.800   5.345
 7251SOL    HW222653   0.397   6.902   5.308
 7252SOL     OW22654   3.500   3.185   3.243
 7252SOL    HW122655   3.409   3.146   3.232
 7252SOL    HW222656   3.567   3.111   3.250
 7253SOL     OW22657   2.547   5.958   6.403
 7253SOL    HW122658   2.600   6.022   6.459
 7253SOL    HW222659   2.451   5.985   6.403
 7254SOL     OW22660   4.545   5.511   4.653
 7254SOL    HW122661   4.607   5.532   4.578
 7254SOL    HW222662   4.502   5.422   4.636
 7255SOL     OW22663   3.895   3.796   0.927
 7255SOL    HW122664   3.887   3.886   0.968
 7255SOL    HW222665   3.803   3.760   0.909
 7256SOL     OW22666   4.503   4.520   4.491
 7256SOL    HW122667   4.408   4.519   4.521
 7256SOL    HW222668   4.514   4.589   4.418
 7257SOL     OW22669   4.916   3.348   3.922
 7257SOL    HW122670   4.851   3.396   3.862
 7257SOL    HW222671   4.988   3.308   3.866
 7258SOL     OW22672   4.090   0.914   2.780
 7258SOL    HW122673   4.168   0.878   2.831
 7258SOL    HW222674   4.048   0.988   2.832
 7259SOL     OW22675   3.269   3.522   1.327
 7259SOL    HW122676   3.251   3.609   1.282
 7259SOL    HW222677   3.270   3.535   1.426
 7260SOL     OW22678   2.729   2.333   2.529
 7260SOL    HW122679   2.737   2.321   2.430
 7260SOL    HW222680   2.807   2.386   2.563
 7261SOL     OW22681   2.230   2.890   1.383
 7261SOL    HW122682   2.180   2.854   1.305
 7261SOL    HW222683   2.195   2.848   1.467
 7262SOL     OW22684   5.402   1.714   4.667
 7262SOL    HW122685   5.489   1.688   4.625
 7262SOL    HW222686   5.411   1.709   4.767
 7263SOL     OW22687   0.294   6.631   2.077
 7263SOL    HW122688   0.202   6.642   2.040
 7263SOL    HW222689   0.311   6.701   2.147
 7264SOL     OW22690   5.870   1.401   6.433
 7264SOL    HW122691   5.960   1.440   6.411
 7264SOL    HW222692   5.880   1.303   6.450
 7265SOL     OW22693   5.473   6.001   5.916
 7265SOL    HW122694   5.403   5.931   5.904
 7265SOL    HW222695   5.433   6.080   5.963
 7266SOL     OW22696   4.688   0.362   1.381
 7266SOL    HW122697   4.700   0.264   1.370
 7266SOL    HW222698   4.657   0.383   1.474
 7267SOL     OW22699   6.701   5.530   5.519
 7267SOL    HW122700   6.747   5.574   5.442
 7267SOL    HW222701   6.616   5.577   5.538
 7268SOL     OW22702   4.436   4.741   2.897
 7268SOL    HW122703   4.360   4.793   2.937
 7268SOL    HW222704   4.413   4.715   2.803
 7269SOL     OW22705   0.033   6.248   1.053
 7269SOL    HW122706   0.050   6.222   1.149
 7269SOL    HW222707   0.112   6.298   1.018
 7270SOL     OW22708   0.781   2.764   4.938
 7270SOL    HW122709   0.863   2.775   4.995
 7270SOL    HW222710   0.808   2.741   4.845
 7271SOL     OW22711   0.455   5.208   4.112
 7271SOL    HW122712   0.501   5.243   4.031
 7271SOL    HW222713   0.506   5.131   4.149
 7272SOL     OW22714   5.618   4.633   1.872
 7272SOL    HW122715   5.533   4.581   1.878
 7272SOL    HW222716   5.684   4.583   1.816
 7273SOL     OW22717   4.986   5.074   2.294
 7273SOL    HW122718   4.912   5.022   2.252
 7273SOL    HW222719   5.021   5.141   2.229
 7274SOL     OW22720   1.119   6.225   6.890
 7274SOL    HW122721   1.049   6.172   6.842
 7274SOL    HW222722   1.183   6.164   6.935
 7275SOL     OW22723   7.013   1.117   2.596
 7275SOL    HW122724   6.928   1.066   2.611
 7275SOL    HW222725   0.047   1.114   2.679
 7276SOL     OW22726   3.700   1.201   3.172
 7276SOL    HW122727   3.692   1.218   3.074
 7276SOL    HW222728   3.792   1.166   3.193
 7277SOL     OW22729   5.092   1.094   4.310
 7277SOL    HW122730   5.129   1.088   4.403
 7277SOL    HW222731   5.104   1.187   4.275
 7278SOL     OW22732   3.399   1.848   2.027
 7278SOL    HW122733   3.343   1.912   2.079
 7278SOL    HW222734   3.496   1.865   2.047
 7279SOL     OW22735   3.846   2.553   6.352
 7279SOL    HW122736   3.829   2.510   6.263
 7279SOL    HW222737   3.826   2.651   6.345
 7280SOL     OW22738   6.966   2.165   4.161
 7280SOL    HW122739   0.042   2.144   4.169
 7280SOL    HW222740   6.951   2.221   4.079
 7281SOL     OW22741   2.026   0.629   0.479
 7281SOL    HW122742   1.935   0.602   0.449
 7281SOL    HW222743   2.070   0.552   0.526
 7282SOL     OW22744   6.673   6.605   0.476
 7282SOL    HW122745   6.733   6.685   0.480
 7282SOL    HW222746   6.594   6.627   0.418
 7283SOL     OW22747   3.156   0.027   1.931
 7283SOL    HW122748   3.147   0.047   1.833
 7283SOL    HW222749   3.149   0.112   1.983
 7284SOL     OW22750   0.025   3.176   4.856
 7284SOL    HW122751   0.036   3.189   4.955
 7284SOL    HW222752   6.951   3.168   4.834
 7285SOL     OW22753   5.742   3.710   2.060
 7285SOL    HW122754   5.787   3.621   2.059
 7285SOL    HW222755   5.685   3.720   1.979
 7286SOL     OW22756   1.088   0.456   1.393
 7286SOL    HW122757   1.137   0.503   1.319
 7286SOL    HW222758   1.152   0.431   1.465
 7287SOL     OW22759   6.691   3.487   4.616
 7287SOL    HW122760   6.606   3.540   4.616
 7287SOL    HW222761   6.754   3.525   4.548
 7288SOL     OW22762   1.229   2.379   1.755
 7288SOL    HW122763   1.302   2.411   1.814
 7288SOL    HW222764   1.229   2.279   1.752
 7289SOL     OW22765   6.758   2.045   3.027
 7289SOL    HW122766   6.683   2.111   3.021
 7289SOL    HW222767   6.726   1.956   2.994
 7290SOL     OW22768   3.326   0.961   5.705
 7290SOL    HW122769   3.298   0.865   5.706
 7290SOL    HW222770   3.247   1.018   5.684
 7291SOL     OW22771   2.849   6.942   0.936
 7291SOL    HW122772   2.779   6.881   0.900
 7291SOL    HW222773   2.908   6.892   1.000
 7292SOL     OW22774   2.768   0.237   2.969
 7292SOL    HW122775   2.809   0.312   3.021
 7292SOL    HW222776   2.679   0.266   2.933
 7293SOL     OW22777   1.878   0.871   6.212
 7293SOL    HW122778   1.963   0.875   6.159
 7293SOL    HW222779   1.837   0.963   6.215
 7294SOL     OW22780   3.205   3.962   0.547
 7294SOL    HW122781   3.112   3.961   0.511
 7294SOL    HW222782   3.213   3.891   0.617
 7295SOL     OW22783   6.940   4.332   1.824
 7295SOL    HW122784   6.973   4.260   1.885
 7295SOL    HW222785   6.949   4.301   1.729
 7296SOL     OW22786   4.581   5.038   2.712
 7296SOL    HW122787   4.656   4.991   2.757
 7296SOL    HW222788   4.548   4.983   2.635
 7297SOL     OW22789   2.853   0.136   2.499
 7297SOL    HW122790   2.841   0.225   2.544
 7297SOL    HW222791   2.782   0.125   2.429
 7298SOL     OW22792   5.131   5.613   0.103
 7298SOL    HW122793   5.186   5.696   0.104
 7298SOL    HW222794   5.062   5.619   0.031
 7299SOL     OW22795   0.378   1.768   0.491
 7299SOL    HW122796   0.461   1.800   0.444
 7299SOL    HW222797   0.382   1.669   0.502
 7300SOL     OW22798   0.500   5.969   2.059
 7300SOL    HW122799   0.443   5.895   2.095
 7300SOL    HW222800   0.573   5.990   2.124
 7301SOL     OW22801   6.356   1.933   5.907
 7301SOL    HW122802   6.323   1.978   5.990
 7301SOL    HW222803   6.447   1.969   5.885
 7302SOL     OW22804   0.401   1.976   5.689
 7302SOL    HW122805   0.320   1.921   5.707
 7302SOL    HW222806   0.444   1.947   5.603
 7303SOL     OW22807   3.624   0.799   6.844
 7303SOL    HW122808   3.575   0.724   6.888
 7303SOL    HW222809   3.561   0.874   6.825
 7304SOL     OW22810   1.752   5.582   1.837
 7304SOL    HW122811   1.789   5.600   1.928
 7304SOL    HW222812   1.813   5.519   1.789
 7305SOL     OW22813   5.433   1.974   1.451
 7305SOL    HW122814   5.524   1.987   1.411
 7305SOL    HW222815   5.391   2.064   1.467
 7306SOL     OW22816   3.772   1.644   1.834
 7306SOL    HW122817   3.853   1.623   1.779
 7306SOL    HW222818   3.789   1.728   1.887
 7307SOL     OW22819   4.240   0.136   2.157
 7307SOL    HW122820   4.224   0.206   2.089
 7307SOL    HW222821   4.315   0.164   2.218
 7308SOL     OW22822   6.346   1.188   3.607
 7308SOL    HW122823   6.400   1.257   3.656
 7308SOL    HW222824   6.279   1.149   3.670
 7309SOL     OW22825   2.836   0.212   1.567
 7309SOL    HW122826   2.765   0.182   1.630
 7309SOL    HW222827   2.832   0.312   1.558
 7310SOL     OW22828   1.611   3.191   6.397
 7310SOL    HW122829   1.699   3.144   6.391
 7310SOL    HW222830   1.597   3.224   6.490
 7311SOL     OW22831   1.040   0.192   0.598
 7311SOL    HW122832   0.997   0.143   0.674
 7311SOL    HW222833   1.007   0.155   0.511
 7312SOL     OW22834   0.851   1.778   4.798
 7312SOL    HW122835   0.856   1.695   4.742
 7312SOL    HW222836   0.776   1.771   4.863
 7313SOL     OW22837   2.263   1.720   0.705
 7313SOL    HW122838   2.210   1.692   0.624
 7313SOL    HW222839   2.211   1.698   0.788
 7314SOL     OW22840   0.072   4.087   6.000
 7314SOL    HW122841   0.037   3.994   6.009
 7314SOL    HW222842   0.168   4.090   6.027
 7315SOL     OW22843   5.583   5.594   2.109
 7315SOL    HW122844   5.488   5.623   2.118
 7315SOL    HW222845   5.642   5.675   2.098
 7316SOL     OW22846   3.660   2.231   6.433
 7316SOL    HW122847   3.597   2.184   6.496
 7316SOL    HW222848   3.753   2.198   6.449
 7317SOL     OW22849   3.463   1.353   2.156
 7317SOL    HW122850   3.466   1.453   2.147
 7317SOL    HW222851   3.417   1.329   2.242
 7318SOL     OW22852   3.431   6.465   3.207
 7318SOL    HW122853   3.337   6.461   3.241
 7318SOL    HW222854   3.474   6.375   3.217
 7319SOL     OW22855   6.118   3.692   6.280
 7319SOL    HW122856   6.085   3.754   6.210
 7319SOL    HW222857   6.071   3.604   6.272
 7320SOL     OW22858   0.614   3.567   6.694
 7320SOL    HW122859   0.534   3.574   6.754
 7320SOL    HW222860   0.598   3.498   6.624
 7321SOL     OW22861   2.163   6.770   6.362
 7321SOL    HW122862   2.148   6.728   6.272
 7321SOL    HW222863   2.151   6.701   6.433
 7322SOL     OW22864   0.250   3.155   2.527
 7322SOL    HW122865   0.293   3.082   2.474
 7322SOL    HW222866   0.244   3.238   2.471
 7323SOL     OW22867   2.653   2.688   1.306
 7323SOL    HW122868   2.622   2.688   1.211
 7323SOL    HW222869   2.633   2.777   1.348
 7324SOL     OW22870   6.131   4.971   2.721
 7324SOL    HW122871   6.175   5.061   2.714
 7324SOL    HW222872   6.143   4.922   2.635
 7325SOL     OW22873   2.590   6.844   4.940
 7325SOL    HW122874   2.586   6.817   5.037
 7325SOL    HW222875   2.501   6.880   4.912
 7326SOL     OW22876   3.575   0.220   6.185
 7326SOL    HW122877   3.566   0.226   6.285
 7326SOL    HW222878   3.622   0.135   6.161
 7327SOL     OW22879   5.736   3.298   3.577
 7327SOL    HW122880   5.702   3.307   3.670
 7327SOL    HW222881   5.803   3.370   3.558
 7328SOL     OW22882   4.578   6.423   5.725
 7328SOL    HW122883   4.668   6.455   5.755
 7328SOL    HW222884   4.507   6.472   5.775
 7329SOL     OW22885   1.331   2.721   0.362
 7329SOL    HW122886   1.362   2.763   0.447
 7329SOL    HW222887   1.408   2.716   0.298
 7330SOL     OW22888   2.230   3.042   0.873
 7330SOL    HW122889   2.221   3.100   0.791
 7330SOL    HW222890   2.157   2.973   0.872
 7331SOL     OW22891   5.338   6.434   2.228
 7331SOL    HW122892   5.430   6.467   2.209
 7331SOL    HW222893   5.272   6.485   2.171
 7332SOL     OW22894   3.852   4.149   6.827
 7332SOL    HW122895   3.884   4.232   6.873
 7332SOL    HW222896   3.752   4.146   6.829
 7333SOL     OW22897   5.905   3.423   2.553
 7333SOL    HW122898   5.830   3.476   2.594
 7333SOL    HW222899   5.985   3.428   2.613
 7334SOL     OW22900   2.779   5.716   5.603
 7334SOL    HW122901   2.817   5.706   5.511
 7334SOL    HW222902   2.721   5.798   5.607
 7335SOL     OW22903   0.078   2.414   3.518
 7335SOL    HW122904   0.114   2.346   3.454
 7335SOL    HW222905   0.024   2.369   3.589
 7336SOL     OW22906   2.294   6.480   1.449
 7336SOL    HW122907   2.354   6.432   1.512
 7336SOL    HW222908   2.266   6.418   1.375
 7337SOL     OW22909   2.071   3.160   1.066
 7337SOL    HW122910   2.142   3.128   1.003
 7337SOL    HW222911   2.113   3.215   1.138
 7338SOL     OW22912   5.756   1.632   1.746
 7338SOL    HW122913   5.769   1.533   1.735
 7338SOL    HW222914   5.692   1.664   1.677
 7339SOL     OW22915   7.021   0.487   5.222
 7339SOL    HW122916   0.032   0.574   5.258
 7339SOL    HW222917   6.984   0.500   5.130
 7340SOL     OW22918   3.745   2.037   6.694
 7340SOL    HW122919   3.799   1.960   6.662
 7340SOL    HW222920   3.704   2.015   6.783
 7341SOL     OW22921   1.567   5.079   5.301
 7341SOL    HW122922   1.643   5.014   5.307
 7341SOL    HW222923   1.485   5.038   5.341
 7342SOL     OW22924   5.921   6.925   6.901
 7342SOL    HW122925   5.860   6.936   6.980
 7342SOL    HW222926   5.934   6.827   6.882
 7343SOL     OW22927   5.845   3.224   1.950
 7343SOL    HW122928   5.829   3.209   1.852
 7343SOL    HW222929   5.789   3.159   2.002
 7344SOL     OW22930   2.108   0.168   6.502
 7344SOL    HW122931   2.197   0.205   6.529
 7344SOL    HW222932   2.092   0.082   6.550
 7345SOL     OW22933   5.044   6.028   5.498
 7345SOL    HW122934   5.009   5.994   5.585
 7345SOL    HW222935   5.016   6.122   5.485
 7346SOL     OW22936   3.734   4.175   1.237
 7346SOL    HW122937   3.655   4.219   1.279
 7346SOL    HW222938   3.818   4.217   1.272
 7347SOL     OW22939   6.310   2.672   1.291
 7347SOL    HW122940   6.357   2.705   1.209
 7347SOL    HW222941   6.221   2.634   1.265
 7348SOL     OW22942   1.644   3.576   3.475
 7348SOL    HW122943   1.671   3.493   3.524
 7348SOL    HW222944   1.623   3.648   3.542
 7349SOL     OW22945   3.848   1.472   1.476
 7349SOL    HW122946   3.908   1.443   1.401
 7349SOL    HW222947   3.766   1.516   1.437
 7350SOL     OW22948   1.444   3.689   3.938
 7350SOL    HW122949   1.530   3.667   3.985
 7350SOL    HW222950   1.394   3.604   3.918
 7351SOL     OW22951   3.851   4.639   6.388
 7351SOL    HW122952   3.846   4.623   6.487
 7351SOL    HW222953   3.907   4.719   6.370
 7352SOL     OW22954   1.740   3.148   3.141
 7352SOL    HW122955   1.807   3.219   3.162
 7352SOL    HW222956   1.771   3.096   3.062
 7353SOL     OW22957   0.623   0.461   5.705
 7353SOL    HW122958   0.661   0.370   5.721
 7353SOL    HW222959   0.620   0.479   5.607
 7354SOL     OW22960   0.570   1.328   6.045
 7354SOL    HW122961   0.617   1.352   6.130
 7354SOL    HW222962   0.519   1.408   6.012
 7355SOL     OW22963   1.538   6.998   0.194
 7355SOL    HW122964   1.523   6.955   0.283
 7355SOL    HW222965   1.458   0.028   0.167
 7356SOL     OW22966   5.259   2.646   6.387
 7356SOL    HW122967   5.295   2.599   6.306
 7356SOL    HW222968   5.171   2.689   6.364
 7357SOL     OW22969   4.422   1.035   1.441
 7357SOL    HW122970   4.503   0.977   1.433
 7357SOL    HW222971   4.391   1.036   1.536
 7358SOL     OW22972   1.839   2.148   2.063
 7358SOL    HW122973   1.939   2.152   2.051
 7358SOL    HW222974   1.798   2.106   1.982
 7359SOL     OW22975   2.926   2.779   0.645
 7359SOL    HW122976   2.847   2.815   0.693
 7359SOL    HW222977   2.903   2.765   0.548
 7360SOL     OW22978   3.349   2.587   5.740
 7360SOL    HW122979   3.289   2.612   5.664
 7360SOL    HW222980   3.377   2.491   5.731
 7361SOL     OW22981   4.096   0.150   1.888
 7361SOL    HW122982   4.013   0.112   1.847
 7361SOL    HW222983   4.072   0.227   1.947
 7362SOL     OW22984   0.723   6.782   4.813
 7362SOL    HW122985   0.662   6.845   4.765
 7362SOL    HW222986   0.791   6.745   4.749
 7363SOL     OW22987   3.842   1.776   1.251
 7363SOL    HW122988   3.781   1.697   1.260
 7363SOL    HW222989   3.935   1.748   1.274
 7364SOL     OW22990   4.246   0.200   1.440
 7364SOL    HW122991   4.268   0.153   1.355
 7364SOL    HW222992   4.161   0.163   1.478
 7365SOL     OW22993   1.268   6.121   2.116
 7365SOL    HW122994   1.308   6.187   2.181
 7365SOL    HW222995   1.320   6.035   2.120
 7366SOL     OW22996   1.676   5.624   0.543
 7366SOL    HW122997   1.667   5.685   0.464
 7366SOL    HW222998   1.585   5.607   0.582
 7367SOL     OW22999   4.886   3.961   1.215
 7367SOL    HW123000   4.940   4.044   1.202
 7367SOL    HW223001   4.899   3.927   1.308
 7368SOL     OW23002   3.708   2.972   4.170
 7368SOL    HW123003   3.641   2.919   4.223
 7368SOL    HW223004   3.697   3.069   4.191
 7369SOL     OW23005   4.568   3.146   0.859
 7369SOL    HW123006   4.640   3.158   0.929
 7369SOL    HW223007   4.610   3.143   0.769
 7370SOL     OW23008   2.352   0.057   5.374
 7370SOL    HW123009   2.307   0.051   5.463
 7370SOL    HW223010   2.424   0.126   5.377
 7371SOL     OW23011   2.165   6.053   3.920
 7371SOL    HW123012   2.236   6.091   3.861
 7371SOL    HW223013   2.137   5.964   3.885
 7372SOL     OW23014   2.794   1.018   5.672
 7372SOL    HW123015   2.696   1.002   5.674
 7372SOL    HW223016   2.841   0.936   5.639
 7373SOL     OW23017   5.563   1.622   3.814
 7373SOL    HW123018   5.464   1.628   3.796
 7373SOL    HW223019   5.611   1.607   3.728
 7374SOL     OW23020   2.877   2.246   5.192
 7374SOL    HW123021   2.969   2.283   5.186
 7374SOL    HW223022   2.866   2.172   5.125
 7375SOL     OW23023   1.672   2.839   3.131
 7375SOL    HW123024   1.724   2.766   3.086
 7375SOL    HW223025   1.708   2.854   3.223
 7376SOL     OW23026   4.144   1.751   0.317
 7376SOL    HW123027   4.081   1.771   0.392
 7376SOL    HW223028   4.133   1.820   0.246
 7377SOL     OW23029   5.514   5.866   1.852
 7377SOL    HW123030   5.445   5.899   1.916
 7377SOL    HW223031   5.489   5.895   1.759
 7378SOL     OW23032   6.969   1.855   5.064
 7378SOL    HW123033   0.019   1.913   5.026
 7378SOL    HW223034   6.934   1.794   4.992
 7379SOL     OW23035   4.052   2.260   3.102
 7379SOL    HW123036   4.085   2.278   3.009
 7379SOL    HW223037   3.975   2.197   3.098
 7380SOL     OW23038   6.787   3.078   5.122
 7380SOL    HW123039   6.742   3.004   5.172
 7380SOL    HW223040   6.722   3.152   5.106
 7381SOL     OW23041   5.087   4.128   2.302
 7381SOL    HW123042   5.016   4.058   2.307
 7381SOL    HW223043   5.105   4.151   2.206
 7382SOL     OW23044   0.179   5.631   6.008
 7382SOL    HW123045   0.125   5.654   6.089
 7382SOL    HW223046   0.264   5.684   6.009
 7383SOL     OW23047   0.450   6.513   1.675
 7383SOL    HW123048   0.420   6.488   1.767
 7383SOL    HW223049   0.454   6.430   1.618
 7384SOL     OW23050   5.731   0.737   2.382
 7384SOL    HW123051   5.732   0.811   2.315
 7384SOL    HW223052   5.695   0.654   2.339
 7385SOL     OW23053   4.469   6.385   2.074
 7385SOL    HW123054   4.377   6.393   2.113
 7385SOL    HW223055   4.473   6.304   2.015
 7386SOL     OW23056   6.895   2.167   5.760
 7386SOL    HW123057   6.872   2.071   5.776
 7386SOL    HW223058   6.818   2.224   5.786
 7387SOL     OW23059   4.404   6.244   4.811
 7387SOL    HW123060   4.452   6.331   4.801
 7387SOL    HW223061   4.379   6.209   4.721
 7388SOL     OW23062   0.469   5.337   3.670
 7388SOL    HW123063   0.500   5.246   3.699
 7388SOL    HW223064   0.541   5.404   3.689
 7389SOL     OW23065   1.126   4.594   7.002
 7389SOL    HW123066   1.104   4.517   0.039
 7389SOL    HW223067   1.056   4.602   6.930
 7390SOL     OW23068   1.702   1.078   6.716
 7390SOL    HW123069   1.770   1.025   6.767
 7390SOL    HW223070   1.629   1.107   6.778
 7391SOL     OW23071   5.321   4.079   4.486
 7391SOL    HW123072   5.386   4.144   4.448
 7391SOL    HW223073   5.369   4.002   4.526
 7392SOL     OW23074   2.808   5.588   6.997
 7392SOL    HW123075   2.893   5.581   0.028
 7392SOL    HW223076   2.827   5.566   6.901
 7393SOL     OW23077   5.327   5.176   1.511
 7393SOL    HW123078   5.231   5.150   1.503
 7393SOL    HW223079   5.371   5.117   1.579
 7394SOL     OW23080   3.264   2.410   6.242
 7394SOL    HW123081   3.345   2.352   6.252
 7394SOL    HW223082   3.198   2.365   6.183
 7395SOL     OW23083   2.398   1.666   0.116
 7395SOL    HW123084   2.462   1.722   0.064
 7395SOL    HW223085   2.421   1.671   0.213
 7396SOL     OW23086   1.244   6.784   0.515
 7396SOL    HW123087   1.192   6.710   0.557
 7396SOL    HW223088   1.196   6.819   0.435
 7397SOL     OW23089   5.328   5.590   5.173
 7397SOL    HW123090   5.333   5.651   5.094
 7397SOL    HW223091   5.363   5.500   5.146
 7398SOL     OW23092   3.034   5.104   4.104
 7398SOL    HW123093   2.946   5.073   4.140
 7398SOL    HW223094   3.050   5.198   4.133
 7399SOL     OW23095   0.748   3.333   5.403
 7399SOL    HW123096   0.659   3.373   5.382
 7399SOL    HW223097   0.756   3.322   5.502
 7400SOL     OW23098   2.621   3.259   6.191
 7400SOL    HW123099   2.597   3.296   6.281
 7400SOL    HW223100   2.705   3.302   6.158
 7401SOL     OW23101   0.817   0.929   4.122
 7401SOL    HW123102   0.748   0.903   4.189
 7401SOL    HW223103   0.900   0.875   4.137
 7402SOL     OW23104   2.295   5.374   5.127
 7402SOL    HW123105   2.282   5.452   5.187
 7402SOL    HW223106   2.350   5.401   5.048
 7403SOL     OW23107   1.514   3.835   3.586
 7403SOL    HW123108   1.528   3.849   3.488
 7403SOL    HW223109   1.477   3.918   3.627
 7404SOL     OW23110   2.781   5.800   1.542
 7404SOL    HW123111   2.817   5.847   1.461
 7404SOL    HW223112   2.857   5.769   1.599
 7405SOL     OW23113   2.692   4.864   4.422
 7405SOL    HW123114   2.703   4.771   4.458
 7405SOL    HW223115   2.602   4.899   4.449
 7406SOL     OW23116   1.204   3.492   3.380
 7406SOL    HW123117   1.236   3.412   3.431
 7406SOL    HW223118   1.216   3.574   3.436
 7407SOL     OW23119   6.975   5.854   5.030
 7407SOL    HW123120   6.992   5.756   5.042
 7407SOL    HW223121   0.026   5.906   5.075
 7408SOL     OW23122   1.166   3.319   5.932
 7408SOL    HW123123   1.260   3.286   5.939
 7408SOL    HW223124   1.110   3.275   6.002
 7409SOL     OW23125   0.825   0.948   5.203
 7409SOL    HW123126   0.762   1.009   5.154
 7409SOL    HW223127   0.787   0.855   5.204
 7410SOL     OW23128   0.358   5.072   1.214
 7410SOL    HW123129   0.294   5.149   1.218
 7410SOL    HW223130   0.409   5.067   1.299
 7411SOL     OW23131   3.144   6.525   4.275
 7411SOL    HW123132   3.184   6.440   4.240
 7411SOL    HW223133   3.045   6.523   4.260
 7412SOL     OW23134   4.142   0.352   2.687
 7412SOL    HW123135   4.172   0.326   2.779
 7412SOL    HW223136   4.046   0.379   2.690
 7413SOL     OW23137   5.459   5.077   4.979
 7413SOL    HW123138   5.543   5.092   5.031
 7413SOL    HW223139   5.479   5.022   4.898
 7414SOL     OW23140   6.861   6.835   4.104
 7414SOL    HW123141   6.924   6.841   4.027
 7414SOL    HW223142   6.913   6.818   4.188
 7415SOL     OW23143   1.283   4.086   2.935
 7415SOL    HW123144   1.378   4.081   2.965
 7415SOL    HW223145   1.253   3.996   2.903
 7416SOL     OW23146   3.054   0.913   3.686
 7416SOL    HW123147   2.975   0.945   3.633
 7416SOL    HW223148   3.022   0.861   3.765
 7417SOL     OW23149   2.222   7.020   5.631
 7417SOL    HW123150   2.153   6.953   5.603
 7417SOL    HW223151   2.257   6.996   5.722
 7418SOL     OW23152   3.902   5.166   0.197
 7418SOL    HW123153   3.868   5.249   0.154
 7418SOL    HW223154   3.986   5.186   0.247
 7419SOL     OW23155   6.086   2.309   4.764
 7419SOL    HW123156   6.110   2.403   4.786
 7419SOL    HW223157   6.037   2.307   4.676
 7420SOL     OW23158   6.725   6.649   1.937
 7420SOL    HW123159   6.777   6.565   1.949
 7420SOL    HW223160   6.788   6.723   1.912
 7421SOL     OW23161   3.306   3.884   1.404
 7421SOL    HW123162   3.338   3.828   1.327
 7421SOL    HW223163   3.298   3.826   1.485
 7422SOL     OW23164   0.280   3.367   2.357
 7422SOL    HW123165   0.183   3.383   2.370
 7422SOL    HW223166   0.302   3.369   2.259
 7423SOL     OW23167   6.778   4.146   5.831
 7423SOL    HW123168   6.802   4.097   5.914
 7423SOL    HW223169   6.694   4.197   5.845
 7424SOL     OW23170   6.599   0.577   4.553
 7424SOL    HW123171   6.528   0.507   4.542
 7424SOL    HW223172   6.686   0.542   4.518
 7425SOL     OW23173   4.966   5.848   6.583
 7425SOL    HW123174   4.909   5.772   6.612
 7425SOL    HW223175   4.910   5.917   6.537
 7426SOL     OW23176   1.296   1.805   6.302
 7426SOL    HW123177   1.253   1.779   6.215
 7426SOL    HW223178   1.391   1.773   6.303
 7427SOL     OW23179   3.326   6.020   3.840
 7427SOL    HW123180   3.239   6.070   3.845
 7427SOL    HW223181   3.326   5.946   3.907
 7428SOL     OW23182   3.750   1.731   5.534
 7428SOL    HW123183   3.825   1.679   5.573
 7428SOL    HW223184   3.774   1.828   5.532
 7429SOL     OW23185   5.291   0.067   3.361
 7429SOL    HW123186   5.257   0.161   3.371
 7429SOL    HW223187   5.334   0.057   3.271
 7430SOL     OW23188   0.102   3.989   6.308
 7430SOL    HW123189   0.098   4.039   6.394
 7430SOL    HW223190   0.175   4.027   6.251
 7431SOL     OW23191   0.502   3.263   2.562
 7431SOL    HW123192   0.421   3.204   2.554
 7431SOL    HW223193   0.488   3.330   2.635
 7432SOL     OW23194   0.376   0.303   3.641
 7432SOL    HW123195   0.338   0.269   3.556
 7432SOL    HW223196   0.476   0.309   3.633
 7433SOL     OW23197   5.996   5.034   0.660
 7433SOL    HW123198   6.017   5.107   0.726
 7433SOL    HW223199   5.910   4.990   0.684
 7434SOL     OW23200   4.546   0.723   6.185
 7434SOL    HW123201   4.565   0.804   6.130
 7434SOL    HW223202   4.475   0.744   6.252
 7435SOL     OW23203   4.027   5.555   0.343
 7435SOL    HW123204   3.951   5.494   0.364
 7435SOL    HW223205   4.014   5.595   0.253
 7436SOL     OW23206   5.739   3.236   6.355
 7436SOL    HW123207   5.714   3.300   6.282
 7436SOL    HW223208   5.693   3.264   6.439
 7437SOL     OW23209   0.285   6.077   0.381
 7437SOL    HW123210   0.327   6.157   0.424
 7437SOL    HW223211   0.186   6.077   0.398
 7438SOL     OW23212   0.670   5.666   1.170
 7438SOL    HW123213   0.699   5.592   1.108
 7438SOL    HW223214   0.626   5.738   1.117
 7439SOL     OW23215   1.377   6.110   4.860
 7439SOL    HW123216   1.332   6.190   4.820
 7439SOL    HW223217   1.465   6.096   4.816
 7440SOL     OW23218   0.894   3.395   4.443
 7440SOL    HW123219   0.942   3.336   4.379
 7440SOL    HW223220   0.809   3.428   4.403
 7441SOL     OW23221   4.495   5.776   4.970
 7441SOL    HW123222   4.433   5.853   4.988
 7441SOL    HW223223   4.589   5.804   4.988
 7442SOL     OW23224   0.800   0.836   6.424
 7442SOL    HW123225   0.793   0.921   6.373
 7442SOL    HW223226   0.884   0.788   6.397
 7443SOL     OW23227   0.497   0.911   1.594
 7443SOL    HW123228   0.563   0.845   1.629
 7443SOL    HW223229   0.408   0.896   1.637
 7444SOL     OW23230   6.719   3.321   4.820
 7444SOL    HW123231   6.684   3.377   4.745
 7444SOL    HW223232   6.747   3.380   4.896
 7445SOL     OW23233   3.375   1.110   1.304
 7445SOL    HW123234   3.463   1.085   1.345
 7445SOL    HW223235   3.328   1.174   1.364
 7446SOL     OW23236   5.538   4.160   1.282
 7446SOL    HW123237   5.618   4.102   1.292
 7446SOL    HW223238   5.455   4.105   1.292
 7447SOL     OW23239   1.023   3.294   5.177
 7447SOL    HW123240   1.104   3.297   5.235
 7447SOL    HW223241   1.028   3.215   5.116
 7448SOL     OW23242   6.031   6.618   4.986
 7448SOL    HW123243   5.959   6.664   5.039
 7448SOL    HW223244   6.019   6.638   4.889
 7449SOL     OW23245   6.605   2.451   1.861
 7449SOL    HW123246   6.613   2.372   1.922
 7449SOL    HW223247   6.695   2.492   1.847
 7450SOL     OW23248   5.001   2.275   4.346
 7450SOL    HW123249   4.937   2.251   4.419
 7450SOL    HW223250   4.999   2.374   4.330
 7451SOL     OW23251   1.132   6.695   2.697
 7451SOL    HW123252   1.175   6.764   2.639
 7451SOL    HW223253   1.134   6.725   2.793
 7452SOL     OW23254   0.642   6.373   5.095
 7452SOL    HW123255   0.656   6.343   5.189
 7452SOL    HW223256   0.730   6.376   5.047
 7453SOL     OW23257   4.793   5.961   5.919
 7453SOL    HW123258   4.743   5.876   5.936
 7453SOL    HW223259   4.728   6.035   5.903
 7454SOL     OW23260   1.131   2.529   1.271
 7454SOL    HW123261   1.137   2.610   1.329
 7454SOL    HW223262   1.066   2.464   1.310
 7455SOL     OW23263   0.283   2.351   2.003
 7455SOL    HW123264   0.361   2.376   1.945
 7455SOL    HW223265   0.261   2.255   1.989
 7456SOL     OW23266   0.647   2.398   4.527
 7456SOL    HW123267   0.670   2.476   4.587
 7456SOL    HW223268   0.690   2.315   4.562
 7457SOL     OW23269   3.553   1.063   5.170
 7457SOL    HW123270   3.541   1.161   5.186
 7457SOL    HW223271   3.467   1.016   5.190
 7458SOL     OW23272   2.681   6.994   6.372
 7458SOL    HW123273   2.699   6.897   6.386
 7458SOL    HW223274   2.607   0.002   6.432
 7459SOL     OW23275   4.488   0.737   0.470
 7459SOL    HW123276   4.414   0.799   0.442
 7459SOL    HW223277   4.566   0.749   0.408
 7460SOL     OW23278   1.657   4.666   1.126
 7460SOL    HW123279   1.612   4.737   1.179
 7460SOL    HW223280   1.751   4.694   1.106
 7461SOL     OW23281   5.902   1.757   5.963
 7461SOL    HW123282   5.936   1.668   5.933
 7461SOL    HW223283   5.965   1.828   5.933
 7462SOL     OW23284   1.720   3.497   2.539
 7462SOL    HW123285   1.747   3.417   2.593
 7462SOL    HW223286   1.639   3.473   2.484
 7463SOL     OW23287   3.151   4.864   1.253
 7463SOL    HW123288   3.138   4.957   1.288
 7463SOL    HW223289   3.074   4.840   1.194
 7464SOL     OW23290   3.608   0.241   6.461
 7464SOL    HW123291   3.651   0.154   6.482
 7464SOL    HW223292   3.649   0.313   6.517
 7465SOL     OW23293   1.778   6.838   6.841
 7465SOL    HW123294   1.833   6.763   6.880
 7465SOL    HW223295   1.761   6.906   6.912
 7466SOL     OW23296   0.389   6.524   6.441
 7466SOL    HW123297   0.436   6.519   6.353
 7466SOL    HW223298   0.292   6.506   6.428
 7467SOL     OW23299   6.748   1.354   0.200
 7467SOL    HW123300   6.749   1.348   0.300
 7467SOL    HW223301   6.675   1.296   0.164
 7468SOL     OW23302   6.414   3.050   2.423
 7468SOL    HW123303   6.456   2.991   2.492
 7468SOL    HW223304   6.328   3.088   2.459
 7469SOL     OW23305   6.811   0.180   6.935
 7469SOL    HW123306   6.846   0.103   6.990
 7469SOL    HW223307   6.876   0.256   6.939
 7470SOL     OW23308   0.255   3.029   4.436
 7470SOL    HW123309   0.208   2.956   4.487
 7470SOL    HW223310   0.304   2.989   4.358
 7471SOL     OW23311   6.143   6.137   5.452
 7471SOL    HW123312   6.051   6.126   5.490
 7471SOL    HW223313   6.151   6.228   5.411
 7472SOL     OW23314   6.005   6.933   4.276
 7472SOL    HW123315   5.916   6.953   4.317
 7472SOL    HW223316   6.032   6.839   4.299
 7473SOL     OW23317   6.856   4.850   2.885
 7473SOL    HW123318   6.802   4.831   2.967
 7473SOL    HW223319   6.846   4.774   2.821
 7474SOL     OW23320   2.636   1.366   5.214
 7474SOL    HW123321   2.707   1.348   5.146
 7474SOL    HW223322   2.593   1.280   5.241
 7475SOL     OW23323   3.759   1.141   2.470
 7475SOL    HW123324   3.722   1.121   2.379
 7475SOL    HW223325   3.807   1.228   2.468
 7476SOL     OW23326   4.106   5.252   4.301
 7476SOL    HW123327   4.015   5.260   4.262
 7476SOL    HW223328   4.170   5.309   4.250
 7477SOL     OW23329   6.650   1.277   4.461
 7477SOL    HW123330   6.574   1.301   4.400
 7477SOL    HW223331   6.631   1.190   4.506
 7478SOL     OW23332   4.463   4.803   6.938
 7478SOL    HW123333   4.466   4.712   6.979
 7478SOL    HW223334   4.372   4.819   6.898
 7479SOL     OW23335   3.872   2.294   1.517
 7479SOL    HW123336   3.843   2.360   1.586
 7479SOL    HW223337   3.969   2.307   1.497
 7480SOL     OW23338   6.626   4.116   1.629
 7480SOL    HW123339   6.716   4.124   1.587
 7480SOL    HW223340   6.555   4.133   1.561
 7481SOL     OW23341   6.259   5.615   2.044
 7481SOL    HW123342   6.168   5.610   2.002
 7481SOL    HW223343   6.272   5.537   2.106
 7482SOL     OW23344   5.178   2.155   3.036
 7482SOL    HW123345   5.082   2.169   3.010
 7482SOL    HW223346   5.187   2.069   3.087
 7483SOL     OW23347   4.470   2.443   5.252
 7483SOL    HW123348   4.451   2.492   5.167
 7483SOL    HW223349   4.567   2.450   5.274
 7484SOL     OW23350   0.067   0.958   3.409
 7484SOL    HW123351   7.000   0.912   3.410
 7484SOL    HW223352   0.103   0.963   3.502
 7485SOL     OW23353   3.259   0.074   4.485
 7485SOL    HW123354   3.301   7.015   4.527
 7485SOL    HW223355   3.210   0.047   4.403
 7486SOL     OW23356   2.960   0.787   5.645
 7486SOL    HW123357   2.979   0.754   5.553
 7486SOL    HW223358   3.042   0.777   5.702
 7487SOL     OW23359   2.797   6.434   2.540
 7487SOL    HW123360   2.773   6.522   2.582
 7487SOL    HW223361   2.879   6.446   2.483
 7488SOL     OW23362   1.750   6.873   4.299
 7488SOL    HW123363   1.720   6.892   4.205
 7488SOL    HW223364   1.680   6.820   4.347
 7489SOL     OW23365   5.039   2.195   4.674
 7489SOL    HW123366   4.982   2.134   4.728
 7489SOL    HW223367   5.023   2.289   4.703
 7490SOL     OW23368   0.853   1.420   1.094
 7490SOL    HW123369   0.932   1.424   1.155
 7490SOL    HW223370   0.873   1.357   1.019
 7491SOL     OW23371   6.279   3.231   6.225
 7491SOL    HW123372   6.256   3.251   6.320
 7491SOL    HW223373   6.364   3.277   6.201
 7492SOL     OW23374   2.547   0.625   4.117
 7492SOL    HW123375   2.540   0.529   4.144
 7492SOL    HW223376   2.567   0.681   4.197
 7493SOL     OW23377   6.736   4.093   6.582
 7493SOL    HW123378   6.637   4.093   6.595
 7493SOL    HW223379   6.759   4.037   6.502
 7494SOL     OW23380   5.600   0.529   3.002
 7494SOL    HW123381   5.665   0.601   2.978
 7494SOL    HW223382   5.648   0.442   3.009
 7495SOL     OW23383   2.170   0.656   0.188
 7495SOL    HW123384   2.217   0.599   0.256
 7495SOL    HW223385   2.083   0.687   0.226
 7496SOL     OW23386   0.157   3.139   6.574
 7496SOL    HW123387   0.083   3.102   6.518
 7496SOL    HW223388   0.161   3.088   6.661
 7497SOL     OW23389   2.651   4.472   0.499
 7497SOL    HW123390   2.675   4.376   0.483
 7497SOL    HW223391   2.702   4.529   0.435
 7498SOL     OW23392   2.332   1.192   5.235
 7498SOL    HW123393   2.298   1.100   5.254
 7498SOL    HW223394   2.343   1.205   5.136
 7499SOL     OW23395   4.456   1.565   3.642
 7499SOL    HW123396   4.411   1.605   3.562
 7499SOL    HW223397   4.534   1.510   3.613
 7500SOL     OW23398   4.049   5.528   4.107
 7500SOL    HW123399   4.041   5.581   4.192
 7500SOL    HW223400   4.142   5.491   4.100
 7501SOL     OW23401   6.131   4.455   4.131
 7501SOL    HW123402   6.149   4.487   4.038
 7501SOL    HW223403   6.217   4.440   4.178
 7502SOL     OW23404   1.532   0.158   4.122
 7502SOL    HW123405   1.531   0.208   4.208
 7502SOL    HW223406   1.619   0.109   4.114
 7503SOL     OW23407   2.960   1.895   0.946
 7503SOL    HW123408   3.008   1.834   1.009
 7503SOL    HW223409   2.873   1.922   0.986
 7504SOL     OW23410   2.003   0.155   3.267
 7504SOL    HW123411   1.992   0.079   3.202
 7504SOL    HW223412   2.090   0.202   3.249
 7505SOL     OW23413   2.393   1.842   5.794
 7505SOL    HW123414   2.430   1.837   5.702
 7505SOL    HW223415   2.466   1.823   5.860
 7506SOL     OW23416   5.008   6.818   2.445
 7506SOL    HW123417   5.014   6.853   2.539
 7506SOL    HW223418   4.993   6.720   2.447
 7507SOL     OW23419   0.669   0.438   2.106
 7507SOL    HW123420   0.600   0.507   2.085
 7507SOL    HW223421   0.698   0.448   2.201
 7508SOL     OW23422   6.942   6.883   1.969
 7508SOL    HW123423   0.007   6.923   1.996
 7508SOL    HW223424   6.924   6.903   1.873
 7509SOL     OW23425   5.468   4.438   0.847
 7509SOL    HW123426   5.399   4.388   0.796
 7509SOL    HW223427   5.515   4.376   0.910
 7510SOL     OW23428   2.873   4.150   5.500
 7510SOL    HW123429   2.917   4.173   5.413
 7510SOL    HW223430   2.776   4.173   5.495
 7511SOL     OW23431   1.860   6.677   3.337
 7511SOL    HW123432   1.959   6.692   3.347
 7511SOL    HW223433   1.811   6.751   3.383
 7512SOL     OW23434   2.947   5.000   6.756
 7512SOL    HW123435   2.949   5.015   6.657
 7512SOL    HW223436   2.937   5.087   6.803
 7513SOL     OW23437   2.359   1.275   1.656
 7513SOL    HW123438   2.453   1.298   1.680
 7513SOL    HW223439   2.297   1.305   1.729
 7514SOL     OW23440   2.224   5.805   1.732
 7514SOL    HW123441   2.208   5.739   1.659
 7514SOL    HW223442   2.280   5.763   1.804
 7515SOL     OW23443   0.277   5.297   2.369
 7515SOL    HW123444   0.251   5.362   2.297
 7515SOL    HW223445   0.221   5.312   2.450
 7516SOL     OW23446   6.154   5.878   4.574
 7516SOL    HW123447   6.207   5.814   4.519
 7516SOL    HW223448   6.165   5.971   4.538
 7517SOL     OW23449   0.033   3.211   0.445
 7517SOL    HW123450   0.122   3.203   0.490
 7517SOL    HW223451   6.983   3.193   0.511
 7518SOL     OW23452   4.614   5.213   3.074
 7518SOL    HW123453   4.534   5.201   3.014
 7518SOL    HW223454   4.597   5.288   3.137
 7519SOL     OW23455   6.963   6.806   4.403
 7519SOL    HW123456   6.870   6.842   4.414
 7519SOL    HW223457   0.007   6.874   4.434
 7520SOL     OW23458   3.187   6.818   2.105
 7520SOL    HW123459   3.220   6.869   2.185
 7520SOL    HW223460   3.166   6.882   2.031
 7521SOL     OW23461   4.754   4.576   6.207
 7521SOL    HW123462   4.833   4.555   6.149
 7521SOL    HW223463   4.709   4.491   6.233
 7522SOL     OW23464   3.050   7.015   6.388
 7522SOL    HW123465   3.013   0.059   6.323
 7522SOL    HW223466   3.000   7.020   6.474
 7523SOL     OW23467   5.442   0.788   6.085
 7523SOL    HW123468   5.358   0.734   6.082
 7523SOL    HW223469   5.514   0.735   6.130
 7524SOL     OW23470   1.617   2.451   6.170
 7524SOL    HW123471   1.591   2.547   6.169
 7524SOL    HW223472   1.705   2.440   6.217
 7525SOL     OW23473   3.054   0.356   6.483
 7525SOL    HW123474   3.109   0.322   6.406
 7525SOL    HW223475   2.998   0.433   6.452
 7526SOL     OW23476   3.259   3.595   1.584
 7526SOL    HW123477   3.167   3.576   1.620
 7526SOL    HW223478   3.326   3.542   1.635
 7527SOL     OW23479   4.185   5.947   3.576
 7527SOL    HW123480   4.105   5.977   3.629
 7527SOL    HW223481   4.154   5.893   3.497
 7528SOL     OW23482   5.143   1.808   6.397
 7528SOL    HW123483   5.176   1.879   6.460
 7528SOL    HW223484   5.155   1.839   6.303
 7529SOL     OW23485   6.133   0.360   4.087
 7529SOL    HW123486   6.142   0.389   4.182
 7529SOL    HW223487   6.141   0.440   4.027
 7530SOL     OW23488   0.110   3.859   1.734
 7530SOL    HW123489   0.042   3.832   1.802
 7530SOL    HW223490   0.198   3.817   1.756
 7531SOL     OW23491   4.383   2.411   3.696
 7531SOL    HW123492   4.437   2.327   3.701
 7531SOL    HW223493   4.332   2.413   3.610
 7532SOL     OW23494   5.494   4.758   1.404
 7532SOL    HW123495   5.489   4.696   1.483
 7532SOL    HW223496   5.483   4.705   1.320
 7533SOL     OW23497   2.666   1.574   2.541
 7533SOL    HW123498   2.691   1.563   2.637
 7533SOL    HW223499   2.598   1.505   2.516
 7534SOL     OW23500   4.299   6.225   5.849
 7534SOL    HW123501   4.281   6.323   5.860
 7534SOL    HW223502   4.256   6.174   5.923
 7535SOL     OW23503   2.808   0.209   5.792
 7535SOL    HW123504   2.833   0.214   5.889
 7535SOL    HW223505   2.709   0.212   5.783
 7536SOL     OW23506   4.920   4.978   4.869
 7536SOL    HW123507   4.943   5.063   4.916
 7536SOL    HW223508   4.889   4.911   4.936
 7537SOL     OW23509   2.694   5.246   3.337
 7537SOL    HW123510   2.774   5.191   3.359
 7537SOL    HW223511   2.617   5.216   3.392
 7538SOL     OW23512   3.323   3.252   2.222
 7538SOL    HW123513   3.345   3.349   2.231
 7538SOL    HW223514   3.368   3.201   2.296
 7539SOL     OW23515   0.983   3.184   4.243
 7539SOL    HW123516   0.925   3.116   4.289
 7539SOL    HW223517   0.985   3.164   4.145
 7540SOL     OW23518   3.664   6.443   5.565
 7540SOL    HW123519   3.599   6.375   5.532
 7540SOL    HW223520   3.677   6.433   5.664
 7541SOL     OW23521   0.068   4.432   4.359
 7541SOL    HW123522   0.027   4.466   4.443
 7541SOL    HW223523   0.018   4.352   4.327
 7542SOL     OW23524   0.971   5.840   0.199
 7542SOL    HW123525   0.880   5.874   0.223
 7542SOL    HW223526   1.005   5.782   0.272
 7543SOL     OW23527   3.508   2.043   0.965
 7543SOL    HW123528   3.487   2.123   1.022
 7543SOL    HW223529   3.555   1.975   1.020
 7544SOL     OW23530   0.280   2.548   3.175
 7544SOL    HW123531   0.360   2.543   3.235
 7544SOL    HW223532   0.201   2.580   3.227
 7545SOL     OW23533   5.931   6.233   1.945
 7545SOL    HW123534   5.865   6.169   1.983
 7545SOL    HW223535   6.001   6.182   1.894
 7546SOL     OW23536   3.214   1.082   2.275
 7546SOL    HW123537   3.257   1.078   2.184
 7546SOL    HW223538   3.234   1.169   2.318
 7547SOL     OW23539   4.449   0.442   0.359
 7547SOL    HW123540   4.479   0.503   0.286
 7547SOL    HW223541   4.404   0.496   0.431
 7548SOL     OW23542   3.840   2.338   0.422
 7548SOL    HW123543   3.790   2.366   0.505
 7548SOL    HW223544   3.902   2.411   0.395
 7549SOL     OW23545   5.886   2.038   0.803
 7549SOL    HW123546   5.888   1.957   0.861
 7549SOL    HW223547   5.971   2.045   0.751
 7550SOL     OW23548   2.444   4.416   2.142
 7550SOL    HW123549   2.515   4.468   2.096
 7550SOL    HW223550   2.473   4.394   2.235
 7551SOL     OW23551   5.249   3.553   6.975
 7551SOL    HW123552   5.250   3.601   6.888
 7551SOL    HW223553   5.297   3.466   6.966
 7552SOL     OW23554   1.311   5.721   3.319
 7552SOL    HW123555   1.238   5.666   3.359
 7552SOL    HW223556   1.281   5.758   3.232
 7553SOL     OW23557   4.786   5.076   5.538
 7553SOL    HW123558   4.853   5.106   5.470
 7553SOL    HW223559   4.793   4.977   5.550
 7554SOL     OW23560   4.377   1.390   1.529
 7554SOL    HW123561   4.374   1.395   1.629
 7554SOL    HW223562   4.311   1.323   1.497
 7555SOL     OW23563   1.863   4.791   5.579
 7555SOL    HW123564   1.933   4.791   5.651
 7555SOL    HW223565   1.880   4.716   5.515
 7556SOL     OW23566   0.870   3.076   5.447
 7556SOL    HW123567   0.798   3.067   5.516
 7556SOL    HW223568   0.864   3.166   5.405
 7557SOL     OW23569   4.892   2.481   6.104
 7557SOL    HW123570   4.868   2.436   6.190
 7557SOL    HW223571   4.821   2.548   6.081
 7558SOL     OW23572   1.692   2.514   4.184
 7558SOL    HW123573   1.756   2.461   4.128
 7558SOL    HW223574   1.607   2.462   4.196
 7559SOL     OW23575   6.409   4.973   6.956
 7559SOL    HW123576   6.431   5.065   6.989
 7559SOL    HW223577   6.423   4.907   0.007
 7560SOL     OW23578   5.174   6.518   0.974
 7560SOL    HW123579   5.104   6.550   1.037
 7560SOL    HW223580   5.192   6.421   0.990
 7561SOL     OW23581   0.988   3.007   6.725
 7561SOL    HW123582   1.067   3.064   6.747
 7561SOL    HW223583   0.945   3.042   6.641
 7562SOL     OW23584   5.776   5.851   4.893
 7562SOL    HW123585   5.735   5.783   4.832
 7562SOL    HW223586   5.859   5.814   4.934
 7563SOL     OW23587   2.596   6.274   0.854
 7563SOL    HW123588   2.532   6.224   0.795
 7563SOL    HW223589   2.549   6.354   0.893
 7564SOL     OW23590   4.867   1.803   2.988
 7564SOL    HW123591   4.899   1.709   2.995
 7564SOL    HW223592   4.829   1.819   2.897
 7565SOL     OW23593   5.778   3.446   0.689
 7565SOL    HW123594   5.768   3.544   0.671
 7565SOL    HW223595   5.859   3.430   0.746
 7566SOL     OW23596   0.161   4.665   3.354
 7566SOL    HW123597   0.119   4.744   3.398
 7566SOL    HW223598   0.216   4.615   3.421
 7567SOL     OW23599   1.511   1.686   4.962
 7567SOL    HW123600   1.546   1.711   5.053
 7567SOL    HW223601   1.556   1.741   4.893
 7568SOL     OW23602   5.068   6.981   3.494
 7568SOL    HW123603   5.048   0.056   3.501
 7568SOL    HW223604   5.140   6.967   3.425
 7569SOL     OW23605   3.767   5.420   6.258
 7569SOL    HW123606   3.737   5.455   6.347
 7569SOL    HW223607   3.837   5.350   6.272
 7570SOL     OW23608   5.631   4.396   5.154
 7570SOL    HW123609   5.666   4.329   5.088
 7570SOL    HW223610   5.669   4.376   5.244
 7571SOL     OW23611   5.137   5.810   3.217
 7571SOL    HW123612   5.079   5.857   3.150
 7571SOL    HW223613   5.085   5.737   3.261
 7572SOL     OW23614   4.216   0.712   2.419
 7572SOL    HW123615   4.236   0.689   2.324
 7572SOL    HW223616   4.152   0.644   2.457
 7573SOL     OW23617   6.896   6.257   4.893
 7573SOL    HW123618   6.961   6.255   4.969
 7573SOL    HW223619   6.931   6.201   4.818
 7574SOL     OW23620   6.245   0.950   4.615
 7574SOL    HW123621   6.146   0.933   4.619
 7574SOL    HW223622   6.283   0.906   4.534
 7575SOL     OW23623   3.862   0.560   5.798
 7575SOL    HW123624   3.834   0.518   5.885
 7575SOL    HW223625   3.885   0.487   5.733
 7576SOL     OW23626   5.612   4.955   6.886
 7576SOL    HW123627   5.551   5.020   6.841
 7576SOL    HW223628   5.707   4.981   6.870
 7577SOL     OW23629   6.947   6.481   5.428
 7577SOL    HW123630   6.932   6.579   5.430
 7577SOL    HW223631   0.023   6.462   5.426
 7578SOL     OW23632   2.336   5.709   2.387
 7578SOL    HW123633   2.236   5.712   2.382
 7578SOL    HW223634   2.369   5.784   2.445
 7579SOL     OW23635   6.137   1.891   1.848
 7579SOL    HW123636   6.181   1.802   1.837
 7579SOL    HW223637   6.052   1.893   1.796
 7580SOL     OW23638   1.352   4.003   4.252
 7580SOL    HW123639   1.357   3.976   4.348
 7580SOL    HW223640   1.419   3.951   4.199
 7581SOL     OW23641   6.982   0.437   1.224
 7581SOL    HW123642   0.015   0.370   1.175
 7581SOL    HW223643   0.018   0.491   1.284
 7582SOL     OW23644   2.491   1.048   0.203
 7582SOL    HW123645   2.505   0.960   0.158
 7582SOL    HW223646   2.549   1.055   0.284
 7583SOL     OW23647   6.353   3.347   0.738
 7583SOL    HW123648   6.342   3.412   0.663
 7583SOL    HW223649   6.368   3.255   0.701
 7584SOL     OW23650   2.684   6.727   1.584
 7584SOL    HW123651   2.721   6.794   1.520
 7584SOL    HW223652   2.586   6.716   1.568
 7585SOL     OW23653   1.766   2.460   5.891
 7585SOL    HW123654   1.722   2.484   5.977
 7585SOL    HW223655   1.733   2.521   5.819
 7586SOL     OW23656   3.977   1.284   3.607
 7586SOL    HW123657   3.909   1.321   3.671
 7586SOL    HW223658   4.060   1.260   3.656
 7587SOL     OW23659   2.733   1.706   6.808
 7587SOL    HW123660   2.767   1.797   6.785
 7587SOL    HW223661   2.635   1.702   6.792
 7588SOL     OW23662   1.216   3.312   2.495
 7588SOL    HW123663   1.200   3.365   2.412
 7588SOL    HW223664   1.177   3.220   2.484
 7589SOL     OW23665   0.186   6.955   2.086
 7589SOL    HW123666   0.268   6.953   2.030
 7589SOL    HW223667   0.211   6.940   2.182
 7590SOL     OW23668   4.580   1.783   6.520
 7590SOL    HW123669   4.518   1.726   6.467
 7590SOL    HW223670   4.631   1.844   6.459
 7591SOL     OW23671   0.049   4.617   0.365
 7591SOL    HW123672   0.041   4.596   0.268
 7591SOL    HW223673   0.144   4.637   0.388
 7592SOL     OW23674   6.483   4.185   6.263
 7592SOL    HW123675   6.493   4.275   6.221
 7592SOL    HW223676   6.446   4.121   6.196
 7593SOL     OW23677   5.802   2.442   1.233
 7593SOL    HW123678   5.884   2.456   1.288
 7593SOL    HW223679   5.758   2.356   1.260
 7594SOL     OW23680   0.802   5.333   1.797
 7594SOL    HW123681   0.810   5.282   1.883
 7594SOL    HW223682   0.811   5.270   1.720
 7595SOL     OW23683   6.993   2.593   5.886
 7595SOL    HW123684   0.029   2.674   5.891
 7595SOL    HW223685   0.004   2.523   5.949
 7596SOL     OW23686   4.871   5.646   3.837
 7596SOL    HW123687   4.953   5.695   3.867
 7596SOL    HW223688   4.827   5.604   3.916
 7597SOL     OW23689   3.471   6.238   2.981
 7597SOL    HW123690   3.515   6.199   3.061
 7597SOL    HW223691   3.521   6.319   2.951
 7598SOL     OW23692   6.771   2.073   3.614
 7598SOL    HW123693   6.791   2.003   3.682
 7598SOL    HW223694   6.820   2.053   3.529
 7599SOL     OW23695   6.230   1.909   2.300
 7599SOL    HW123696   6.237   2.001   2.261
 7599SOL    HW223697   6.301   1.897   2.369
 7600SOL     OW23698   1.868   1.262   2.549
 7600SOL    HW123699   1.788   1.323   2.547
 7600SOL    HW223700   1.947   1.314   2.581
 7601SOL     OW23701   2.205   5.142   3.240
 7601SOL    HW123702   2.272   5.215   3.251
 7601SOL    HW223703   2.251   5.054   3.233
 7602SOL     OW23704   0.441   4.502   6.852
 7602SOL    HW123705   0.486   4.415   6.833
 7602SOL    HW223706   0.509   4.569   6.883
 7603SOL     OW23707   2.117   4.754   6.104
 7603SOL    HW123708   2.033   4.790   6.145
 7603SOL    HW223709   2.093   4.693   6.028
 7604SOL     OW23710   1.218   4.661   4.196
 7604SOL    HW123711   1.210   4.715   4.279
 7604SOL    HW223712   1.310   4.622   4.190
 7605SOL     OW23713   0.284   0.103   1.044
 7605SOL    HW123714   0.331   0.127   0.959
 7605SOL    HW223715   0.200   0.156   1.052
 7606SOL     OW23716   6.334   3.657   4.070
 7606SOL    HW123717   6.259   3.671   4.006
 7606SOL    HW223718   6.418   3.695   4.032
 7607SOL     OW23719   4.269   4.910   0.140
 7607SOL    HW123720   4.212   4.837   0.178
 7607SOL    HW223721   4.365   4.894   0.166
 7608SOL     OW23722   3.571   3.883   3.003
 7608SOL    HW123723   3.551   3.909   2.909
 7608SOL    HW223724   3.668   3.895   3.022
 7609SOL     OW23725   0.829   3.566   3.954
 7609SOL    HW123726   0.792   3.480   3.990
 7609SOL    HW223727   0.754   3.622   3.920
 7610SOL     OW23728   5.705   6.238   0.665
 7610SOL    HW123729   5.632   6.182   0.628
 7610SOL    HW223730   5.701   6.236   0.765
 7611SOL     OW23731   0.155   1.900   0.557
 7611SOL    HW123732   0.244   1.858   0.542
 7611SOL    HW223733   0.152   1.942   0.648
 7612SOL     OW23734   5.277   3.369   5.048
 7612SOL    HW123735   5.271   3.468   5.036
 7612SOL    HW223736   5.281   3.347   5.145
 7613SOL     OW23737   6.581   3.682   1.308
 7613SOL    HW123738   6.551   3.587   1.298
 7613SOL    HW223739   6.573   3.729   1.220
 7614SOL     OW23740   4.822   3.840   0.918
 7614SOL    HW123741   4.843   3.896   0.998
 7614SOL    HW223742   4.742   3.782   0.938
 7615SOL     OW23743   3.753   4.135   6.484
 7615SOL    HW123744   3.697   4.134   6.567
 7615SOL    HW223745   3.722   4.209   6.424
 7616SOL     OW23746   6.227   5.442   5.663
 7616SOL    HW123747   6.196   5.348   5.673
 7616SOL    HW223748   6.251   5.459   5.567
 7617SOL     OW23749   3.915   5.630   3.147
 7617SOL    HW123750   3.885   5.666   3.058
 7617SOL    HW223751   3.844   5.648   3.215
 7618SOL     OW23752   0.430   1.484   5.731
 7618SOL    HW123753   0.433   1.384   5.733
 7618SOL    HW223754   0.349   1.513   5.679
 7619SOL     OW23755   5.593   3.081   5.493
 7619SOL    HW123756   5.543   3.055   5.410
 7619SOL    HW223757   5.677   3.027   5.500
 7620SOL     OW23758   4.242   5.796   0.568
 7620SOL    HW123759   4.252   5.767   0.663
 7620SOL    HW223760   4.263   5.720   0.507
 7621SOL     OW23761   0.055   1.685   0.712
 7621SOL    HW123762   0.131   1.620   0.710
 7621SOL    HW223763   0.032   1.714   0.619
 7622SOL     OW23764   5.206   5.433   1.566
 7622SOL    HW123765   5.251   5.350   1.532
 7622SOL    HW223766   5.269   5.484   1.624
 7623SOL     OW23767   4.633   4.103   6.640
 7623SOL    HW123768   4.683   4.166   6.699
 7623SOL    HW223769   4.615   4.018   6.689
 7624SOL     OW23770   0.076   2.906   4.708
 7624SOL    HW123771   0.175   2.897   4.724
 7624SOL    HW223772   0.045   2.995   4.739
 7625SOL     OW23773   4.927   0.994   1.255
 7625SOL    HW123774   4.848   0.969   1.311
 7625SOL    HW223775   4.979   0.911   1.232
 7626SOL     OW23776   6.221   6.627   4.214
 7626SOL    HW123777   6.179   6.619   4.123
 7626SOL    HW223778   6.154   6.665   4.278
 7627SOL     OW23779   5.123   2.304   0.191
 7627SOL    HW123780   5.050   2.242   0.221
 7627SOL    HW223781   5.131   2.300   0.092
 7628SOL     OW23782   3.695   0.968   2.859
 7628SOL    HW123783   3.787   0.980   2.897
 7628SOL    HW223784   3.639   0.917   2.924
 7629SOL     OW23785   6.562   6.681   3.173
 7629SOL    HW123786   6.584   6.668   3.269
 7629SOL    HW223787   6.560   6.779   3.153
 7630SOL     OW23788   6.654   0.006   1.653
 7630SOL    HW123789   6.670   6.963   1.579
 7630SOL    HW223790   6.560   0.039   1.649
 7631SOL     OW23791   1.082   0.950   6.105
 7631SOL    HW123792   1.109   0.855   6.092
 7631SOL    HW223793   1.163   1.009   6.105
 7632SOL     OW23794   3.421   2.858   2.278
 7632SOL    HW123795   3.431   2.772   2.228
 7632SOL    HW223796   3.336   2.903   2.252
 7633SOL     OW23797   5.071   1.290   1.593
 7633SOL    HW123798   5.121   1.275   1.678
 7633SOL    HW223799   5.123   1.251   1.517
 7634SOL     OW23800   0.845   1.923   2.701
 7634SOL    HW123801   0.861   1.882   2.791
 7634SOL    HW223802   0.795   2.009   2.712
 7635SOL     OW23803   3.844   5.447   5.059
 7635SOL    HW123804   3.929   5.499   5.070
 7635SOL    HW223805   3.864   5.349   5.069
 7636SOL     OW23806   1.300   2.284   4.426
 7636SOL    HW123807   1.366   2.221   4.385
 7636SOL    HW223808   1.283   2.361   4.363
 7637SOL     OW23809   2.649   5.007   2.284
 7637SOL    HW123810   2.561   5.009   2.237
 7637SOL    HW223811   2.669   4.913   2.314
 7638SOL     OW23812   3.368   6.139   0.823
 7638SOL    HW123813   3.329   6.048   0.833
 7638SOL    HW223814   3.461   6.141   0.859
 7639SOL     OW23815   1.160   1.906   0.558
 7639SOL    HW123816   1.112   1.880   0.474
 7639SOL    HW223817   1.155   2.005   0.568
 7640SOL     OW23818   3.394   1.885   6.504
 7640SOL    HW123819   3.458   1.847   6.437
 7640SOL    HW223820   3.311   1.915   6.458
 7641SOL     OW23821   1.481   4.336   1.812
 7641SOL    HW123822   1.566   4.388   1.813
 7641SOL    HW223823   1.409   4.389   1.856
 7642SOL     OW23824   3.890   0.653   3.036
 7642SOL    HW123825   3.919   0.749   3.044
 7642SOL    HW223826   3.822   0.633   3.106
 7643SOL     OW23827   5.074   3.363   4.134
 7643SOL    HW123828   5.019   3.342   4.053
 7643SOL    HW223829   5.056   3.295   4.205
 7644SOL     OW23830   5.890   2.496   2.128
 7644SOL    HW123831   5.860   2.501   2.223
 7644SOL    HW223832   5.823   2.445   2.074
 7645SOL     OW23833   4.072   4.355   5.645
 7645SOL    HW123834   4.169   4.340   5.626
 7645SOL    HW223835   4.016   4.310   5.575
 7646SOL     OW23836   1.462   3.378   2.593
 7646SOL    HW123837   1.378   3.338   2.555
 7646SOL    HW223838   1.447   3.474   2.614
 7647SOL     OW23839   6.711   4.006   2.762
 7647SOL    HW123840   6.805   3.973   2.750
 7647SOL    HW223841   6.681   4.052   2.678
 7648SOL     OW23842   2.592   1.476   3.303
 7648SOL    HW123843   2.641   1.548   3.351
 7648SOL    HW223844   2.655   1.427   3.242
 7649SOL     OW23845   0.712   0.751   3.011
 7649SOL    HW123846   0.710   0.742   2.912
 7649SOL    HW223847   0.802   0.786   3.040
 7650SOL     OW23848   4.431   2.381   1.439
 7650SOL    HW123849   4.395   2.441   1.367
 7650SOL    HW223850   4.486   2.309   1.397
 7651SOL     OW23851   2.502   0.808   4.307
 7651SOL    HW123852   2.411   0.814   4.265
 7651SOL    HW223853   2.554   0.891   4.284
 7652SOL     OW23854   6.523   3.829   4.519
 7652SOL    HW123855   6.593   3.884   4.564
 7652SOL    HW223856   6.556   3.799   4.430
 7653SOL     OW23857   2.183   2.221   6.906
 7653SOL    HW123858   2.271   2.175   6.892
 7653SOL    HW223859   2.137   2.180   6.985
 7654SOL     OW23860   4.877   3.223   3.247
 7654SOL    HW123861   4.816   3.292   3.286
 7654SOL    HW223862   4.971   3.244   3.274
 7655SOL     OW23863   4.645   0.311   3.268
 7655SOL    HW123864   4.650   0.368   3.350
 7655SOL    HW223865   4.618   0.218   3.293
 7656SOL     OW23866   2.187   5.135   5.903
 7656SOL    HW123867   2.186   5.227   5.865
 7656SOL    HW223868   2.105   5.121   5.959
 7657SOL     OW23869   2.047   3.004   4.283
 7657SOL    HW123870   2.005   3.092   4.304
 7657SOL    HW223871   1.977   2.943   4.245
 7658SOL     OW23872   3.565   0.137   5.750
 7658SOL    HW123873   3.523   0.066   5.807
 7658SOL    HW223874   3.537   0.124   5.655
 7659SOL     OW23875   5.840   5.308   0.292
 7659SOL    HW123876   5.816   5.362   0.373
 7659SOL    HW223877   5.809   5.214   0.304
 7660SOL     OW23878   0.307   5.680   3.851
 7660SOL    HW123879   0.273   5.663   3.759
 7660SOL    HW223880   0.257   5.757   3.891
 7661SOL     OW23881   6.035   2.800   4.514
 7661SOL    HW123882   6.026   2.771   4.418
 7661SOL    HW223883   5.996   2.892   4.524
 7662SOL     OW23884   1.166   2.937   2.759
 7662SOL    HW123885   1.145   2.881   2.839
 7662SOL    HW223886   1.128   3.029   2.771
 7663SOL     OW23887   1.348   5.917   6.380
 7663SOL    HW123888   1.434   5.966   6.365
 7663SOL    HW223889   1.334   5.851   6.306
 7664SOL     OW23890   3.447   0.288   1.465
 7664SOL    HW123891   3.483   0.353   1.399
 7664SOL    HW223892   3.351   0.268   1.443
 7665SOL     OW23893   4.683   0.146   4.822
 7665SOL    HW123894   4.631   0.174   4.903
 7665SOL    HW223895   4.633   0.171   4.739
 7666SOL     OW23896   0.189   6.244   1.494
 7666SOL    HW123897   0.142   6.302   1.561
 7666SOL    HW223898   0.265   6.295   1.453
 7667SOL     OW23899   4.839   5.748   2.276
 7667SOL    HW123900   4.908   5.820   2.287
 7667SOL    HW223901   4.790   5.736   2.363
 7668SOL     OW23902   2.910   4.545   0.678
 7668SOL    HW123903   2.985   4.540   0.743
 7668SOL    HW223904   2.823   4.529   0.726
 7669SOL     OW23905   5.189   1.962   5.543
 7669SOL    HW123906   5.183   1.974   5.642
 7669SOL    HW223907   5.098   1.947   5.505
 7670SOL     OW23908   0.878   4.994   6.947
 7670SOL    HW123909   0.958   4.961   6.997
 7670SOL    HW223910   0.851   4.927   6.879
 7671SOL     OW23911   4.479   0.986   3.059
 7671SOL    HW123912   4.472   0.955   3.154
 7671SOL    HW223913   4.502   1.084   3.057
 7672SOL     OW23914   0.673   6.532   3.271
 7672SOL    HW123915   0.621   6.520   3.356
 7672SOL    HW223916   0.614   6.512   3.193
 7673SOL     OW23917   1.871   5.734   0.220
 7673SOL    HW123918   1.901   5.788   0.142
 7673SOL    HW223919   1.775   5.756   0.242
 7674SOL     OW23920   6.062   1.271   3.251
 7674SOL    HW123921   6.109   1.183   3.262
 7674SOL    HW223922   6.090   1.312   3.165
 7675SOL     OW23923   6.074   6.743   2.440
 7675SOL    HW123924   6.070   6.771   2.345
 7675SOL    HW223925   6.149   6.678   2.454
 7676SOL     OW23926   1.957   2.101   1.057
 7676SOL    HW123927   2.001   2.080   1.144
 7676SOL    HW223928   2.024   2.094   0.983
 7677SOL     OW23929   0.838   5.221   2.065
 7677SOL    HW123930   0.746   5.249   2.092
 7677SOL    HW223931   0.843   5.121   2.064
 7678SOL     OW23932   1.908   1.793   4.922
 7678SOL    HW123933   1.977   1.821   4.856
 7678SOL    HW223934   1.886   1.696   4.907
 7679SOL     OW23935   2.716   5.269   6.605
 7679SOL    HW123936   2.729   5.184   6.553
 7679SOL    HW223937   2.626   5.269   6.647
 7680SOL     OW23938   1.880   1.882   0.853
 7680SOL    HW123939   1.804   1.904   0.914
 7680SOL    HW223940   1.959   1.939   0.876
 7681SOL     OW23941   2.220   0.086   0.862
 7681SOL    HW123942   2.256   0.175   0.889
 7681SOL    HW223943   2.120   0.087   0.868
 7682SOL     OW23944   3.331   7.016   2.503
 7682SOL    HW123945   3.425   7.018   2.470
 7682SOL    HW223946   3.326   6.966   2.590
 7683SOL     OW23947   5.973   1.430   3.476
 7683SOL    HW123948   5.977   1.380   3.390
 7683SOL    HW223949   5.929   1.519   3.461
 7684SOL     OW23950   3.908   2.106   2.294
 7684SOL    HW123951   3.818   2.117   2.253
 7684SOL    HW223952   3.945   2.016   2.273
 7685SOL     OW23953   3.358   2.517   0.120
 7685SOL    HW123954   3.416   2.471   0.053
 7685SOL    HW223955   3.311   2.594   0.075
 7686SOL     OW23956   6.437   6.841   2.829
 7686SOL    HW123957   6.395   6.910   2.770
 7686SOL    HW223958   6.406   6.750   2.801
 7687SOL     OW23959   5.487   5.044   4.107
 7687SOL    HW123960   5.562   5.079   4.052
 7687SOL    HW223961   5.444   5.120   4.157
 7688SOL     OW23962   1.199   6.170   5.940
 7688SOL    HW123963   1.281   6.226   5.931
 7688SOL    HW223964   1.168   6.142   5.850
 7689SOL     OW23965   5.303   6.757   3.139
 7689SOL    HW123966   5.225   6.812   3.109
 7689SOL    HW223967   5.387   6.797   3.103
 7690SOL     OW23968   5.394   5.036   0.867
 7690SOL    HW123969   5.425   4.962   0.926
 7690SOL    HW223970   5.363   4.998   0.780
 7691SOL     OW23971   5.585   2.779   5.350
 7691SOL    HW123972   5.489   2.763   5.372
 7691SOL    HW223973   5.640   2.699   5.376
 7692SOL     OW23974   0.662   6.634   1.962
 7692SOL    HW123975   0.584   6.574   1.976
 7692SOL    HW223976   0.732   6.587   1.907
 7693SOL     OW23977   3.813   0.400   1.287
 7693SOL    HW123978   3.865   0.441   1.211
 7693SOL    HW223979   3.724   0.371   1.253
 7694SOL     OW23980   0.333   4.602   5.524
 7694SOL    HW123981   0.300   4.697   5.518
 7694SOL    HW223982   0.293   4.550   5.449
 7695SOL     OW23983   4.307   6.841   0.904
 7695SOL    HW123984   4.284   6.817   0.809
 7695SOL    HW223985   4.230   6.820   0.963
 7696SOL     OW23986   6.499   1.051   5.121
 7696SOL    HW123987   6.497   1.151   5.112
 7696SOL    HW223988   6.580   1.015   5.075
 7697SOL     OW23989   3.174   6.240   2.414
 7697SOL    HW123990   3.097   6.180   2.435
 7697SOL    HW223991   3.234   6.196   2.348
 7698SOL     OW23992   6.934   2.283   3.718
 7698SOL    HW123993   6.855   2.222   3.713
 7698SOL    HW223994   7.016   2.229   3.739
 7699SOL     OW23995   3.557   5.836   6.799
 7699SOL    HW123996   3.616   5.869   6.725
 7699SOL    HW223997   3.469   5.808   6.761
 7700SOL     OW23998   4.953   6.425   4.338
 7700SOL    HW123999   4.928   6.520   4.318
 7700SOL    HW224000   4.872   6.368   4.331
 7701SOL     OW24001   6.384   1.695   6.984
 7701SOL    HW124002   6.302   1.727   6.938
 7701SOL    HW224003   6.463   1.704   6.924
 7702SOL     OW24004   3.595   6.027   5.862
 7702SOL    HW124005   3.584   6.013   5.763
 7702SOL    HW224006   3.663   6.098   5.878
 7703SOL     OW24007   6.074   0.519   5.917
 7703SOL    HW124008   6.080   0.583   5.994
 7703SOL    HW224009   5.995   0.543   5.860
 7704SOL     OW24010   5.426   5.373   5.080
 7704SOL    HW124011   5.464   5.311   5.149
 7704SOL    HW224012   5.451   5.341   4.989
 7705SOL     OW24013   3.996   5.264   6.397
 7705SOL    HW124014   3.909   5.257   6.446
 7705SOL    HW224015   4.068   5.218   6.449
 7706SOL     OW24016   4.379   3.211   5.516
 7706SOL    HW124017   4.475   3.232   5.534
 7706SOL    HW224018   4.331   3.295   5.487
 7707SOL     OW24019   0.536   5.535   6.030
 7707SOL    HW124020   0.573   5.575   5.946
 7707SOL    HW224021   0.507   5.442   6.013
 7708SOL     OW24022   6.773   0.310   5.663
 7708SOL    HW124023   6.790   0.377   5.736
 7708SOL    HW224024   6.736   0.356   5.583
 7709SOL     OW24025   5.785   4.304   1.745
 7709SOL    HW124026   5.831   4.393   1.737
 7709SOL    HW224027   5.754   4.291   1.839
 7710SOL     OW24028   2.985   0.736   0.546
 7710SOL    HW124029   2.971   0.829   0.580
 7710SOL    HW224030   3.031   0.681   0.616
 7711SOL     OW24031   6.604   6.307   5.703
 7711SOL    HW124032   6.520   6.305   5.650
 7711SOL    HW224033   6.660   6.384   5.675
 7712SOL     OW24034   5.608   6.206   2.382
 7712SOL    HW124035   5.578   6.138   2.315
 7712SOL    HW224036   5.593   6.171   2.474
 7713SOL     OW24037   1.407   4.535   0.436
 7713SOL    HW124038   1.311   4.508   0.446
 7713SOL    HW224039   1.425   4.617   0.490
 7714SOL     OW24040   6.274   4.297   5.677
 7714SOL    HW124041   6.229   4.258   5.597
 7714SOL    HW224042   6.248   4.246   5.759
 7715SOL     OW24043   4.141   2.071   6.851
 7715SOL    HW124044   4.084   1.990   6.843
 7715SOL    HW224045   4.191   2.069   6.937
 7716SOL     OW24046   5.926   4.658   3.691
 7716SOL    HW124047   6.010   4.708   3.716
 7716SOL    HW224048   5.912   4.664   3.593
 7717SOL     OW24049   2.023   1.065   5.070
 7717SOL    HW124050   1.931   1.040   5.042
 7717SOL    HW224051   2.089   1.008   5.021
 7718SOL     OW24052   1.810   2.672   2.963
 7718SOL    HW124053   1.819   2.617   3.046
 7718SOL    HW224054   1.750   2.625   2.899
 7719SOL     OW24055   6.712   4.429   4.971
 7719SOL    HW124056   6.614   4.442   4.955
 7719SOL    HW224057   6.743   4.347   4.924
 7720SOL     OW24058   0.292   1.322   6.960
 7720SOL    HW124059   0.322   1.387   6.890
 7720SOL    HW224060   0.193   1.327   6.970
 7721SOL     OW24061   0.758   5.114   2.462
 7721SOL    HW124062   0.788   5.089   2.369
 7721SOL    HW224063   0.672   5.164   2.456
 7722SOL     OW24064   1.093   5.428   3.230
 7722SOL    HW124065   0.998   5.397   3.235
 7722SOL    HW224066   1.095   5.527   3.213
 7723SOL     OW24067   5.114   2.987   0.194
 7723SOL    HW124068   5.209   2.960   0.177
 7723SOL    HW224069   5.075   2.930   0.266
 7724SOL     OW24070   3.222   4.388   1.013
 7724SOL    HW124071   3.176   4.463   0.965
 7724SOL    HW224072   3.195   4.389   1.109
 7725SOL     OW24073   6.180   2.401   3.747
 7725SOL    HW124074   6.172   2.301   3.749
 7725SOL    HW224075   6.093   2.442   3.775
 7726SOL     OW24076   2.219   6.027   5.327
 7726SOL    HW124077   2.184   6.084   5.402
 7726SOL    HW224078   2.146   5.970   5.291
 7727SOL     OW24079   0.105   1.105   2.927
 7727SOL    HW124080   0.089   1.187   2.982
 7727SOL    HW224081   0.050   1.030   2.962
 7728SOL     OW24082   1.242   4.581   3.301
 7728SOL    HW124083   1.216   4.658   3.359
 7728SOL    HW224084   1.239   4.496   3.355
 7729SOL     OW24085   5.612   2.183   1.385
 7729SOL    HW124086   5.518   2.218   1.379
 7729SOL    HW224087   5.654   2.215   1.470
 7730SOL     OW24088   6.102   5.817   1.088
 7730SOL    HW124089   6.198   5.796   1.109
 7730SOL    HW224090   6.067   5.882   1.155
 7731SOL     OW24091   6.595   0.830   6.467
 7731SOL    HW124092   6.628   0.779   6.546
 7731SOL    HW224093   6.522   0.893   6.495
 7732SOL     OW24094   4.251   6.218   0.639
 7732SOL    HW124095   4.264   6.254   0.731
 7732SOL    HW224096   4.226   6.293   0.577
 7733SOL     OW24097   4.657   6.686   2.531
 7733SOL    HW124098   4.597   6.749   2.482
 7733SOL    HW224099   4.602   6.613   2.572
 7734SOL     OW24100   2.491   5.006   2.974
 7734SOL    HW124101   2.510   5.105   2.977
 7734SOL    HW224102   2.429   4.987   2.898
 7735SOL     OW24103   5.086   6.351   6.597
 7735SOL    HW124104   4.987   6.340   6.607
 7735SOL    HW224105   5.105   6.412   6.520
 7736SOL     OW24106   3.147   3.689   0.042
 7736SOL    HW124107   3.244   3.710   0.031
 7736SOL    HW224108   3.129   3.597   0.007
 7737SOL     OW24109   3.158   0.706   2.551
 7737SOL    HW124110   3.197   0.734   2.463
 7737SOL    HW224111   3.167   0.607   2.561
 7738SOL     OW24112   3.148   6.259   0.086
 7738SOL    HW124113   3.194   6.215   0.164
 7738SOL    HW224114   3.118   6.350   0.112
 7739SOL     OW24115   0.911   2.333   0.820
 7739SOL    HW124116   0.840   2.368   0.881
 7739SOL    HW224117   0.918   2.391   0.739
 7740SOL     OW24118   2.289   0.973   3.218
 7740SOL    HW124119   2.382   0.984   3.182
 7740SOL    HW224120   2.223   0.998   3.147
 7741SOL     OW24121   0.988   4.955   6.230
 7741SOL    HW124122   0.910   5.005   6.193
 7741SOL    HW224123   1.063   4.955   6.163
 7742SOL     OW24124   5.008   1.845   3.712
 7742SOL    HW124125   4.970   1.783   3.781
 7742SOL    HW224126   4.989   1.809   3.621
 7743SOL     OW24127   5.986   1.035   0.345
 7743SOL    HW124128   6.018   0.941   0.364
 7743SOL    HW224129   6.045   1.100   0.393
 7744SOL     OW24130   0.791   6.207   3.514
 7744SOL    HW124131   0.751   6.160   3.435
 7744SOL    HW224132   0.890   6.211   3.505
 7745SOL     OW24133   3.652   0.982   6.378
 7745SOL    HW124134   3.643   1.071   6.334
 7745SOL    HW224135   3.679   0.995   6.473
 7746SOL     OW24136   2.616   6.564   0.078
 7746SOL    HW124137   2.652   6.472   0.062
 7746SOL    HW224138   2.561   6.564   0.162
 7747SOL     OW24139   5.216   5.864   1.302
 7747SOL    HW124140   5.182   5.772   1.284
 7747SOL    HW224141   5.308   5.860   1.339
 7748SOL     OW24142   2.946   3.473   4.800
 7748SOL    HW124143   2.954   3.453   4.898
 7748SOL    HW224144   2.929   3.571   4.787
 7749SOL     OW24145   2.257   2.636   5.780
 7749SOL    HW124146   2.183   2.677   5.833
 7749SOL    HW224147   2.345   2.674   5.810
 7750SOL     OW24148   0.040   6.328   1.710
 7750SOL    HW124149   6.964   6.331   1.693
 7750SOL    HW224150   0.060   6.258   1.778
 7751SOL     OW24151   1.095   2.533   2.113
 7751SOL    HW124152   1.000   2.535   2.084
 7751SOL    HW224153   1.100   2.538   2.213
 7752SOL     OW24154   5.536   0.530   5.890
 7752SOL    HW124155   5.468   0.463   5.860
 7752SOL    HW224156   5.527   0.543   5.989
 7753SOL     OW24157   2.597   1.734   3.973
 7753SOL    HW124158   2.683   1.683   3.981
 7753SOL    HW224159   2.598   1.788   3.889
 7754SOL     OW24160   3.432   6.044   1.159
 7754SOL    HW124161   3.450   5.947   1.179
 7754SOL    HW224162   3.489   6.101   1.218
 7755SOL     OW24163   2.378   2.118   5.796
 7755SOL    HW124164   2.466   2.148   5.760
 7755SOL    HW224165   2.381   2.020   5.815
 7756SOL     OW24166   2.772   6.706   2.623
 7756SOL    HW124167   2.696   6.772   2.626
 7756SOL    HW224168   2.798   6.681   2.716
 7757SOL     OW24169   5.835   4.813   0.952
 7757SOL    HW124170   5.847   4.738   0.886
 7757SOL    HW224171   5.783   4.887   0.909
 7758SOL     OW24172   2.297   0.267   5.982
 7758SOL    HW124173   2.317   0.169   5.985
 7758SOL    HW224174   2.259   0.295   6.070
 7759SOL     OW24175   1.900   1.921   5.764
 7759SOL    HW124176   1.867   2.008   5.800
 7759SOL    HW224177   1.965   1.880   5.829
 7760SOL     OW24178   5.999   3.768   2.217
 7760SOL    HW124179   5.903   3.755   2.193
 7760SOL    HW224180   6.014   3.739   2.312
 7761SOL     OW24181   6.637   6.702   4.729
 7761SOL    HW124182   6.545   6.681   4.694
 7761SOL    HW224183   6.705   6.647   4.680
 7762SOL     OW24184   2.222   0.354   4.070
 7762SOL    HW124185   2.233   0.441   4.022
 7762SOL    HW224186   2.302   0.338   4.128
 7763SOL     OW24187   2.473   0.041   6.511
 7763SOL    HW124188   2.429   7.004   6.579
 7763SOL    HW224189   2.454   0.137   6.534
 7764SOL     OW24190   3.515   3.603   5.200
 7764SOL    HW124191   3.424   3.562   5.208
 7764SOL    HW224192   3.550   3.623   5.292
 7765SOL     OW24193   6.079   3.294   4.926
 7765SOL    HW124194   6.036   3.342   5.003
 7765SOL    HW224195   6.127   3.213   4.960
 7766SOL     OW24196   6.803   4.145   0.193
 7766SOL    HW124197   6.794   4.055   0.150
 7766SOL    HW224198   6.714   4.190   0.195
 7767SOL     OW24199   4.293   5.777   2.433
 7767SOL    HW124200   4.389   5.802   2.417
 7767SOL    HW224201   4.287   5.680   2.457
 7768SOL     OW24202   4.687   4.317   2.926
 7768SOL    HW124203   4.778   4.359   2.931
 7768SOL    HW224204   4.617   4.387   2.940
 7769SOL     OW24205   4.538   1.531   4.167
 7769SOL    HW124206   4.569   1.440   4.194
 7769SOL    HW224207   4.444   1.545   4.198
 7770SOL     OW24208   1.351   3.355   4.933
 7770SOL    HW124209   1.358   3.394   4.841
 7770SOL    HW224210   1.406   3.272   4.938
 7771SOL     OW24211   3.399   1.978   5.297
 7771SOL    HW124212   3.353   2.067   5.292
 7771SOL    HW224213   3.429   1.951   5.206
 7772SOL     OW24214   4.751   6.846   1.748
 7772SOL    HW124215   4.677   6.782   1.768
 7772SOL    HW224216   4.838   6.798   1.748
 7773SOL     OW24217   1.685   4.813   5.202
 7773SOL    HW124218   1.686   4.718   5.233
 7773SOL    HW224219   1.777   4.839   5.172
 7774SOL     OW24220   4.775   2.196   4.168
 7774SOL    HW124221   4.766   2.171   4.265
 7774SOL    HW224222   4.783   2.295   4.160
 7775SOL     OW24223   4.282   6.936   0.081
 7775SOL    HW124224   4.220   7.013   0.094
 7775SOL    HW224225   4.373   6.970   0.059
 7776SOL     OW24226   0.961   5.814   6.936
 7776SOL    HW124227   0.939   5.902   6.893
 7776SOL    HW224228   0.974   5.827   0.012
 7777SOL     OW24229   6.088   5.337   3.976
 7777SOL    HW124230   6.092   5.285   4.062
 7777SOL    HW224231   6.028   5.289   3.912
 7778SOL     OW24232   5.708   3.723   1.716
 7778SOL    HW124233   5.641   3.686   1.781
 7778SOL    HW224234   5.777   3.654   1.697
 7779SOL     OW24235   2.619   1.357   1.750
 7779SOL    HW124236   2.609   1.456   1.764
 7779SOL    HW224237   2.701   1.339   1.696
 7780SOL     OW24238   0.629   5.103   5.929
 7780SOL    HW124239   0.584   5.170   5.869
 7780SOL    HW224240   0.630   5.014   5.884
 7781SOL     OW24241   2.074   4.281   1.939
 7781SOL    HW124242   2.167   4.245   1.937
 7781SOL    HW224243   2.077   4.380   1.927
 7782SOL     OW24244   5.206   5.261   4.257
 7782SOL    HW124245   5.109   5.240   4.247
 7782SOL    HW224246   5.216   5.353   4.294
 7783SOL     OW24247   0.863   6.912   5.642
 7783SOL    HW124248   0.802   6.948   5.570
 7783SOL    HW224249   0.823   6.829   5.680
 7784SOL     OW24250   3.613   2.773   1.933
 7784SOL    HW124251   3.685   2.708   1.958
 7784SOL    HW224252   3.653   2.849   1.881
 7785SOL     OW24253   1.806   6.093   4.556
 7785SOL    HW124254   1.778   6.125   4.465
 7785SOL    HW224255   1.887   6.144   4.585
 7786SOL     OW24256   3.618   6.967   0.655
 7786SOL    HW124257   3.612   6.870   0.679
 7786SOL    HW224258   3.531   7.012   0.675
 7787SOL     OW24259   2.260   3.039   6.968
 7787SOL    HW124260   2.217   2.951   6.986
 7787SOL    HW224261   2.346   3.046   7.020
 7788SOL     OW24262   1.997   5.036   1.686
 7788SOL    HW124263   2.086   5.072   1.657
 7788SOL    HW224264   1.937   5.027   1.606
 7789SOL     OW24265   2.952   0.181   6.639
 7789SOL    HW124266   3.004   0.245   6.583
 7789SOL    HW224267   2.860   0.216   6.654
 7790SOL     OW24268   5.130   5.588   2.655
 7790SOL    HW124269   5.164   5.569   2.563
 7790SOL    HW224270   5.130   5.504   2.709
 7791SOL     OW24271   2.144   5.005   2.804
 7791SOL    HW124272   2.225   4.998   2.744
 7791SOL    HW224273   2.062   5.008   2.748
 7792SOL     OW24274   1.425   6.143   4.004
 7792SOL    HW124275   1.372   6.157   4.088
 7792SOL    HW224276   1.368   6.099   3.935
 7793SOL     OW24277   3.756   0.783   0.253
 7793SOL    HW124278   3.749   0.709   0.186
 7793SOL    HW224279   3.715   0.866   0.215
 7794SOL     OW24280   6.903   4.087   2.079
 7794SOL    HW124281   6.822   4.035   2.052
 7794SOL    HW224282   6.977   4.023   2.101
 7795SOL     OW24283   2.391   4.839   5.243
 7795SOL    HW124284   2.453   4.818   5.318
 7795SOL    HW224285   2.376   4.937   5.239
 7796SOL     OW24286   3.445   3.149   5.198
 7796SOL    HW124287   3.493   3.075   5.152
 7796SOL    HW224288   3.440   3.228   5.137
 7797SOL     OW24289   0.750   6.340   1.575
 7797SOL    HW124290   0.834   6.392   1.585
 7797SOL    HW224291   0.748   6.296   1.485
 7798SOL     OW24292   0.544   2.829   3.497
 7798SOL    HW124293   0.517   2.872   3.411
 7798SOL    HW224294   0.499   2.875   3.574
 7799SOL     OW24295   1.876   5.284   2.397
 7799SOL    HW124296   1.786   5.321   2.373
 7799SOL    HW224297   1.908   5.327   2.481
 7800SOL     OW24298   1.107   5.167   2.748
 7800SOL    HW124299   1.081   5.258   2.780
 7800SOL    HW224300   1.073   5.098   2.812
 7801SOL     OW24301   1.814   1.545   2.516
 7801SOL    HW124302   1.900   1.583   2.550
 7801SOL    HW224303   1.754   1.525   2.593
 7802SOL     OW24304   6.275   3.244   0.451
 7802SOL    HW124305   6.370   3.271   0.437
 7802SOL    HW224306   6.263   3.149   0.423
 7803SOL     OW24307   4.445   2.070   0.117
 7803SOL    HW124308   4.431   1.987   0.063
 7803SOL    HW224309   4.359   2.095   0.162
 7804SOL     OW24310   4.339   2.121   5.098
 7804SOL    HW124311   4.430   2.087   5.121
 7804SOL    HW224312   4.347   2.186   5.022
 7805SOL     OW24313   5.257   3.181   2.063
 7805SOL    HW124314   5.322   3.165   2.138
 7805SOL    HW224315   5.165   3.188   2.101
 7806SOL     OW24316   5.552   1.312   6.012
 7806SOL    HW124317   5.608   1.371   6.071
 7806SOL    HW224318   5.465   1.293   6.057
 7807SOL     OW24319   0.673   4.856   5.766
 7807SOL    HW124320   0.600   4.792   5.790
 7807SOL    HW224321   0.711   4.833   5.676
 7808SOL     OW24322   6.067   3.369   3.514
 7808SOL    HW124323   6.123   3.290   3.540
 7808SOL    HW224324   6.055   3.369   3.414
 7809SOL     OW24325   5.272   4.875   5.074
 7809SOL    HW124326   5.312   4.958   5.035
 7809SOL    HW224327   5.245   4.892   5.168
 7810SOL     OW24328   3.395   6.276   5.141
 7810SOL    HW124329   3.368   6.192   5.186
 7810SOL    HW224330   3.491   6.270   5.114
 7811SOL     OW24331   1.831   4.728   1.940
 7811SOL    HW124332   1.806   4.809   1.992
 7811SOL    HW224333   1.919   4.743   1.894
 7812SOL     OW24334   1.420   2.489   4.578
 7812SOL    HW124335   1.353   2.424   4.542
 7812SOL    HW224336   1.447   2.552   4.505
 7813SOL     OW24337   4.015   2.062   1.213
 7813SOL    HW124338   3.919   2.081   1.232
 7813SOL    HW224339   4.038   1.969   1.242
 7814SOL     OW24340   6.797   3.106   3.379
 7814SOL    HW124341   6.785   3.191   3.328
 7814SOL    HW224342   6.842   3.038   3.320
 7815SOL     OW24343   5.873   2.453   3.733
 7815SOL    HW124344   5.800   2.488   3.675
 7815SOL    HW224345   5.856   2.356   3.753
 7816SOL     OW24346   0.980   2.292   6.692
 7816SOL    HW124347   1.052   2.222   6.697
 7816SOL    HW224348   1.015   2.372   6.643
 7817SOL     OW24349   4.689   4.760   4.743
 7817SOL    HW124350   4.622   4.686   4.737
 7817SOL    HW224351   4.685   4.802   4.834
 7818SOL     OW24352   4.936   0.999   2.817
 7818SOL    HW124353   4.893   0.986   2.906
 7818SOL    HW224354   4.899   0.932   2.752
 7819SOL     OW24355   0.074   3.873   3.744
 7819SOL    HW124356   0.172   3.858   3.758
 7819SOL    HW224357   0.061   3.951   3.682
 7820SOL     OW24358   1.697   1.223   5.338
 7820SOL    HW124359   1.729   1.130   5.315
 7820SOL    HW224360   1.775   1.286   5.336
 7821SOL     OW24361   5.919   5.667   0.693
 7821SOL    HW124362   5.823   5.676   0.668
 7821SOL    HW224363   5.951   5.751   0.736
 7822SOL     OW24364   0.970   1.371   6.560
 7822SOL    HW124365   1.053   1.363   6.615
 7822SOL    HW224366   0.990   1.347   6.466
 7823SOL     OW24367   2.431   3.696   5.870
 7823SOL    HW124368   2.501   3.627   5.890
 7823SOL    HW224369   2.343   3.665   5.905
 7824SOL     OW24370   6.078   0.724   4.112
 7824SOL    HW124371   6.066   0.756   4.206
 7824SOL    HW224372   6.044   0.630   4.105
 7825SOL     OW24373   1.035   3.359   0.714
 7825SOL    HW124374   1.106   3.400   0.656
 7825SOL    HW224375   1.069   3.352   0.808
 7826SOL     OW24376   5.610   1.920   6.516
 7826SOL    HW124377   5.632   1.860   6.593
 7826SOL    HW224378   5.670   2.001   6.519
 7827SOL     OW24379   2.635   4.435   0.768
 7827SOL    HW124380   2.672   4.343   0.756
 7827SOL    HW224381   2.611   4.473   0.679
 7828SOL     OW24382   0.622   5.306   1.501
 7828SOL    HW124383   0.718   5.299   1.474
 7828SOL    HW224384   0.611   5.379   1.568
 7829SOL     OW24385   2.463   2.861   0.192
 7829SOL    HW124386   2.402   2.860   0.271
 7829SOL    HW224387   2.502   2.952   0.181
 7830SOL     OW24388   4.240   3.894   6.061
 7830SOL    HW124389   4.287   3.856   6.141
 7830SOL    HW224390   4.294   3.875   5.979
 7831SOL     OW24391   1.293   5.175   1.005
 7831SOL    HW124392   1.381   5.131   0.989
 7831SOL    HW224393   1.303   5.246   1.074
 7832SOL     OW24394   3.319   1.330   4.112
 7832SOL    HW124395   3.327   1.232   4.090
 7832SOL    HW224396   3.288   1.379   4.031
 7833SOL     OW24397   1.027   0.702   7.018
 7833SOL    HW124398   0.941   0.750   7.000
 7833SOL    HW224399   1.007   0.608   0.024
 7834SOL     OW24400   6.964   1.656   3.563
 7834SOL    HW124401   0.023   1.635   3.508
 7834SOL    HW224402   6.991   1.713   3.641
 7835SOL     OW24403   2.708   2.337   4.625
 7835SOL    HW124404   2.783   2.300   4.680
 7835SOL    HW224405   2.679   2.425   4.662
 7836SOL     OW24406   3.367   2.813   5.348
 7836SOL    HW124407   3.400   2.802   5.442
 7836SOL    HW224408   3.280   2.861   5.349
 7837SOL     OW24409   6.860   5.659   1.596
 7837SOL    HW124410   6.909   5.677   1.510
 7837SOL    HW224411   6.770   5.702   1.592
 7838SOL     OW24412   4.119   6.386   0.497
 7838SOL    HW124413   4.190   6.453   0.477
 7838SOL    HW224414   4.087   6.344   0.412
 7839SOL     OW24415   6.031   4.851   5.358
 7839SOL    HW124416   6.123   4.846   5.320
 7839SOL    HW224417   6.023   4.931   5.418
 7840SOL     OW24418   4.900   3.140   4.322
 7840SOL    HW124419   4.862   3.195   4.397
 7840SOL    HW224420   4.856   3.050   4.322
 7841SOL     OW24421   5.031   1.558   6.389
 7841SOL    HW124422   4.985   1.537   6.475
 7841SOL    HW224423   5.062   1.653   6.388
 7842SOL     OW24424   2.019   1.669   2.837
 7842SOL    HW124425   2.057   1.690   2.747
 7842SOL    HW224426   1.934   1.720   2.851
 7843SOL     OW24427   4.908   4.410   2.172
 7843SOL    HW124428   4.991   4.383   2.219
 7843SOL    HW224429   4.928   4.427   2.075
 7844SOL     OW24430   4.421   0.650   3.777
 7844SOL    HW124431   4.335   0.674   3.732
 7844SOL    HW224432   4.489   0.721   3.759
 7845SOL     OW24433   6.167   1.555   4.155
 7845SOL    HW124434   6.127   1.591   4.239
 7845SOL    HW224435   6.114   1.477   4.123
 7846SOL     OW24436   1.799   0.790   1.879
 7846SOL    HW124437   1.701   0.784   1.898
 7846SOL    HW224438   1.851   0.771   1.962
 7847SOL     OW24439   6.532   1.584   2.208
 7847SOL    HW124440   6.619   1.539   2.189
 7847SOL    HW224441   6.472   1.521   2.258
 7848SOL     OW24442   3.003   3.610   1.163
 7848SOL    HW124443   2.951   3.527   1.182
 7848SOL    HW224444   2.995   3.633   1.066
 7849SOL     OW24445   5.669   3.975   3.406
 7849SOL    HW124446   5.765   3.954   3.424
 7849SOL    HW224447   5.662   4.067   3.367
 7850SOL     OW24448   0.362   1.916   4.039
 7850SOL    HW124449   0.271   1.920   3.996
 7850SOL    HW224450   0.425   1.869   3.977
 7851SOL     OW24451   6.798   6.822   0.839
 7851SOL    HW124452   6.763   6.738   0.797
 7851SOL    HW224453   6.897   6.827   0.826
 7852SOL     OW24454   2.776   0.002   5.329
 7852SOL    HW124455   2.725   6.939   5.319
 7852SOL    HW224456   2.794   0.020   5.426
 7853SOL     OW24457   3.952   1.383   2.097
 7853SOL    HW124458   3.883   1.361   2.027
 7853SOL    HW224459   4.037   1.335   2.076
 7854SOL     OW24460   2.982   3.336   0.566
 7854SOL    HW124461   3.051   3.375   0.627
 7854SOL    HW224462   2.901   3.395   0.566
 7855SOL     OW24463   2.949   5.988   5.658
 7855SOL    HW124464   2.934   5.962   5.753
 7855SOL    HW224465   3.034   5.948   5.625
 7856SOL     OW24466   5.535   5.151   4.395
 7856SOL    HW124467   5.629   5.164   4.362
 7856SOL    HW224468   5.472   5.201   4.337
 7857SOL     OW24469   6.181   2.453   5.542
 7857SOL    HW124470   6.220   2.365   5.568
 7857SOL    HW224471   6.081   2.448   5.543
 7858SOL     OW24472   4.823   5.518   3.405
 7858SOL    HW124473   4.888   5.593   3.419
 7858SOL    HW224474   4.874   5.432   3.392
 7859SOL     OW24475   6.174   4.243   5.389
 7859SOL    HW124476   6.117   4.226   5.309
 7859SOL    HW224477   6.269   4.226   5.366
 7860SOL     OW24478   4.423   0.414   2.632
 7860SOL    HW124479   4.443   0.474   2.555
 7860SOL    HW224480   4.327   0.387   2.629
 7861SOL     OW24481   3.921   5.327   1.625
 7861SOL    HW124482   3.836   5.364   1.588
 7861SOL    HW224483   3.991   5.324   1.553
 7862SOL     OW24484   3.022   4.748   1.763
 7862SOL    HW124485   2.990   4.673   1.822
 7862SOL    HW224486   3.036   4.714   1.670
 7863SOL     OW24487   6.795   6.540   3.782
 7863SOL    HW124488   6.725   6.506   3.845
 7863SOL    HW224489   6.785   6.639   3.771
 7864SOL     OW24490   0.193   6.444   5.419
 7864SOL    HW124491   0.279   6.490   5.444
 7864SOL    HW224492   0.207   6.388   5.338
 7865SOL     OW24493   4.801   6.937   4.822
 7865SOL    HW124494   4.771   0.008   4.838
 7865SOL    HW224495   4.724   6.882   4.789
 7866SOL     OW24496   2.717   2.155   6.855
 7866SOL    HW124497   2.623   2.140   6.825
 7866SOL    HW224498   2.724   2.142   6.953
 7867SOL     OW24499   5.309   6.848   2.496
 7867SOL    HW124500   5.282   6.753   2.517
 7867SOL    HW224501   5.333   6.855   2.399
 7868SOL     OW24502   5.799   6.602   2.218
 7868SOL    HW124503   5.760   6.514   2.192
 7868SOL    HW224504   5.733   6.653   2.272
 7869SOL     OW24505   5.340   3.355   0.503
 7869SOL    HW124506   5.439   3.349   0.490
 7869SOL    HW224507   5.309   3.278   0.558
 7870SOL     OW24508   4.538   5.059   4.809
 7870SOL    HW124509   4.565   5.030   4.718
 7870SOL    HW224510   4.599   5.131   4.841
 7871SOL     OW24511   5.432   3.974   2.504
 7871SOL    HW124512   5.517   4.021   2.527
 7871SOL    HW224513   5.394   3.933   2.587
 7872SOL     OW24514   2.290   4.211   2.475
 7872SOL    HW124515   2.230   4.283   2.441
 7872SOL    HW224516   2.295   4.138   2.408
 7873SOL     OW24517   5.021   0.601   5.562
 7873SOL    HW124518   5.074   0.516   5.552
 7873SOL    HW224519   5.040   0.661   5.485
 7874SOL     OW24520   5.174   1.685   0.493
 7874SOL    HW124521   5.171   1.713   0.397
 7874SOL    HW224522   5.081   1.683   0.530
 7875SOL     OW24523   4.255   2.252   6.655
 7875SOL    HW124524   4.190   2.214   6.722
 7875SOL    HW224525   4.308   2.325   6.698
 7876SOL     OW24526   6.690   0.110   4.905
 7876SOL    HW124527   6.757   0.055   4.955
 7876SOL    HW224528   6.628   0.049   4.855
 7877SOL     OW24529   6.961   3.151   2.690
 7877SOL    HW124530   0.014   3.205   2.729
 7877SOL    HW224531   6.934   3.191   2.603
 7878SOL     OW24532   4.577   4.917   4.192
 7878SOL    HW124533   4.537   4.891   4.279
 7878SOL    HW224534   4.669   4.877   4.184
 7879SOL     OW24535   5.062   5.690   3.489
 7879SOL    HW124536   5.065   5.763   3.558
 7879SOL    HW224537   5.103   5.607   3.528
 7880SOL     OW24538   1.186   5.147   0.738
 7880SOL    HW124539   1.216   5.183   0.826
 7880SOL    HW224540   1.266   5.125   0.682
 7881SOL     OW24541   5.555   3.493   5.018
 7881SOL    HW124542   5.549   3.570   5.083
 7881SOL    HW224543   5.467   3.481   4.973
 7882SOL     OW24544   1.802   3.283   2.702
 7882SOL    HW124545   1.897   3.289   2.731
 7882SOL    HW224546   1.782   3.189   2.673
 7883SOL     OW24547   1.611   0.121   1.259
 7883SOL    HW124548   1.586   0.218   1.263
 7883SOL    HW224549   1.609   0.082   1.351
 7884SOL     OW24550   2.182   3.876   3.664
 7884SOL    HW124551   2.252   3.943   3.689
 7884SOL    HW224552   2.179   3.866   3.564
 7885SOL     OW24553   6.112   6.510   1.742
 7885SOL    HW124554   6.168   6.459   1.808
 7885SOL    HW224555   6.016   6.509   1.772
 7886SOL     OW24556   3.809   4.854   0.686
 7886SOL    HW124557   3.821   4.945   0.647
 7886SOL    HW224558   3.878   4.839   0.758
 7887SOL     OW24559   3.332   2.548   5.298
 7887SOL    HW124560   3.312   2.646   5.296
 7887SOL    HW224561   3.262   2.499   5.247
 7888SOL     OW24562   0.247   0.254   5.123
 7888SOL    HW124563   0.187   0.280   5.047
 7888SOL    HW224564   0.191   0.230   5.202
 7889SOL     OW24565   0.966   4.556   6.797
 7889SOL    HW124566   0.884   4.571   6.852
 7889SOL    HW224567   0.964   4.464   6.757
 7890SOL     OW24568   0.629   3.364   4.049
 7890SOL    HW124569   0.572   3.400   4.122
 7890SOL    HW224570   0.621   3.264   4.047
 7891SOL     OW24571   1.838   4.096   5.034
 7891SOL    HW124572   1.849   4.170   5.101
 7891SOL    HW224573   1.923   4.085   4.983
 7892SOL     OW24574   1.763   1.939   3.924
 7892SOL    HW124575   1.787   2.027   3.882
 7892SOL    HW224576   1.772   1.946   4.023
 7893SOL     OW24577   6.512   0.200   2.078
 7893SOL    HW124578   6.522   0.237   1.985
 7893SOL    HW224579   6.602   0.185   2.118
 7894SOL     OW24580   3.157   0.910   1.514
 7894SOL    HW124581   3.150   1.009   1.497
 7894SOL    HW224582   3.077   0.865   1.475
 7895SOL     OW24583   4.929   0.193   4.657
 7895SOL    HW124584   4.837   0.226   4.679
 7895SOL    HW224585   4.975   0.166   4.741
 7896SOL     OW24586   4.964   2.906   1.457
 7896SOL    HW124587   4.984   2.826   1.401
 7896SOL    HW224588   4.903   2.880   1.531
 7897SOL     OW24589   3.525   2.682   1.197
 7897SOL    HW124590   3.515   2.615   1.124
 7897SOL    HW224591   3.437   2.723   1.218
 7898SOL     OW24592   4.162   0.149   3.768
 7898SOL    HW124593   4.137   0.246   3.768
 7898SOL    HW224594   4.240   0.135   3.830
 7899SOL     OW24595   5.831   6.714   1.668
 7899SOL    HW124596   5.844   6.652   1.745
 7899SOL    HW224597   5.801   6.662   1.588
 7900SOL     OW24598   1.096   5.244   1.551
 7900SOL    HW124599   1.104   5.341   1.572
 7900SOL    HW224600   1.073   5.194   1.635
 7901SOL     OW24601   4.757   0.921   6.735
 7901SOL    HW124602   4.842   0.929   6.683
 7901SOL    HW224603   4.775   0.940   6.831
 7902SOL     OW24604   5.913   5.633   2.235
 7902SOL    HW124605   6.004   5.665   2.262
 7902SOL    HW224606   5.871   5.585   2.312
 7903SOL     OW24607   4.945   1.551   2.976
 7903SOL    HW124608   4.882   1.476   2.995
 7903SOL    HW224609   4.955   1.562   2.877
 7904SOL     OW24610   5.456   7.000   2.678
 7904SOL    HW124611   5.416   0.067   2.700
 7904SOL    HW224612   5.392   6.949   2.620
 7905SOL     OW24613   5.628   2.283   0.475
 7905SOL    HW124614   5.705   2.253   0.532
 7905SOL    HW224615   5.606   2.378   0.497
 7906SOL     OW24616   0.547   5.425   0.766
 7906SOL    HW124617   0.494   5.456   0.845
 7906SOL    HW224618   0.486   5.390   0.696
 7907SOL     OW24619   6.232   2.140   3.687
 7907SOL    HW124620   6.175   2.057   3.687
 7907SOL    HW224621   6.328   2.115   3.684
 7908SOL     OW24622   1.264   1.157   6.238
 7908SOL    HW124623   1.278   1.200   6.149
 7908SOL    HW224624   1.177   1.186   6.277
 7909SOL     OW24625   4.735   4.175   3.800
 7909SOL    HW124626   4.684   4.258   3.821
 7909SOL    HW224627   4.757   4.127   3.885
 7910SOL     OW24628   2.199   3.071   0.353
 7910SOL    HW124629   2.146   3.052   0.436
 7910SOL    HW224630   2.169   3.158   0.315
 7911SOL     OW24631   0.844   4.653   0.447
 7911SOL    HW124632   0.886   4.672   0.536
 7911SOL    HW224633   0.882   4.715   0.378
 7912SOL     OW24634   5.769   4.826   1.400
 7912SOL    HW124635   5.737   4.733   1.382
 7912SOL    HW224636   5.693   4.882   1.431
 7913SOL     OW24637   1.618   3.794   2.006
 7913SOL    HW124638   1.666   3.862   1.952
 7913SOL    HW224639   1.541   3.757   1.953
 7914SOL     OW24640   6.806   4.610   0.801
 7914SOL    HW124641   6.741   4.568   0.865
 7914SOL    HW224642   6.884   4.646   0.852
 7915SOL     OW24643   5.168   2.138   2.366
 7915SOL    HW124644   5.076   2.129   2.330
 7915SOL    HW224645   5.165   2.173   2.460
 7916SOL     OW24646   6.701   5.834   5.668
 7916SOL    HW124647   6.624   5.804   5.611
 7916SOL    HW224648   6.750   5.908   5.622
 7917SOL     OW24649   4.058   3.320   5.672
 7917SOL    HW124650   3.974   3.351   5.716
 7917SOL    HW224651   4.132   3.314   5.739
 7918SOL     OW24652   6.236   1.181   4.100
 7918SOL    HW124653   6.157   1.177   4.161
 7918SOL    HW224654   6.284   1.094   4.102
 7919SOL     OW24655   1.675   4.592   3.158
 7919SOL    HW124656   1.770   4.608   3.186
 7919SOL    HW224657   1.627   4.679   3.153
 7920SOL     OW24658   6.532   6.925   0.786
 7920SOL    HW124659   6.444   6.947   0.828
 7920SOL    HW224660   6.602   6.986   0.822
 7921SOL     OW24661   5.894   6.083   2.508
 7921SOL    HW124662   5.826   6.095   2.436
 7921SOL    HW224663   5.883   5.994   2.551
 7922SOL     OW24664   0.185   6.143   0.068
 7922SOL    HW124665   0.190   6.243   0.064
 7922SOL    HW224666   0.219   6.111   0.157
 7923SOL     OW24667   3.973   0.918   6.320
 7923SOL    HW124668   4.015   0.883   6.404
 7923SOL    HW224669   3.899   0.857   6.291
 7924SOL     OW24670   5.167   0.513   1.894
 7924SOL    HW124671   5.218   0.538   1.976
 7924SOL    HW224672   5.079   0.472   1.920
 7925SOL     OW24673   0.750   0.104   0.227
 7925SOL    HW124674   0.732   0.199   0.256
 7925SOL    HW224675   0.675   0.045   0.257
 7926SOL     OW24676   4.953   1.994   5.999
 7926SOL    HW124677   4.886   2.027   5.932
 7926SOL    HW224678   4.960   2.059   6.074
 7927SOL     OW24679   4.682   6.148   2.536
 7927SOL    HW124680   4.667   6.059   2.494
 7927SOL    HW224681   4.659   6.144   2.634
 7928SOL     OW24682   1.159   1.974   3.998
 7928SOL    HW124683   1.255   1.988   4.023
 7928SOL    HW224684   1.118   1.906   4.059
 7929SOL     OW24685   4.312   3.579   5.976
 7929SOL    HW124686   4.376   3.654   5.989
 7929SOL    HW224687   4.303   3.559   5.879
 7930SOL     OW24688   4.623   5.288   5.585
 7930SOL    HW124689   4.528   5.271   5.614
 7930SOL    HW224690   4.672   5.201   5.583
 7931SOL     OW24691   3.034   3.158   0.018
 7931SOL    HW124692   3.074   3.083   6.988
 7931SOL    HW224693   2.946   3.184   7.000
 7932SOL     OW24694   1.505   6.056   6.851
 7932SOL    HW124695   1.453   6.003   6.784
 7932SOL    HW224696   1.590   6.089   6.808
 7933SOL     OW24697   6.318   0.323   6.239
 7933SOL    HW124698   6.303   0.422   6.237
 7933SOL    HW224699   6.353   0.293   6.150
 7934SOL     OW24700   1.507   5.275   7.016
 7934SOL    HW124701   1.414   5.312   7.016
 7934SOL    HW224702   1.537   5.264   6.921
 7935SOL     OW24703   6.192   6.274   1.090
 7935SOL    HW124704   6.267   6.339   1.082
 7935SOL    HW224705   6.150   6.259   1.000
 7936SOL     OW24706   2.951   5.725   2.393
 7936SOL    HW124707   2.947   5.625   2.388
 7936SOL    HW224708   2.862   5.761   2.423
 7937SOL     OW24709   6.536   5.922   3.905
 7937SOL    HW124710   6.547   6.021   3.903
 7937SOL    HW224711   6.527   5.891   4.000
 7938SOL     OW24712   6.380   6.259   4.330
 7938SOL    HW124713   6.345   6.350   4.309
 7938SOL    HW224714   6.471   6.265   4.369
 7939SOL     OW24715   1.813   2.287   5.605
 7939SOL    HW124716   1.886   2.281   5.673
 7939SOL    HW224717   1.853   2.306   5.516
 7940SOL     OW24718   2.125   2.794   1.624
 7940SOL    HW124719   2.034   2.834   1.634
 7940SOL    HW224720   2.193   2.853   1.667
 7941SOL     OW24721   6.097   5.897   1.773
 7941SOL    HW124722   6.077   5.991   1.744
 7941SOL    HW224723   6.093   5.891   1.873
 7942SOL     OW24724   0.344   4.404   2.898
 7942SOL    HW124725   0.422   4.465   2.886
 7942SOL    HW224726   0.260   4.457   2.904
 7943SOL     OW24727   0.346   4.289   6.395
 7943SOL    HW124728   0.337   4.325   6.488
 7943SOL    HW224729   0.415   4.217   6.394
 7944SOL     OW24730   0.837   2.504   0.612
 7944SOL    HW124731   0.889   2.481   0.529
 7944SOL    HW224732   0.803   2.598   0.604
 7945SOL     OW24733   6.448   5.464   1.395
 7945SOL    HW124734   6.492   5.436   1.309
 7945SOL    HW224735   6.486   5.412   1.471
 7946SOL     OW24736   3.536   0.355   5.067
 7946SOL    HW124737   3.482   0.407   5.001
 7946SOL    HW224738   3.546   0.261   5.034
 7947SOL     OW24739   3.166   1.503   5.527
 7947SOL    HW124740   3.247   1.553   5.496
 7947SOL    HW224741   3.164   1.502   5.627
 7948SOL     OW24742   0.893   5.879   0.992
 7948SOL    HW124743   0.878   5.787   1.028
 7948SOL    HW224744   0.980   5.915   1.026
 7949SOL     OW24745   5.121   4.100   5.574
 7949SOL    HW124746   5.065   4.087   5.656
 7949SOL    HW224747   5.122   4.017   5.520
 7950SOL     OW24748   4.616   5.283   4.161
 7950SOL    HW124749   4.543   5.284   4.092
 7950SOL    HW224750   4.576   5.262   4.250
 7951SOL     OW24751   2.120   4.769   2.264
 7951SOL    HW124752   2.026   4.737   2.275
 7951SOL    HW224753   2.147   4.825   2.342
 7952SOL     OW24754   6.862   3.277   6.434
 7952SOL    HW124755   6.790   3.331   6.478
 7952SOL    HW224756   6.879   3.195   6.489
 7953SOL     OW24757   3.924   2.189   2.603
 7953SOL    HW124758   3.946   2.167   2.508
 7953SOL    HW224759   3.836   2.148   2.628
 7954SOL     OW24760   2.776   4.429   6.029
 7954SOL    HW124761   2.700   4.371   6.056
 7954SOL    HW224762   2.792   4.420   5.931
 7955SOL     OW24763   2.507   1.194   6.525
 7955SOL    HW124764   2.603   1.168   6.515
 7955SOL    HW224765   2.483   1.259   6.454
 7956SOL     OW24766   5.261   6.841   1.791
 7956SOL    HW124767   5.356   6.872   1.793
 7956SOL    HW224768   5.212   6.881   1.869
 7957SOL     OW24769   1.561   0.650   0.551
 7957SOL    HW124770   1.514   0.734   0.522
 7957SOL    HW224771   1.619   0.670   0.630
 7958SOL     OW24772   4.632   5.197   6.249
 7958SOL    HW124773   4.563   5.268   6.242
 7958SOL    HW224774   4.599   5.114   6.205
 7959SOL     OW24775   5.420   6.156   1.094
 7959SOL    HW124776   5.353   6.156   1.169
 7959SOL    HW224777   5.480   6.077   1.103
 7960SOL     OW24778   1.734   0.544   5.886
 7960SOL    HW124779   1.709   0.621   5.827
 7960SOL    HW224780   1.712   0.567   5.981
 7961SOL     OW24781   6.947   0.845   0.405
 7961SOL    HW124782   6.877   0.782   0.372
 7961SOL    HW224783   6.923   0.878   0.496
 7962SOL     OW24784   1.081   1.075   5.749
 7962SOL    HW124785   1.053   1.073   5.653
 7962SOL    HW224786   1.152   1.144   5.762
 7963SOL     OW24787   5.900   6.105   4.249
 7963SOL    HW124788   5.963   6.181   4.261
 7963SOL    HW224789   5.888   6.058   4.337
 7964SOL     OW24790   6.990   4.011   2.740
 7964SOL    HW124791   7.013   4.060   2.823
 7964SOL    HW224792   0.026   4.042   2.665
 7965SOL     OW24793   4.431   2.287   6.055
 7965SOL    HW124794   4.392   2.195   6.049
 7965SOL    HW224795   4.482   2.297   6.141
 7966SOL     OW24796   2.894   2.603   5.671
 7966SOL    HW124797   2.990   2.604   5.643
 7966SOL    HW224798   2.874   2.518   5.719
 7967SOL     OW24799   3.570   6.251   2.157
 7967SOL    HW124800   3.648   6.216   2.208
 7967SOL    HW224801   3.596   6.335   2.109
 7968SOL     OW24802   0.604   2.188   4.055
 7968SOL    HW124803   0.692   2.234   4.038
 7968SOL    HW224804   0.569   2.215   4.144
 7969SOL     OW24805   5.348   5.725   0.418
 7969SOL    HW124806   5.428   5.683   0.462
 7969SOL    HW224807   5.372   5.816   0.385
 7970SOL     OW24808   6.865   2.560   2.076
 7970SOL    HW124809   6.870   2.536   2.173
 7970SOL    HW224810   6.915   2.645   2.060
 7971SOL     OW24811   3.281   1.796   1.093
 7971SOL    HW124812   3.307   1.874   1.150
 7971SOL    HW224813   3.361   1.736   1.081
 7972SOL     OW24814   2.650   3.229   0.430
 7972SOL    HW124815   2.599   3.187   0.505
 7972SOL    HW224816   2.742   3.190   0.426
 7973SOL     OW24817   4.315   4.713   4.592
 7973SOL    HW124818   4.342   4.733   4.686
 7973SOL    HW224819   4.221   4.743   4.577
 7974SOL     OW24820   5.929   0.631   5.385
 7974SOL    HW124821   5.918   0.531   5.387
 7974SOL    HW224822   5.865   0.673   5.450
 7975SOL     OW24823   6.586   1.022   1.755
 7975SOL    HW124824   6.504   1.079   1.750
 7975SOL    HW224825   6.636   1.027   1.669
 7976SOL     OW24826   1.316   0.376   6.015
 7976SOL    HW124827   1.325   0.457   5.957
 7976SOL    HW224828   1.219   0.359   6.034
 7977SOL     OW24829   4.082   5.736   3.354
 7977SOL    HW124830   4.055   5.703   3.264
 7977SOL    HW224831   4.180   5.720   3.368
 7978SOL     OW24832   6.115   2.489   6.196
 7978SOL    HW124833   6.071   2.418   6.141
 7978SOL    HW224834   6.053   2.567   6.205
 7979SOL     OW24835   3.544   4.930   5.784
 7979SOL    HW124836   3.547   4.886   5.874
 7979SOL    HW224837   3.559   5.028   5.794
 7980SOL     OW24838   3.069   5.557   6.537
 7980SOL    HW124839   3.039   5.461   6.544
 7980SOL    HW224840   3.166   5.560   6.513
 7981SOL     OW24841   0.783   5.087   1.657
 7981SOL    HW124842   0.850   5.020   1.688
 7981SOL    HW224843   0.771   5.079   1.558
 7982SOL     OW24844   1.888   1.277   0.303
 7982SOL    HW124845   1.931   1.196   0.343
 7982SOL    HW224846   1.812   1.249   0.244
 7983SOL     OW24847   5.954   2.382   0.753
 7983SOL    HW124848   6.008   2.425   0.826
 7983SOL    HW224849   5.907   2.453   0.701
 7984SOL     OW24850   1.430   0.983   0.996
 7984SOL    HW124851   1.344   1.022   0.962
 7984SOL    HW224852   1.500   1.054   1.002
 7985SOL     OW24853   2.504   1.023   3.885
 7985SOL    HW124854   2.490   1.119   3.862
 7985SOL    HW224855   2.520   1.015   3.983
 7986SOL     OW24856   2.848   0.865   6.396
 7986SOL    HW124857   2.861   0.901   6.303
 7986SOL    HW224858   2.752   0.842   6.409
 7987SOL     OW24859   1.672   2.586   6.476
 7987SOL    HW124860   1.594   2.525   6.479
 7987SOL    HW224861   1.741   2.556   6.542
 7988SOL     OW24862   0.818   2.171   3.003
 7988SOL    HW124863   0.842   2.094   3.063
 7988SOL    HW224864   0.894   2.236   3.001
 7989SOL     OW24865   2.557   3.439   6.948
 7989SOL    HW124866   2.537   3.522   6.896
 7989SOL    HW224867   2.474   3.408   6.994
 7990SOL     OW24868   1.250   4.793   4.918
 7990SOL    HW124869   1.342   4.806   4.954
 7990SOL    HW224870   1.215   4.880   4.883
 7991SOL     OW24871   6.047   0.297   3.321
 7991SOL    HW124872   5.996   0.211   3.311
 7991SOL    HW224873   6.069   0.312   3.418
 7992SOL     OW24874   1.117   0.497   0.634
 7992SOL    HW124875   1.048   0.429   0.611
 7992SOL    HW224876   1.169   0.520   0.552
 7993SOL     OW24877   0.597   6.727   0.712
 7993SOL    HW124878   0.681   6.773   0.739
 7993SOL    HW224879   0.619   6.644   0.660
 7994SOL     OW24880   3.917   0.004   3.768
 7994SOL    HW124881   3.997   0.061   3.784
 7994SOL    HW224882   3.944   6.930   3.764
 7995SOL     OW24883   6.256   5.533   3.570
 7995SOL    HW124884   6.262   5.602   3.641
 7995SOL    HW224885   6.266   5.576   3.480
 7996SOL     OW24886   2.589   6.660   4.650
 7996SOL    HW124887   2.495   6.648   4.617
 7996SOL    HW224888   2.653   6.625   4.582
 7997SOL     OW24889   0.274   1.116   1.158
 7997SOL    HW124890   0.299   1.210   1.136
 7997SOL    HW224891   0.331   1.083   1.233
 7998SOL     OW24892   2.638   0.271   0.363
 7998SOL    HW124893   2.551   0.222   0.354
 7998SOL    HW224894   2.698   0.247   0.287
 7999SOL     OW24895   1.353   0.644   5.891
 7999SOL    HW124896   1.442   0.690   5.896
 7999SOL    HW224897   1.302   0.679   5.812
 8000SOL     OW24898   4.894   6.882   6.763
 8000SOL    HW124899   4.883   6.981   6.755
 8000SOL    HW224900   4.958   6.850   6.693
 8001SOL     OW24901   4.181   6.637   1.450
 8001SOL    HW124902   4.104   6.590   1.406
 8001SOL    HW224903   4.187   6.609   1.545
 8002SOL     OW24904   2.401   0.622   6.661
 8002SOL    HW124905   2.466   0.696   6.676
 8002SOL    HW224906   2.431   0.566   6.584
 8003SOL     OW24907   2.703   5.690   2.082
 8003SOL    HW124908   2.616   5.737   2.094
 8003SOL    HW224909   2.778   5.756   2.088
 8004SOL     OW24910   2.299   2.898   2.554
 8004SOL    HW124911   2.285   2.883   2.652
 8004SOL    HW224912   2.389   2.864   2.528
 8005SOL     OW24913   3.027   1.308   3.156
 8005SOL    HW124914   3.095   1.277   3.089
 8005SOL    HW224915   3.074   1.349   3.234
 8006SOL     OW24916   2.284   6.605   5.814
 8006SOL    HW124917   2.264   6.673   5.885
 8006SOL    HW224918   2.381   6.608   5.790
 8007SOL     OW24919   6.015   1.604   5.625
 8007SOL    HW124920   6.066   1.541   5.566
 8007SOL    HW224921   5.934   1.637   5.575
 8008SOL     OW24922   4.523   5.920   6.642
 8008SOL    HW124923   4.478   6.005   6.615
 8008SOL    HW224924   4.555   5.927   6.736
 8009SOL     OW24925   5.728   0.510   1.575
 8009SOL    HW124926   5.734   0.493   1.673
 8009SOL    HW224927   5.820   0.506   1.534
 8010SOL     OW24928   1.962   1.011   5.580
 8010SOL    HW124929   1.926   0.919   5.565
 8010SOL    HW224930   1.991   1.050   5.493
 8011SOL     OW24931   3.140   2.428   1.086
 8011SOL    HW124932   3.151   2.329   1.097
 8011SOL    HW224933   3.073   2.460   1.154
 8012SOL     OW24934   2.238   3.688   0.340
 8012SOL    HW124935   2.314   3.624   0.333
 8012SOL    HW224936   2.154   3.639   0.361
 8013SOL     OW24937   1.691   5.206   3.134
 8013SOL    HW124938   1.694   5.231   3.231
 8013SOL    HW224939   1.747   5.124   3.120
 8014SOL     OW24940   0.840   6.403   4.878
 8014SOL    HW124941   0.865   6.308   4.858
 8014SOL    HW224942   0.856   6.459   4.796
 8015SOL     OW24943   2.678   0.708   6.114
 8015SOL    HW124944   2.680   0.631   6.178
 8015SOL    HW224945   2.751   0.698   6.047
 8016SOL     OW24946   4.042   0.175   5.546
 8016SOL    HW124947   3.995   0.119   5.478
 8016SOL    HW224948   4.140   0.161   5.538
 8017SOL     OW24949   5.412   6.956   0.375
 8017SOL    HW124950   5.417   6.876   0.314
 8017SOL    HW224951   5.444   6.930   0.466
 8018SOL     OW24952   3.218   1.935   6.988
 8018SOL    HW124953   3.272   1.912   6.907
 8018SOL    HW224954   3.167   2.019   6.971
 8019SOL     OW24955   2.934   4.759   1.074
 8019SOL    HW124956   2.877   4.684   1.041
 8019SOL    HW224957   2.877   4.827   1.120
 8020SOL     OW24958   6.497   0.224   6.989
 8020SOL    HW124959   6.442   0.141   6.982
 8020SOL    HW224960   6.446   0.300   6.949
 8021SOL     OW24961   1.538   2.524   0.693
 8021SOL    HW124962   1.456   2.488   0.737
 8021SOL    HW224963   1.605   2.549   0.763
 8022SOL     OW24964   5.929   0.269   2.314
 8022SOL    HW124965   5.918   0.234   2.408
 8022SOL    HW224966   5.915   0.194   2.249
 8023SOL     OW24967   6.138   5.147   3.099
 8023SOL    HW124968   6.085   5.068   3.130
 8023SOL    HW224969   6.112   5.228   3.151
 8024SOL     OW24970   1.418   4.856   5.987
 8024SOL    HW124971   1.482   4.838   6.062
 8024SOL    HW224972   1.464   4.911   5.917
 8025SOL     OW24973   2.071   5.725   0.411
 8025SOL    HW124974   2.000   5.737   0.342
 8025SOL    HW224975   2.029   5.709   0.500
 8026SOL     OW24976   6.911   4.326   0.001
 8026SOL    HW124977   6.882   4.249   0.058
 8026SOL    HW224978   6.837   4.353   6.962
 8027SOL     OW24979   4.286   0.333   5.045
 8027SOL    HW124980   4.251   0.239   5.042
 8027SOL    HW224981   4.213   0.397   5.021
 8028SOL     OW24982   4.049   5.790   5.800
 8028SOL    HW124983   4.041   5.721   5.727
 8028SOL    HW224984   3.958   5.815   5.833
 8029SOL     OW24985   5.488   3.124   1.157
 8029SOL    HW124986   5.564   3.161   1.105
 8029SOL    HW224987   5.411   3.188   1.154
 8030SOL     OW24988   5.114   4.752   0.452
 8030SOL    HW124989   5.038   4.713   0.505
 8030SOL    HW224990   5.081   4.828   0.397
 8031SOL     OW24991   6.342   6.598   2.321
 8031SOL    HW124992   6.420   6.570   2.377
 8031SOL    HW224993   6.274   6.525   2.319
 8032SOL     OW24994   6.771   4.521   1.420
 8032SOL    HW124995   6.853   4.541   1.475
 8032SOL    HW224996   6.786   4.552   1.326
 8033SOL     OW24997   4.602   2.187   6.549
 8033SOL    HW124998   4.508   2.159   6.565
 8033SOL    HW224999   4.663   2.108   6.555
 8034SOL     OW25000   4.549   0.935   4.862
 8034SOL    HW125001   4.591   0.848   4.837
 8034SOL    HW225002   4.477   0.957   4.797
 8035SOL     OW25003   5.656   1.685   3.072
 8035SOL    HW125004   5.718   1.624   3.022
 8035SOL    HW225005   5.655   1.774   3.028
 8036SOL     OW25006   6.586   3.960   3.678
 8036SOL    HW125007   6.530   3.975   3.760
 8036SOL    HW225008   6.598   3.862   3.663
 8037SOL     OW25009   2.003   3.110   6.900
 8037SOL    HW125010   2.103   3.110   6.897
 8037SOL    HW225011   1.972   3.110   6.995
 8038SOL     OW25012   4.747   0.632   2.626
 8038SOL    HW125013   4.709   0.635   2.719
 8038SOL    HW225014   4.673   0.638   2.560
 8039SOL     OW25015   0.396   1.577   5.344
 8039SOL    HW125016   0.420   1.489   5.384
 8039SOL    HW225017   0.346   1.562   5.258
 8040SOL     OW25018   1.491   5.512   0.235
 8040SOL    HW125019   1.585   5.478   0.232
 8040SOL    HW225020   1.428   5.436   0.253
 8041SOL     OW25021   3.028   1.039   3.088
 8041SOL    HW125022   3.011   1.126   3.134
 8041SOL    HW225023   2.946   1.010   3.040
 8042SOL     OW25024   3.728   2.907   4.764
 8042SOL    HW125025   3.685   2.884   4.851
 8042SOL    HW225026   3.818   2.864   4.759
 8043SOL     OW25027   3.424   6.432   1.019
 8043SOL    HW125028   3.351   6.415   0.952
 8043SOL    HW225029   3.417   6.366   1.094
 8044SOL     OW25030   4.613   2.832   0.974
 8044SOL    HW125031   4.518   2.862   0.979
 8044SOL    HW225032   4.668   2.885   1.039
 8045SOL     OW25033   6.173   2.334   2.662
 8045SOL    HW125034   6.201   2.356   2.756
 8045SOL    HW225035   6.105   2.401   2.632
 8046SOL     OW25036   0.780   4.482   1.682
 8046SOL    HW125037   0.716   4.422   1.634
 8046SOL    HW225038   0.738   4.572   1.694
 8047SOL     OW25039   4.514   5.437   6.498
 8047SOL    HW125040   4.457   5.501   6.550
 8047SOL    HW225041   4.599   5.420   6.547
 8048SOL     OW25042   4.326   1.767   6.990
 8048SOL    HW125043   4.410   1.731   0.010
 8048SOL    HW225044   4.272   1.815   0.037
 8049SOL     OW25045   0.970   0.320   6.744
 8049SOL    HW125046   1.014   0.408   6.760
 8049SOL    HW225047   0.923   0.322   6.655
 8050SOL     OW25048   2.101   3.549   3.218
 8050SOL    HW125049   2.112   3.544   3.118
 8050SOL    HW225050   2.010   3.586   3.239
 8051SOL     OW25051   4.779   5.758   4.303
 8051SOL    HW125052   4.703   5.815   4.334
 8051SOL    HW225053   4.865   5.805   4.323
 8052SOL     OW25054   3.078   1.610   1.095
 8052SOL    HW125055   3.101   1.536   1.031
 8052SOL    HW225056   3.155   1.673   1.101
 8053SOL     OW25057   3.516   2.934   4.410
 8053SOL    HW125058   3.485   2.934   4.505
 8053SOL    HW225059   3.438   2.921   4.349
 8054SOL     OW25060   6.683   4.708   5.192
 8054SOL    HW125061   6.671   4.807   5.198
 8054SOL    HW225062   6.671   4.679   5.098
 8055SOL     OW25063   0.062   0.229   5.311
 8055SOL    HW125064   0.027   0.319   5.285
 8055SOL    HW225065   0.033   0.207   5.404
 8056SOL     OW25066   2.388   0.776   3.907
 8056SOL    HW125067   2.388   0.748   4.003
 8056SOL    HW225068   2.449   0.855   3.895
 8057SOL     OW25069   2.787   2.340   3.023
 8057SOL    HW125070   2.757   2.435   3.016
 8057SOL    HW225071   2.720   2.281   2.978
 8058SOL     OW25072   3.594   0.096   3.668
 8058SOL    HW125073   3.540   0.015   3.690
 8058SOL    HW225074   3.689   0.070   3.654
 8059SOL     OW25075   2.489   2.018   4.320
 8059SOL    HW125076   2.455   1.955   4.251
 8059SOL    HW225077   2.530   1.967   4.395
 8060SOL     OW25078   6.333   2.307   6.132
 8060SOL    HW125079   6.391   2.367   6.077
 8060SOL    HW225080   6.251   2.357   6.161
 8061SOL     OW25081   6.926   6.892   2.634
 8061SOL    HW125082   6.827   6.887   2.624
 8061SOL    HW225083   6.966   6.935   2.553
 8062SOL     OW25084   3.156   5.041   4.566
 8062SOL    HW125085   3.070   4.992   4.557
 8062SOL    HW225086   3.210   5.001   4.641
 8063SOL     OW25087   2.184   2.214   2.626
 8063SOL    HW125088   2.187   2.161   2.710
 8063SOL    HW225089   2.270   2.203   2.576
 8064SOL     OW25090   6.509   2.679   0.929
 8064SOL    HW125091   6.444   2.650   0.859
 8064SOL    HW225092   6.496   2.776   0.949
 8065SOL     OW25093   2.695   5.620   3.840
 8065SOL    HW125094   2.684   5.671   3.754
 8065SOL    HW225095   2.645   5.667   3.913
 8066SOL     OW25096   0.441   1.311   5.396
 8066SOL    HW125097   0.355   1.276   5.360
 8066SOL    HW225098   0.473   1.251   5.470
 8067SOL     OW25099   5.116   3.035   2.996
 8067SOL    HW125100   5.121   3.009   2.899
 8067SOL    HW225101   5.023   3.019   3.030
 8068SOL     OW25102   0.012   4.606   1.525
 8068SOL    HW125103   0.090   4.555   1.490
 8068SOL    HW225104   0.001   4.691   1.472
 8069SOL     OW25105   2.244   5.440   0.941
 8069SOL    HW125106   2.180   5.389   0.884
 8069SOL    HW225107   2.266   5.527   0.897
 8070SOL     OW25108   4.063   3.279   0.844
 8070SOL    HW125109   4.063   3.245   0.750
 8070SOL    HW225110   4.043   3.377   0.844
 8071SOL     OW25111   3.514   6.502   4.638
 8071SOL    HW125112   3.456   6.431   4.597
 8071SOL    HW225113   3.496   6.589   4.592
 8072SOL     OW25114   4.028   1.329   0.842
 8072SOL    HW125115   4.090   1.253   0.863
 8072SOL    HW225116   4.047   1.405   0.904
 8073SOL     OW25117   3.085   5.108   5.101
 8073SOL    HW125118   3.086   5.008   5.105
 8073SOL    HW225119   3.179   5.142   5.101
 8074SOL     OW25120   3.021   2.989   0.850
 8074SOL    HW125121   2.934   2.943   0.834
 8074SOL    HW225122   3.075   2.989   0.766
 8075SOL     OW25123   6.546   6.894   0.289
 8075SOL    HW125124   6.601   6.921   0.368
 8075SOL    HW225125   6.467   6.954   0.282
 8076SOL     OW25126   6.217   0.603   5.483
 8076SOL    HW125127   6.233   0.621   5.579
 8076SOL    HW225128   6.118   0.596   5.466
 8077SOL     OW25129   3.170   6.293   2.707
 8077SOL    HW125130   3.242   6.300   2.638
 8077SOL    HW225131   3.104   6.224   2.679
 8078SOL     OW25132   6.800   1.804   0.594
 8078SOL    HW125133   6.859   1.756   0.529
 8078SOL    HW225134   6.841   1.893   0.615
 8079SOL     OW25135   6.180   1.696   3.864
 8079SOL    HW125136   6.136   1.637   3.932
 8079SOL    HW225137   6.175   1.652   3.774
 8080SOL     OW25138   0.847   2.818   2.339
 8080SOL    HW125139   0.802   2.846   2.424
 8080SOL    HW225140   0.921   2.755   2.360
 8081SOL     OW25141   6.122   5.451   6.173
 8081SOL    HW125142   6.137   5.353   6.177
 8081SOL    HW225143   6.211   5.499   6.172
 8082SOL     OW25144   4.280   0.465   2.079
 8082SOL    HW125145   4.289   0.492   1.983
 8082SOL    HW225146   4.349   0.513   2.133
 8083SOL     OW25147   4.855   3.221   2.904
 8083SOL    HW125148   4.928   3.282   2.936
 8083SOL    HW225149   4.816   3.172   2.982
 8084SOL     OW25150   3.780   6.365   0.154
 8084SOL    HW125151   3.690   6.352   0.113
 8084SOL    HW225152   3.848   6.311   0.104
 8085SOL     OW25153   6.262   6.407   1.930
 8085SOL    HW125154   6.245   6.345   2.006
 8085SOL    HW225155   6.295   6.494   1.965
 8086SOL     OW25156   6.653   0.753   2.362
 8086SOL    HW125157   6.634   0.779   2.267
 8086SOL    HW225158   6.601   0.670   2.384
 8087SOL     OW25159   2.366   0.317   0.094
 8087SOL    HW125160   2.381   0.227   0.135
 8087SOL    HW225161   2.417   0.386   0.145
 8088SOL     OW25162   6.130   1.253   1.467
 8088SOL    HW125163   6.053   1.313   1.447
 8088SOL    HW225164   6.166   1.216   1.381
 8089SOL     OW25165   5.726   2.584   0.995
 8089SOL    HW125166   5.635   2.544   0.998
 8089SOL    HW225167   5.789   2.530   1.051
 8090SOL     OW25168   4.161   1.479   6.509
 8090SOL    HW125169   4.141   1.519   6.419
 8090SOL    HW225170   4.204   1.547   6.567
 8091SOL     OW25171   2.065   4.075   4.866
 8091SOL    HW125172   2.066   4.019   4.783
 8091SOL    HW225173   2.158   4.081   4.903
 8092SOL     OW25174   5.659   1.866   5.182
 8092SOL    HW125175   5.696   1.952   5.147
 8092SOL    HW225176   5.594   1.885   5.256
 8093SOL     OW25177   3.536   4.925   3.099
 8093SOL    HW125178   3.548   5.019   3.068
 8093SOL    HW225179   3.623   4.889   3.131
 8094SOL     OW25180   0.842   3.068   4.620
 8094SOL    HW125181   0.923   3.069   4.678
 8094SOL    HW225182   0.778   3.139   4.650
 8095SOL     OW25183   6.986   4.765   4.303
 8095SOL    HW125184   6.930   4.824   4.361
 8095SOL    HW225185   6.985   4.672   4.339
 8096SOL     OW25186   1.965   6.632   3.047
 8096SOL    HW125187   1.916   6.610   3.131
 8096SOL    HW225188   1.919   6.707   3.000
 8097SOL     OW25189   4.037   6.645   4.372
 8097SOL    HW125190   3.938   6.646   4.381
 8097SOL    HW225191   4.076   6.725   4.418
 8098SOL     OW25192   1.866   6.312   2.958
 8098SOL    HW125193   1.912   6.282   3.042
 8098SOL    HW225194   1.935   6.344   2.893
 8099SOL     OW25195   3.990   5.819   5.101
 8099SOL    HW125196   4.010   5.731   5.056
 8099SOL    HW225197   3.905   5.856   5.063
 8100SOL     OW25198   0.239   0.311   7.006
 8100SOL    HW125199   0.249   0.409   0.004
 8100SOL    HW225200   0.143   0.291   6.986
 8101SOL     OW25201   2.047   5.781   2.338
 8101SOL    HW125202   2.078   5.876   2.339
 8101SOL    HW225203   2.022   5.753   2.431
 8102SOL     OW25204   0.697   3.888   3.594
 8102SOL    HW125205   0.701   3.936   3.681
 8102SOL    HW225206   0.773   3.917   3.536
 8103SOL     OW25207   2.843   6.931   1.454
 8103SOL    HW125208   2.914   6.864   1.476
 8103SOL    HW225209   2.864   7.018   1.499
 8104SOL     OW25210   2.219   0.255   5.722
 8104SOL    HW125211   2.218   0.237   5.820
 8104SOL    HW225212   2.236   0.169   5.673
 8105SOL     OW25213   0.540   3.245   3.207
 8105SOL    HW125214   0.612   3.176   3.200
 8105SOL    HW225215   0.565   3.313   3.276
 8106SOL     OW25216   2.996   6.332   2.969
 8106SOL    HW125217   3.059   6.300   2.898
 8106SOL    HW225218   3.025   6.423   3.000
 8107SOL     OW25219   1.053   5.017   4.378
 8107SOL    HW125220   0.995   5.040   4.456
 8107SOL    HW225221   1.113   4.941   4.403
 8108SOL     OW25222   6.106   2.878   5.628
 8108SOL    HW125223   6.154   2.958   5.591
 8108SOL    HW225224   6.060   2.904   5.713
 8109SOL     OW25225   0.313   4.243   5.282
 8109SOL    HW125226   0.390   4.259   5.344
 8109SOL    HW225227   0.299   4.324   5.225
 8110SOL     OW25228   4.112   6.332   1.653
 8110SOL    HW125229   4.018   6.362   1.640
 8110SOL    HW225230   4.172   6.412   1.660
 8111SOL     OW25231   5.081   1.333   4.154
 8111SOL    HW125232   5.037   1.403   4.210
 8111SOL    HW225233   5.155   1.373   4.100
 8112SOL     OW25234   2.643   2.076   4.091
 8112SOL    HW125235   2.573   2.084   4.162
 8112SOL    HW225236   2.606   2.027   4.013
 8113SOL     OW25237   1.691   3.741   0.249
 8113SOL    HW125238   1.604   3.705   0.283
 8113SOL    HW225239   1.684   3.758   0.151
 8114SOL     OW25240   1.541   3.982   3.031
 8114SOL    HW125241   1.624   3.929   3.045
 8114SOL    HW225242   1.476   3.963   3.105
 8115SOL     OW25243   3.677   0.226   0.099
 8115SOL    HW125244   3.647   0.316   0.069
 8115SOL    HW225245   3.632   0.203   0.186
 8116SOL     OW25246   4.378   4.647   6.476
 8116SOL    HW125247   4.412   4.553   6.472
 8116SOL    HW225248   4.343   4.673   6.386
 8117SOL     OW25249   1.821   0.075   3.460
 8117SOL    HW125250   1.885   0.106   3.389
 8117SOL    HW225251   1.788   7.006   3.439
 8118SOL     OW25252   5.179   4.462   6.905
 8118SOL    HW125253   5.257   4.500   6.955
 8118SOL    HW225254   5.202   4.453   6.808
 8119SOL     OW25255   5.336   5.471   6.293
 8119SOL    HW125256   5.280   5.418   6.357
 8119SOL    HW225257   5.302   5.565   6.289
 8120SOL     OW25258   3.242   4.853   0.826
 8120SOL    HW125259   3.267   4.846   0.730
 8120SOL    HW225260   3.164   4.915   0.836
 8121SOL     OW25261   6.773   5.033   2.377
 8121SOL    HW125262   6.839   5.012   2.305
 8121SOL    HW225263   6.805   4.996   2.464
 8122SOL     OW25264   0.246   5.487   3.251
 8122SOL    HW125265   0.326   5.446   3.294
 8122SOL    HW225266   0.275   5.546   3.176
 8123SOL     OW25267   6.923   2.067   6.597
 8123SOL    HW125268   6.850   2.001   6.581
 8123SOL    HW225269   6.899   2.125   6.675
 8124SOL     OW25270   5.862   6.205   1.561
 8124SOL    HW125271   5.790   6.135   1.555
 8124SOL    HW225272   5.921   6.198   1.481
 8125SOL     OW25273   1.069   1.778   3.068
 8125SOL    HW125274   1.092   1.692   3.115
 8125SOL    HW225275   1.152   1.818   3.031
 8126SOL     OW25276   4.664   4.501   2.492
 8126SOL    HW125277   4.714   4.427   2.538
 8126SOL    HW225278   4.640   4.472   2.400
 8127SOL     OW25279   2.293   4.570   6.707
 8127SOL    HW125280   2.345   4.492   6.741
 8127SOL    HW225281   2.241   4.610   6.782
 8128SOL     OW25282   2.451   1.791   1.963
 8128SOL    HW125283   2.516   1.858   1.999
 8128SOL    HW225284   2.358   1.819   1.984
 8129SOL     OW25285   3.938   0.271   6.186
 8129SOL    HW125286   3.952   0.337   6.260
 8129SOL    HW225287   4.020   0.269   6.128
 8130SOL     OW25288   0.553   3.398   6.471
 8130SOL    HW125289   0.586   3.304   6.478
 8130SOL    HW225290   0.456   3.402   6.497
 8131SOL     OW25291   2.591   2.118   1.433
 8131SOL    HW125292   2.624   2.067   1.513
 8131SOL    HW225293   2.495   2.143   1.447
 8132SOL     OW25294   5.932   6.919   5.937
 8132SOL    HW125295   5.966   6.872   6.018
 8132SOL    HW225296   5.995   6.992   5.912
 8133SOL     OW25297   3.423   5.687   1.420
 8133SOL    HW125298   3.387   5.631   1.346
 8133SOL    HW225299   3.347   5.722   1.476
 8134SOL     OW25300   6.551   2.829   5.898
 8134SOL    HW125301   6.469   2.801   5.949
 8134SOL    HW225302   6.534   2.819   5.800
 8135SOL     OW25303   2.881   6.543   1.588
 8135SOL    HW125304   2.854   6.465   1.532
 8135SOL    HW225305   2.806   6.609   1.591
 8136SOL     OW25306   4.423   5.470   3.032
 8136SOL    HW125307   4.338   5.496   3.079
 8136SOL    HW225308   4.401   5.410   2.955
 8137SOL     OW25309   3.481   2.076   4.852
 8137SOL    HW125310   3.437   2.163   4.831
 8137SOL    HW225311   3.421   2.020   4.910
 8138SOL     OW25312   5.090   1.089   0.716
 8138SOL    HW125313   5.152   1.015   0.689
 8138SOL    HW225314   5.052   1.132   0.634
 8139SOL     OW25315   0.149   1.368   2.257
 8139SOL    HW125316   0.225   1.399   2.200
 8139SOL    HW225317   0.065   1.413   2.228
 8140SOL     OW25318   5.305   0.245   0.608
 8140SOL    HW125319   5.329   0.172   0.672
 8140SOL    HW225320   5.233   0.301   0.646
 8141SOL     OW25321   4.427   6.020   4.997
 8141SOL    HW125322   4.498   6.057   5.056
 8141SOL    HW225323   4.394   6.091   4.935
 8142SOL     OW25324   0.872   5.304   0.286
 8142SOL    HW125325   0.863   5.386   0.229
 8142SOL    HW225326   0.964   5.299   0.324
 8143SOL     OW25327   5.586   4.363   1.112
 8143SOL    HW125328   5.686   4.368   1.119
 8143SOL    HW225329   5.554   4.284   1.164
 8144SOL     OW25330   6.104   6.438   6.478
 8144SOL    HW125331   6.095   6.406   6.573
 8144SOL    HW225332   6.199   6.428   6.449
 8145SOL     OW25333   5.669   5.739   1.589
 8145SOL    HW125334   5.664   5.717   1.491
 8145SOL    HW225335   5.577   5.756   1.624
 8146SOL     OW25336   4.359   0.776   4.431
 8146SOL    HW125337   4.445   0.733   4.403
 8146SOL    HW225338   4.288   0.706   4.441
 8147SOL     OW25339   5.677   1.675   1.349
 8147SOL    HW125340   5.657   1.581   1.322
 8147SOL    HW225341   5.645   1.738   1.277
 8148SOL     OW25342   5.028   4.171   1.193
 8148SOL    HW125343   5.079   4.221   1.123
 8148SOL    HW225344   4.946   4.222   1.217
 8149SOL     OW25345   2.941   6.009   2.204
 8149SOL    HW125346   2.972   6.021   2.109
 8149SOL    HW225347   3.005   5.949   2.252
 8150SOL     OW25348   1.652   3.825   0.755
 8150SOL    HW125349   1.643   3.891   0.680
 8150SOL    HW225350   1.671   3.874   0.840
 8151SOL     OW25351   5.962   2.272   1.476
 8151SOL    HW125352   5.962   2.203   1.404
 8151SOL    HW225353   6.055   2.305   1.491
 8152SOL     OW25354   0.120   1.672   2.696
 8152SOL    HW125355   0.182   1.642   2.768
 8152SOL    HW225356   0.119   1.772   2.694
 8153SOL     OW25357   2.002   0.150   3.648
 8153SOL    HW125358   2.064   0.220   3.610
 8153SOL    HW225359   1.948   0.110   3.575
 8154SOL     OW25360   3.267   4.940   2.368
 8154SOL    HW125361   3.176   4.955   2.329
 8154SOL    HW225362   3.273   4.987   2.456
 8155SOL     OW25363   1.630   3.662   1.580
 8155SOL    HW125364   1.665   3.578   1.622
 8155SOL    HW225365   1.704   3.728   1.572
 8156SOL     OW25366   4.969   0.233   0.826
 8156SOL    HW125367   4.920   0.236   0.914
 8156SOL    HW225368   4.958   0.143   0.784
 8157SOL     OW25369   0.071   5.428   6.754
 8157SOL    HW125370   0.056   5.428   6.655
 8157SOL    HW225371   0.089   5.335   6.784
 8158SOL     OW25372   4.892   5.176   0.632
 8158SOL    HW125373   4.937   5.105   0.577
 8158SOL    HW225374   4.807   5.139   0.670
 8159SOL     OW25375   3.208   5.675   2.173
 8159SOL    HW125376   3.207   5.660   2.075
 8159SOL    HW225377   3.121   5.645   2.212
 8160SOL     OW25378   5.327   1.012   3.468
 8160SOL    HW125379   5.347   0.925   3.513
 8160SOL    HW225380   5.307   0.996   3.371
 8161SOL     OW25381   5.429   2.103   6.474
 8161SOL    HW125382   5.493   2.025   6.476
 8161SOL    HW225383   5.464   2.172   6.411
 8162SOL     OW25384   5.971   6.069   6.001
 8162SOL    HW125385   5.874   6.088   6.016
 8162SOL    HW225386   6.026   6.143   6.038
 8163SOL     OW25387   2.590   3.882   5.283
 8163SOL    HW125388   2.545   3.805   5.330
 8163SOL    HW225389   2.527   3.920   5.215
 8164SOL     OW25390   5.538   3.145   0.739
 8164SOL    HW125391   5.440   3.152   0.751
 8164SOL    HW225392   5.567   3.051   0.757
 8165SOL     OW25393   1.272   4.659   6.503
 8165SOL    HW125394   1.299   4.599   6.427
 8165SOL    HW225395   1.317   4.748   6.492
 8166SOL     OW25396   1.604   0.113   2.209
 8166SOL    HW125397   1.683   0.173   2.205
 8166SOL    HW225398   1.552   0.120   2.124
 8167SOL     OW25399   6.199   6.791   4.762
 8167SOL    HW125400   6.264   6.824   4.831
 8167SOL    HW225401   6.160   6.869   4.713
 8168SOL     OW25402   2.422   1.659   3.587
 8168SOL    HW125403   2.434   1.562   3.568
 8168SOL    HW225404   2.349   1.671   3.656
 8169SOL     OW25405   4.726   2.283   1.545
 8169SOL    HW125406   4.631   2.251   1.552
 8169SOL    HW225407   4.787   2.207   1.568
 8170SOL     OW25408   1.468   5.677   2.633
 8170SOL    HW125409   1.436   5.636   2.718
 8170SOL    HW225410   1.397   5.667   2.563
 8171SOL     OW25411   1.634   1.314   0.094
 8171SOL    HW125412   1.554   1.341   0.148
 8171SOL    HW225413   1.686   1.396   0.070
 8172SOL     OW25414   0.657   1.778   1.791
 8172SOL    HW125415   0.703   1.865   1.808
 8172SOL    HW225416   0.725   1.710   1.762
 8173SOL     OW25417   4.501   0.869   1.860
 8173SOL    HW125418   4.477   0.921   1.778
 8173SOL    HW225419   4.577   0.916   1.907
 8174SOL     OW25420   6.119   2.752   0.869
 8174SOL    HW125421   6.067   2.798   0.941
 8174SOL    HW225422   6.113   2.653   0.881
 8175SOL     OW25423   6.857   3.212   6.076
 8175SOL    HW125424   6.841   3.206   6.174
 8175SOL    HW225425   6.883   3.305   6.051
 8176SOL     OW25426   2.969   5.436   2.384
 8176SOL    HW125427   3.059   5.394   2.398
 8176SOL    HW225428   2.944   5.428   2.287
 8177SOL     OW25429   2.655   6.317   3.677
 8177SOL    HW125430   2.595   6.283   3.603
 8177SOL    HW225431   2.709   6.241   3.713
 8178SOL     OW25432   3.037   5.815   6.496
 8178SOL    HW125433   3.071   5.725   6.523
 8178SOL    HW225434   3.093   5.886   6.539
 8179SOL     OW25435   4.629   2.634   5.816
 8179SOL    HW125436   4.706   2.662   5.873
 8179SOL    HW225437   4.583   2.714   5.779
 8180SOL     OW25438   6.404   0.130   4.673
 8180SOL    HW125439   6.484   0.070   4.670
 8180SOL    HW225440   6.401   0.175   4.763
 8181SOL     OW25441   2.110   1.394   1.786
 8181SOL    HW125442   2.139   1.475   1.838
 8181SOL    HW225443   2.115   1.313   1.846
 8182SOL     OW25444   3.506   2.743   6.422
 8182SOL    HW125445   3.515   2.701   6.332
 8182SOL    HW225446   3.419   2.793   6.427
 8183SOL     OW25447   0.429   2.971   4.200
 8183SOL    HW125448   0.529   2.970   4.203
 8183SOL    HW225449   0.397   2.891   4.148
 8184SOL     OW25450   5.284   2.336   5.973
 8184SOL    HW125451   5.282   2.401   5.896
 8184SOL    HW225452   5.295   2.243   5.938
 8185SOL     OW25453   2.711   6.076   0.290
 8185SOL    HW125454   2.780   6.130   0.241
 8185SOL    HW225455   2.689   5.995   0.237
 8186SOL     OW25456   3.490   5.260   6.454
 8186SOL    HW125457   3.459   5.278   6.361
 8186SOL    HW225458   3.415   5.219   6.506
 8187SOL     OW25459   1.576   1.991   5.824
 8187SOL    HW125460   1.657   2.040   5.858
 8187SOL    HW225461   1.582   1.895   5.850
 8188SOL     OW25462   5.553   2.505   1.835
 8188SOL    HW125463   5.544   2.583   1.896
 8188SOL    HW225464   5.616   2.528   1.761
 8189SOL     OW25465   4.905   4.777   2.868
 8189SOL    HW125466   4.877   4.721   2.790
 8189SOL    HW225467   4.837   4.850   2.883
 8190SOL     OW25468   4.419   5.259   4.360
 8190SOL    HW125469   4.392   5.163   4.362
 8190SOL    HW225470   4.410   5.298   4.452
 8191SOL     OW25471   3.119   5.915   2.827
 8191SOL    HW125472   3.076   5.974   2.760
 8191SOL    HW225473   3.176   5.970   2.888
 8192SOL     OW25474   3.644   5.669   0.573
 8192SOL    HW125475   3.687   5.606   0.509
 8192SOL    HW225476   3.714   5.709   0.633
 8193SOL     OW25477   6.602   6.741   4.160
 8193SOL    HW125478   6.546   6.823   4.164
 8193SOL    HW225479   6.699   6.766   4.158
 8194SOL     OW25480   6.151   2.527   0.545
 8194SOL    HW125481   6.136   2.462   0.470
 8194SOL    HW225482   6.243   2.512   0.583
 8195SOL     OW25483   0.875   0.092   0.793
 8195SOL    HW125484   0.791   0.144   0.810
 8195SOL    HW225485   0.916   0.066   0.880
 8196SOL     OW25486   3.459   0.452   5.319
 8196SOL    HW125487   3.492   0.407   5.236
 8196SOL    HW225488   3.384   0.398   5.358
 8197SOL     OW25489   4.229   1.143   5.800
 8197SOL    HW125490   4.229   1.144   5.900
 8197SOL    HW225491   4.185   1.226   5.766
 8198SOL     OW25492   3.071   5.876   3.268
 8198SOL    HW125493   3.119   5.788   3.266
 8198SOL    HW225494   3.100   5.928   3.348
 8199SOL     OW25495   6.667   2.991   6.382
 8199SOL    HW125496   6.682   2.992   6.284
 8199SOL    HW225497   6.607   2.915   6.406
 8200SOL     OW25498   4.377   3.564   1.702
 8200SOL    HW125499   4.325   3.507   1.638
 8200SOL    HW225500   4.322   3.643   1.728
 8201SOL     OW25501   6.027   0.760   4.420
 8201SOL    HW125502   6.005   0.729   4.512
 8201SOL    HW225503   5.949   0.810   4.383
 8202SOL     OW25504   0.445   5.709   4.282
 8202SOL    HW125505   0.411   5.625   4.239
 8202SOL    HW225506   0.450   5.695   4.381
 8203SOL     OW25507   4.927   2.457   0.605
 8203SOL    HW125508   4.874   2.441   0.522
 8203SOL    HW225509   4.865   2.480   0.680
 8204SOL     OW25510   3.052   5.550   0.875
 8204SOL    HW125511   2.981   5.580   0.812
 8204SOL    HW225512   3.141   5.552   0.829
 8205SOL     OW25513   0.139   4.878   1.053
 8205SOL    HW125514   0.164   4.781   1.054
 8205SOL    HW225515   0.222   4.934   1.047
 8206SOL     OW25516   4.088   2.733   6.021
 8206SOL    HW125517   4.151   2.802   5.987
 8206SOL    HW225518   4.137   2.647   6.037
 8207SOL     OW25519   3.775   4.534   5.323
 8207SOL    HW125520   3.776   4.531   5.423
 8207SOL    HW225521   3.704   4.474   5.288
 8208SOL     OW25522   2.075   6.557   1.618
 8208SOL    HW125523   2.058   6.654   1.637
 8208SOL    HW225524   2.157   6.547   1.561
 8209SOL     OW25525   0.656   1.521   5.616
 8209SOL    HW125526   0.567   1.519   5.663
 8209SOL    HW225527   0.703   1.606   5.639
 8210SOL     OW25528   2.890   0.836   1.851
 8210SOL    HW125529   2.878   0.769   1.924
 8210SOL    HW225530   2.948   0.796   1.780
 8211SOL     OW25531   3.429   3.810   3.407
 8211SOL    HW125532   3.398   3.889   3.355
 8211SOL    HW225533   3.500   3.838   3.472
 8212SOL     OW25534   3.637   1.552   1.333
 8212SOL    HW125535   3.604   1.463   1.303
 8212SOL    HW225536   3.562   1.618   1.330
 8213SOL     OW25537   5.120   4.865   2.429
 8213SOL    HW125538   5.055   4.934   2.396
 8213SOL    HW225539   5.209   4.880   2.386
 8214SOL     OW25540   1.652   5.468   4.123
 8214SOL    HW125541   1.611   5.549   4.164
 8214SOL    HW225542   1.686   5.490   4.031
 8215SOL     OW25543   3.835   5.097   6.724
 8215SOL    HW125544   3.769   5.060   6.789
 8215SOL    HW225545   3.892   5.165   6.770
 8216SOL     OW25546   4.547   6.830   2.921
 8216SOL    HW125547   4.593   6.754   2.966
 8216SOL    HW225548   4.595   6.853   2.837
 8217SOL     OW25549   2.194   3.857   1.967
 8217SOL    HW125550   2.260   3.854   1.892
 8217SOL    HW225551   2.125   3.786   1.953
 8218SOL     OW25552   1.302   6.995   3.812
 8218SOL    HW125553   1.239   7.015   3.737
 8218SOL    HW225554   1.339   0.059   3.848
 8219SOL     OW25555   3.693   3.694   1.663
 8219SOL    HW125556   3.656   3.712   1.754
 8219SOL    HW225557   3.678   3.774   1.605
 8220SOL     OW25558   3.317   4.028   5.580
 8220SOL    HW125559   3.416   4.016   5.570
 8220SOL    HW225560   3.275   3.940   5.605
 8221SOL     OW25561   6.433   4.880   3.418
 8221SOL    HW125562   6.408   4.949   3.486
 8221SOL    HW225563   6.530   4.859   3.425
 8222SOL     OW25564   4.674   1.985   1.450
 8222SOL    HW125565   4.771   1.960   1.452
 8222SOL    HW225566   4.619   1.904   1.472
 8223SOL     OW25567   0.295   4.993   6.280
 8223SOL    HW125568   0.269   4.978   6.185
 8223SOL    HW225569   0.386   4.955   6.297
 8224SOL     OW25570   5.030   1.849   1.893
 8224SOL    HW125571   5.070   1.842   1.801
 8224SOL    HW225572   4.948   1.793   1.898
 8225SOL     OW25573   3.622   1.035   1.378
 8225SOL    HW125574   3.675   1.014   1.296
 8225SOL    HW225575   3.681   1.076   1.447
 8226SOL     OW25576   3.141   0.515   0.681
 8226SOL    HW125577   3.159   0.423   0.716
 8226SOL    HW225578   3.089   0.567   0.749
 8227SOL     OW25579   7.013   1.626   2.333
 8227SOL    HW125580   0.080   1.666   2.352
 8227SOL    HW225581   6.990   1.560   2.405
 8228SOL     OW25582   0.861   1.923   6.225
 8228SOL    HW125583   0.859   1.823   6.235
 8228SOL    HW225584   0.915   1.947   6.144
 8229SOL     OW25585   3.868   4.391   1.398
 8229SOL    HW125586   3.896   4.461   1.464
 8229SOL    HW225587   3.936   4.318   1.396
 8230SOL     OW25588   3.716   6.757   5.267
 8230SOL    HW125589   3.790   6.811   5.227
 8230SOL    HW225590   3.631   6.775   5.218
 8231SOL     OW25591   3.530   2.034   1.792
 8231SOL    HW125592   3.558   2.097   1.865
 8231SOL    HW225593   3.538   1.940   1.825
 8232SOL     OW25594   5.881   2.125   2.582
 8232SOL    HW125595   5.941   2.153   2.507
 8232SOL    HW225596   5.937   2.107   2.664
 8233SOL     OW25597   1.502   6.480   6.403
 8233SOL    HW125598   1.494   6.474   6.303
 8233SOL    HW225599   1.515   6.576   6.430
 8234SOL     OW25600   2.733   3.642   0.188
 8234SOL    HW125601   2.781   3.555   0.201
 8234SOL    HW225602   2.703   3.650   0.093
 8235SOL     OW25603   0.326   3.582   6.813
 8235SOL    HW125604   0.353   3.598   6.908
 8235SOL    HW225605   0.248   3.640   6.789
 8236SOL     OW25606   0.615   5.262   6.342
 8236SOL    HW125607   0.596   5.354   6.376
 8236SOL    HW225608   0.562   5.246   6.259
 8237SOL     OW25609   4.530   6.563   6.400
 8237SOL    HW125610   4.553   6.623   6.476
 8237SOL    HW225611   4.431   6.552   6.394
 8238SOL     OW25612   0.411   6.210   6.820
 8238SOL    HW125613   0.396   6.294   6.871
 8238SOL    HW225614   0.337   6.196   6.755
 8239SOL     OW25615   0.542   0.851   5.008
 8239SOL    HW125616   0.524   0.784   5.081
 8239SOL    HW225617   0.547   0.942   5.048
 8240SOL     OW25618   2.926   3.739   3.264
 8240SOL    HW125619   2.943   3.808   3.193
 8240SOL    HW225620   2.960   3.773   3.352
 8241SOL     OW25621   2.347   4.901   6.035
 8241SOL    HW125622   2.312   4.985   5.994
 8241SOL    HW225623   2.271   4.838   6.050
 8242SOL     OW25624   0.550   4.148   4.815
 8242SOL    HW125625   0.645   4.135   4.844
 8242SOL    HW225626   0.508   4.059   4.798
 8243SOL     OW25627   0.209   4.303   0.681
 8243SOL    HW125628   0.233   4.208   0.660
 8243SOL    HW225629   0.271   4.365   0.631
 8244SOL     OW25630   0.276   0.011   4.068
 8244SOL    HW125631   0.303   0.033   4.162
 8244SOL    HW225632   0.288   0.092   4.011
 8245SOL     OW25633   3.910   1.348   2.885
 8245SOL    HW125634   3.817   1.375   2.861
 8245SOL    HW225635   3.934   1.384   2.975
 8246SOL     OW25636   0.260   4.725   6.816
 8246SOL    HW125637   0.320   4.753   6.741
 8246SOL    HW225638   0.301   4.647   6.865
 8247SOL     OW25639   2.534   6.899   3.844
 8247SOL    HW125640   2.623   6.869   3.878
 8247SOL    HW225641   2.546   6.948   3.757
 8248SOL     OW25642   0.709   5.069   5.071
 8248SOL    HW125643   0.745   5.076   4.978
 8248SOL    HW225644   0.722   4.976   5.105
 8249SOL     OW25645   2.206   1.171   5.684
 8249SOL    HW125646   2.113   1.151   5.652
 8249SOL    HW225647   2.252   1.229   5.617
 8250SOL     OW25648   3.412   2.260   1.377
 8250SOL    HW125649   3.315   2.271   1.398
 8250SOL    HW225650   3.461   2.239   1.461
 8251SOL     OW25651   5.988   0.920   3.908
 8251SOL    HW125652   5.944   1.000   3.948
 8251SOL    HW225653   6.013   0.855   3.980
 8252SOL     OW25654   3.839   1.773   0.282
 8252SOL    HW125655   3.751   1.797   0.239
 8252SOL    HW225656   3.846   1.673   0.288
 8253SOL     OW25657   4.020   5.615   0.030
 8253SOL    HW125658   3.974   5.699   0.056
 8253SOL    HW225659   4.055   5.624   6.958
 8254SOL     OW25660   5.282   4.273   5.860
 8254SOL    HW125661   5.317   4.186   5.895
 8254SOL    HW225662   5.277   4.270   5.760
 8255SOL     OW25663   1.153   0.086   6.348
 8255SOL    HW125664   1.112   0.086   6.439
 8255SOL    HW225665   1.239   0.137   6.350
 8256SOL     OW25666   6.559   6.936   3.043
 8256SOL    HW125667   6.642   6.986   3.021
 8256SOL    HW225668   6.528   6.885   2.962
 8257SOL     OW25669   5.769   4.797   3.887
 8257SOL    HW125670   5.812   4.738   3.819
 8257SOL    HW225671   5.735   4.741   3.962
 8258SOL     OW25672   5.049   3.166   1.431
 8258SOL    HW125673   5.134   3.172   1.483
 8258SOL    HW225674   5.022   3.070   1.422
 8259SOL     OW25675   3.775   1.999   5.482
 8259SOL    HW125676   3.703   2.025   5.546
 8259SOL    HW225677   3.756   2.040   5.393
 8260SOL     OW25678   2.161   6.219   1.481
 8260SOL    HW125679   2.138   6.126   1.450
 8260SOL    HW225680   2.152   6.224   1.580
 8261SOL     OW25681   4.951   6.638   3.250
 8261SOL    HW125682   5.007   6.560   3.223
 8261SOL    HW225683   4.974   6.665   3.343
 8262SOL     OW25684   0.684   4.372   0.706
 8262SOL    HW125685   0.658   4.303   0.638
 8262SOL    HW225686   0.661   4.463   0.672
 8263SOL     OW25687   6.899   2.924   6.853
 8263SOL    HW125688   6.992   2.945   6.824
 8263SOL    HW225689   6.901   2.880   6.943
 8264SOL     OW25690   1.170   7.010   1.748
 8264SOL    HW125691   1.185   6.918   1.783
 8264SOL    HW225692   1.123   0.042   1.817
 8265SOL     OW25693   5.245   0.792   1.768
 8265SOL    HW125694   5.331   0.740   1.771
 8265SOL    HW225695   5.236   0.835   1.679
 8266SOL     OW25696   2.836   0.124   5.085
 8266SOL    HW125697   2.936   0.119   5.080
 8266SOL    HW225698   2.805   0.080   5.170
 8267SOL     OW25699   1.789   4.915   1.535
 8267SOL    HW125700   1.726   4.850   1.492
 8267SOL    HW225701   1.841   4.868   1.606
 8268SOL     OW25702   2.911   4.582   5.807
 8268SOL    HW125703   2.952   4.636   5.881
 8268SOL    HW225704   2.979   4.518   5.771
 8269SOL     OW25705   4.803   2.118   2.742
 8269SOL    HW125706   4.832   2.135   2.836
 8269SOL    HW225707   4.718   2.067   2.742
 8270SOL     OW25708   3.457   5.594   5.680
 8270SOL    HW125709   3.551   5.562   5.692
 8270SOL    HW225710   3.452   5.653   5.600
 8271SOL     OW25711   6.300   6.562   3.915
 8271SOL    HW125712   6.314   6.660   3.911
 8271SOL    HW225713   6.203   6.541   3.901
 8272SOL     OW25714   6.907   1.447   2.524
 8272SOL    HW125715   6.823   1.395   2.509
 8272SOL    HW225716   6.982   1.385   2.546
 8273SOL     OW25717   2.880   1.301   0.131
 8273SOL    HW125718   2.905   1.394   0.106
 8273SOL    HW225719   2.811   1.303   0.204
 8274SOL     OW25720   3.973   4.835   5.752
 8274SOL    HW125721   4.039   4.903   5.785
 8274SOL    HW225722   4.006   4.795   5.666
 8275SOL     OW25723   5.729   0.231   4.507
 8275SOL    HW125724   5.803   0.261   4.567
 8275SOL    HW225725   5.673   0.309   4.481
 8276SOL     OW25726   6.547   2.133   5.828
 8276SOL    HW125727   6.612   2.199   5.791
 8276SOL    HW225728   6.469   2.181   5.868
 8277SOL     OW25729   2.691   6.154   5.308
 8277SOL    HW125730   2.634   6.221   5.357
 8277SOL    HW225731   2.634   6.103   5.244
 8278SOL     OW25732   3.074   1.457   6.716
 8278SOL    HW125733   3.097   1.381   6.655
 8278SOL    HW225734   3.066   1.541   6.662
 8279SOL     OW25735   5.886   5.843   6.164
 8279SOL    HW125736   5.831   5.878   6.240
 8279SOL    HW225737   5.895   5.913   6.093
 8280SOL     OW25738   4.306   2.280   0.766
 8280SOL    HW125739   4.243   2.319   0.698
 8280SOL    HW225740   4.355   2.355   0.811
 8281SOL     OW25741   2.164   4.541   1.923
 8281SOL    HW125742   2.219   4.572   2.001
 8281SOL    HW225743   2.135   4.620   1.869
 8282SOL     OW25744   2.450   3.447   0.465
 8282SOL    HW125745   2.532   3.401   0.432
 8282SOL    HW225746   2.370   3.390   0.445
 8283SOL     OW25747   0.926   4.652   4.126
 8283SOL    HW125748   0.889   4.563   4.101
 8283SOL    HW225749   1.022   4.642   4.152
 8284SOL     OW25750   1.465   3.907   2.197
 8284SOL    HW125751   1.548   3.869   2.155
 8284SOL    HW225752   1.462   4.005   2.181
 8285SOL     OW25753   3.697   3.685   5.420
 8285SOL    HW125754   3.783   3.698   5.369
 8285SOL    HW225755   3.718   3.677   5.518
 8286SOL     OW25756   5.293   1.848   5.130
 8286SOL    HW125757   5.330   1.860   5.222
 8286SOL    HW225758   5.263   1.936   5.095
 8287SOL     OW25759   1.224   5.737   3.729
 8287SOL    HW125760   1.174   5.711   3.813
 8287SOL    HW225761   1.184   5.822   3.693
 8288SOL     OW25762   0.992   2.539   2.620
 8288SOL    HW125763   0.991   2.639   2.616
 8288SOL    HW225764   0.904   2.507   2.655
 8289SOL     OW25765   6.107   0.684   6.134
 8289SOL    HW125766   6.024   0.690   6.190
 8289SOL    HW225767   6.170   0.619   6.175
 8290SOL     OW25768   4.528   1.842   1.752
 8290SOL    HW125769   4.445   1.898   1.758
 8290SOL    HW225770   4.608   1.901   1.758
 8291SOL     OW25771   5.734   5.545   6.584
 8291SOL    HW125772   5.729   5.447   6.604
 8291SOL    HW225773   5.828   5.571   6.562
 8292SOL     OW25774   2.511   6.034   6.121
 8292SOL    HW125775   2.426   6.082   6.142
 8292SOL    HW225776   2.511   5.945   6.168
 8293SOL     OW25777   1.464   3.957   1.777
 8293SOL    HW125778   1.418   4.035   1.735
 8293SOL    HW225779   1.553   3.986   1.812
 8294SOL     OW25780   6.356   3.125   4.784
 8294SOL    HW125781   6.289   3.105   4.855
 8294SOL    HW225782   6.447   3.133   4.825
 8295SOL     OW25783   5.325   3.630   2.654
 8295SOL    HW125784   5.355   3.716   2.696
 8295SOL    HW225785   5.262   3.650   2.579
 8296SOL     OW25786   3.639   5.151   0.068
 8296SOL    HW125787   3.710   5.149   0.139
 8296SOL    HW225788   3.563   5.207   0.099
 8297SOL     OW25789   6.739   3.379   2.314
 8297SOL    HW125790   6.666   3.416   2.256
 8297SOL    HW225791   6.715   3.287   2.344
 8298SOL     OW25792   0.241   0.607   0.065
 8298SOL    HW125793   0.318   0.621   0.127
 8298SOL    HW225794   0.242   0.677   7.016
 8299SOL     OW25795   0.754   2.778   0.603
 8299SOL    HW125796   0.707   2.840   0.541
 8299SOL    HW225797   0.726   2.797   0.697
 8300SOL     OW25798   6.285   6.625   5.053
 8300SOL    HW125799   6.191   6.626   5.019
 8300SOL    HW225800   6.308   6.715   5.089
 8301SOL     OW25801   4.475   0.429   6.783
 8301SOL    HW125802   4.402   0.429   6.714
 8301SOL    HW225803   4.519   0.519   6.783
 8302SOL     OW25804   4.261   6.934   5.267
 8302SOL    HW125805   4.234   6.859   5.328
 8302SOL    HW225806   4.206   7.015   5.289
 8303SOL     OW25807   6.894   0.347   3.267
 8303SOL    HW125808   6.835   0.270   3.288
 8303SOL    HW225809   6.971   0.316   3.210
 8304SOL     OW25810   5.448   5.074   1.785
 8304SOL    HW125811   5.467   5.101   1.879
 8304SOL    HW225812   5.392   4.991   1.785
 8305SOL     OW25813   4.242   5.038   4.418
 8305SOL    HW125814   4.202   4.988   4.495
 8305SOL    HW225815   4.175   5.103   4.382
 8306SOL     OW25816   6.535   1.372   2.765
 8306SOL    HW125817   6.620   1.394   2.812
 8306SOL    HW225818   6.472   1.328   2.828
 8307SOL     OW25819   3.537   5.153   1.627
 8307SOL    HW125820   3.488   5.169   1.542
 8307SOL    HW225821   3.494   5.079   1.679
 8308SOL     OW25822   2.128   3.952   0.313
 8308SOL    HW125823   2.186   3.882   0.353
 8308SOL    HW225824   2.129   4.034   0.371
 8309SOL     OW25825   5.976   4.883   3.219
 8309SOL    HW125826   5.929   4.937   3.288
 8309SOL    HW225827   6.018   4.803   3.261
 8310SOL     OW25828   0.672   5.591   0.554
 8310SOL    HW125829   0.666   5.526   0.630
 8310SOL    HW225830   0.592   5.651   0.555
 8311SOL     OW25831   5.527   0.622   4.593
 8311SOL    HW125832   5.466   0.550   4.625
 8311SOL    HW225833   5.603   0.581   4.544
 8312SOL     OW25834   5.507   1.002   0.441
 8312SOL    HW125835   5.433   1.067   0.459
 8312SOL    HW225836   5.508   0.933   0.514
 8313SOL     OW25837   4.308   0.064   5.522
 8313SOL    HW125838   4.371   0.001   5.568
 8313SOL    HW225839   4.360   0.132   5.472
 8314SOL     OW25840   5.820   0.111   6.495
 8314SOL    HW125841   5.779   0.121   6.404
 8314SOL    HW225842   5.866   0.023   6.501
 8315SOL     OW25843   3.813   3.821   2.854
 8315SOL    HW125844   3.904   3.818   2.813
 8315SOL    HW225845   3.770   3.731   2.846
 8316SOL     OW25846   1.868   3.357   0.484
 8316SOL    HW125847   1.892   3.454   0.484
 8316SOL    HW225848   1.774   3.347   0.450
 8317SOL     OW25849   2.845   2.081   3.679
 8317SOL    HW125850   2.752   2.112   3.656
 8317SOL    HW225851   2.848   2.056   3.776
 8318SOL     OW25852   4.322   0.864   5.417
 8318SOL    HW125853   4.379   0.889   5.338
 8318SOL    HW225854   4.230   0.842   5.385
 8319SOL     OW25855   2.029   0.098   0.043
 8319SOL    HW125856   2.047   0.145   0.130
 8319SOL    HW225857   1.932   0.073   0.038
 8320SOL     OW25858   3.671   3.833   3.529
 8320SOL    HW125859   3.682   3.848   3.628
 8320SOL    HW225860   3.754   3.861   3.482
 8321SOL     OW25861   0.278   6.673   6.082
 8321SOL    HW125862   0.361   6.619   6.097
 8321SOL    HW225863   0.203   6.633   6.134
 8322SOL     OW25864   0.263   1.260   0.224
 8322SOL    HW125865   0.338   1.218   0.275
 8322SOL    HW225866   0.290   1.272   0.128
 8323SOL     OW25867   3.440   4.941   1.378
 8323SOL    HW125868   3.429   5.040   1.382
 8323SOL    HW225869   3.353   4.899   1.353
 8324SOL     OW25870   5.466   0.420   0.483
 8324SOL    HW125871   5.505   0.390   0.395
 8324SOL    HW225872   5.431   0.340   0.532
 8325SOL     OW25873   0.921   4.162   5.199
 8325SOL    HW125874   0.957   4.129   5.286
 8325SOL    HW225875   0.838   4.110   5.175
 8326SOL     OW25876   4.330   3.584   6.991
 8326SOL    HW125877   4.282   3.648   0.029
 8326SOL    HW225878   4.346   3.627   6.902
 8327SOL     OW25879   0.755   6.941   5.374
 8327SOL    HW125880   0.657   6.921   5.372
 8327SOL    HW225881   0.778   7.000   5.296
 8328SOL     OW25882   2.078   6.567   6.131
 8328SOL    HW125883   2.130   6.486   6.157
 8328SOL    HW225884   2.128   6.618   6.062
 8329SOL     OW25885   0.016   2.186   5.209
 8329SOL    HW125886   6.943   2.157   5.198
 8329SOL    HW225887   0.063   2.180   5.121
 8330SOL     OW25888   3.629   1.287   6.446
 8330SOL    HW125889   3.710   1.300   6.389
 8330SOL    HW225890   3.553   1.340   6.408
 8331SOL     OW25891   2.822   1.095   0.929
 8331SOL    HW125892   2.919   1.118   0.921
 8331SOL    HW225893   2.805   1.056   1.019
 8332SOL     OW25894   5.419   5.142   2.045
 8332SOL    HW125895   5.400   5.218   2.107
 8332SOL    HW225896   5.403   5.056   2.093
 8333SOL     OW25897   2.168   4.697   6.899
 8333SOL    HW125898   2.085   4.650   6.870
 8333SOL    HW225899   2.195   4.665   6.990
 8334SOL     OW25900   2.811   2.380   6.486
 8334SOL    HW125901   2.814   2.460   6.426
 8334SOL    HW225902   2.780   2.408   6.577
 8335SOL     OW25903   4.003   2.560   0.327
 8335SOL    HW125904   4.047   2.563   0.237
 8335SOL    HW225905   3.979   2.653   0.354
 8336SOL     OW25906   1.187   4.023   3.352
 8336SOL    HW125907   1.221   4.115   3.336
 8336SOL    HW225908   1.240   3.958   3.298
 8337SOL     OW25909   0.186   6.755   4.084
 8337SOL    HW125910   0.210   6.850   4.104
 8337SOL    HW225911   0.190   6.702   4.169
 8338SOL     OW25912   3.721   5.568   2.148
 8338SOL    HW125913   3.769   5.612   2.072
 8338SOL    HW225914   3.632   5.612   2.161
 8339SOL     OW25915   0.080   1.201   1.548
 8339SOL    HW125916   0.027   1.136   1.492
 8339SOL    HW225917   0.070   1.177   1.644
 8340SOL     OW25918   5.176   4.105   0.487
 8340SOL    HW125919   5.142   4.012   0.494
 8340SOL    HW225920   5.183   4.132   0.391
 8341SOL     OW25921   3.601   0.473   0.131
 8341SOL    HW125922   3.523   0.530   0.158
 8341SOL    HW225923   3.667   0.529   0.082
 8342SOL     OW25924   3.873   0.079   0.248
 8342SOL    HW125925   3.913   0.112   0.162
 8342SOL    HW225926   3.915   7.013   0.271
 8343SOL     OW25927   6.344   5.477   3.911
 8343SOL    HW125928   6.263   5.419   3.918
 8343SOL    HW225929   6.318   5.568   3.878
 8344SOL     OW25930   6.670   4.556   4.591
 8344SOL    HW125931   6.615   4.636   4.614
 8344SOL    HW225932   6.688   4.503   4.674
 8345SOL     OW25933   4.861   2.191   3.756
 8345SOL    HW125934   4.859   2.092   3.758
 8345SOL    HW225935   4.769   2.227   3.769
 8346SOL     OW25936   3.752   3.476   6.013
 8346SOL    HW125937   3.773   3.571   5.991
 8346SOL    HW225938   3.672   3.473   6.073
 8347SOL     OW25939   3.427   6.751   6.532
 8347SOL    HW125940   3.450   6.792   6.621
 8347SOL    HW225941   3.330   6.768   6.513
 8348SOL     OW25942   2.256   0.295   1.555
 8348SOL    HW125943   2.208   0.382   1.546
 8348SOL    HW225944   2.271   0.276   1.652
 8349SOL     OW25945   1.311   6.522   1.791
 8349SOL    HW125946   1.285   6.493   1.699
 8349SOL    HW225947   1.307   6.443   1.852
 8350SOL     OW25948   2.931   6.682   6.259
 8350SOL    HW125949   2.907   6.724   6.347
 8350SOL    HW225950   2.881   6.596   6.249
 8351SOL     OW25951   5.705   5.436   4.000
 8351SOL    HW125952   5.750   5.522   4.025
 8351SOL    HW225953   5.677   5.439   3.904
 8352SOL     OW25954   1.603   0.030   2.978
 8352SOL    HW125955   1.686   0.002   3.026
 8352SOL    HW225956   1.589   0.129   2.991
 8353SOL     OW25957   0.902   4.022   1.033
 8353SOL    HW125958   0.873   4.063   0.947
 8353SOL    HW225959   0.999   4.042   1.049
 8354SOL     OW25960   3.396   6.911   3.986
 8354SOL    HW125961   3.406   6.907   4.085
 8354SOL    HW225962   3.387   7.006   3.956
 8355SOL     OW25963   1.760   0.952   5.279
 8355SOL    HW125964   1.772   0.913   5.188
 8355SOL    HW225965   1.794   0.889   5.348
 8356SOL     OW25966   0.876   5.352   1.441
 8356SOL    HW125967   0.891   5.430   1.380
 8356SOL    HW225968   0.963   5.323   1.481
 8357SOL     OW25969   3.583   6.026   5.593
 8357SOL    HW125970   3.559   6.122   5.577
 8357SOL    HW225971   3.663   6.002   5.539
 8358SOL     OW25972   0.994   2.771   5.091
 8358SOL    HW125973   1.089   2.781   5.122
 8358SOL    HW225974   0.933   2.773   5.170
 8359SOL     OW25975   2.115   1.808   4.434
 8359SOL    HW125976   2.112   1.907   4.447
 8359SOL    HW225977   2.113   1.787   4.336
 8360SOL     OW25978   4.604   0.108   1.367
 8360SOL    HW125979   4.612   0.070   1.459
 8360SOL    HW225980   4.564   0.040   1.306
 8361SOL     OW25981   3.364   0.635   0.202
 8361SOL    HW125982   3.297   0.609   0.133
 8361SOL    HW225983   3.384   0.733   0.194
 8362SOL     OW25984   5.745   2.059   1.171
 8362SOL    HW125985   5.698   2.088   1.255
 8362SOL    HW225986   5.698   1.981   1.131
 8363SOL     OW25987   5.291   1.732   0.750
 8363SOL    HW125988   5.345   1.650   0.769
 8363SOL    HW225989   5.266   1.733   0.653
 8364SOL     OW25990   0.430   3.315   4.291
 8364SOL    HW125991   0.357   3.380   4.315
 8364SOL    HW225992   0.393   3.247   4.227
 8365SOL     OW25993   1.416   2.754   2.931
 8365SOL    HW125994   1.357   2.825   2.971
 8365SOL    HW225995   1.389   2.737   2.836
 8366SOL     OW25996   3.860   5.150   0.676
 8366SOL    HW125997   3.791   5.157   0.748
 8366SOL    HW225998   3.939   5.206   0.700
 8367SOL     OW25999   3.463   5.256   5.328
 8367SOL    HW126000   3.554   5.264   5.369
 8367SOL    HW226001   3.398   5.226   5.397
 8368SOL     OW26002   1.142   5.991   0.578
 8368SOL    HW126003   1.060   5.938   0.556
 8368SOL    HW226004   1.123   6.050   0.657
 8369SOL     OW26005   0.493   0.999   6.703
 8369SOL    HW126006   0.411   0.950   6.671
 8369SOL    HW226007   0.574   0.957   6.664
 8370SOL     OW26008   2.310   0.736   5.885
 8370SOL    HW126009   2.345   0.738   5.791
 8370SOL    HW226010   2.316   0.828   5.924
 8371SOL     OW26011   1.654   3.268   6.653
 8371SOL    HW126012   1.658   3.351   6.710
 8371SOL    HW226013   1.721   3.202   6.686
 8372SOL     OW26014   1.583   6.214   1.359
 8372SOL    HW126015   1.677   6.182   1.361
 8372SOL    HW226016   1.526   6.147   1.311
 8373SOL     OW26017   1.563   0.688   4.539
 8373SOL    HW126018   1.558   0.615   4.471
 8373SOL    HW226019   1.657   0.721   4.546
 8374SOL     OW26020   6.971   0.265   4.965
 8374SOL    HW126021   6.988   0.197   5.037
 8374SOL    HW226022   6.878   0.254   4.931
 8375SOL     OW26023   3.796   6.885   6.328
 8375SOL    HW126024   3.872   6.939   6.292
 8375SOL    HW226025   3.710   6.916   6.287
 8376SOL     OW26026   1.528   1.479   3.599
 8376SOL    HW126027   1.516   1.578   3.600
 8376SOL    HW226028   1.439   1.434   3.608
 8377SOL     OW26029   5.643   6.426   0.271
 8377SOL    HW126030   5.604   6.336   0.253
 8377SOL    HW226031   5.734   6.432   0.230
 8378SOL     OW26032   4.030   5.311   3.932
 8378SOL    HW126033   4.069   5.390   3.980
 8378SOL    HW226034   4.094   5.282   3.860
 8379SOL     OW26035   4.884   2.625   2.198
 8379SOL    HW126036   4.973   2.665   2.176
 8379SOL    HW226037   4.882   2.598   2.294
 8380SOL     OW26038   0.460   0.062   6.615
 8380SOL    HW126039   0.504   7.002   6.650
 8380SOL    HW226040   0.394   0.096   6.682
 8381SOL     OW26041   0.252   2.743   3.534
 8381SOL    HW126042   0.321   2.691   3.484
 8381SOL    HW226043   0.294   2.826   3.571
 8382SOL     OW26044   2.366   6.882   1.256
 8382SOL    HW126045   2.454   6.909   1.295
 8382SOL    HW226046   2.295   6.944   1.287
 8383SOL     OW26047   2.839   0.001   5.605
 8383SOL    HW126048   2.855   0.071   5.674
 8383SOL    HW226049   2.788   6.947   5.646
 8384SOL     OW26050   6.913   1.509   0.892
 8384SOL    HW126051   7.000   1.520   0.845
 8384SOL    HW226052   6.877   1.598   0.918
 8385SOL     OW26053   4.213   1.891   0.630
 8385SOL    HW126054   4.121   1.870   0.597
 8385SOL    HW226055   4.211   1.904   0.729
 8386SOL     OW26056   2.378   5.520   1.184
 8386SOL    HW126057   2.343   5.473   1.103
 8386SOL    HW226058   2.352   5.616   1.180
 8387SOL     OW26059   1.672   2.150   1.555
 8387SOL    HW126060   1.766   2.119   1.536
 8387SOL    HW226061   1.617   2.073   1.587
 8388SOL     OW26062   1.427   6.484   0.946
 8388SOL    HW126063   1.484   6.541   0.887
 8388SOL    HW226064   1.406   6.534   1.030
 8389SOL     OW26065   0.179   3.610   4.375
 8389SOL    HW126066   0.135   3.560   4.450
 8389SOL    HW226067   0.219   3.694   4.411
 8390SOL     OW26068   4.017   6.772   6.811
 8390SOL    HW126069   4.021   6.858   6.862
 8390SOL    HW226070   3.921   6.750   6.791
 8391SOL     OW26071   4.707   5.088   1.350
 8391SOL    HW126072   4.634   5.020   1.362
 8391SOL    HW226073   4.666   5.178   1.337
 8392SOL     OW26074   6.552   5.518   5.935
 8392SOL    HW126075   6.507   5.530   5.846
 8392SOL    HW226076   6.484   5.488   6.002
 8393SOL     OW26077   6.812   6.789   3.694
 8393SOL    HW126078   6.785   6.882   3.668
 8393SOL    HW226079   6.900   6.793   3.741
 8394SOL     OW26080   6.931   2.890   1.496
 8394SOL    HW126081   7.015   2.938   1.472
 8394SOL    HW226082   6.892   2.930   1.579
 8395SOL     OW26083   1.260   6.250   4.666
 8395SOL    HW126084   1.313   6.247   4.581
 8395SOL    HW226085   1.227   6.159   4.688
 8396SOL     OW26086   4.218   4.672   2.155
 8396SOL    HW126087   4.131   4.698   2.113
 8396SOL    HW226088   4.293   4.711   2.102
 8397SOL     OW26089   2.202   1.037   3.543
 8397SOL    HW126090   2.235   1.109   3.482
 8397SOL    HW226091   2.278   0.977   3.566
 8398SOL     OW26092   4.239   2.200   6.377
 8398SOL    HW126093   4.323   2.242   6.343
 8398SOL    HW226094   4.246   2.188   6.476
 8399SOL     OW26095   6.811   0.444   0.134
 8399SOL    HW126096   6.728   0.484   0.095
 8399SOL    HW226097   6.788   0.358   0.180
 8400SOL     OW26098   1.104   0.148   3.759
 8400SOL    HW126099   1.165   0.225   3.739
 8400SOL    HW226100   1.010   0.183   3.771
 8401SOL     OW26101   3.466   2.197   5.964
 8401SOL    HW126102   3.453   2.222   6.059
 8401SOL    HW226103   3.563   2.177   5.947
 8402SOL     OW26104   4.224   1.743   5.534
 8402SOL    HW126105   4.138   1.776   5.496
 8402SOL    HW226106   4.295   1.748   5.464
 8403SOL     OW26107   0.718   1.742   3.214
 8403SOL    HW126108   0.626   1.782   3.208
 8403SOL    HW226109   0.786   1.815   3.209
 8404SOL     OW26110   5.035   5.675   6.835
 8404SOL    HW126111   5.115   5.731   6.815
 8404SOL    HW226112   4.980   5.663   6.752
 8405SOL     OW26113   2.240   0.813   6.217
 8405SOL    HW126114   2.234   0.911   6.237
 8405SOL    HW226115   2.251   0.799   6.119
 8406SOL     OW26116   4.310   0.350   0.762
 8406SOL    HW126117   4.291   0.370   0.858
 8406SOL    HW226118   4.241   0.392   0.704
 8407SOL     OW26119   4.589   6.619   3.740
 8407SOL    HW126120   4.596   6.683   3.664
 8407SOL    HW226121   4.586   6.525   3.705
 8408SOL     OW26122   5.041   2.884   2.704
 8408SOL    HW126123   4.948   2.919   2.691
 8408SOL    HW226124   5.105   2.960   2.709
 8409SOL     OW26125   6.220   3.219   3.150
 8409SOL    HW126126   6.306   3.169   3.158
 8409SOL    HW226127   6.159   3.193   3.224
 8410SOL     OW26128   4.878   0.719   1.454
 8410SOL    HW126129   4.878   0.662   1.536
 8410SOL    HW226130   4.972   0.730   1.422
 8411SOL     OW26131   1.454   5.429   5.583
 8411SOL    HW126132   1.534   5.419   5.524
 8411SOL    HW226133   1.465   5.370   5.664
 8412SOL     OW26134   4.238   1.952   2.002
 8412SOL    HW126135   4.198   2.012   2.072
 8412SOL    HW226136   4.310   1.897   2.043
 8413SOL     OW26137   4.884   4.713   0.570
 8413SOL    HW126138   4.859   4.790   0.629
 8413SOL    HW226139   4.852   4.628   0.612
 8414SOL     OW26140   4.529   5.683   2.727
 8414SOL    HW126141   4.580   5.710   2.645
 8414SOL    HW226142   4.592   5.651   2.797
 8415SOL     OW26143   6.611   5.817   4.183
 8415SOL    HW126144   6.684   5.870   4.140
 8415SOL    HW226145   6.559   5.876   4.245
 8416SOL     OW26146   5.724   4.496   3.425
 8416SOL    HW126147   5.671   4.419   3.389
 8416SOL    HW226148   5.802   4.514   3.366
 8417SOL     OW26149   1.201   5.126   6.351
 8417SOL    HW126150   1.195   5.131   6.251
 8417SOL    HW226151   1.116   5.087   6.387
 8418SOL     OW26152   6.187   5.326   1.383
 8418SOL    HW126153   6.247   5.391   1.431
 8418SOL    HW226154   6.214   5.322   1.287
 8419SOL     OW26155   5.440   1.520   3.006
 8419SOL    HW126156   5.530   1.562   3.015
 8419SOL    HW226157   5.369   1.590   3.015
 8420SOL     OW26158   4.038   0.125   0.827
 8420SOL    HW126159   4.051   0.072   0.743
 8420SOL    HW226160   4.118   0.115   0.886
 8421SOL     OW26161   2.907   6.116   0.844
 8421SOL    HW126162   2.883   6.126   0.748
 8421SOL    HW226163   2.824   6.117   0.900
 8422SOL     OW26164   4.449   0.745   1.498
 8422SOL    HW126165   4.532   0.724   1.445
 8422SOL    HW226166   4.444   0.682   1.576
 8423SOL     OW26167   3.797   4.318   6.141
 8423SOL    HW126168   3.841   4.269   6.066
 8423SOL    HW226169   3.750   4.399   6.105
 8424SOL     OW26170   2.549   2.470   2.694
 8424SOL    HW126171   2.473   2.488   2.631
 8424SOL    HW226172   2.628   2.437   2.642
 8425SOL     OW26173   5.815   5.926   0.931
 8425SOL    HW126174   5.805   5.843   0.985
 8425SOL    HW226175   5.906   5.930   0.891
 8426SOL     OW26176   3.292   2.977   4.270
 8426SOL    HW126177   3.238   2.999   4.189
 8426SOL    HW226178   3.234   2.986   4.352
 8427SOL     OW26179   2.872   3.561   5.724
 8427SOL    HW126180   2.875   3.555   5.624
 8427SOL    HW226181   2.852   3.471   5.763
 8428SOL     OW26182   6.848   4.063   1.447
 8428SOL    HW126183   6.871   4.151   1.406
 8428SOL    HW226184   6.766   4.026   1.403
 8429SOL     OW26185   2.074   4.127   3.553
 8429SOL    HW126186   2.136   4.104   3.628
 8429SOL    HW226187   2.090   4.221   3.524
 8430SOL     OW26188   3.688   5.955   3.825
 8430SOL    HW126189   3.677   5.999   3.736
 8430SOL    HW226190   3.756   5.883   3.819
 8431SOL     OW26191   2.866   5.612   0.678
 8431SOL    HW126192   2.886   5.572   0.589
 8431SOL    HW226193   2.897   5.707   0.680
 8432SOL     OW26194   5.680   0.192   6.008
 8432SOL    HW126195   5.645   0.274   5.962
 8432SOL    HW226196   5.755   0.154   5.954
 8433SOL     OW26197   6.520   2.387   0.471
 8433SOL    HW126198   6.506   2.303   0.419
 8433SOL    HW226199   6.610   2.385   0.514
 8434SOL     OW26200   3.006   6.462   5.377
 8434SOL    HW126201   3.022   6.519   5.458
 8434SOL    HW226202   2.928   6.402   5.394
 8435SOL     OW26203   5.062   0.507   0.972
 8435SOL    HW126204   4.982   0.529   0.916
 8435SOL    HW226205   5.032   0.469   1.059
 8436SOL     OW26206   3.383   6.878   4.601
 8436SOL    HW126207   3.478   6.864   4.574
 8436SOL    HW226208   3.329   6.799   4.572
 8437SOL     OW26209   1.430   0.098   3.198
 8437SOL    HW126210   1.411   0.026   3.265
 8437SOL    HW226211   1.435   0.058   3.107
 8438SOL     OW26212   3.023   5.056   2.280
 8438SOL    HW126213   3.059   5.097   2.197
 8438SOL    HW226214   2.936   5.010   2.260
 8439SOL     OW26215   6.375   5.106   1.343
 8439SOL    HW126216   6.331   5.179   1.291
 8439SOL    HW226217   6.306   5.045   1.382
 8440SOL     OW26218   0.725   1.918   4.128
 8440SOL    HW126219   0.678   1.986   4.072
 8440SOL    HW226220   0.744   1.836   4.073
 8441SOL     OW26221   5.769   6.648   0.038
 8441SOL    HW126222   5.683   6.672   7.016
 8441SOL    HW226223   5.811   6.571   7.012
 8442SOL     OW26224   3.510   2.743   5.923
 8442SOL    HW126225   3.431   2.789   5.963
 8442SOL    HW226226   3.479   2.679   5.853
 8443SOL     OW26227   1.095   6.244   3.310
 8443SOL    HW126228   1.148   6.321   3.345
 8443SOL    HW226229   1.011   6.279   3.268
 8444SOL     OW26230   3.143   5.614   3.653
 8444SOL    HW126231   3.086   5.539   3.687
 8444SOL    HW226232   3.239   5.589   3.662
 8445SOL     OW26233   3.682   5.417   1.566
 8445SOL    HW126234   3.656   5.492   1.626
 8445SOL    HW226235   3.643   5.332   1.600
 8446SOL     OW26236   4.356   5.065   0.497
 8446SOL    HW126237   4.340   5.163   0.493
 8446SOL    HW226238   4.271   5.016   0.480
 8447SOL     OW26239   5.706   2.342   2.009
 8447SOL    HW126240   5.679   2.418   1.951
 8447SOL    HW226241   5.723   2.261   1.953
 8448SOL     OW26242   5.791   4.912   4.432
 8448SOL    HW126243   5.798   4.975   4.354
 8448SOL    HW226244   5.883   4.883   4.459
 8449SOL     OW26245   6.120   3.318   4.360
 8449SOL    HW126246   6.201   3.334   4.303
 8449SOL    HW226247   6.146   3.269   4.443
 8450SOL     OW26248   1.602   5.613   2.199
 8450SOL    HW126249   1.562   5.624   2.108
 8450SOL    HW226250   1.593   5.698   2.250
 8451SOL     OW26251   4.945   2.840   0.823
 8451SOL    HW126252   5.016   2.799   0.766
 8451SOL    HW226253   4.855   2.813   0.790
 8452SOL     OW26254   0.122   1.089   2.025
 8452SOL    HW126255   0.195   1.154   2.007
 8452SOL    HW226256   0.088   1.102   2.118
 8453SOL     OW26257   6.587   4.284   6.868
 8453SOL    HW126258   6.669   4.312   6.818
 8453SOL    HW226259   6.513   4.269   6.803
 8454SOL     OW26260   0.481   6.482   0.428
 8454SOL    HW126261   0.426   6.409   0.468
 8454SOL    HW226262   0.571   6.484   0.471
 8455SOL     OW26263   5.328   1.791   1.270
 8455SOL    HW126264   5.365   1.847   1.344
 8455SOL    HW226265   5.262   1.844   1.217
 8456SOL     OW26266   4.571   4.750   3.129
 8456SOL    HW126267   4.661   4.705   3.137
 8456SOL    HW226268   4.529   4.725   3.042
 8457SOL     OW26269   0.326   6.312   5.234
 8457SOL    HW126270   0.423   6.303   5.258
 8457SOL    HW226271   0.309   6.266   5.147
 8458SOL     OW26272   2.339   1.456   6.931
 8458SOL    HW126273   2.355   1.359   6.952
 8458SOL    HW226274   2.361   1.512   7.010
 8459SOL     OW26275   3.131   6.299   1.988
 8459SOL    HW126276   3.139   6.396   2.011
 8459SOL    HW226277   3.066   6.288   1.913
 8460SOL     OW26278   4.625   2.527   5.553
 8460SOL    HW126279   4.602   2.556   5.646
 8460SOL    HW226280   4.582   2.589   5.487
 8461SOL     OW26281   0.800   3.973   2.687
 8461SOL    HW126282   0.779   3.977   2.590
 8461SOL    HW226283   0.809   3.878   2.716
 8462SOL     OW26284   3.747   2.474   0.657
 8462SOL    HW126285   3.782   2.566   0.645
 8462SOL    HW226286   3.648   2.478   0.675
 8463SOL     OW26287   6.596   0.538   0.044
 8463SOL    HW126288   6.535   0.615   0.062
 8463SOL    HW226289   6.557   0.480   6.995
 8464SOL     OW26290   5.852   3.920   5.807
 8464SOL    HW126291   5.812   3.841   5.853
 8464SOL    HW226292   5.941   3.896   5.770
 8465SOL     OW26293   2.450   2.372   0.816
 8465SOL    HW126294   2.520   2.442   0.798
 8465SOL    HW226295   2.494   2.283   0.823
 8466SOL     OW26296   6.961   0.101   5.676
 8466SOL    HW126297   6.942   0.033   5.746
 8466SOL    HW226298   6.884   0.165   5.670
 8467SOL     OW26299   3.768   0.724   1.435
 8467SOL    HW126300   3.760   0.631   1.474
 8467SOL    HW226301   3.802   0.718   1.342
 8468SOL     OW26302   4.570   2.572   0.583
 8468SOL    HW126303   4.641   2.605   0.645
 8468SOL    HW226304   4.597   2.483   0.545
 8469SOL     OW26305   2.929   1.792   5.510
 8469SOL    HW126306   2.914   1.701   5.470
 8469SOL    HW226307   2.929   1.860   5.437
 8470SOL     OW26308   0.577   4.748   0.055
 8470SOL    HW126309   0.505   4.813   0.033
 8470SOL    HW226310   0.598   4.753   0.153
 8471SOL     OW26311   4.278   0.451   4.628
 8471SOL    HW126312   4.262   0.504   4.712
 8471SOL    HW226313   4.206   0.382   4.618
 8472SOL     OW26314   6.576   0.520   5.751
 8472SOL    HW126315   6.526   0.433   5.749
 8472SOL    HW226316   6.543   0.576   5.827
 8473SOL     OW26317   6.777   5.939   1.027
 8473SOL    HW126318   6.709   5.905   0.962
 8473SOL    HW226319   6.752   5.910   1.119
 8474SOL     OW26320   3.417   3.500   2.281
 8474SOL    HW126321   3.383   3.557   2.206
 8474SOL    HW226322   3.516   3.490   2.273
 8475SOL     OW26323   0.282   2.822   3.063
 8475SOL    HW126324   0.287   2.725   3.085
 8475SOL    HW226325   0.255   2.833   2.967
 8476SOL     OW26326   6.351   1.594   1.314
 8476SOL    HW126327   6.253   1.615   1.308
 8476SOL    HW226328   6.369   1.507   1.267
 8477SOL     OW26329   4.975   6.440   2.807
 8477SOL    HW126330   4.947   6.415   2.715
 8477SOL    HW226331   4.924   6.521   2.836
 8478SOL     OW26332   1.493   6.731   6.050
 8478SOL    HW126333   1.405   6.750   6.006
 8478SOL    HW226334   1.561   6.797   6.018
 8479SOL     OW26335   1.018   2.127   0.977
 8479SOL    HW126336   0.954   2.053   0.996
 8479SOL    HW226337   0.973   2.198   0.924
 8480SOL     OW26338   5.318   2.708   0.478
 8480SOL    HW126339   5.249   2.648   0.438
 8480SOL    HW226340   5.275   2.767   0.547
 8481SOL     OW26341   4.762   2.924   4.910
 8481SOL    HW126342   4.782   3.020   4.929
 8481SOL    HW226343   4.817   2.893   4.832
 8482SOL     OW26344   4.726   6.938   2.729
 8482SOL    HW126345   4.741   0.012   2.752
 8482SOL    HW226346   4.717   6.929   2.629
 8483SOL     OW26347   3.597   5.973   2.034
 8483SOL    HW126348   3.669   6.029   1.993
 8483SOL    HW226349   3.597   5.985   2.133
 8484SOL     OW26350   6.799   5.989   3.466
 8484SOL    HW126351   6.737   6.025   3.535
 8484SOL    HW226352   6.854   5.916   3.505
 8485SOL     OW26353   3.403   2.458   0.375
 8485SOL    HW126354   3.400   2.363   0.405
 8485SOL    HW226355   3.384   2.463   0.277
 8486SOL     OW26356   2.099   1.653   2.562
 8486SOL    HW126357   2.134   1.588   2.494
 8486SOL    HW226358   2.123   1.746   2.535
 8487SOL     OW26359   5.808   1.705   5.476
 8487SOL    HW126360   5.781   1.659   5.391
 8487SOL    HW226361   5.740   1.775   5.499
 8488SOL     OW26362   5.560   6.280   1.402
 8488SOL    HW126363   5.476   6.250   1.357
 8488SOL    HW226364   5.595   6.206   1.461
 8489SOL     OW26365   6.535   1.614   1.516
 8489SOL    HW126366   6.465   1.601   1.445
 8489SOL    HW226367   6.526   1.541   1.585
 8490SOL     OW26368   3.814   6.532   5.040
 8490SOL    HW126369   3.819   6.475   4.958
 8490SOL    HW226370   3.890   6.510   5.101
 8491SOL     OW26371   2.417   6.219   1.826
 8491SOL    HW126372   2.420   6.129   1.783
 8491SOL    HW226373   2.321   6.247   1.836
 8492SOL     OW26374   5.490   4.299   5.404
 8492SOL    HW126375   5.496   4.201   5.424
 8492SOL    HW226376   5.583   4.336   5.395
 8493SOL     OW26377   2.005   2.363   5.781
 8493SOL    HW126378   1.916   2.379   5.823
 8493SOL    HW226379   2.062   2.308   5.843
 8494SOL     OW26380   4.124   5.103   0.948
 8494SOL    HW126381   4.085   5.149   1.028
 8494SOL    HW226382   4.212   5.145   0.925
 8495SOL     OW26383   6.316   4.955   2.218
 8495SOL    HW126384   6.349   5.046   2.244
 8495SOL    HW226385   6.283   4.957   2.124
 8496SOL     OW26386   1.588   1.814   2.360
 8496SOL    HW126387   1.625   1.897   2.318
 8496SOL    HW226388   1.634   1.734   2.324
 8497SOL     OW26389   6.617   0.596   3.549
 8497SOL    HW126390   6.692   0.530   3.550
 8497SOL    HW226391   6.633   0.665   3.478
 8498SOL     OW26392   6.218   5.992   2.957
 8498SOL    HW126393   6.279   6.054   2.907
 8498SOL    HW226394   6.181   6.039   3.037
 8499SOL     OW26395   2.070   3.785   6.503
 8499SOL    HW126396   2.134   3.862   6.510
 8499SOL    HW226397   1.977   3.816   6.522
 8500SOL     OW26398   1.859   6.096   5.540
 8500SOL    HW126399   1.816   6.082   5.451
 8500SOL    HW226400   1.787   6.106   5.609
 8501SOL     OW26401   0.133   2.433   6.414
 8501SOL    HW126402   0.140   2.357   6.479
 8501SOL    HW226403   0.061   2.413   6.348
 8502SOL     OW26404   0.510   3.526   1.268
 8502SOL    HW126405   0.456   3.545   1.349
 8502SOL    HW226406   0.598   3.573   1.273
 8503SOL     OW26407   1.117   5.090   4.971
 8503SOL    HW126408   1.118   5.100   5.071
 8503SOL    HW226409   1.139   5.177   4.928
 8504SOL     OW26410   2.390   4.997   2.667
 8504SOL    HW126411   2.483   4.963   2.654
 8504SOL    HW226412   2.387   5.094   2.645
 8505SOL     OW26413   6.721   3.356   3.055
 8505SOL    HW126414   6.649   3.291   3.079
 8505SOL    HW226415   6.691   3.448   3.077
 8506SOL     OW26416   1.136   1.185   0.231
 8506SOL    HW126417   1.225   1.144   0.252
 8506SOL    HW226418   1.078   1.118   0.186
 8507SOL     OW26419   3.608   0.116   4.779
 8507SOL    HW126420   3.667   0.051   4.731
 8507SOL    HW226421   3.519   0.074   4.798
 8508SOL     OW26422   4.922   1.823   4.405
 8508SOL    HW126423   4.844   1.815   4.343
 8508SOL    HW226424   5.007   1.824   4.352
 8509SOL     OW26425   4.463   1.263   3.511
 8509SOL    HW126426   4.425   1.186   3.561
 8509SOL    HW226427   4.551   1.289   3.551
 8510SOL     OW26428   5.644   4.710   2.358
 8510SOL    HW126429   5.574   4.758   2.410
 8510SOL    HW226430   5.705   4.660   2.420
 8511SOL     OW26431   6.257   4.546   2.454
 8511SOL    HW126432   6.254   4.635   2.500
 8511SOL    HW226433   6.169   4.501   2.463
 8512SOL     OW26434   2.510   1.298   2.487
 8512SOL    HW126435   2.441   1.226   2.494
 8512SOL    HW226436   2.601   1.258   2.498
 8513SOL     OW26437   6.866   5.619   0.638
 8513SOL    HW126438   6.796   5.664   0.693
 8513SOL    HW226439   6.957   5.648   0.669
 8514SOL     OW26440   1.806   2.167   3.756
 8514SOL    HW126441   1.792   2.246   3.816
 8514SOL    HW226442   1.782   2.191   3.662
 8515SOL     OW26443   4.804   2.160   1.298
 8515SOL    HW126444   4.792   2.258   1.282
 8515SOL    HW226445   4.736   2.129   1.365
 8516SOL     OW26446   0.301   1.872   2.091
 8516SOL    HW126447   0.304   1.958   2.039
 8516SOL    HW226448   0.284   1.796   2.028
 8517SOL     OW26449   0.576   2.531   6.004
 8517SOL    HW126450   0.592   2.437   6.034
 8517SOL    HW226451   0.484   2.560   6.032
 8518SOL     OW26452   4.700   3.921   0.249
 8518SOL    HW126453   4.682   3.823   0.243
 8518SOL    HW226454   4.675   3.955   0.340
 8519SOL     OW26455   2.043   5.129   2.144
 8519SOL    HW126456   1.970   5.095   2.204
 8519SOL    HW226457   2.008   5.201   2.085
 8520SOL     OW26458   3.590   1.760   1.032
 8520SOL    HW126459   3.682   1.742   0.996
 8520SOL    HW226460   3.572   1.699   1.109
 8521SOL     OW26461   1.922   5.001   5.905
 8521SOL    HW126462   1.902   5.067   5.832
 8521SOL    HW226463   1.986   4.932   5.871
 8522SOL     OW26464   1.502   5.983   1.630
 8522SOL    HW126465   1.503   6.079   1.658
 8522SOL    HW226466   1.584   5.937   1.664
 8523SOL     OW26467   3.403   0.088   6.609
 8523SOL    HW126468   3.496   0.111   6.581
 8523SOL    HW226469   3.338   0.131   6.546
 8524SOL     OW26470   1.205   1.869   4.878
 8524SOL    HW126471   1.216   1.942   4.811
 8524SOL    HW226472   1.234   1.901   4.968
 8525SOL     OW26473   6.327   4.321   2.770
 8525SOL    HW126474   6.268   4.396   2.798
 8525SOL    HW226475   6.421   4.340   2.800
 8526SOL     OW26476   3.618   4.727   0.553
 8526SOL    HW126477   3.609   4.630   0.578
 8526SOL    HW226478   3.686   4.770   0.613
 8527SOL     OW26479   3.130   0.141   5.029
 8527SOL    HW126480   3.205   0.078   5.008
 8527SOL    HW226481   3.104   0.189   4.945
 8528SOL     OW26482   5.195   3.038   6.219
 8528SOL    HW126483   5.206   3.010   6.314
 8528SOL    HW226484   5.102   3.014   6.188
 8529SOL     OW26485   0.928   0.475   0.119
 8529SOL    HW126486   0.852   0.446   0.060
 8529SOL    HW226487   0.891   0.511   0.205
 8530SOL     OW26488   1.968   4.079   5.643
 8530SOL    HW126489   1.929   4.012   5.580
 8530SOL    HW226490   2.055   4.114   5.605
 8531SOL     OW26491   6.059   4.481   1.832
 8531SOL    HW126492   6.112   4.529   1.902
 8531SOL    HW226493   5.987   4.540   1.797
 8532SOL     OW26494   4.057   4.931   4.575
 8532SOL    HW126495   3.991   4.918   4.650
 8532SOL    HW226496   4.027   4.879   4.495
 8533SOL     OW26497   2.058   6.989   6.093
 8533SOL    HW126498   2.020   0.047   6.048
 8533SOL    HW226499   2.044   6.996   6.191
 8534SOL     OW26500   6.561   3.756   3.939
 8534SOL    HW126501   6.511   3.761   3.852
 8534SOL    HW226502   6.658   3.770   3.922
 8535SOL     OW26503   0.601   1.756   5.441
 8535SOL    HW126504   0.563   1.664   5.440
 8535SOL    HW226505   0.527   1.822   5.423
 8536SOL     OW26506   5.594   1.534   4.881
 8536SOL    HW126507   5.573   1.625   4.914
 8536SOL    HW226508   5.692   1.525   4.868
 8537SOL     OW26509   5.791   1.231   2.294
 8537SOL    HW126510   5.697   1.231   2.260
 8537SOL    HW226511   5.847   1.290   2.236
 8538SOL     OW26512   0.874   1.415   5.371
 8538SOL    HW126513   0.776   1.401   5.365
 8538SOL    HW226514   0.915   1.407   5.280
 8539SOL     OW26515   6.571   1.814   2.078
 8539SOL    HW126516   6.543   1.732   2.128
 8539SOL    HW226517   6.490   1.864   2.046
 8540SOL     OW26518   3.591   1.773   0.149
 8540SOL    HW126519   3.599   1.717   0.232
 8540SOL    HW226520   3.500   1.815   0.147
 8541SOL     OW26521   3.081   1.938   4.309
 8541SOL    HW126522   3.074   1.987   4.222
 8541SOL    HW226523   3.164   1.882   4.309
 8542SOL     OW26524   2.446   4.516   5.569
 8542SOL    HW126525   2.428   4.531   5.472
 8542SOL    HW226526   2.483   4.424   5.582
 8543SOL     OW26527   3.220   1.333   6.523
 8543SOL    HW126528   3.204   1.324   6.425
 8543SOL    HW226529   3.246   1.427   6.543
 8544SOL     OW26530   5.394   2.861   4.562
 8544SOL    HW126531   5.406   2.960   4.572
 8544SOL    HW226532   5.342   2.843   4.478
 8545SOL     OW26533   4.301   6.847   4.758
 8545SOL    HW126534   4.264   6.765   4.800
 8545SOL    HW226535   4.357   6.896   4.825
 8546SOL     OW26536   0.478   0.391   2.440
 8546SOL    HW126537   0.405   0.428   2.497
 8546SOL    HW226538   0.438   0.350   2.358
 8547SOL     OW26539   1.298   6.899   6.250
 8547SOL    HW126540   1.207   6.936   6.266
 8547SOL    HW226541   1.302   6.855   6.161
 8548SOL     OW26542   6.900   3.515   5.476
 8548SOL    HW126543   6.876   3.609   5.499
 8548SOL    HW226544   6.960   3.477   5.546
 8549SOL     OW26545   0.518   2.276   4.295
 8549SOL    HW126546   0.557   2.337   4.364
 8549SOL    HW226547   0.532   2.181   4.323
 8550SOL     OW26548   1.366   4.764   0.224
 8550SOL    HW126549   1.282   4.817   0.222
 8550SOL    HW226550   1.369   4.709   0.308
 8551SOL     OW26551   3.002   2.743   0.156
 8551SOL    HW126552   2.952   2.814   0.108
 8551SOL    HW226553   3.097   2.742   0.125
 8552SOL     OW26554   1.869   0.567   3.097
 8552SOL    HW126555   1.775   0.555   3.129
 8552SOL    HW226556   1.873   0.642   3.031
 8553SOL     OW26557   4.241   4.146   6.439
 8553SOL    HW126558   4.161   4.193   6.401
 8553SOL    HW226559   4.239   4.152   6.539
 8554SOL     OW26560   0.092   5.714   0.673
 8554SOL    HW126561   0.131   5.684   0.587
 8554SOL    HW226562   0.135   5.800   0.702
 8555SOL     OW26563   3.180   1.396   3.365
 8555SOL    HW126564   3.278   1.382   3.375
 8555SOL    HW226565   3.131   1.349   3.438
 8556SOL     OW26566   2.015   6.109   4.921
 8556SOL    HW126567   2.005   6.188   4.981
 8556SOL    HW226568   1.927   6.062   4.913
 8557SOL     OW26569   6.654   0.281   2.393
 8557SOL    HW126570   6.588   0.353   2.373
 8557SOL    HW226571   6.606   0.194   2.402
 8558SOL     OW26572   2.143   5.665   2.980
 8558SOL    HW126573   2.164   5.760   2.999
 8558SOL    HW226574   2.108   5.620   3.062
 8559SOL     OW26575   1.965   6.956   2.732
 8559SOL    HW126576   2.000   6.968   2.639
 8559SOL    HW226577   2.037   6.920   2.791
 8560SOL     OW26578   1.247   5.475   2.045
 8560SOL    HW126579   1.285   5.554   2.093
 8560SOL    HW226580   1.152   5.460   2.074
 8561SOL     OW26581   3.011   0.009   3.102
 8561SOL    HW126582   3.063   0.093   3.119
 8561SOL    HW226583   3.011   7.012   3.004
 8562SOL     OW26584   3.657   6.196   6.614
 8562SOL    HW126585   3.619   6.250   6.690
 8562SOL    HW226586   3.746   6.233   6.590
 8563SOL     OW26587   1.128   4.901   2.165
 8563SOL    HW126588   1.144   4.998   2.145
 8563SOL    HW226589   1.073   4.861   2.091
 8564SOL     OW26590   3.044   6.904   5.398
 8564SOL    HW126591   3.010   6.981   5.453
 8564SOL    HW226592   2.995   6.902   5.311
 8565SOL     OW26593   3.373   4.784   1.061
 8565SOL    HW126594   3.328   4.805   0.974
 8565SOL    HW226595   3.305   4.754   1.128
 8566SOL     OW26596   1.249   0.302   1.574
 8566SOL    HW126597   1.198   0.231   1.527
 8566SOL    HW226598   1.340   0.267   1.599
 8567SOL     OW26599   0.626   2.062   2.287
 8567SOL    HW126600   0.721   2.081   2.260
 8567SOL    HW226601   0.612   2.090   2.381
 8568SOL     OW26602   5.581   2.306   0.208
 8568SOL    HW126603   5.669   2.273   0.175
 8568SOL    HW226604   5.578   2.300   0.308
 8569SOL     OW26605   4.942   2.135   5.097
 8569SOL    HW126606   4.933   2.179   5.187
 8569SOL    HW226607   5.038   2.135   5.070
 8570SOL     OW26608   1.106   1.500   4.245
 8570SOL    HW126609   1.140   1.594   4.237
 8570SOL    HW226610   1.175   1.436   4.212
 8571SOL     OW26611   0.876   6.213   5.235
 8571SOL    HW126612   0.938   6.196   5.158
 8571SOL    HW226613   0.826   6.129   5.256
 8572SOL     OW26614   1.633   4.375   5.614
 8572SOL    HW126615   1.642   4.324   5.529
 8572SOL    HW226616   1.723   4.409   5.641
 8573SOL     OW26617   3.141   5.641   6.122
 8573SOL    HW126618   3.066   5.707   6.129
 8573SOL    HW226619   3.228   5.688   6.135
 8574SOL     OW26620   5.898   0.304   6.286
 8574SOL    HW126621   5.824   0.251   6.245
 8574SOL    HW226622   5.970   0.241   6.317
 8575SOL     OW26623   2.594   2.177   3.619
 8575SOL    HW126624   2.567   2.127   3.537
 8575SOL    HW226625   2.643   2.261   3.593
 8576SOL     OW26626   1.620   4.712   4.497
 8576SOL    HW126627   1.565   4.766   4.432
 8576SOL    HW226628   1.574   4.711   4.586
 8577SOL     OW26629   1.517   0.417   6.208
 8577SOL    HW126630   1.591   0.350   6.204
 8577SOL    HW226631   1.450   0.398   6.137
 8578SOL     OW26632   6.772   5.054   5.040
 8578SOL    HW126633   6.822   5.044   5.126
 8578SOL    HW226634   6.677   5.028   5.054
 8579SOL     OW26635   1.656   6.482   2.018
 8579SOL    HW126636   1.609   6.571   2.011
 8579SOL    HW226637   1.749   6.496   2.050
 8580SOL     OW26638   1.927   5.652   0.633
 8580SOL    HW126639   1.936   5.708   0.715
 8580SOL    HW226640   1.831   5.631   0.616
 8581SOL     OW26641   3.242   4.581   1.493
 8581SOL    HW126642   3.227   4.531   1.578
 8581SOL    HW226643   3.207   4.527   1.416
 8582SOL     OW26644   4.817   4.307   5.195
 8582SOL    HW126645   4.767   4.365   5.131
 8582SOL    HW226646   4.915   4.327   5.189
 8583SOL     OW26647   3.712   0.082   3.946
 8583SOL    HW126648   3.774   0.068   3.869
 8583SOL    HW226649   3.702   0.180   3.964
 8584SOL     OW26650   1.294   6.510   5.761
 8584SOL    HW126651   1.222   6.535   5.826
 8584SOL    HW226652   1.259   6.442   5.697
 8585SOL     OW26653   6.019   1.284   0.526
 8585SOL    HW126654   5.931   1.313   0.563
 8585SOL    HW226655   6.059   1.359   0.474
 8586SOL     OW26656   3.393   6.632   1.977
 8586SOL    HW126657   3.313   6.573   1.965
 8586SOL    HW226658   3.366   6.715   2.027
 8587SOL     OW26659   0.817   0.781   4.462
 8587SOL    HW126660   0.896   0.835   4.490
 8587SOL    HW226661   0.820   0.692   4.508
 8588SOL     OW26662   4.684   1.457   6.717
 8588SOL    HW126663   4.751   1.383   6.708
 8588SOL    HW226664   4.607   1.439   6.656
 8589SOL     OW26665   6.186   2.555   4.848
 8589SOL    HW126666   6.273   2.565   4.895
 8589SOL    HW226667   6.128   2.635   4.869
 8590SOL     OW26668   0.411   0.738   2.283
 8590SOL    HW126669   0.484   0.720   2.349
 8590SOL    HW226670   0.382   0.833   2.290
 8591SOL     OW26671   0.138   3.882   0.010
 8591SOL    HW126672   0.041   3.879   0.035
 8591SOL    HW226673   0.149   3.932   6.947
 8592SOL     OW26674   5.680   2.016   6.931
 8592SOL    HW126675   5.650   1.921   6.927
 8592SOL    HW226676   5.617   2.073   6.878
 8593SOL     OW26677   3.423   0.971   6.767
 8593SOL    HW126678   3.410   1.066   6.739
 8593SOL    HW226679   3.384   0.910   6.697
 8594SOL     OW26680   5.452   2.399   5.380
 8594SOL    HW126681   5.396   2.471   5.339
 8594SOL    HW226682   5.546   2.406   5.345
 8595SOL     OW26683   6.724   1.258   3.976
 8595SOL    HW126684   6.722   1.175   4.033
 8595SOL    HW226685   6.672   1.330   4.020
 8596SOL     OW26686   1.274   4.645   3.049
 8596SOL    HW126687   1.249   4.623   3.143
 8596SOL    HW226688   1.228   4.582   2.987
 8597SOL     OW26689   5.306   1.749   1.969
 8597SOL    HW126690   5.207   1.762   1.968
 8597SOL    HW226691   5.332   1.682   1.900
 8598SOL     OW26692   5.617   0.619   6.411
 8598SOL    HW126693   5.689   0.561   6.448
 8598SOL    HW226694   5.579   0.578   6.328
 8599SOL     OW26695   1.833   2.456   4.581
 8599SOL    HW126696   1.809   2.415   4.668
 8599SOL    HW226697   1.932   2.470   4.577
 8600SOL     OW26698   5.160   3.919   0.266
 8600SOL    HW126699   5.254   3.910   0.300
 8600SOL    HW226700   5.107   3.838   0.292
 8601SOL     OW26701   0.765   1.649   4.047
 8601SOL    HW126702   0.723   1.597   3.972
 8601SOL    HW226703   0.750   1.601   4.133
 8602SOL     OW26704   2.986   6.753   2.451
 8602SOL    HW126705   2.921   6.736   2.525
 8602SOL    HW226706   2.980   6.680   2.383
 8603SOL     OW26707   5.263   6.787   1.322
 8603SOL    HW126708   5.270   6.811   1.226
 8603SOL    HW226709   5.298   6.694   1.336
 8604SOL     OW26710   1.116   2.364   5.920
 8604SOL    HW126711   1.055   2.439   5.895
 8604SOL    HW226712   1.178   2.394   5.992
 8605SOL     OW26713   2.244   5.317   3.945
 8605SOL    HW126714   2.320   5.282   3.890
 8605SOL    HW226715   2.265   5.410   3.976
 8606SOL     OW26716   1.773   2.748   6.763
 8606SOL    HW126717   1.784   2.670   6.701
 8606SOL    HW226718   1.695   2.731   6.823
 8607SOL     OW26719   2.740   4.684   6.171
 8607SOL    HW126720   2.674   4.738   6.119
 8607SOL    HW226721   2.749   4.593   6.129
 8608SOL     OW26722   2.354   4.654   2.807
 8608SOL    HW126723   2.398   4.725   2.752
 8608SOL    HW226724   2.370   4.565   2.765
 8609SOL     OW26725   4.921   0.605   3.248
 8609SOL    HW126726   4.994   0.545   3.281
 8609SOL    HW226727   4.903   0.586   3.152
 8610SOL     OW26728   0.371   1.208   2.963
 8610SOL    HW126729   0.313   1.175   3.037
 8610SOL    HW226730   0.321   1.201   2.876
 8611SOL     OW26731   2.967   1.675   4.247
 8611SOL    HW126732   2.915   1.759   4.236
 8611SOL    HW226733   3.065   1.696   4.242
 8612SOL     OW26734   2.916   3.273   0.998
 8612SOL    HW126735   2.903   3.175   0.979
 8612SOL    HW226736   2.986   3.283   1.069
 8613SOL     OW26737   3.024   1.865   1.863
 8613SOL    HW126738   3.110   1.893   1.821
 8613SOL    HW226739   2.964   1.944   1.873
 8614SOL     OW26740   1.251   2.942   4.183
 8614SOL    HW126741   1.158   2.980   4.182
 8614SOL    HW226742   1.301   2.976   4.103
 8615SOL     OW26743   4.128   1.962   5.151
 8615SOL    HW126744   4.044   2.007   5.122
 8615SOL    HW226745   4.205   2.026   5.144
 8616SOL     OW26746   3.159   4.851   2.103
 8616SOL    HW126747   3.070   4.819   2.136
 8616SOL    HW226748   3.223   4.856   2.180
 8617SOL     OW26749   5.703   1.206   4.691
 8617SOL    HW126750   5.659   1.121   4.661
 8617SOL    HW226751   5.633   1.275   4.709
 8618SOL     OW26752   6.466   4.767   1.215
 8618SOL    HW126753   6.541   4.827   1.185
 8618SOL    HW226754   6.441   4.706   1.140
 8619SOL     OW26755   4.100   5.181   1.891
 8619SOL    HW126756   4.167   5.252   1.866
 8619SOL    HW226757   4.136   5.129   1.969
 8620SOL     OW26758   2.137   6.020   3.295
 8620SOL    HW126759   2.045   5.981   3.299
 8620SOL    HW226760   2.171   6.034   3.388
 8621SOL     OW26761   5.395   2.300   2.345
 8621SOL    HW126762   5.302   2.267   2.359
 8621SOL    HW226763   5.458   2.222   2.347
 8622SOL     OW26764   4.911   3.974   1.484
 8622SOL    HW126765   4.846   3.932   1.547
 8622SOL    HW226766   4.882   4.068   1.463
 8623SOL     OW26767   1.032   4.174   5.815
 8623SOL    HW126768   1.011   4.225   5.731
 8623SOL    HW226769   1.003   4.079   5.804
 8624SOL     OW26770   1.965   3.757   5.030
 8624SOL    HW126771   1.909   3.678   5.004
 8624SOL    HW226772   1.908   3.839   5.034
 8625SOL     OW26773   4.935   1.019   5.426
 8625SOL    HW126774   4.916   1.052   5.518
 8625SOL    HW226775   4.992   0.937   5.430
 8626SOL     OW26776   3.895   2.256   6.751
 8626SOL    HW126777   3.914   2.300   6.663
 8626SOL    HW226778   3.873   2.160   6.736
 8627SOL     OW26779   1.812   1.650   2.174
 8627SOL    HW126780   1.770   1.567   2.210
 8627SOL    HW226781   1.829   1.639   2.076
 8628SOL     OW26782   5.938   6.564   0.447
 8628SOL    HW126783   6.030   6.545   0.411
 8628SOL    HW226784   5.898   6.641   0.396
 8629SOL     OW26785   1.544   6.690   4.855
 8629SOL    HW126786   1.582   6.748   4.783
 8629SOL    HW226787   1.503   6.748   4.926
 8630SOL     OW26788   4.791   2.935   3.811
 8630SOL    HW126789   4.807   2.985   3.896
 8630SOL    HW226790   4.766   2.841   3.831
 8631SOL     OW26791   1.250   5.502   6.483
 8631SOL    HW126792   1.285   5.423   6.433
 8631SOL    HW226793   1.187   5.554   6.425
 8632SOL     OW26794   3.857   5.070   5.400
 8632SOL    HW126795   3.821   4.983   5.366
 8632SOL    HW226796   3.954   5.078   5.378
 8633SOL     OW26797   5.738   2.825   6.139
 8633SOL    HW126798   5.773   2.863   6.053
 8633SOL    HW226799   5.705   2.899   6.197
 8634SOL     OW26800   5.294   4.190   6.621
 8634SOL    HW126801   5.262   4.282   6.599
 8634SOL    HW226802   5.228   4.145   6.680
 8635SOL     OW26803   5.441   3.151   6.789
 8635SOL    HW126804   5.423   3.072   6.849
 8635SOL    HW226805   5.359   3.207   6.783
 8636SOL     OW26806   5.709   5.983   0.516
 8636SOL    HW126807   5.702   6.042   0.435
 8636SOL    HW226808   5.767   5.904   0.495
 8637SOL     OW26809   2.078   1.220   6.659
 8637SOL    HW126810   2.177   1.232   6.662
 8637SOL    HW226811   2.055   1.141   6.602
 8638SOL     OW26812   3.722   1.980   4.870
 8638SOL    HW126813   3.632   2.025   4.872
 8638SOL    HW226814   3.769   2.003   4.785
 8639SOL     OW26815   5.352   2.891   0.278
 8639SOL    HW126816   5.341   2.843   0.365
 8639SOL    HW226817   5.440   2.867   0.238
 8640SOL     OW26818   4.033   3.458   6.614
 8640SOL    HW126819   3.940   3.489   6.636
 8640SOL    HW226820   4.057   3.488   6.522
 8641SOL     OW26821   4.056   4.915   4.051
 8641SOL    HW126822   4.124   4.955   4.113
 8641SOL    HW226823   4.095   4.834   4.006
 8642SOL     OW26824   0.951   6.650   4.314
 8642SOL    HW126825   1.035   6.697   4.338
 8642SOL    HW226826   0.895   6.710   4.256
 8643SOL     OW26827   2.228   0.817   6.516
 8643SOL    HW126828   2.289   0.758   6.568
 8643SOL    HW226829   2.244   0.806   6.418
 8644SOL     OW26830   5.591   2.379   5.925
 8644SOL    HW126831   5.612   2.375   6.022
 8644SOL    HW226832   5.577   2.474   5.897
 8645SOL     OW26833   4.236   4.661   1.268
 8645SOL    HW126834   4.257   4.615   1.354
 8645SOL    HW226835   4.164   4.611   1.220
 8646SOL     OW26836   0.356   2.021   6.709
 8646SOL    HW126837   0.386   2.108   6.748
 8646SOL    HW226838   0.429   1.981   6.655
 8647SOL     OW26839   2.338   4.917   6.875
 8647SOL    HW126840   2.396   4.853   6.824
 8647SOL    HW226841   2.268   4.865   6.925
 8648SOL     OW26842   6.857   0.385   2.548
 8648SOL    HW126843   6.911   0.438   2.483
 8648SOL    HW226844   6.776   0.348   2.503
 8649SOL     OW26845   5.582   5.775   6.605
 8649SOL    HW126846   5.589   5.831   6.522
 8649SOL    HW226847   5.641   5.695   6.597
 8650SOL     OW26848   1.332   5.537   4.868
 8650SOL    HW126849   1.427   5.521   4.842
 8650SOL    HW226850   1.329   5.602   4.945
 8651SOL     OW26851   4.094   0.745   0.630
 8651SOL    HW126852   4.082   0.816   0.699
 8651SOL    HW226853   4.011   0.689   0.625
 8652SOL     OW26854   1.579   4.859   3.136
 8652SOL    HW126855   1.490   4.887   3.174
 8652SOL    HW226856   1.573   4.860   3.036
 8653SOL     OW26857   0.137   1.144   6.325
 8653SOL    HW126858   0.165   1.170   6.418
 8653SOL    HW226859   0.218   1.143   6.265
 8654SOL     OW26860   0.788   5.070   1.339
 8654SOL    HW126861   0.742   4.983   1.349
 8654SOL    HW226862   0.887   5.055   1.333
 8655SOL     OW26863   6.114   0.389   4.346
 8655SOL    HW126864   6.053   0.439   4.407
 8655SOL    HW226865   6.142   0.303   4.389
 8656SOL     OW26866   6.521   0.859   1.957
 8656SOL    HW126867   6.606   0.843   2.006
 8656SOL    HW226868   6.536   0.927   1.885
 8657SOL     OW26869   5.414   6.266   0.013
 8657SOL    HW126870   5.380   6.182   6.994
 8657SOL    HW226871   5.374   6.345   6.988
 8658SOL     OW26872   6.191   6.577   0.340
 8658SOL    HW126873   6.235   6.630   0.268
 8658SOL    HW226874   6.257   6.514   0.382
 8659SOL     OW26875   4.906   2.176   2.220
 8659SOL    HW126876   4.915   2.269   2.187
 8659SOL    HW226877   4.866   2.176   2.312
 8660SOL     OW26878   6.863   3.664   1.584
 8660SOL    HW126879   6.775   3.662   1.632
 8660SOL    HW226880   6.932   3.708   1.642
 8661SOL     OW26881   6.657   3.936   1.319
 8661SOL    HW126882   6.586   3.869   1.341
 8661SOL    HW226883   6.735   3.890   1.276
 8662SOL     OW26884   4.572   5.708   1.686
 8662SOL    HW126885   4.543   5.718   1.782
 8662SOL    HW226886   4.492   5.712   1.627
 8663SOL     OW26887   2.318   5.419   2.341
 8663SOL    HW126888   2.298   5.441   2.437
 8663SOL    HW226889   2.358   5.500   2.297
 8664SOL     OW26890   2.284   5.120   1.677
 8664SOL    HW126891   2.334   5.153   1.597
 8664SOL    HW226892   2.306   5.024   1.692
 8665SOL     OW26893   5.530   5.322   4.775
 8665SOL    HW126894   5.489   5.231   4.782
 8665SOL    HW226895   5.620   5.315   4.733
 8666SOL     OW26896   5.704   1.076   3.666
 8666SOL    HW126897   5.722   1.029   3.579
 8666SOL    HW226898   5.779   1.139   3.686
 8667SOL     OW26899   4.426   1.740   4.467
 8667SOL    HW126900   4.481   1.659   4.448
 8667SOL    HW226901   4.426   1.757   4.566
 8668SOL     OW26902   5.577   3.772   3.571
 8668SOL    HW126903   5.624   3.850   3.529
 8668SOL    HW226904   5.562   3.701   3.501
 8669SOL     OW26905   0.417   6.474   6.912
 8669SOL    HW126906   0.466   6.552   6.953
 8669SOL    HW226907   0.345   6.444   6.975
 8670SOL     OW26908   4.083   5.541   6.261
 8670SOL    HW126909   4.082   5.604   6.339
 8670SOL    HW226910   4.033   5.458   6.285
 8671SOL     OW26911   6.775   1.671   3.345
 8671SOL    HW126912   6.853   1.673   3.408
 8671SOL    HW226913   6.741   1.764   3.331
 8672SOL     OW26914   0.592   5.615   3.956
 8672SOL    HW126915   0.601   5.685   4.027
 8672SOL    HW226916   0.506   5.629   3.906
 8673SOL     OW26917   5.946   1.633   0.099
 8673SOL    HW126918   6.005   1.596   0.170
 8673SOL    HW226919   5.967   1.730   0.084
 8674SOL     OW26920   5.912   5.378   2.944
 8674SOL    HW126921   5.852   5.300   2.959
 8674SOL    HW226922   5.956   5.404   3.031
 8675SOL     OW26923   4.073   1.509   5.038
 8675SOL    HW126924   4.115   1.598   5.057
 8675SOL    HW226925   4.061   1.498   4.939
 8676SOL     OW26926   5.048   6.808   3.062
 8676SOL    HW126927   5.002   6.896   3.048
 8676SOL    HW226928   4.999   6.754   3.129
 8677SOL     OW26929   2.075   5.648   6.313
 8677SOL    HW126930   2.112   5.695   6.233
 8677SOL    HW226931   2.120   5.560   6.324
 8678SOL     OW26932   1.014   0.544   0.878
 8678SOL    HW126933   1.066   0.467   0.916
 8678SOL    HW226934   1.014   0.538   0.778
 8679SOL     OW26935   0.783   1.291   3.403
 8679SOL    HW126936   0.756   1.267   3.496
 8679SOL    HW226937   0.706   1.274   3.341
 8680SOL     OW26938   6.185   4.028   0.181
 8680SOL    HW126939   6.087   4.015   0.199
 8680SOL    HW226940   6.237   3.955   0.225
 8681SOL     OW26941   4.811   5.618   1.319
 8681SOL    HW126942   4.767   5.570   1.395
 8681SOL    HW226943   4.766   5.707   1.306
 8682SOL     OW26944   6.071   6.842   2.769
 8682SOL    HW126945   6.091   6.781   2.845
 8682SOL    HW226946   6.043   6.787   2.689
 8683SOL     OW26947   1.514   2.292   5.376
 8683SOL    HW126948   1.530   2.214   5.437
 8683SOL    HW226949   1.507   2.260   5.282
 8684SOL     OW26950   5.813   3.312   4.478
 8684SOL    HW126951   5.894   3.365   4.455
 8684SOL    HW226952   5.737   3.341   4.419
 8685SOL     OW26953   5.937   2.658   6.243
 8685SOL    HW126954   5.892   2.730   6.189
 8685SOL    HW226955   5.960   2.693   6.334
 8686SOL     OW26956   6.775   0.851   2.062
 8686SOL    HW126957   6.861   0.802   2.056
 8686SOL    HW226958   6.789   0.938   2.110
 8687SOL     OW26959   5.316   5.166   2.514
 8687SOL    HW126960   5.223   5.185   2.547
 8687SOL    HW226961   5.380   5.229   2.558
 8688SOL     OW26962   1.081   5.197   6.784
 8688SOL    HW126963   0.990   5.188   6.742
 8688SOL    HW226964   1.113   5.291   6.774
 8689SOL     OW26965   4.038   2.395   0.963
 8689SOL    HW126966   3.955   2.346   0.936
 8689SOL    HW226967   4.064   2.459   0.890
 8690SOL     OW26968   1.461   3.623   4.452
 8690SOL    HW126969   1.413   3.577   4.526
 8690SOL    HW226970   1.541   3.570   4.425
 8691SOL     OW26971   4.252   2.058   5.947
 8691SOL    HW126972   4.285   2.007   5.868
 8691SOL    HW226973   4.155   2.078   5.937
 8692SOL     OW26974   3.244   1.035   4.124
 8692SOL    HW126975   3.183   1.102   4.166
 8692SOL    HW226976   3.242   1.046   4.025
 8693SOL     OW26977   5.865   0.051   0.419
 8693SOL    HW126978   5.912   0.032   0.505
 8693SOL    HW226979   5.769   0.070   0.437
 8694SOL     OW26980   5.345   1.124   4.536
 8694SOL    HW126981   5.259   1.096   4.581
 8694SOL    HW226982   5.405   1.166   4.603
 8695SOL     OW26983   4.338   3.378   6.171
 8695SOL    HW126984   4.360   3.410   6.264
 8695SOL    HW226985   4.317   3.457   6.113
 8696SOL     OW26986   2.549   5.557   5.352
 8696SOL    HW126987   2.562   5.656   5.346
 8696SOL    HW226988   2.555   5.529   5.447
 8697SOL     OW26989   0.300   4.401   6.650
 8697SOL    HW126990   0.208   4.375   6.681
 8697SOL    HW226991   0.340   4.465   6.714
 8698SOL     OW26992   4.866   6.095   5.076
 8698SOL    HW126993   4.925   6.170   5.105
 8698SOL    HW226994   4.808   6.125   5.000
 8699SOL     OW26995   1.783   2.994   4.801
 8699SOL    HW126996   1.763   3.024   4.708
 8699SOL    HW226997   1.773   2.895   4.808
 8700SOL     OW26998   1.057   0.601   4.719
 8700SOL    HW126999   1.054   0.691   4.761
 8700SOL    HW227000   1.151   0.579   4.692
 8701SOL     OW27001   1.545   1.466   0.472
 8701SOL    HW127002   1.643   1.489   0.473
 8701SOL    HW227003   1.495   1.533   0.526
 8702SOL     OW27004   5.107   5.066   1.822
 8702SOL    HW127005   5.194   5.112   1.840
 8702SOL    HW227006   5.066   5.103   1.739
 8703SOL     OW27007   2.769   4.781   6.786
 8703SOL    HW127008   2.795   4.785   6.883
 8703SOL    HW227009   2.787   4.870   6.743
 8704SOL     OW27010   0.418   4.267   3.379
 8704SOL    HW127011   0.372   4.185   3.344
 8704SOL    HW227012   0.392   4.346   3.324
 8705SOL     OW27013   5.210   1.846   6.102
 8705SOL    HW127014   5.130   1.821   6.048
 8705SOL    HW227015   5.195   1.935   6.144
 8706SOL     OW27016   4.925   2.115   0.248
 8706SOL    HW127017   4.833   2.083   0.225
 8706SOL    HW227018   4.963   2.058   0.321
 8707SOL     OW27019   0.625   1.708   4.908
 8707SOL    HW127020   0.537   1.717   4.861
 8707SOL    HW227021   0.659   1.614   4.897
 8708SOL     OW27022   4.233   2.026   3.781
 8708SOL    HW127023   4.159   1.971   3.820
 8708SOL    HW227024   4.294   1.967   3.727
 8709SOL     OW27025   6.595   6.986   6.874
 8709SOL    HW127026   6.638   0.044   6.916
 8709SOL    HW227027   6.607   6.991   6.775
 8710SOL     OW27028   2.086   2.801   3.349
 8710SOL    HW127029   1.997   2.848   3.354
 8710SOL    HW227030   2.157   2.861   3.386
 8711SOL     OW27031   2.190   6.609   2.860
 8711SOL    HW127032   2.131   6.604   2.940
 8711SOL    HW227033   2.224   6.517   2.838
 8712SOL     OW27034   3.464   1.523   4.216
 8712SOL    HW127035   3.401   1.453   4.182
 8712SOL    HW227036   3.558   1.494   4.201
 8713SOL     OW27037   6.887   3.125   1.951
 8713SOL    HW127038   6.925   3.102   2.041
 8713SOL    HW227039   6.790   3.148   1.961
 8714SOL     OW27040   1.528   0.315   5.402
 8714SOL    HW127041   1.500   0.221   5.421
 8714SOL    HW227042   1.521   0.370   5.485
 8715SOL     OW27043   4.059   0.966   0.774
 8715SOL    HW127044   4.126   1.019   0.826
 8715SOL    HW227045   3.973   0.961   0.826
 8716SOL     OW27046   0.214   6.419   0.046
 8716SOL    HW127047   0.232   6.451   0.139
 8716SOL    HW227048   0.120   6.442   0.021
 8717SOL     OW27049   3.091   3.740   5.232
 8717SOL    HW127050   2.998   3.733   5.194
 8717SOL    HW227051   3.088   3.793   5.317
 8718SOL     OW27052   1.347   2.471   6.075
 8718SOL    HW127053   1.435   2.427   6.093
 8718SOL    HW227054   1.327   2.537   6.147
 8719SOL     OW27055   3.411   0.256   0.479
 8719SOL    HW127056   3.507   0.246   0.449
 8719SOL    HW227057   3.392   0.351   0.500
 8720SOL     OW27058   1.209   6.539   6.212
 8720SOL    HW127059   1.198   6.584   6.301
 8720SOL    HW227060   1.306   6.521   6.196
 8721SOL     OW27061   6.873   1.929   1.144
 8721SOL    HW127062   6.970   1.951   1.149
 8721SOL    HW227063   6.831   1.940   1.234
 8722SOL     OW27064   3.171   1.215   1.519
 8722SOL    HW127065   3.107   1.291   1.513
 8722SOL    HW227066   3.200   1.203   1.615
 8723SOL     OW27067   5.210   6.634   1.634
 8723SOL    HW127068   5.228   6.720   1.682
 8723SOL    HW227069   5.285   6.615   1.570
 8724SOL     OW27070   5.695   6.743   4.259
 8724SOL    HW127071   5.615   6.745   4.319
 8724SOL    HW227072   5.708   6.834   4.219
 8725SOL     OW27073   1.911   5.552   5.634
 8725SOL    HW127074   1.850   5.628   5.614
 8725SOL    HW227075   1.916   5.491   5.554
 8726SOL     OW27076   0.001   0.818   2.321
 8726SOL    HW127077   0.061   0.893   2.346
 8726SOL    HW227078   6.937   0.827   2.370
 8727SOL     OW27079   6.522   0.335   1.221
 8727SOL    HW127080   6.596   0.395   1.192
 8727SOL    HW227081   6.560   0.249   1.257
 8728SOL     OW27082   6.009   0.797   2.162
 8728SOL    HW127083   5.975   0.723   2.221
 8728SOL    HW227084   5.942   0.871   2.162
 8729SOL     OW27085   3.366   4.767   5.600
 8729SOL    HW127086   3.434   4.817   5.653
 8729SOL    HW227087   3.380   4.669   5.610
 8730SOL     OW27088   5.037   3.978   2.726
 8730SOL    HW127089   5.100   4.033   2.671
 8730SOL    HW227090   4.961   3.947   2.669
 8731SOL     OW27091   0.462   3.952   3.386
 8731SOL    HW127092   0.548   3.925   3.429
 8731SOL    HW227093   0.481   3.988   3.294
 8732SOL     OW27094   5.736   5.071   1.898
 8732SOL    HW127095   5.792   5.151   1.916
 8732SOL    HW227096   5.663   5.095   1.833
 8733SOL     OW27097   1.020   5.583   0.883
 8733SOL    HW127098   0.932   5.542   0.905
 8733SOL    HW227099   1.086   5.562   0.955
 8734SOL     OW27100   0.826   2.987   3.499
 8734SOL    HW127101   0.871   3.025   3.580
 8734SOL    HW227102   0.731   2.967   3.520
 8735SOL     OW27103   0.487   2.841   6.160
 8735SOL    HW127104   0.418   2.846   6.088
 8735SOL    HW227105   0.453   2.886   6.242
 8736SOL     OW27106   0.034   5.581   1.807
 8736SOL    HW127107   0.011   5.485   1.823
 8736SOL    HW227108   6.975   5.629   1.774
 8737SOL     OW27109   1.832   6.386   0.422
 8737SOL    HW127110   1.766   6.312   0.435
 8737SOL    HW227111   1.852   6.398   0.325
 8738SOL     OW27112   2.518   5.784   3.682
 8738SOL    HW127113   2.525   5.844   3.762
 8738SOL    HW227114   2.425   5.788   3.646
 8739SOL     OW27115   5.703   5.484   5.942
 8739SOL    HW127116   5.642   5.489   6.021
 8739SOL    HW227117   5.787   5.535   5.962
 8740SOL     OW27118   4.021   1.557   3.775
 8740SOL    HW127119   4.051   1.608   3.694
 8740SOL    HW227120   4.083   1.577   3.851
 8741SOL     OW27121   2.369   0.695   2.994
 8741SOL    HW127122   2.297   0.763   2.983
 8741SOL    HW227123   2.445   0.718   2.932
 8742SOL     OW27124   4.848   0.589   1.686
 8742SOL    HW127125   4.875   0.493   1.685
 8742SOL    HW227126   4.750   0.596   1.707
 8743SOL     OW27127   1.404   0.560   1.415
 8743SOL    HW127128   1.451   0.612   1.344
 8743SOL    HW227129   1.421   0.602   1.504
 8744SOL     OW27130   4.340   2.698   0.602
 8744SOL    HW127131   4.426   2.647   0.604
 8744SOL    HW227132   4.355   2.789   0.640
 8745SOL     OW27133   5.877   1.848   6.255
 8745SOL    HW127134   5.867   1.778   6.327
 8745SOL    HW227135   5.887   1.803   6.167
 8746SOL     OW27136   5.324   5.825   4.560
 8746SOL    HW127137   5.307   5.915   4.520
 8746SOL    HW227138   5.294   5.753   4.497
 8747SOL     OW27139   0.482   1.504   2.707
 8747SOL    HW127140   0.450   1.582   2.654
 8747SOL    HW227141   0.569   1.471   2.670
 8748SOL     OW27142   0.454   1.496   5.008
 8748SOL    HW127143   0.377   1.548   5.045
 8748SOL    HW227144   0.422   1.433   4.937
 8749SOL     OW27145   1.901   0.182   5.692
 8749SOL    HW127146   1.846   0.192   5.775
 8749SOL    HW227147   1.997   0.176   5.717
 8750SOL     OW27148   3.482   3.734   5.803
 8750SOL    HW127149   3.560   3.742   5.865
 8750SOL    HW227150   3.399   3.763   5.851
 8751SOL     OW27151   6.737   1.664   2.461
 8751SOL    HW127152   6.687   1.725   2.399
 8751SOL    HW227153   6.822   1.636   2.417
 8752SOL     OW27154   3.471   2.659   6.789
 8752SOL    HW127155   3.409   2.606   6.731
 8752SOL    HW227156   3.566   2.637   6.764
 8753SOL     OW27157   2.978   2.210   6.361
 8753SOL    HW127158   2.939   2.272   6.429
 8753SOL    HW227159   3.001   2.262   6.278
 8754SOL     OW27160   1.906   4.576   5.414
 8754SOL    HW127161   1.908   4.608   5.319
 8754SOL    HW227162   1.958   4.492   5.422
 8755SOL     OW27163   2.091   0.548   0.932
 8755SOL    HW127164   2.013   0.562   0.992
 8755SOL    HW227165   2.147   0.631   0.929
 8756SOL     OW27166   2.007   3.293   3.163
 8756SOL    HW127167   2.079   3.240   3.118
 8756SOL    HW227168   2.040   3.386   3.180
 8757SOL     OW27169   4.653   5.583   6.830
 8757SOL    HW127170   4.687   5.674   6.851
 8757SOL    HW227171   4.691   5.517   6.895
 8758SOL     OW27172   4.626   6.329   2.803
 8758SOL    HW127173   4.699   6.330   2.871
 8758SOL    HW227174   4.551   6.271   2.835
 8759SOL     OW27175   5.594   3.228   0.154
 8759SOL    HW127176   5.552   3.140   0.177
 8759SOL    HW227177   5.648   3.218   0.070
 8760SOL     OW27178   2.498   0.583   4.455
 8760SOL    HW127179   2.422   0.556   4.514
 8760SOL    HW227180   2.474   0.666   4.406
 8761SOL     OW27181   5.990   2.155   1.228
 8761SOL    HW127182   5.911   2.112   1.185
 8761SOL    HW227183   6.043   2.206   1.160
 8762SOL     OW27184   0.496   5.231   4.665
 8762SOL    HW127185   0.555   5.300   4.621
 8762SOL    HW227186   0.480   5.156   4.601
 8763SOL     OW27187   6.027   0.113   5.693
 8763SOL    HW127188   5.929   0.132   5.699
 8763SOL    HW227189   6.078   0.198   5.708
 8764SOL     OW27190   4.337   6.542   5.823
 8764SOL    HW127191   4.302   6.601   5.896
 8764SOL    HW227192   4.312   6.581   5.734
 8765SOL     OW27193   4.993   0.692   4.130
 8765SOL    HW127194   4.968   0.662   4.222
 8765SOL    HW227195   5.072   0.640   4.099
 8766SOL     OW27196   4.357   4.284   5.286
 8766SOL    HW127197   4.336   4.372   5.243
 8766SOL    HW227198   4.281   4.221   5.271
 8767SOL     OW27199   5.173   6.710   2.850
 8767SOL    HW127200   5.163   6.610   2.858
 8767SOL    HW227201   5.131   6.754   2.929
 8768SOL     OW27202   1.053   2.768   0.345
 8768SOL    HW127203   1.026   2.859   0.314
 8768SOL    HW227204   1.151   2.767   0.363
 8769SOL     OW27205   6.913   1.362   3.223
 8769SOL    HW127206   6.963   1.351   3.137
 8769SOL    HW227207   6.837   1.425   3.210
 8770SOL     OW27208   4.651   4.433   2.234
 8770SOL    HW127209   4.750   4.420   2.236
 8770SOL    HW227210   4.615   4.408   2.144
 8771SOL     OW27211   1.142   2.075   6.210
 8771SOL    HW127212   1.130   2.071   6.111
 8771SOL    HW227213   1.198   1.998   6.240
 8772SOL     OW27214   4.558   0.312   6.443
 8772SOL    HW127215   4.463   0.325   6.413
 8772SOL    HW227216   4.563   0.320   6.542
 8773SOL     OW27217   5.690   2.677   3.286
 8773SOL    HW127218   5.728   2.760   3.245
 8773SOL    HW227219   5.591   2.675   3.270
 8774SOL     OW27220   1.409   0.412   0.490
 8774SOL    HW127221   1.337   0.462   0.443
 8774SOL    HW227222   1.468   0.476   0.540
 8775SOL     OW27223   5.337   0.936   5.859
 8775SOL    HW127224   5.345   1.036   5.855
 8775SOL    HW227225   5.362   0.905   5.951
 8776SOL     OW27226   4.772   3.453   0.898
 8776SOL    HW127227   4.749   3.373   0.953
 8776SOL    HW227228   4.704   3.524   0.913
 8777SOL     OW27229   6.758   4.537   3.267
 8777SOL    HW127230   6.742   4.499   3.358
 8777SOL    HW227231   6.676   4.522   3.210
 8778SOL     OW27232   5.063   2.809   5.669
 8778SOL    HW127233   5.051   2.896   5.718
 8778SOL    HW227234   5.129   2.753   5.718
 8779SOL     OW27235   2.669   5.730   2.398
 8779SOL    HW127236   2.623   5.726   2.309
 8779SOL    HW227237   2.674   5.639   2.438
 8780SOL     OW27238   6.941   0.269   2.768
 8780SOL    HW127239   6.901   0.285   2.678
 8780SOL    HW227240   0.006   0.317   2.775
 8781SOL     OW27241   4.905   0.373   3.694
 8781SOL    HW127242   4.924   0.462   3.734
 8781SOL    HW227243   4.828   0.380   3.630
 8782SOL     OW27244   6.633   0.734   1.382
 8782SOL    HW127245   6.579   0.799   1.437
 8782SOL    HW227246   6.706   0.696   1.438
 8783SOL     OW27247   6.869   4.126   3.143
 8783SOL    HW127248   6.796   4.155   3.081
 8783SOL    HW227249   6.830   4.110   3.234
 8784SOL     OW27250   0.020   6.607   6.154
 8784SOL    HW127251   0.014   6.541   6.079
 8784SOL    HW227252   7.009   6.564   6.238
 8785SOL     OW27253   6.304   5.354   6.770
 8785SOL    HW127254   6.240   5.282   6.798
 8785SOL    HW227255   6.390   5.313   6.742
 8786SOL     OW27256   2.929   1.401   1.226
 8786SOL    HW127257   2.997   1.461   1.185
 8786SOL    HW227258   2.844   1.407   1.174
 8787SOL     OW27259   2.953   1.098   2.445
 8787SOL    HW127260   2.930   1.195   2.442
 8787SOL    HW227261   3.052   1.088   2.455
 8788SOL     OW27262   0.064   1.221   5.208
 8788SOL    HW127263   7.004   1.170   5.232
 8788SOL    HW227264   0.145   1.170   5.236
 8789SOL     OW27265   6.516   5.113   5.383
 8789SOL    HW127266   6.598   5.056   5.391
 8789SOL    HW227267   6.438   5.066   5.426
 8790SOL     OW27268   5.985   1.004   6.191
 8790SOL    HW127269   6.079   1.018   6.161
 8790SOL    HW227270   5.964   0.906   6.189
 8791SOL     OW27271   4.888   6.769   5.198
 8791SOL    HW127272   4.955   6.752   5.126
 8791SOL    HW227273   4.892   6.697   5.266
 8792SOL     OW27274   3.279   5.124   2.881
 8792SOL    HW127275   3.364   5.169   2.856
 8792SOL    HW227276   3.256   5.147   2.976
 8793SOL     OW27277   0.785   5.171   2.723
 8793SOL    HW127278   0.789   5.145   2.627
 8793SOL    HW227279   0.690   5.188   2.749
 8794SOL     OW27280   5.639   0.762   3.140
 8794SOL    HW127281   5.722   0.801   3.102
 8794SOL    HW227282   5.650   0.663   3.149
 8795SOL     OW27283   1.289   4.702   5.706
 8795SOL    HW127284   1.208   4.707   5.764
 8795SOL    HW227285   1.371   4.714   5.762
 8796SOL     OW27286   5.292   2.925   3.177
 8796SOL    HW127287   5.239   2.968   3.104
 8796SOL    HW227288   5.229   2.882   3.242
 8797SOL     OW27289   0.108   6.835   5.965
 8797SOL    HW127290   0.039   6.858   6.035
 8797SOL    HW227291   0.176   6.773   6.003
 8798SOL     OW27292   4.557   6.236   6.877
 8798SOL    HW127293   4.560   6.313   6.941
 8798SOL    HW227294   4.462   6.220   6.849
 8799SOL     OW27295   2.389   5.040   3.708
 8799SOL    HW127296   2.291   5.052   3.696
 8799SOL    HW227297   2.411   5.040   3.806
 8800SOL     OW27298   5.349   5.151   6.421
 8800SOL    HW127299   5.410   5.184   6.349
 8800SOL    HW227300   5.298   5.228   6.460
 8801SOL     OW27301   5.851   1.607   4.804
 8801SOL    HW127302   5.938   1.627   4.848
 8801SOL    HW227303   5.866   1.555   4.720
 8802SOL     OW27304   1.601   5.995   5.971
 8802SOL    HW127305   1.696   5.976   5.947
 8802SOL    HW227306   1.594   6.009   6.070
 8803SOL     OW27307   6.990   0.078   0.503
 8803SOL    HW127308   6.917   0.053   0.439
 8803SOL    HW227309   0.020   0.154   0.466
 8804SOL     OW27310   2.449   6.095   1.423
 8804SOL    HW127311   2.410   6.179   1.386
 8804SOL    HW227312   2.454   6.026   1.351
 8805SOL     OW27313   3.568   5.635   3.343
 8805SOL    HW127314   3.572   5.609   3.247
 8805SOL    HW227315   3.591   5.556   3.400
 8806SOL     OW27316   2.739   4.957   0.906
 8806SOL    HW127317   2.709   5.051   0.892
 8806SOL    HW227318   2.745   4.938   1.005
 8807SOL     OW27319   4.662   1.496   0.254
 8807SOL    HW127320   4.586   1.448   0.298
 8807SOL    HW227321   4.685   1.451   0.168
 8808SOL     OW27322   6.639   2.321   6.226
 8808SOL    HW127323   6.580   2.398   6.201
 8808SOL    HW227324   6.614   2.241   6.173
 8809SOL     OW27325   2.700   4.640   3.384
 8809SOL    HW127326   2.643   4.627   3.465
 8809SOL    HW227327   2.736   4.733   3.383
 8810SOL     OW27328   5.926   0.338   5.009
 8810SOL    HW127329   5.939   0.437   5.012
 8810SOL    HW227330   6.009   0.295   4.975
 8811SOL     OW27331   3.001   0.640   3.175
 8811SOL    HW127332   3.036   0.720   3.224
 8811SOL    HW227333   3.032   0.644   3.080
 8812SOL     OW27334   2.327   0.508   0.360
 8812SOL    HW127335   2.423   0.531   0.377
 8812SOL    HW227336   2.280   0.495   0.448
 8813SOL     OW27337   1.846   5.297   2.924
 8813SOL    HW127338   1.944   5.287   2.944
 8813SOL    HW227339   1.793   5.262   3.001
 8814SOL     OW27340   6.193   0.085   0.645
 8814SOL    HW127341   6.222   0.006   0.591
 8814SOL    HW227342   6.095   0.100   0.632
 8815SOL     OW27343   5.729   0.036   1.191
 8815SOL    HW127344   5.825   0.042   1.163
 8815SOL    HW227345   5.677   7.005   1.124
 8816SOL     OW27346   0.882   6.760   6.652
 8816SOL    HW127347   0.912   6.716   6.568
 8816SOL    HW227348   0.851   6.691   6.717
 8817SOL     OW27349   0.054   4.098   3.545
 8817SOL    HW127350   0.063   4.152   3.461
 8817SOL    HW227351   7.013   4.145   3.607
 8818SOL     OW27352   1.515   5.617   3.741
 8818SOL    HW127353   1.437   5.672   3.712
 8818SOL    HW227354   1.493   5.520   3.732
 8819SOL     OW27355   6.310   5.022   5.525
 8819SOL    HW127356   6.326   5.089   5.598
 8819SOL    HW227357   6.297   4.931   5.566
 8820SOL     OW27358   2.620   1.028   5.346
 8820SOL    HW127359   2.648   0.934   5.363
 8820SOL    HW227360   2.543   1.051   5.406
 8821SOL     OW27361   1.411   5.535   0.675
 8821SOL    HW127362   1.423   5.495   0.766
 8821SOL    HW227363   1.420   5.635   0.681
 8822SOL     OW27364   0.487   0.568   3.465
 8822SOL    HW127365   0.552   0.562   3.389
 8822SOL    HW227366   0.502   0.653   3.515
 8823SOL     OW27367   1.998   1.068   2.373
 8823SOL    HW127368   1.959   1.149   2.418
 8823SOL    HW227369   2.071   1.096   2.311
 8824SOL     OW27370   1.585   1.168   0.489
 8824SOL    HW127371   1.645   1.142   0.413
 8824SOL    HW227372   1.593   1.266   0.505
 8825SOL     OW27373   1.388   1.403   1.550
 8825SOL    HW127374   1.487   1.394   1.555
 8825SOL    HW227375   1.364   1.499   1.536
 8826SOL     OW27376   0.998   3.639   1.042
 8826SOL    HW127377   1.031   3.710   1.103
 8826SOL    HW227378   1.004   3.671   0.947
 8827SOL     OW27379   4.236   0.241   2.914
 8827SOL    HW127380   4.161   0.197   2.965
 8827SOL    HW227381   4.320   0.238   2.969
 8828SOL     OW27382   4.123   4.882   6.776
 8828SOL    HW127383   4.050   4.858   6.840
 8828SOL    HW227384   4.166   4.799   6.742
 8829SOL     OW27385   5.554   1.833   1.143
 8829SOL    HW127386   5.552   1.819   1.043
 8829SOL    HW227387   5.468   1.799   1.182
 8830SOL     OW27388   2.376   1.535   2.688
 8830SOL    HW127389   2.353   1.632   2.689
 8830SOL    HW227390   2.350   1.496   2.600
 8831SOL     OW27391   5.733   2.712   2.913
 8831SOL    HW127392   5.800   2.785   2.931
 8831SOL    HW227393   5.780   2.625   2.905
 8832SOL     OW27394   5.998   5.874   3.628
 8832SOL    HW127395   5.940   5.954   3.617
 8832SOL    HW227396   6.018   5.860   3.725
 8833SOL     OW27397   3.321   4.564   6.295
 8833SOL    HW127398   3.362   4.480   6.260
 8833SOL    HW227399   3.235   4.542   6.340
 8834SOL     OW27400   5.661   3.636   4.198
 8834SOL    HW127401   5.629   3.549   4.233
 8834SOL    HW227402   5.743   3.621   4.142
 8835SOL     OW27403   5.113   0.765   6.116
 8835SOL    HW127404   5.117   0.861   6.142
 8835SOL    HW227405   5.111   0.756   6.017
 8836SOL     OW27406   4.584   1.465   1.048
 8836SOL    HW127407   4.673   1.421   1.039
 8836SOL    HW227408   4.518   1.399   1.085
 8837SOL     OW27409   0.077   0.063   2.773
 8837SOL    HW127410   0.030   6.998   2.788
 8837SOL    HW227411   0.012   0.138   2.787
 8838SOL     OW27412   1.849   4.311   3.630
 8838SOL    HW127413   1.880   4.363   3.710
 8838SOL    HW227414   1.909   4.232   3.617
 8839SOL     OW27415   4.199   6.383   2.142
 8839SOL    HW127416   4.180   6.466   2.194
 8839SOL    HW227417   4.138   6.378   2.063
 8840SOL     OW27418   0.060   0.783   2.070
 8840SOL    HW127419   0.112   0.864   2.043
 8840SOL    HW227420   0.030   0.793   2.165
 8841SOL     OW27421   6.408   1.688   4.090
 8841SOL    HW127422   6.321   1.645   4.114
 8841SOL    HW227423   6.394   1.751   4.014
 8842SOL     OW27424   3.233   3.613   3.454
 8842SOL    HW127425   3.304   3.681   3.438
 8842SOL    HW227426   3.145   3.658   3.464
 8843SOL     OW27427   1.988   3.560   3.917
 8843SOL    HW127428   1.964   3.598   3.827
 8843SOL    HW227429   1.956   3.465   3.923
 8844SOL     OW27430   6.487   1.312   4.824
 8844SOL    HW127431   6.408   1.293   4.766
 8844SOL    HW227432   6.499   1.410   4.834
 8845SOL     OW27433   2.268   4.128   0.723
 8845SOL    HW127434   2.294   4.036   0.695
 8845SOL    HW227435   2.181   4.124   0.774
 8846SOL     OW27436   3.344   4.906   4.413
 8846SOL    HW127437   3.279   4.964   4.462
 8846SOL    HW227438   3.424   4.890   4.469
 8847SOL     OW27439   2.518   1.000   3.090
 8847SOL    HW127440   2.539   1.017   2.994
 8847SOL    HW227441   2.583   0.933   3.127
 8848SOL     OW27442   3.273   2.142   2.459
 8848SOL    HW127443   3.215   2.157   2.380
 8848SOL    HW227444   3.354   2.200   2.452
 8849SOL     OW27445   3.603   5.226   3.169
 8849SOL    HW127446   3.600   5.326   3.176
 8849SOL    HW227447   3.688   5.192   3.210
 8850SOL     OW27448   2.328   0.827   6.999
 8850SOL    HW127449   2.272   0.840   6.917
 8850SOL    HW227450   2.271   0.789   0.050
 8851SOL     OW27451   1.081   5.118   1.807
 8851SOL    HW127452   1.129   5.031   1.818
 8851SOL    HW227453   1.098   5.176   1.887
 8852SOL     OW27454   4.383   3.961   5.805
 8852SOL    HW127455   4.449   3.974   5.878
 8852SOL    HW227456   4.305   4.023   5.819
 8853SOL     OW27457   3.304   0.538   5.889
 8853SOL    HW127458   3.360   0.482   5.826
 8853SOL    HW227459   3.364   0.579   5.958
 8854SOL     OW27460   3.449   1.474   6.318
 8854SOL    HW127461   3.498   1.517   6.242
 8854SOL    HW227462   3.354   1.458   6.292
 8855SOL     OW27463   6.609   6.144   0.230
 8855SOL    HW127464   6.630   6.221   0.290
 8855SOL    HW227465   6.525   6.163   0.179
 8856SOL     OW27466   6.545   0.893   5.862
 8856SOL    HW127467   6.557   0.983   5.902
 8856SOL    HW227468   6.547   0.900   5.762
 8857SOL     OW27469   6.624   2.346   4.205
 8857SOL    HW127470   6.696   2.399   4.249
 8857SOL    HW227471   6.584   2.282   4.271
 8858SOL     OW27472   1.319   2.470   5.526
 8858SOL    HW127473   1.382   2.405   5.483
 8858SOL    HW227474   1.353   2.493   5.617
 8859SOL     OW27475   6.793   0.995   4.320
 8859SOL    HW127476   6.862   0.941   4.368
 8859SOL    HW227477   6.719   1.018   4.383
 8860SOL     OW27478   1.097   3.638   3.076
 8860SOL    HW127479   1.175   3.612   3.018
 8860SOL    HW227480   1.121   3.624   3.172
 8861SOL     OW27481   3.567   1.892   5.841
 8861SOL    HW127482   3.549   1.911   5.744
 8861SOL    HW227483   3.613   1.970   5.882
 8862SOL     OW27484   6.193   0.530   3.256
 8862SOL    HW127485   6.105   0.578   3.254
 8862SOL    HW227486   6.178   0.435   3.283
 8863SOL     OW27487   1.065   5.725   3.978
 8863SOL    HW127488   1.056   5.789   4.054
 8863SOL    HW227489   1.071   5.631   4.014
 8864SOL     OW27490   2.407   2.648   6.168
 8864SOL    HW127491   2.386   2.551   6.159
 8864SOL    HW227492   2.476   2.661   6.238
 8865SOL     OW27493   3.219   1.503   5.801
 8865SOL    HW127494   3.314   1.529   5.785
 8865SOL    HW227495   3.171   1.577   5.847
 8866SOL     OW27496   4.631   6.811   3.538
 8866SOL    HW127497   4.621   6.801   3.439
 8866SOL    HW227498   4.728   6.818   3.561
 8867SOL     OW27499   5.365   3.800   2.306
 8867SOL    HW127500   5.347   3.846   2.219
 8867SOL    HW227501   5.364   3.868   2.380
 8868SOL     OW27502   6.363   3.506   0.260
 8868SOL    HW127503   6.347   3.456   0.174
 8868SOL    HW227504   6.447   3.473   0.302
 8869SOL     OW27505   4.362   5.682   4.215
 8869SOL    HW127506   4.366   5.598   4.160
 8869SOL    HW227507   4.321   5.755   4.161
 8870SOL     OW27508   4.391   0.237   0.535
 8870SOL    HW127509   4.400   0.315   0.473
 8870SOL    HW227510   4.373   0.271   0.628
 8871SOL     OW27511   0.722   0.769   3.723
 8871SOL    HW127512   0.804   0.713   3.722
 8871SOL    HW227513   0.666   0.748   3.642
 8872SOL     OW27514   1.495   4.878   5.026
 8872SOL    HW127515   1.558   4.847   5.097
 8872SOL    HW227516   1.504   4.977   5.014
 8873SOL     OW27517   0.731   5.801   2.106
 8873SOL    HW127518   0.708   5.756   2.020
 8873SOL    HW227519   0.668   5.772   2.177
 8874SOL     OW27520   2.916   6.450   1.841
 8874SOL    HW127521   2.893   6.355   1.818
 8874SOL    HW227522   2.906   6.507   1.760
 8875SOL     OW27523   6.221   3.870   4.497
 8875SOL    HW127524   6.318   3.850   4.513
 8875SOL    HW227525   6.195   3.836   4.406
 8876SOL     OW27526   1.944   0.303   4.126
 8876SOL    HW127527   1.952   0.218   4.074
 8876SOL    HW227528   2.022   0.362   4.105
 8877SOL     OW27529   2.575   1.626   4.237
 8877SOL    HW127530   2.527   1.679   4.167
 8877SOL    HW227531   2.664   1.597   4.202
 8878SOL     OW27532   6.934   5.862   0.445
 8878SOL    HW127533   6.958   5.843   0.540
 8878SOL    HW227534   6.945   5.779   0.390
 8879SOL     OW27535   5.098   4.627   1.699
 8879SOL    HW127536   5.027   4.669   1.756
 8879SOL    HW227537   5.070   4.535   1.673
 8880SOL     OW27538   5.772   5.274   4.642
 8880SOL    HW127539   5.800   5.256   4.548
 8880SOL    HW227540   5.757   5.188   4.690
 8881SOL     OW27541   6.385   6.697   4.599
 8881SOL    HW127542   6.363   6.759   4.524
 8881SOL    HW227543   6.327   6.719   4.678
 8882SOL     OW27544   5.509   1.430   1.038
 8882SOL    HW127545   5.445   1.459   1.109
 8882SOL    HW227546   5.470   1.449   0.948
 8883SOL     OW27547   1.978   6.862   5.556
 8883SOL    HW127548   1.980   6.789   5.489
 8883SOL    HW227549   1.938   6.944   5.515
 8884SOL     OW27550   5.992   4.486   6.439
 8884SOL    HW127551   5.896   4.515   6.443
 8884SOL    HW227552   6.051   4.560   6.471
 8885SOL     OW27553   0.644   3.235   0.509
 8885SOL    HW127554   0.601   3.171   0.572
 8885SOL    HW227555   0.574   3.294   0.468
 8886SOL     OW27556   3.562   5.996   5.180
 8886SOL    HW127557   3.593   5.925   5.243
 8886SOL    HW227558   3.470   6.026   5.207
 8887SOL     OW27559   3.123   1.638   1.613
 8887SOL    HW127560   3.076   1.591   1.538
 8887SOL    HW227561   3.086   1.730   1.623
 8888SOL     OW27562   1.411   1.394   0.249
 8888SOL    HW127563   1.433   1.427   0.341
 8888SOL    HW227564   1.316   1.364   0.247
 8889SOL     OW27565   5.633   6.973   5.101
 8889SOL    HW127566   5.714   7.017   5.139
 8889SOL    HW227567   5.554   0.012   5.109
 8890SOL     OW27568   6.188   5.283   3.662
 8890SOL    HW127569   6.258   5.253   3.728
 8890SOL    HW227570   6.218   5.367   3.617
 8891SOL     OW27571   5.334   3.554   5.560
 8891SOL    HW127572   5.425   3.586   5.585
 8891SOL    HW227573   5.330   3.538   5.461
 8892SOL     OW27574   3.879   5.923   3.458
 8892SOL    HW127575   3.960   5.883   3.414
 8892SOL    HW227576   3.800   5.865   3.441
 8893SOL     OW27577   0.845   6.700   2.703
 8893SOL    HW127578   0.940   6.675   2.686
 8893SOL    HW227579   0.796   6.710   2.616
 8894SOL     OW27580   3.978   2.356   5.502
 8894SOL    HW127581   3.985   2.453   5.479
 8894SOL    HW227582   3.993   2.344   5.600
 8895SOL     OW27583   6.560   1.807   1.744
 8895SOL    HW127584   6.480   1.770   1.791
 8895SOL    HW227585   6.590   1.742   1.673
 8896SOL     OW27586   1.663   3.225   5.469
 8896SOL    HW127587   1.622   3.285   5.401
 8896SOL    HW227588   1.630   3.131   5.456
 8897SOL     OW27589   1.861   2.955   3.335
 8897SOL    HW127590   1.823   3.031   3.282
 8897SOL    HW227591   1.856   2.977   3.433
 8898SOL     OW27592   5.559   3.847   3.819
 8898SOL    HW127593   5.505   3.931   3.827
 8898SOL    HW227594   5.574   3.825   3.723
 8899SOL     OW27595   1.956   4.697   0.094
 8899SOL    HW127596   1.947   4.630   0.020
 8899SOL    HW227597   2.051   4.700   0.125
 8900SOL     OW27598   5.688   3.020   2.099
 8900SOL    HW127599   5.725   2.948   2.157
 8900SOL    HW227600   5.609   3.061   2.143
 8901SOL     OW27601   1.723   1.577   4.619
 8901SOL    HW127602   1.806   1.550   4.570
 8901SOL    HW227603   1.744   1.590   4.716
 8902SOL     OW27604   2.560   6.834   0.953
 8902SOL    HW127605   2.587   6.787   0.869
 8902SOL    HW227606   2.461   6.849   0.953
 8903SOL     OW27607   0.794   1.516   4.720
 8903SOL    HW127608   0.706   1.501   4.676
 8903SOL    HW227609   0.866   1.471   4.667
 8904SOL     OW27610   5.985   5.529   3.678
 8904SOL    HW127611   6.028   5.442   3.703
 8904SOL    HW227612   6.035   5.570   3.601
 8905SOL     OW27613   1.920   4.573   4.299
 8905SOL    HW127614   1.848   4.633   4.262
 8905SOL    HW227615   2.009   4.618   4.289
 8906SOL     OW27616   6.810   6.858   6.478
 8906SOL    HW127617   6.819   6.760   6.496
 8906SOL    HW227618   6.725   6.892   6.519
 8907SOL     OW27619   3.128   2.174   4.429
 8907SOL    HW127620   3.052   2.233   4.401
 8907SOL    HW227621   3.116   2.083   4.389
 8908SOL     OW27622   0.882   3.750   6.893
 8908SOL    HW127623   0.974   3.787   6.907
 8908SOL    HW227624   0.889   3.664   6.841
 8909SOL     OW27625   2.109   0.405   5.478
 8909SOL    HW127626   2.175   0.363   5.539
 8909SOL    HW227627   2.017   0.397   5.516
 8910SOL     OW27628   0.683   2.611   5.762
 8910SOL    HW127629   0.665   2.582   5.669
 8910SOL    HW227630   0.638   2.550   5.826
 8911SOL     OW27631   4.425   2.339   4.908
 8911SOL    HW127632   4.494   2.411   4.911
 8911SOL    HW227633   4.339   2.373   4.946
 8912SOL     OW27634   4.081   2.779   0.993
 8912SOL    HW127635   4.017   2.728   1.050
 8912SOL    HW227636   4.044   2.787   0.900
 8913SOL     OW27637   4.903   5.001   6.818
 8913SOL    HW127638   4.955   4.954   6.747
 8913SOL    HW227639   4.945   5.091   6.835
 8914SOL     OW27640   3.979   0.742   4.637
 8914SOL    HW127641   3.955   0.836   4.661
 8914SOL    HW227642   3.988   0.735   4.537
 8915SOL     OW27643   0.862   2.804   3.768
 8915SOL    HW127644   0.769   2.829   3.795
 8915SOL    HW227645   0.896   2.733   3.830
 8916SOL     OW27646   6.745   4.160   0.452
 8916SOL    HW127647   6.749   4.182   0.354
 8916SOL    HW227648   6.670   4.095   0.468
 8917SOL     OW27649   6.467   4.435   6.189
 8917SOL    HW127650   6.515   4.461   6.106
 8917SOL    HW227651   6.487   4.501   6.262
 8918SOL     OW27652   6.826   3.818   0.882
 8918SOL    HW127653   6.860   3.778   0.797
 8918SOL    HW227654   6.800   3.914   0.866
 8919SOL     OW27655   3.907   3.802   0.538
 8919SOL    HW127656   3.938   3.891   0.570
 8919SOL    HW227657   3.815   3.811   0.499
 8920SOL     OW27658   1.167   6.852   0.266
 8920SOL    HW127659   1.218   6.928   0.225
 8920SOL    HW227660   1.148   6.784   0.196
 8921SOL     OW27661   2.492   2.181   2.559
 8921SOL    HW127662   2.509   2.083   2.567
 8921SOL    HW227663   2.579   2.229   2.547
 8922SOL     OW27664   3.615   4.957   1.130
 8922SOL    HW127665   3.529   4.908   1.134
 8922SOL    HW227666   3.663   4.950   1.218
 8923SOL     OW27667   1.227   2.905   6.204
 8923SOL    HW127668   1.317   2.930   6.167
 8923SOL    HW227669   1.225   2.923   6.303
 8924SOL     OW27670   3.292   6.026   5.980
 8924SOL    HW127671   3.325   5.940   5.942
 8924SOL    HW227672   3.228   6.069   5.916
 8925SOL     OW27673   0.563   1.251   2.514
 8925SOL    HW127674   0.606   1.167   2.481
 8925SOL    HW227675   0.567   1.321   2.442
 8926SOL     OW27676   5.571   4.047   6.225
 8926SOL    HW127677   5.578   4.123   6.290
 8926SOL    HW227678   5.614   3.965   6.265
 8927SOL     OW27679   1.068   1.461   4.660
 8927SOL    HW127680   1.112   1.387   4.710
 8927SOL    HW227681   1.039   1.429   4.570
 8928SOL     OW27682   0.103   1.063   5.811
 8928SOL    HW127683   0.090   1.001   5.734
 8928SOL    HW227684   0.051   1.029   5.890
 8929SOL     OW27685   6.700   3.780   4.205
 8929SOL    HW127686   6.767   3.706   4.206
 8929SOL    HW227687   6.654   3.782   4.116
 8930SOL     OW27688   1.720   4.041   4.739
 8930SOL    HW127689   1.794   4.003   4.794
 8930SOL    HW227690   1.719   4.141   4.749
 8931SOL     OW27691   3.116   3.056   1.271
 8931SOL    HW127692   3.171   3.004   1.337
 8931SOL    HW227693   3.135   3.023   1.179
 8932SOL     OW27694   5.250   0.172   0.353
 8932SOL    HW127695   5.244   0.227   0.435
 8932SOL    HW227696   5.294   0.085   0.374
 8933SOL     OW27697   1.452   2.957   6.077
 8933SOL    HW127698   1.503   3.025   6.025
 8933SOL    HW227699   1.515   2.887   6.111
 8934SOL     OW27700   2.918   5.383   4.438
 8934SOL    HW127701   2.829   5.428   4.439
 8934SOL    HW227702   2.910   5.295   4.484
 8935SOL     OW27703   5.844   3.865   1.495
 8935SOL    HW127704   5.791   3.836   1.415
 8935SOL    HW227705   5.787   3.856   1.577
 8936SOL     OW27706   1.520   3.507   1.039
 8936SOL    HW127707   1.423   3.493   1.059
 8936SOL    HW227708   1.544   3.458   0.955
 8937SOL     OW27709   0.135   0.244   4.646
 8937SOL    HW127710   0.092   0.294   4.722
 8937SOL    HW227711   0.208   0.300   4.606
 8938SOL     OW27712   6.835   1.016   0.222
 8938SOL    HW127713   6.907   0.985   0.284
 8938SOL    HW227714   6.750   1.030   0.273
 8939SOL     OW27715   5.831   3.807   4.733
 8939SOL    HW127716   5.775   3.740   4.685
 8939SOL    HW227717   5.925   3.775   4.738
 8940SOL     OW27718   5.907   1.414   1.401
 8940SOL    HW127719   5.869   1.401   1.310
 8940SOL    HW227720   5.839   1.387   1.469
 8941SOL     OW27721   6.512   2.648   3.055
 8941SOL    HW127722   6.437   2.633   3.120
 8941SOL    HW227723   6.488   2.608   2.967
 8942SOL     OW27724   0.880   5.582   5.522
 8942SOL    HW127725   0.782   5.563   5.523
 8942SOL    HW227726   0.914   5.577   5.429
 8943SOL     OW27727   3.843   5.428   0.120
 8943SOL    HW127728   3.927   5.477   0.095
 8943SOL    HW227729   3.778   5.493   0.159
 8944SOL     OW27730   5.061   6.019   4.833
 8944SOL    HW127731   5.120   5.951   4.876
 8944SOL    HW227732   4.974   6.023   4.881
 8945SOL     OW27733   6.848   2.272   4.382
 8945SOL    HW127734   6.916   2.250   4.311
 8945SOL    HW227735   6.771   2.209   4.375
 8946SOL     OW27736   4.076   1.072   4.139
 8946SOL    HW127737   4.003   1.116   4.192
 8946SOL    HW227738   4.126   1.009   4.198
 8947SOL     OW27739   1.895   3.124   5.577
 8947SOL    HW127740   1.895   3.024   5.577
 8947SOL    HW227741   1.807   3.157   5.543
 8948SOL     OW27742   6.082   6.025   3.200
 8948SOL    HW127743   6.063   6.109   3.252
 8948SOL    HW227744   6.059   5.945   3.257
 8949SOL     OW27745   3.889   5.856   0.424
 8949SOL    HW127746   3.968   5.903   0.465
 8949SOL    HW227747   3.868   5.774   0.477
 8950SOL     OW27748   4.217   3.192   1.069
 8950SOL    HW127749   4.293   3.258   1.073
 8950SOL    HW227750   4.151   3.222   1.001
 8951SOL     OW27751   2.019   0.715   4.704
 8951SOL    HW127752   1.928   0.698   4.742
 8951SOL    HW227753   2.054   0.801   4.741
 8952SOL     OW27754   0.725   5.143   3.565
 8952SOL    HW127755   0.730   5.082   3.487
 8952SOL    HW227756   0.688   5.093   3.644
 8953SOL     OW27757   0.397   4.924   0.990
 8953SOL    HW127758   0.386   4.985   1.068
 8953SOL    HW227759   0.475   4.863   1.005
 8954SOL     OW27760   0.081   0.260   4.184
 8954SOL    HW127761   0.045   0.309   4.104
 8954SOL    HW227762   0.085   0.162   4.163
 8955SOL     OW27763   6.887   5.019   3.220
 8955SOL    HW127764   6.868   5.047   3.314
 8955SOL    HW227765   6.852   4.927   3.205
 8956SOL     OW27766   1.517   1.241   5.625
 8956SOL    HW127767   1.572   1.269   5.703
 8956SOL    HW227768   1.576   1.207   5.552
 8957SOL     OW27769   2.303   4.629   1.098
 8957SOL    HW127770   2.276   4.580   1.181
 8957SOL    HW227771   2.275   4.725   1.105
 8958SOL     OW27772   0.823   2.380   5.525
 8958SOL    HW127773   0.850   2.297   5.574
 8958SOL    HW227774   0.885   2.455   5.550
 8959SOL     OW27775   1.810   4.150   2.744
 8959SOL    HW127776   1.891   4.111   2.789
 8959SOL    HW227777   1.839   4.212   2.671
 8960SOL     OW27778   5.346   5.413   4.010
 8960SOL    HW127779   5.373   5.359   4.090
 8960SOL    HW227780   5.249   5.434   4.015
 8961SOL     OW27781   3.467   1.151   3.948
 8961SOL    HW127782   3.419   1.064   3.935
 8961SOL    HW227783   3.565   1.137   3.936
 8962SOL     OW27784   6.353   5.157   1.862
 8962SOL    HW127785   6.309   5.201   1.784
 8962SOL    HW227786   6.411   5.082   1.830
 8963SOL     OW27787   3.720   6.410   4.805
 8963SOL    HW127788   3.641   6.421   4.744
 8963SOL    HW227789   3.771   6.328   4.779
 8964SOL     OW27790   6.134   2.862   2.837
 8964SOL    HW127791   6.167   2.781   2.789
 8964SOL    HW227792   6.202   2.890   2.905
 8965SOL     OW27793   2.566   5.271   0.008
 8965SOL    HW127794   2.568   5.354   0.064
 8965SOL    HW227795   2.472   5.253   7.002
 8966SOL     OW27796   6.603   4.251   0.681
 8966SOL    HW127797   6.660   4.251   0.599
 8966SOL    HW227798   6.645   4.194   0.751
 8967SOL     OW27799   3.930   0.692   2.219
 8967SOL    HW127800   3.927   0.679   2.318
 8967SOL    HW227801   3.870   0.624   2.175
 8968SOL     OW27802   4.335   6.022   2.019
 8968SOL    HW127803   4.378   6.068   1.942
 8968SOL    HW227804   4.270   5.954   1.985
 8969SOL     OW27805   0.132   0.430   3.718
 8969SOL    HW127806   0.219   0.393   3.684
 8969SOL    HW227807   0.070   0.443   3.641
 8970SOL     OW27808   2.140   2.647   6.379
 8970SOL    HW127809   2.186   2.564   6.410
 8970SOL    HW227810   2.179   2.726   6.425
 8971SOL     OW27811   5.639   5.799   1.324
 8971SOL    HW127812   5.650   5.871   1.256
 8971SOL    HW227813   5.616   5.713   1.278
 8972SOL     OW27814   4.763   3.791   0.641
 8972SOL    HW127815   4.725   3.862   0.583
 8972SOL    HW227816   4.794   3.831   0.727
 8973SOL     OW27817   6.802   2.964   3.116
 8973SOL    HW127818   6.760   2.907   3.045
 8973SOL    HW227819   6.851   3.040   3.072
 8974SOL     OW27820   1.828   3.332   3.801
 8974SOL    HW127821   1.901   3.273   3.765
 8974SOL    HW227822   1.815   3.410   3.740
 8975SOL     OW27823   0.844   6.056   6.846
 8975SOL    HW127824   0.774   6.043   6.916
 8975SOL    HW227825   0.801   6.063   6.756
 8976SOL     OW27826   6.912   5.634   0.303
 8976SOL    HW127827   6.952   5.542   0.305
 8976SOL    HW227828   6.840   5.637   0.234
 8977SOL     OW27829   6.728   3.699   6.641
 8977SOL    HW127830   6.638   3.738   6.657
 8977SOL    HW227831   6.782   3.762   6.586
 8978SOL     OW27832   5.945   6.961   4.752
 8978SOL    HW127833   5.852   6.928   4.765
 8978SOL    HW227834   5.943   0.021   4.695
 8979SOL     OW27835   1.510   4.742   6.252
 8979SOL    HW127836   1.606   4.715   6.243
 8979SOL    HW227837   1.453   4.681   6.197
 8980SOL     OW27838   4.920   3.001   5.517
 8980SOL    HW127839   4.942   2.905   5.534
 8980SOL    HW227840   4.842   3.028   5.573
 8981SOL     OW27841   4.803   1.893   5.631
 8981SOL    HW127842   4.817   1.967   5.697
 8981SOL    HW227843   4.861   1.908   5.551
 8982SOL     OW27844   0.486   1.885   0.801
 8982SOL    HW127845   0.493   1.795   0.758
 8982SOL    HW227846   0.391   1.901   0.829
 8983SOL     OW27847   0.282   5.793   0.945
 8983SOL    HW127848   0.247   5.701   0.959
 8983SOL    HW227849   0.208   5.852   0.914
 8984SOL     OW27850   6.452   6.202   3.948
 8984SOL    HW127851   6.422   6.245   3.862
 8984SOL    HW227852   6.391   6.126   3.969
 8985SOL     OW27853   2.717   1.934   1.064
 8985SOL    HW127854   2.635   1.992   1.057
 8985SOL    HW227855   2.718   1.890   1.154
 8986SOL     OW27856   4.035   5.302   2.816
 8986SOL    HW127857   4.113   5.358   2.846
 8986SOL    HW227858   4.068   5.216   2.778
 8987SOL     OW27859   2.792   0.473   1.514
 8987SOL    HW127860   2.886   0.491   1.484
 8987SOL    HW227861   2.733   0.461   1.434
 8988SOL     OW27862   2.371   4.487   0.396
 8988SOL    HW127863   2.338   4.444   0.481
 8988SOL    HW227864   2.469   4.471   0.386
 8989SOL     OW27865   5.090   3.826   1.880
 8989SOL    HW127866   4.997   3.846   1.912
 8989SOL    HW227867   5.145   3.794   1.957
 8990SOL     OW27868   2.774   5.337   1.803
 8990SOL    HW127869   2.783   5.246   1.844
 8990SOL    HW227870   2.698   5.385   1.846
 8991SOL     OW27871   2.372   1.178   0.807
 8991SOL    HW127872   2.323   1.181   0.720
 8991SOL    HW227873   2.386   1.271   0.840
 8992SOL     OW27874   6.801   2.374   6.715
 8992SOL    HW127875   6.897   2.348   6.726
 8992SOL    HW227876   6.782   2.388   6.618
 8993SOL     OW27877   4.673   2.654   2.404
 8993SOL    HW127878   4.599   2.602   2.362
 8993SOL    HW227879   4.715   2.714   2.335
 8994SOL     OW27880   0.767   6.050   4.566
 8994SOL    HW127881   0.789   6.024   4.472
 8994SOL    HW227882   0.814   6.135   4.589
 8995SOL     OW27883   1.040   2.623   5.590
 8995SOL    HW127884   1.017   2.716   5.619
 8995SOL    HW227885   1.098   2.580   5.658
 8996SOL     OW27886   0.516   4.681   2.118
 8996SOL    HW127887   0.475   4.607   2.171
 8996SOL    HW227888   0.548   4.646   2.030
 8997SOL     OW27889   4.290   1.224   6.461
 8997SOL    HW127890   4.334   1.304   6.421
 8997SOL    HW227891   4.192   1.238   6.465
 8998SOL     OW27892   0.674   2.552   4.091
 8998SOL    HW127893   0.662   2.650   4.108
 8998SOL    HW227894   0.585   2.507   4.094
 8999SOL     OW27895   3.675   0.405   6.689
 8999SOL    HW127896   3.602   0.421   6.755
 8999SOL    HW227897   3.699   0.491   6.644
 9000SOL     OW27898   2.120   4.330   6.496
 9000SOL    HW127899   2.082   4.373   6.578
 9000SOL    HW227900   2.173   4.398   6.445
 9001SOL     OW27901   1.482   5.406   3.100
 9001SOL    HW127902   1.545   5.329   3.087
 9001SOL    HW227903   1.502   5.450   3.187
 9002SOL     OW27904   0.875   5.156   4.880
 9002SOL    HW127905   0.877   5.223   4.806
 9002SOL    HW227906   0.967   5.118   4.893
 9003SOL     OW27907   5.486   2.663   1.286
 9003SOL    HW127908   5.525   2.730   1.222
 9003SOL    HW227909   5.457   2.709   1.369
 9004SOL     OW27910   4.252   6.775   1.842
 9004SOL    HW127911   4.153   6.771   1.855
 9004SOL    HW227912   4.274   6.850   1.779
 9005SOL     OW27913   5.924   2.164   4.380
 9005SOL    HW127914   5.998   2.097   4.378
 9005SOL    HW227915   5.872   2.159   4.295
 9006SOL     OW27916   1.093   6.023   1.082
 9006SOL    HW127917   1.043   6.082   1.145
 9006SOL    HW227918   1.189   6.016   1.112
 9007SOL     OW27919   3.582   5.970   4.065
 9007SOL    HW127920   3.488   5.938   4.061
 9007SOL    HW227921   3.625   5.960   3.975
 9008SOL     OW27922   6.722   5.346   2.593
 9008SOL    HW127923   6.751   5.250   2.597
 9008SOL    HW227924   6.764   5.390   2.514
 9009SOL     OW27925   2.461   6.749   0.363
 9009SOL    HW127926   2.492   6.825   0.419
 9009SOL    HW227927   2.530   6.676   0.366
 9010SOL     OW27928   1.101   0.108   4.607
 9010SOL    HW127929   1.059   0.124   4.519
 9010SOL    HW227930   1.031   0.084   4.674
 9011SOL     OW27931   4.085   1.844   1.585
 9011SOL    HW127932   4.151   1.869   1.656
 9011SOL    HW227933   4.009   1.908   1.587
 9012SOL     OW27934   2.816   4.969   1.189
 9012SOL    HW127935   2.767   4.937   1.270
 9012SOL    HW227936   2.848   5.062   1.203
 9013SOL     OW27937   6.199   6.116   4.489
 9013SOL    HW127938   6.163   6.181   4.556
 9013SOL    HW227939   6.260   6.164   4.426
 9014SOL     OW27940   1.563   1.087   6.973
 9014SOL    HW127941   1.596   1.167   0.001
 9014SOL    HW227942   1.575   1.005   0.007
 9015SOL     OW27943   6.319   0.864   0.432
 9015SOL    HW127944   6.241   0.802   0.439
 9015SOL    HW227945   6.371   0.862   0.518
 9016SOL     OW27946   6.893   6.488   6.361
 9016SOL    HW127947   6.836   6.542   6.423
 9016SOL    HW227948   6.985   6.480   6.399
 9017SOL     OW27949   5.206   2.817   2.485
 9017SOL    HW127950   5.214   2.722   2.454
 9017SOL    HW227951   5.144   2.822   2.563
 9018SOL     OW27952   4.392   1.378   5.486
 9018SOL    HW127953   4.331   1.315   5.438
 9018SOL    HW227954   4.482   1.378   5.441
 9019SOL     OW27955   1.093   0.276   1.009
 9019SOL    HW127956   1.032   0.200   1.033
 9019SOL    HW227957   1.188   0.245   1.014
 9020SOL     OW27958   1.525   3.489   1.997
 9020SOL    HW127959   1.484   3.563   1.943
 9020SOL    HW227960   1.476   3.404   1.981
 9021SOL     OW27961   6.134   0.167   3.802
 9021SOL    HW127962   6.229   0.165   3.832
 9021SOL    HW227963   6.074   0.152   3.879
 9022SOL     OW27964   2.636   0.465   1.256
 9022SOL    HW127965   2.570   0.396   1.288
 9022SOL    HW227966   2.673   0.438   1.168
 9023SOL     OW27967   3.949   3.031   2.854
 9023SOL    HW127968   3.867   2.979   2.828
 9023SOL    HW227969   3.988   3.075   2.773
 9024SOL     OW27970   1.454   5.696   6.530
 9024SOL    HW127971   1.381   5.628   6.526
 9024SOL    HW227972   1.421   5.782   6.492
 9025SOL     OW27973   6.599   5.909   0.834
 9025SOL    HW127974   6.610   5.809   0.840
 9025SOL    HW227975   6.611   5.938   0.739
 9026SOL     OW27976   3.755   3.226   2.824
 9026SOL    HW127977   3.661   3.192   2.827
 9026SOL    HW227978   3.818   3.149   2.838
 9027SOL     OW27979   2.374   1.827   3.369
 9027SOL    HW127980   2.312   1.783   3.305
 9027SOL    HW227981   2.395   1.764   3.444
 9028SOL     OW27982   2.252   4.038   6.015
 9028SOL    HW127983   2.269   4.106   5.943
 9028SOL    HW227984   2.256   4.082   6.104
 9029SOL     OW27985   3.057   5.555   5.157
 9029SOL    HW127986   3.128   5.512   5.213
 9029SOL    HW227987   3.094   5.573   5.066
 9030SOL     OW27988   1.876   0.987   2.953
 9030SOL    HW127989   1.891   0.895   2.918
 9030SOL    HW227990   1.800   0.986   3.017
 9031SOL     OW27991   5.005   5.120   5.375
 9031SOL    HW127992   5.064   5.188   5.419
 9031SOL    HW227993   5.062   5.052   5.329
 9032SOL     OW27994   3.846   3.037   1.069
 9032SOL    HW127995   3.892   3.014   0.983
 9032SOL    HW227996   3.772   2.971   1.086
 9033SOL     OW27997   1.901   3.924   3.464
 9033SOL    HW127998   1.854   3.885   3.544
 9033SOL    HW227999   1.963   3.996   3.494
 9034SOL     OW28000   3.342   0.020   4.815
 9034SOL    HW128001   3.318   6.979   4.742
 9034SOL    HW228002   3.295   0.107   4.801
 9035SOL     OW28003   1.255   6.308   5.544
 9035SOL    HW128004   1.214   6.230   5.591
 9035SOL    HW228005   1.326   6.275   5.481
 9036SOL     OW28006   1.455   1.310   4.574
 9036SOL    HW128007   1.529   1.243   4.572
 9036SOL    HW228008   1.471   1.380   4.504
 9037SOL     OW28009   1.322   4.445   6.305
 9037SOL    HW128010   1.369   4.476   6.223
 9037SOL    HW228011   1.342   4.348   6.320
 9038SOL     OW28012   4.560   0.620   4.960
 9038SOL    HW128013   4.545   0.545   4.895
 9038SOL    HW228014   4.637   0.596   5.020
 9039SOL     OW28015   1.605   4.539   4.863
 9039SOL    HW128016   1.563   4.540   4.954
 9039SOL    HW228017   1.607   4.633   4.827
 9040SOL     OW28018   2.760   1.694   3.310
 9040SOL    HW128019   2.763   1.781   3.360
 9040SOL    HW228020   2.826   1.695   3.236
 9041SOL     OW28021   0.515   2.313   1.857
 9041SOL    HW128022   0.584   2.285   1.924
 9041SOL    HW228023   0.481   2.233   1.809
 9042SOL     OW28024   3.385   6.496   3.967
 9042SOL    HW128025   3.425   6.431   3.903
 9042SOL    HW228026   3.324   6.558   3.917
 9043SOL     OW28027   2.002   0.849   5.968
 9043SOL    HW128028   2.076   0.910   5.939
 9043SOL    HW228029   1.921   0.866   5.912
 9044SOL     OW28030   6.603   1.171   1.297
 9044SOL    HW128031   6.618   1.090   1.240
 9044SOL    HW228032   6.606   1.144   1.394
 9045SOL     OW28033   3.754   1.778   2.461
 9045SOL    HW128034   3.725   1.697   2.410
 9045SOL    HW228035   3.711   1.778   2.551
 9046SOL     OW28036   3.398   3.529   4.253
 9046SOL    HW128037   3.363   3.437   4.268
 9046SOL    HW228038   3.498   3.528   4.257
 9047SOL     OW28039   1.775   3.348   5.105
 9047SOL    HW128040   1.852   3.398   5.065
 9047SOL    HW228041   1.794   3.250   5.105
 9048SOL     OW28042   5.887   3.003   6.309
 9048SOL    HW128043   5.861   3.100   6.299
 9048SOL    HW228044   5.985   2.994   6.295
 9049SOL     OW28045   4.265   6.671   6.196
 9049SOL    HW128046   4.301   6.706   6.109
 9049SOL    HW228047   4.166   6.657   6.187
 9050SOL     OW28048   0.283   5.174   5.867
 9050SOL    HW128049   0.193   5.218   5.860
 9050SOL    HW228050   0.350   5.226   5.814
 9051SOL     OW28051   4.591   6.186   1.170
 9051SOL    HW128052   4.689   6.205   1.159
 9051SOL    HW228053   4.549   6.177   1.080
 9052SOL     OW28054   1.851   3.069   3.588
 9052SOL    HW128055   1.887   2.991   3.638
 9052SOL    HW228056   1.921   3.141   3.583
 9053SOL     OW28057   2.194   1.630   3.251
 9053SOL    HW128058   2.256   1.576   3.194
 9053SOL    HW228059   2.161   1.573   3.327
 9054SOL     OW28060   1.257   0.093   2.183
 9054SOL    HW128061   1.299   0.144   2.258
 9054SOL    HW228062   1.157   0.104   2.187
 9055SOL     OW28063   6.914   3.842   3.134
 9055SOL    HW128064   6.982   3.830   3.206
 9055SOL    HW228065   6.882   3.937   3.133
 9056SOL     OW28066   5.991   0.178   1.992
 9056SOL    HW128067   5.958   0.225   1.910
 9056SOL    HW228068   5.934   0.097   2.008
 9057SOL     OW28069   5.912   5.592   6.059
 9057SOL    HW128070   5.906   5.686   6.092
 9057SOL    HW228071   5.992   5.548   6.100
 9058SOL     OW28072   1.539   2.022   3.530
 9058SOL    HW128073   1.589   2.108   3.542
 9058SOL    HW228074   1.489   2.025   3.443
 9059SOL     OW28075   0.332   1.463   4.359
 9059SOL    HW128076   0.353   1.558   4.335
 9059SOL    HW228077   0.413   1.406   4.343
 9060SOL     OW28078   0.160   3.302   1.661
 9060SOL    HW128079   0.077   3.276   1.613
 9060SOL    HW228080   0.150   3.283   1.759
 9061SOL     OW28081   3.926   5.616   2.335
 9061SOL    HW128082   4.019   5.607   2.298
 9061SOL    HW228083   3.859   5.590   2.266
 9062SOL     OW28084   1.857   5.009   2.380
 9062SOL    HW128085   1.876   5.107   2.392
 9062SOL    HW228086   1.786   4.981   2.444
 9063SOL     OW28087   2.500   0.313   2.864
 9063SOL    HW128088   2.482   0.230   2.811
 9063SOL    HW228089   2.414   0.363   2.879
 9064SOL     OW28090   5.898   3.683   4.009
 9064SOL    HW128091   5.910   3.775   4.044
 9064SOL    HW228092   5.980   3.656   3.958
 9065SOL     OW28093   3.627   5.391   6.897
 9065SOL    HW128094   3.586   5.308   6.860
 9065SOL    HW228095   3.677   5.369   6.981
 9066SOL     OW28096   5.902   0.610   0.305
 9066SOL    HW128097   5.937   0.621   0.212
 9066SOL    HW228098   5.815   0.659   0.314
 9067SOL     OW28099   6.054   7.007   5.002
 9067SOL    HW128100   6.012   6.982   4.914
 9067SOL    HW228101   6.052   6.928   5.063
 9068SOL     OW28102   2.953   0.350   5.182
 9068SOL    HW128103   2.913   0.261   5.156
 9068SOL    HW228104   2.998   0.390   5.103
 9069SOL     OW28105   3.344   2.282   1.698
 9069SOL    HW128106   3.389   2.218   1.759
 9069SOL    HW228107   3.407   2.355   1.673
 9070SOL     OW28108   0.469   3.235   6.166
 9070SOL    HW128109   0.521   3.225   6.251
 9070SOL    HW228110   0.523   3.201   6.090
 9071SOL     OW28111   4.796   6.738   0.754
 9071SOL    HW128112   4.866   6.686   0.704
 9071SOL    HW228113   4.733   6.675   0.799
 9072SOL     OW28114   6.092   0.799   1.893
 9072SOL    HW128115   6.073   0.794   1.991
 9072SOL    HW228116   6.018   0.848   1.847
 9073SOL     OW28117   3.620   6.306   0.860
 9073SOL    HW128118   3.712   6.291   0.898
 9073SOL    HW228119   3.559   6.339   0.932
 9074SOL     OW28120   1.814   0.566   1.664
 9074SOL    HW128121   1.807   0.635   1.736
 9074SOL    HW228122   1.809   0.610   1.575
 9075SOL     OW28123   0.942   0.063   1.085
 9075SOL    HW128124   0.973   6.992   1.102
 9075SOL    HW228125   0.881   0.092   1.159
 9076SOL     OW28126   5.420   1.189   4.957
 9076SOL    HW128127   5.427   1.267   5.019
 9076SOL    HW228128   5.398   1.222   4.865
 9077SOL     OW28129   5.746   1.014   6.624
 9077SOL    HW128130   5.695   0.964   6.554
 9077SOL    HW228131   5.684   1.076   6.672
 9078SOL     OW28132   5.167   3.584   0.565
 9078SOL    HW128133   5.219   3.507   0.530
 9078SOL    HW228134   5.085   3.550   0.612
 9079SOL     OW28135   1.882   6.451   4.136
 9079SOL    HW128136   1.953   6.397   4.182
 9079SOL    HW228137   1.854   6.404   4.052
 9080SOL     OW28138   5.654   2.679   6.981
 9080SOL    HW128139   5.679   2.769   7.017
 9080SOL    HW228140   5.734   2.638   6.937
 9081SOL     OW28141   3.609   0.016   2.413
 9081SOL    HW128142   3.658   7.015   2.329
 9081SOL    HW228143   3.670   0.006   2.491
 9082SOL     OW28144   2.754   6.834   5.806
 9082SOL    HW128145   2.669   6.882   5.784
 9082SOL    HW228146   2.747   6.795   5.898
 9083SOL     OW28147   3.934   4.156   5.472
 9083SOL    HW128148   3.855   4.145   5.412
 9083SOL    HW228149   3.931   4.088   5.545
 9084SOL     OW28150   2.736   2.740   6.114
 9084SOL    HW128151   2.813   2.685   6.148
 9084SOL    HW228152   2.746   2.754   6.016
 9085SOL     OW28153   1.366   5.080   0.518
 9085SOL    HW128154   1.340   5.144   0.445
 9085SOL    HW228155   1.291   5.015   0.533
 9086SOL     OW28156   6.632   4.499   1.005
 9086SOL    HW128157   6.611   4.420   0.948
 9086SOL    HW228158   6.561   4.568   0.995
 9087SOL     OW28159   4.548   2.744   1.771
 9087SOL    HW128160   4.591   2.757   1.861
 9087SOL    HW228161   4.481   2.816   1.756
 9088SOL     OW28162   6.796   6.225   0.989
 9088SOL    HW128163   6.756   6.136   1.007
 9088SOL    HW228164   6.895   6.222   1.008
 9089SOL     OW28165   4.599   6.052   5.438
 9089SOL    HW128166   4.563   6.075   5.347
 9089SOL    HW228167   4.600   5.953   5.449
 9090SOL     OW28168   6.396   6.359   3.744
 9090SOL    HW128169   6.372   6.420   3.819
 9090SOL    HW228170   6.421   6.413   3.663
 9091SOL     OW28171   2.759   3.870   0.684
 9091SOL    HW128172   2.787   3.914   0.599
 9091SOL    HW228173   2.679   3.813   0.667
 9092SOL     OW28174   0.128   0.991   0.665
 9092SOL    HW128175   0.155   1.036   0.751
 9092SOL    HW228176   0.032   1.009   0.646
 9093SOL     OW28177   1.752   6.118   6.678
 9093SOL    HW128178   1.737   6.168   6.593
 9093SOL    HW228179   1.810   6.038   6.660
 9094SOL     OW28180   6.363   5.232   2.957
 9094SOL    HW128181   6.426   5.295   3.002
 9094SOL    HW228182   6.288   5.209   3.020
 9095SOL     OW28183   4.676   3.879   6.787
 9095SOL    HW128184   4.724   3.836   6.711
 9095SOL    HW228185   4.736   3.883   6.867
 9096SOL     OW28186   5.469   4.136   1.822
 9096SOL    HW128187   5.455   4.220   1.768
 9096SOL    HW228188   5.562   4.102   1.807
 9097SOL     OW28189   0.917   2.489   0.086
 9097SOL    HW128190   0.979   2.422   0.126
 9097SOL    HW228191   0.969   2.569   0.056
 9098SOL     OW28192   3.731   2.585   6.804
 9098SOL    HW128193   3.746   2.592   6.706
 9098SOL    HW228194   3.787   2.512   6.842
 9099SOL     OW28195   2.795   3.313   6.948
 9099SOL    HW128196   2.722   3.376   6.974
 9099SOL    HW228197   2.823   3.331   6.854
 9100SOL     OW28198   1.281   3.566   4.192
 9100SOL    HW128199   1.352   3.564   4.262
 9100SOL    HW228200   1.280   3.478   4.143
 9101SOL     OW28201   2.566   2.227   2.866
 9101SOL    HW128202   2.600   2.153   2.808
 9101SOL    HW228203   2.524   2.298   2.810
 9102SOL     OW28204   2.759   0.248   2.137
 9102SOL    HW128205   2.675   0.300   2.125
 9102SOL    HW228206   2.812   0.286   2.213
 9103SOL     OW28207   6.480   3.302   6.712
 9103SOL    HW128208   6.527   3.301   6.800
 9103SOL    HW228209   6.401   3.364   6.717
 9104SOL     OW28210   5.585   6.488   2.722
 9104SOL    HW128211   5.592   6.428   2.801
 9104SOL    HW228212   5.519   6.561   2.741
 9105SOL     OW28213   1.836   1.493   0.017
 9105SOL    HW128214   1.923   1.531   0.049
 9105SOL    HW228215   1.848   1.452   6.949
 9106SOL     OW28216   6.895   3.850   0.074
 9106SOL    HW128217   6.828   3.841   0.000
 9106SOL    HW228218   6.848   3.870   0.160
 9107SOL     OW28219   3.145   0.836   6.156
 9107SOL    HW128220   3.229   0.891   6.156
 9107SOL    HW228221   3.066   0.897   6.158
 9108SOL     OW28222   4.726   3.756   5.784
 9108SOL    HW128223   4.670   3.816   5.840
 9108SOL    HW228224   4.698   3.763   5.688
 9109SOL     OW28225   0.878   3.101   2.613
 9109SOL    HW128226   0.863   3.199   2.624
 9109SOL    HW228227   0.969   3.084   2.578
 9110SOL     OW28228   2.015   4.011   3.884
 9110SOL    HW128229   2.060   3.965   3.807
 9110SOL    HW228230   1.927   3.967   3.902
 9111SOL     OW28231   4.513   1.314   0.742
 9111SOL    HW128232   4.602   1.268   0.731
 9111SOL    HW228233   4.440   1.248   0.726
 9112SOL     OW28234   0.399   4.725   3.880
 9112SOL    HW128235   0.405   4.724   3.980
 9112SOL    HW228236   0.464   4.659   3.843
 9113SOL     OW28237   5.807   1.080   2.526
 9113SOL    HW128238   5.805   1.139   2.445
 9113SOL    HW228239   5.731   1.103   2.587
 9114SOL     OW28240   0.642   4.726   1.706
 9114SOL    HW128241   0.649   4.806   1.765
 9114SOL    HW228242   0.553   4.728   1.659
 9115SOL     OW28243   6.958   4.705   5.225
 9115SOL    HW128244   6.859   4.711   5.214
 9115SOL    HW228245   6.981   4.698   5.322
 9116SOL     OW28246   6.731   1.352   1.578
 9116SOL    HW128247   6.651   1.396   1.620
 9116SOL    HW228248   6.789   1.423   1.537
 9117SOL     OW28249   5.959   2.774   0.198
 9117SOL    HW128250   5.981   2.768   0.296
 9117SOL    HW228251   6.032   2.730   0.145
 9118SOL     OW28252   6.723   3.797   0.301
 9118SOL    HW128253   6.729   3.817   0.399
 9118SOL    HW228254   6.780   3.718   0.280
 9119SOL     OW28255   4.959   0.810   1.801
 9119SOL    HW128256   5.058   0.820   1.817
 9119SOL    HW228257   4.942   0.722   1.756
 9120SOL     OW28258   5.903   1.961   5.640
 9120SOL    HW128259   5.831   1.905   5.680
 9120SOL    HW228260   5.866   2.013   5.562
 9121SOL     OW28261   3.288   0.967   5.230
 9121SOL    HW128262   3.190   0.955   5.244
 9121SOL    HW228263   3.332   0.985   5.319
 9122SOL     OW28264   1.620   4.080   2.395
 9122SOL    HW128265   1.614   4.180   2.400
 9122SOL    HW228266   1.537   4.044   2.354
 9123SOL     OW28267   2.010   1.273   4.036
 9123SOL    HW128268   1.914   1.245   4.030
 9123SOL    HW228269   2.055   1.258   3.949
 9124SOL     OW28270   5.369   6.581   6.719
 9124SOL    HW128271   5.325   6.638   6.788
 9124SOL    HW228272   5.332   6.488   6.723
 9125SOL     OW28273   4.559   3.691   0.886
 9125SOL    HW128274   4.512   3.604   0.875
 9125SOL    HW228275   4.557   3.741   0.799
 9126SOL     OW28276   6.092   3.194   1.376
 9126SOL    HW128277   5.993   3.201   1.392
 9126SOL    HW228278   6.126   3.281   1.339
 9127SOL     OW28279   6.775   1.580   6.059
 9127SOL    HW128280   6.681   1.579   6.093
 9127SOL    HW228281   6.836   1.612   6.131
 9128SOL     OW28282   5.419   1.362   5.221
 9128SOL    HW128283   5.325   1.357   5.253
 9128SOL    HW228284   5.482   1.354   5.298
 9129SOL     OW28285   0.417   2.533   0.345
 9129SOL    HW128286   0.402   2.490   0.433
 9129SOL    HW228287   0.503   2.584   0.347
 9130SOL     OW28288   0.147   3.550   6.417
 9130SOL    HW128289   0.180   3.485   6.485
 9130SOL    HW228290   0.219   3.568   6.350
 9131SOL     OW28291   5.750   2.450   4.838
 9131SOL    HW128292   5.701   2.366   4.814
 9131SOL    HW228293   5.788   2.442   4.930
 9132SOL     OW28294   0.646   5.401   4.502
 9132SOL    HW128295   0.599   5.486   4.526
 9132SOL    HW228296   0.665   5.401   4.403
 9133SOL     OW28297   3.339   6.683   1.504
 9133SOL    HW128298   3.351   6.656   1.409
 9133SOL    HW228299   3.370   6.609   1.564
 9134SOL     OW28300   4.608   5.723   1.075
 9134SOL    HW128301   4.623   5.737   1.173
 9134SOL    HW228302   4.670   5.652   1.042
 9135SOL     OW28303   6.622   6.934   1.962
 9135SOL    HW128304   6.625   6.953   1.864
 9135SOL    HW228305   6.527   6.925   1.992
 9136SOL     OW28306   5.087   6.719   6.596
 9136SOL    HW128307   5.034   6.670   6.526
 9136SOL    HW228308   5.158   6.658   6.632
 9137SOL     OW28309   5.369   1.461   0.479
 9137SOL    HW128310   5.332   1.376   0.440
 9137SOL    HW228311   5.297   1.531   0.478
 9138SOL     OW28312   0.553   5.958   6.763
 9138SOL    HW128313   0.517   6.052   6.758
 9138SOL    HW228314   0.641   5.954   6.716
 9139SOL     OW28315   2.557   2.023   3.323
 9139SOL    HW128316   2.491   1.948   3.328
 9139SOL    HW228317   2.648   1.989   3.346
 9140SOL     OW28318   0.019   3.491   2.667
 9140SOL    HW128319   0.079   3.429   2.717
 9140SOL    HW228320   6.990   3.547   2.731
 9141SOL     OW28321   5.651   0.290   0.854
 9141SOL    HW128322   5.746   0.261   0.843
 9141SOL    HW228323   5.628   0.294   0.951
 9142SOL     OW28324   0.908   2.668   0.992
 9142SOL    HW128325   0.875   2.576   0.970
 9142SOL    HW228326   0.856   2.735   0.940
 9143SOL     OW28327   6.276   3.451   6.753
 9143SOL    HW128328   6.276   3.537   6.803
 9143SOL    HW228329   6.188   3.406   6.763
 9144SOL     OW28330   2.468   5.176   4.636
 9144SOL    HW128331   2.493   5.242   4.707
 9144SOL    HW228332   2.404   5.110   4.674
 9145SOL     OW28333   0.153   5.696   0.193
 9145SOL    HW128334   0.154   5.679   0.094
 9145SOL    HW228335   0.062   5.675   0.229
 9146SOL     OW28336   5.372   3.056   3.520
 9146SOL    HW128337   5.277   3.027   3.522
 9146SOL    HW228338   5.404   3.071   3.614
 9147SOL     OW28339   6.219   0.129   5.144
 9147SOL    HW128340   6.153   0.081   5.086
 9147SOL    HW228341   6.195   0.226   5.147
 9148SOL     OW28342   5.239   6.185   1.282
 9148SOL    HW128343   5.164   6.118   1.273
 9148SOL    HW228344   5.208   6.261   1.338
 9149SOL     OW28345   5.866   3.841   2.694
 9149SOL    HW128346   5.948   3.785   2.701
 9149SOL    HW228347   5.884   3.932   2.732
 9150SOL     OW28348   3.779   5.393   1.288
 9150SOL    HW128349   3.723   5.445   1.352
 9150SOL    HW228350   3.723   5.363   1.211
 9151SOL     OW28351   2.224   4.078   3.240
 9151SOL    HW128352   2.128   4.102   3.255
 9151SOL    HW228353   2.279   4.112   3.316
 9152SOL     OW28354   2.081   4.279   4.660
 9152SOL    HW128355   2.175   4.250   4.679
 9152SOL    HW228356   2.021   4.244   4.732
 9153SOL     OW28357   0.396   2.557   6.693
 9153SOL    HW128358   0.450   2.501   6.756
 9153SOL    HW228359   0.446   2.642   6.673
 9154SOL     OW28360   4.874   4.477   6.860
 9154SOL    HW128361   4.841   4.521   6.776
 9154SOL    HW228362   4.973   4.466   6.855
 9155SOL     OW28363   1.532   3.451   2.275
 9155SOL    HW128364   1.539   3.355   2.301
 9155SOL    HW228365   1.555   3.461   2.179
 9156SOL     OW28366   1.062   2.302   0.240
 9156SOL    HW128367   1.122   2.304   0.161
 9156SOL    HW228368   1.012   2.216   0.243
 9157SOL     OW28369   1.385   3.884   6.481
 9157SOL    HW128370   1.308   3.833   6.444
 9157SOL    HW228371   1.446   3.910   6.406
 9158SOL     OW28372   5.796   3.516   4.923
 9158SOL    HW128373   5.801   3.552   4.830
 9158SOL    HW228374   5.700   3.499   4.947
 9159SOL     OW28375   1.838   1.268   2.079
 9159SOL    HW128376   1.794   1.191   2.125
 9159SOL    HW228377   1.799   1.354   2.113
 9160SOL     OW28378   6.732   6.101   5.557
 9160SOL    HW128379   6.694   6.168   5.622
 9160SOL    HW228380   6.669   6.089   5.481
 9161SOL     OW28381   5.423   4.780   4.119
 9161SOL    HW128382   5.480   4.753   4.197
 9161SOL    HW228383   5.432   4.878   4.104
 9162SOL     OW28384   3.931   1.084   3.258
 9162SOL    HW128385   3.962   1.003   3.309
 9162SOL    HW228386   3.965   1.167   3.303
 9163SOL     OW28387   0.700   2.574   4.718
 9163SOL    HW128388   0.749   2.511   4.778
 9163SOL    HW228389   0.756   2.655   4.701
 9164SOL     OW28390   2.707   0.152   6.867
 9164SOL    HW128391   2.710   0.214   6.946
 9164SOL    HW228392   2.710   0.057   6.900
 9165SOL     OW28393   6.172   0.888   5.397
 9165SOL    HW128394   6.175   0.789   5.382
 9165SOL    HW228395   6.262   0.927   5.379
 9166SOL     OW28396   4.508   6.031   1.356
 9166SOL    HW128397   4.534   6.084   1.274
 9166SOL    HW228398   4.408   6.025   1.361
 9167SOL     OW28399   2.411   2.102   6.189
 9167SOL    HW128400   2.495   2.140   6.227
 9167SOL    HW228401   2.429   2.010   6.154
 9168SOL     OW28402   6.981   5.908   5.819
 9168SOL    HW128403   6.935   5.822   5.841
 9168SOL    HW228404   0.042   5.917   5.874
 9169SOL     OW28405   6.605   0.508   6.244
 9169SOL    HW128406   6.652   0.455   6.174
 9169SOL    HW228407   6.672   0.553   6.303
 9170SOL     OW28408   1.362   0.384   6.650
 9170SOL    HW128409   1.332   0.299   6.608
 9170SOL    HW228410   1.440   0.421   6.599
 9171SOL     OW28411   4.195   5.191   0.246
 9171SOL    HW128412   4.182   5.095   0.270
 9171SOL    HW228413   4.245   5.197   0.159
 9172SOL     OW28414   5.204   0.713   2.597
 9172SOL    HW128415   5.239   0.694   2.689
 9172SOL    HW228416   5.106   0.736   2.604
 9173SOL     OW28417   5.722   4.206   6.026
 9173SOL    HW128418   5.664   4.150   6.086
 9173SOL    HW228419   5.765   4.278   6.079
 9174SOL     OW28420   6.376   4.385   0.746
 9174SOL    HW128421   6.373   4.480   0.714
 9174SOL    HW228422   6.459   4.341   0.713
 9175SOL     OW28423   1.206   6.239   6.624
 9175SOL    HW128424   1.191   6.264   6.719
 9175SOL    HW228425   1.204   6.139   6.615
 9176SOL     OW28426   2.327   1.210   3.361
 9176SOL    HW128427   2.305   1.291   3.307
 9176SOL    HW228428   2.333   1.131   3.301
 9177SOL     OW28429   0.587   4.697   4.094
 9177SOL    HW128430   0.643   4.755   4.035
 9177SOL    HW228431   0.617   4.602   4.085
 9178SOL     OW28432   1.603   5.264   0.890
 9178SOL    HW128433   1.542   5.335   0.924
 9178SOL    HW228434   1.627   5.284   0.795
 9179SOL     OW28435   1.915   5.002   3.913
 9179SOL    HW128436   1.961   5.041   3.993
 9179SOL    HW228437   1.857   5.070   3.870
 9180SOL     OW28438   6.745   3.131   3.664
 9180SOL    HW128439   6.779   3.122   3.570
 9180SOL    HW228440   6.788   3.061   3.721
 9181SOL     OW28441   5.551   2.709   4.296
 9181SOL    HW128442   5.537   2.756   4.383
 9181SOL    HW228443   5.515   2.616   4.302
 9182SOL     OW28444   2.728   6.976   3.034
 9182SOL    HW128445   2.746   0.052   3.028
 9182SOL    HW228446   2.736   6.947   3.130
 9183SOL     OW28447   4.543   4.185   0.083
 9183SOL    HW128448   4.446   4.202   0.100
 9183SOL    HW228449   4.555   4.092   0.048
 9184SOL     OW28450   4.317   1.822   0.988
 9184SOL    HW128451   4.349   1.808   1.082
 9184SOL    HW228452   4.279   1.914   0.979
 9185SOL     OW28453   5.629   6.462   5.248
 9185SOL    HW128454   5.677   6.456   5.336
 9185SOL    HW228455   5.556   6.395   5.245
 9186SOL     OW28456   6.007   6.672   4.391
 9186SOL    HW128457   6.071   6.601   4.421
 9186SOL    HW228458   5.915   6.649   4.423
 9187SOL     OW28459   3.569   2.055   0.458
 9187SOL    HW128460   3.499   2.123   0.479
 9187SOL    HW228461   3.627   2.088   0.384
 9188SOL     OW28462   2.041   0.373   2.057
 9188SOL    HW128463   2.037   0.323   1.970
 9188SOL    HW228464   2.094   0.321   2.123
 9189SOL     OW28465   3.296   5.388   1.989
 9189SOL    HW128466   3.325   5.395   2.085
 9189SOL    HW228467   3.260   5.476   1.959
 9190SOL     OW28468   1.543   3.745   5.320
 9190SOL    HW128469   1.569   3.784   5.409
 9190SOL    HW228470   1.613   3.768   5.252
 9191SOL     OW28471   5.600   0.938   0.190
 9191SOL    HW128472   5.574   0.964   0.283
 9191SOL    HW228473   5.680   0.990   0.161
 9192SOL     OW28474   6.962   2.403   6.233
 9192SOL    HW128475   6.891   2.470   6.209
 9192SOL    HW228476   6.919   2.321   6.270
 9193SOL     OW28477   4.093   3.835   5.298
 9193SOL    HW128478   4.137   3.746   5.292
 9193SOL    HW228479   4.037   3.852   5.217
 9194SOL     OW28480   2.871   1.286   2.731
 9194SOL    HW128481   2.858   1.303   2.633
 9194SOL    HW228482   2.923   1.202   2.743
 9195SOL     OW28483   0.806   3.671   3.053
 9195SOL    HW128484   0.904   3.684   3.065
 9195SOL    HW228485   0.789   3.595   2.990
 9196SOL     OW28486   5.492   6.735   3.624
 9196SOL    HW128487   5.567   6.800   3.637
 9196SOL    HW228488   5.470   6.729   3.527
 9197SOL     OW28489   2.982   4.742   1.485
 9197SOL    HW128490   2.906   4.698   1.438
 9197SOL    HW228491   3.064   4.737   1.427
 9198SOL     OW28492   6.273   4.260   6.473
 9198SOL    HW128493   6.181   4.221   6.466
 9198SOL    HW228494   6.327   4.231   6.393
 9199SOL     OW28495   6.672   3.415   5.345
 9199SOL    HW128496   6.607   3.488   5.328
 9199SOL    HW228497   6.743   3.446   5.408
 9200SOL     OW28498   3.243   6.535   6.006
 9200SOL    HW128499   3.285   6.533   6.096
 9200SOL    HW228500   3.167   6.470   6.003
 9201SOL     OW28501   0.150   3.623   0.051
 9201SOL    HW128502   0.058   3.590   0.029
 9201SOL    HW228503   0.143   3.715   0.090
 9202SOL     OW28504   0.620   6.020   3.645
 9202SOL    HW128505   0.695   6.084   3.625
 9202SOL    HW228506   0.636   5.934   3.597
 9203SOL     OW28507   6.155   2.979   5.980
 9203SOL    HW128508   6.162   3.018   6.071
 9203SOL    HW228509   6.174   3.050   5.912
 9204SOL     OW28510   4.950   3.522   4.586
 9204SOL    HW128511   4.922   3.439   4.539
 9204SOL    HW228512   4.931   3.513   4.684
 9205SOL     OW28513   5.490   5.757   3.398
 9205SOL    HW128514   5.484   5.778   3.300
 9205SOL    HW228515   5.450   5.833   3.450
 9206SOL     OW28516   3.267   5.645   3.181
 9206SOL    HW128517   3.268   5.598   3.269
 9206SOL    HW228518   3.277   5.578   3.108
 9207SOL     OW28519   4.718   4.250   0.274
 9207SOL    HW128520   4.646   4.296   0.327
 9207SOL    HW228521   4.688   4.240   0.179
 9208SOL     OW28522   5.560   4.699   3.089
 9208SOL    HW128523   5.515   4.709   3.000
 9208SOL    HW228524   5.502   4.643   3.149
 9209SOL     OW28525   4.654   1.039   0.126
 9209SOL    HW128526   4.696   1.125   0.096
 9209SOL    HW228527   4.697   0.963   0.078
 9210SOL     OW28528   1.194   1.973   1.491
 9210SOL    HW128529   1.122   1.992   1.559
 9210SOL    HW228530   1.167   2.011   1.403
 9211SOL     OW28531   5.879   2.698   5.803
 9211SOL    HW128532   5.869   2.788   5.845
 9211SOL    HW228533   5.974   2.669   5.809
 9212SOL     OW28534   4.891   5.286   4.204
 9212SOL    HW128535   4.801   5.284   4.161
 9212SOL    HW228536   4.959   5.313   4.136
 9213SOL     OW28537   5.631   4.571   4.974
 9213SOL    HW128538   5.724   4.606   4.975
 9213SOL    HW228539   5.613   4.519   5.057
 9214SOL     OW28540   7.006   3.480   5.175
 9214SOL    HW128541   6.969   3.518   5.260
 9214SOL    HW228542   0.083   3.481   5.179
 9215SOL     OW28543   1.855   3.714   2.131
 9215SOL    HW128544   1.920   3.685   2.061
 9215SOL    HW228545   1.764   3.724   2.090
 9216SOL     OW28546   2.640   6.983   3.329
 9216SOL    HW128547   2.553   7.022   3.298
 9216SOL    HW228548   2.624   6.895   3.372
 9217SOL     OW28549   5.997   3.415   6.137
 9217SOL    HW128550   6.018   3.488   6.071
 9217SOL    HW228551   6.052   3.334   6.115
 9218SOL     OW28552   3.209   0.941   6.927
 9218SOL    HW128553   3.295   0.952   6.877
 9218SOL    HW228554   3.156   0.867   6.886
 9219SOL     OW28555   5.300   3.828   6.185
 9219SOL    HW128556   5.225   3.888   6.212
 9219SOL    HW228557   5.351   3.800   6.266
 9220SOL     OW28558   0.870   6.165   1.975
 9220SOL    HW128559   0.882   6.092   2.043
 9220SOL    HW228560   0.941   6.234   1.988
 9221SOL     OW28561   1.610   0.521   3.127
 9221SOL    HW128562   1.563   0.608   3.110
 9221SOL    HW228563   1.564   0.473   3.202
 9222SOL     OW28564   2.672   5.960   5.600
 9222SOL    HW128565   2.601   6.026   5.625
 9222SOL    HW228566   2.762   5.995   5.627
 9223SOL     OW28567   1.506   2.137   4.312
 9223SOL    HW128568   1.592   2.153   4.361
 9223SOL    HW228569   1.461   2.056   4.350
 9224SOL     OW28570   0.734   5.688   4.237
 9224SOL    HW128571   0.644   5.727   4.259
 9224SOL    HW228572   0.727   5.588   4.239
 9225SOL     OW28573   3.172   6.091   6.250
 9225SOL    HW128574   3.199   6.010   6.199
 9225SOL    HW228575   3.234   6.167   6.227
 9226SOL     OW28576   0.125   6.843   1.453
 9226SOL    HW128577   0.210   6.838   1.506
 9226SOL    HW228578   0.057   6.783   1.494
 9227SOL     OW28579   1.919   5.636   1.074
 9227SOL    HW128580   1.923   5.634   1.174
 9227SOL    HW228581   2.011   5.625   1.037
 9228SOL     OW28582   2.992   1.006   6.696
 9228SOL    HW128583   2.984   0.923   6.752
 9228SOL    HW228584   2.992   1.086   6.756
 9229SOL     OW28585   0.771   5.292   5.474
 9229SOL    HW128586   0.838   5.333   5.536
 9229SOL    HW228587   0.819   5.236   5.406
 9230SOL     OW28588   5.082   3.088   3.461
 9230SOL    HW128589   5.077   2.998   3.418
 9230SOL    HW228590   5.096   3.158   3.391
 9231SOL     OW28591   1.319   3.503   4.687
 9231SOL    HW128592   1.220   3.500   4.677
 9231SOL    HW228593   1.348   3.597   4.705
 9232SOL     OW28594   3.760   5.231   6.509
 9232SOL    HW128595   3.661   5.221   6.497
 9232SOL    HW228596   3.790   5.173   6.585
 9233SOL     OW28597   5.910   5.701   1.748
 9233SOL    HW128598   5.824   5.719   1.699
 9233SOL    HW228599   5.971   5.779   1.737
 9234SOL     OW28600   3.415   5.314   0.133
 9234SOL    HW128601   3.419   5.405   0.092
 9234SOL    HW228602   3.456   5.317   0.224
 9235SOL     OW28603   1.962   2.844   3.704
 9235SOL    HW128604   2.040   2.784   3.724
 9235SOL    HW228605   1.915   2.868   3.789
 9236SOL     OW28606   1.866   4.101   6.658
 9236SOL    HW128607   1.881   4.158   6.577
 9236SOL    HW228608   1.937   4.121   6.725
 9237SOL     OW28609   0.115   6.172   3.171
 9237SOL    HW128610   0.076   6.183   3.262
 9237SOL    HW228611   0.207   6.211   3.169
 9238SOL     OW28612   1.867   2.733   6.354
 9238SOL    HW128613   1.794   2.671   6.383
 9238SOL    HW228614   1.956   2.692   6.374
 9239SOL     OW28615   0.170   3.999   6.670
 9239SOL    HW128616   0.228   4.064   6.719
 9239SOL    HW228617   0.078   3.999   6.711
 9240SOL     OW28618   5.511   2.540   2.368
 9240SOL    HW128619   5.468   2.590   2.293
 9240SOL    HW228620   5.471   2.449   2.374
 9241SOL     OW28621   0.810   5.416   6.114
 9241SOL    HW128622   0.798   5.342   6.180
 9241SOL    HW228623   0.768   5.390   6.027
 9242SOL     OW28624   1.505   4.744   0.554
 9242SOL    HW128625   1.553   4.808   0.494
 9242SOL    HW228626   1.571   4.697   0.612
 9243SOL     OW28627   0.775   0.111   1.502
 9243SOL    HW128628   0.716   0.030   1.500
 9243SOL    HW228629   0.722   0.191   1.476
 9244SOL     OW28630   3.364   4.573   5.916
 9244SOL    HW128631   3.313   4.502   5.868
 9244SOL    HW228632   3.302   4.629   5.970
 9245SOL     OW28633   1.235   5.464   3.981
 9245SOL    HW128634   1.160   5.429   4.038
 9245SOL    HW228635   1.313   5.402   3.988
 9246SOL     OW28636   6.456   6.613   2.052
 9246SOL    HW128637   6.400   6.638   2.131
 9246SOL    HW228638   6.519   6.688   2.031
 9247SOL     OW28639   2.448   6.213   3.215
 9247SOL    HW128640   2.469   6.124   3.256
 9247SOL    HW228641   2.379   6.202   3.143
 9248SOL     OW28642   2.820   1.994   4.400
 9248SOL    HW128643   2.902   1.943   4.376
 9248SOL    HW228644   2.750   1.931   4.433
 9249SOL     OW28645   3.630   4.650   1.113
 9249SOL    HW128646   3.561   4.709   1.071
 9249SOL    HW228647   3.594   4.612   1.198
 9250SOL     OW28648   6.129   3.034   4.001
 9250SOL    HW128649   6.076   3.048   4.085
 9250SOL    HW228650   6.078   2.975   3.939
 9251SOL     OW28651   3.895   1.768   2.846
 9251SOL    HW128652   3.974   1.716   2.815
 9251SOL    HW228653   3.911   1.799   2.940
 9252SOL     OW28654   5.099   0.921   4.074
 9252SOL    HW128655   5.134   0.964   4.157
 9252SOL    HW228656   5.048   0.839   4.097
 9253SOL     OW28657   5.369   5.176   5.818
 9253SOL    HW128658   5.322   5.100   5.862
 9253SOL    HW228659   5.333   5.262   5.852
 9254SOL     OW28660   5.745   5.197   3.596
 9254SOL    HW128661   5.657   5.205   3.643
 9254SOL    HW228662   5.819   5.195   3.663
 9255SOL     OW28663   4.504   3.987   0.787
 9255SOL    HW128664   4.501   4.039   0.701
 9255SOL    HW228665   4.550   4.042   0.857
 9256SOL     OW28666   2.847   0.636   2.749
 9256SOL    HW128667   2.862   0.721   2.699
 9256SOL    HW228668   2.923   0.620   2.812
 9257SOL     OW28669   0.273   4.434   3.184
 9257SOL    HW128670   0.279   4.371   3.106
 9257SOL    HW228671   0.311   4.523   3.158
 9258SOL     OW28672   3.294   3.848   2.924
 9258SOL    HW128673   3.348   3.836   3.007
 9258SOL    HW228674   3.329   3.789   2.852
 9259SOL     OW28675   0.324   2.101   7.014
 9259SOL    HW128676   0.354   2.182   0.043
 9259SOL    HW228677   0.403   2.056   6.973
 9260SOL     OW28678   5.998   1.878   5.349
 9260SOL    HW128679   5.940   1.853   5.272
 9260SOL    HW228680   5.962   1.839   5.434
 9261SOL     OW28681   2.656   1.390   0.271
 9261SOL    HW128682   2.680   1.460   0.339
 9261SOL    HW228683   2.562   1.360   0.285
 9262SOL     OW28684   6.538   4.940   5.122
 9262SOL    HW128685   6.506   5.001   5.194
 9262SOL    HW228686   6.460   4.895   5.079
 9263SOL     OW28687   4.801   0.314   1.684
 9263SOL    HW128688   4.731   0.278   1.745
 9263SOL    HW228689   4.871   0.244   1.668
 9264SOL     OW28690   4.989   4.482   0.367
 9264SOL    HW128691   4.997   4.551   0.295
 9264SOL    HW228692   4.939   4.520   0.444
 9265SOL     OW28693   3.892   2.100   0.577
 9265SOL    HW128694   3.933   2.175   0.526
 9265SOL    HW228695   3.809   2.132   0.622
 9266SOL     OW28696   1.265   6.583   1.135
 9266SOL    HW128697   1.248   6.634   1.219
 9266SOL    HW228698   1.178   6.553   1.096
 9267SOL     OW28699   6.651   2.725   4.574
 9267SOL    HW128700   6.703   2.665   4.513
 9267SOL    HW228701   6.715   2.781   4.627
 9268SOL     OW28702   1.392   5.177   2.371
 9268SOL    HW128703   1.481   5.216   2.348
 9268SOL    HW228704   1.361   5.118   2.296
 9269SOL     OW28705   3.893   1.507   6.591
 9269SOL    HW128706   3.885   1.462   6.680
 9269SOL    HW228707   3.981   1.484   6.549
 9270SOL     OW28708   4.338   6.774   5.964
 9270SOL    HW128709   4.292   6.862   5.948
 9270SOL    HW228710   4.421   6.769   5.909
 9271SOL     OW28711   6.082   0.306   1.095
 9271SOL    HW128712   6.175   0.336   1.116
 9271SOL    HW228713   6.017   0.348   1.158
 9272SOL     OW28714   1.129   5.972   5.305
 9272SOL    HW128715   1.164   5.928   5.388
 9272SOL    HW228716   1.054   5.918   5.268
 9273SOL     OW28717   5.436   6.718   2.782
 9273SOL    HW128718   5.339   6.714   2.805
 9273SOL    HW228719   5.447   6.763   2.693
 9274SOL     OW28720   6.254   1.339   0.203
 9274SOL    HW128721   6.288   1.279   0.275
 9274SOL    HW228722   6.225   1.426   0.243
 9275SOL     OW28723   6.524   1.027   0.313
 9275SOL    HW128724   6.439   0.974   0.313
 9275SOL    HW228725   6.579   1.002   0.393
 9276SOL     OW28726   1.538   3.226   1.685
 9276SOL    HW128727   1.458   3.280   1.712
 9276SOL    HW228728   1.520   3.183   1.597
 9277SOL     OW28729   4.600   3.966   0.484
 9277SOL    HW128730   4.528   3.897   0.491
 9277SOL    HW228731   4.561   4.057   0.501
 9278SOL     OW28732   1.968   0.211   5.995
 9278SOL    HW128733   1.876   0.210   6.033
 9278SOL    HW228734   2.001   0.305   5.989
 9279SOL     OW28735   3.649   1.166   2.225
 9279SOL    HW128736   3.604   1.250   2.196
 9279SOL    HW228737   3.613   1.089   2.172
 9280SOL     OW28738   2.250   1.763   3.005
 9280SOL    HW128739   2.233   1.724   3.096
 9280SOL    HW228740   2.175   1.737   2.943
 9281SOL     OW28741   2.119   3.493   6.429
 9281SOL    HW128742   2.025   3.513   6.458
 9281SOL    HW228743   2.150   3.563   6.366
 9282SOL     OW28744   5.394   0.380   3.625
 9282SOL    HW128745   5.308   0.357   3.671
 9282SOL    HW228746   5.377   0.389   3.527
 9283SOL     OW28747   5.277   0.927   3.854
 9283SOL    HW128748   5.181   0.917   3.880
 9283SOL    HW228749   5.332   0.942   3.936
 9284SOL     OW28750   2.613   3.384   5.538
 9284SOL    HW128751   2.539   3.318   5.525
 9284SOL    HW228752   2.696   3.336   5.566
 9285SOL     OW28753   4.689   2.269   0.868
 9285SOL    HW128754   4.676   2.368   0.874
 9285SOL    HW228755   4.633   2.224   0.938
 9286SOL     OW28756   4.965   5.744   0.953
 9286SOL    HW128757   4.998   5.722   0.861
 9286SOL    HW228758   5.041   5.779   1.008
 9287SOL     OW28759   3.322   5.062   0.459
 9287SOL    HW128760   3.225   5.073   0.481
 9287SOL    HW228761   3.346   4.965   0.462
 9288SOL     OW28762   4.589   1.601   2.894
 9288SOL    HW128763   4.530   1.543   2.838
 9288SOL    HW228764   4.653   1.650   2.836
 9289SOL     OW28765   3.781   0.522   2.063
 9289SOL    HW128766   3.734   0.437   2.089
 9289SOL    HW228767   3.740   0.559   1.980
 9290SOL     OW28768   5.768   1.198   2.988
 9290SOL    HW128769   5.700   1.149   2.934
 9290SOL    HW228770   5.834   1.133   3.027
 9291SOL     OW28771   1.214   5.846   5.522
 9291SOL    HW128772   1.209   5.750   5.548
 9291SOL    HW228773   1.308   5.879   5.534
 9292SOL     OW28774   1.830   3.025   6.434
 9292SOL    HW128775   1.884   3.053   6.513
 9292SOL    HW228776   1.833   2.925   6.425
 9293SOL     OW28777   5.223   3.043   6.527
 9293SOL    HW128778   5.282   2.966   6.547
 9293SOL    HW228779   5.160   3.058   6.603
 9294SOL     OW28780   4.336   0.200   5.835
 9294SOL    HW128781   4.407   0.269   5.823
 9294SOL    HW228782   4.318   0.155   5.748
 9295SOL     OW28783   5.633   0.948   4.921
 9295SOL    HW128784   5.709   0.959   4.986
 9295SOL    HW228785   5.586   1.036   4.910
 9296SOL     OW28786   1.950   5.782   6.971
 9296SOL    HW128787   1.938   5.881   6.972
 9296SOL    HW228788   1.900   5.743   6.895
 9297SOL     OW28789   0.491   6.796   2.647
 9297SOL    HW128790   0.416   6.731   2.636
 9297SOL    HW228791   0.454   6.886   2.668
 9298SOL     OW28792   1.007   6.648   6.441
 9298SOL    HW128793   1.082   6.583   6.454
 9298SOL    HW228794   0.942   6.609   6.375
 9299SOL     OW28795   0.392   2.362   5.066
 9299SOL    HW128796   0.420   2.452   5.032
 9299SOL    HW228797   0.464   2.296   5.046
 9300SOL     OW28798   0.096   4.581   6.015
 9300SOL    HW128799   0.129   4.524   6.091
 9300SOL    HW228800   0.144   4.557   5.931
 9301SOL     OW28801   5.505   5.472   4.493
 9301SOL    HW128802   5.459   5.530   4.561
 9301SOL    HW228803   5.559   5.403   4.540
 9302SOL     OW28804   2.161   2.697   4.040
 9302SOL    HW128805   2.072   2.667   4.008
 9302SOL    HW228806   2.223   2.707   3.963
 9303SOL     OW28807   2.689   4.008   0.906
 9303SOL    HW128808   2.696   3.960   0.818
 9303SOL    HW228809   2.723   3.949   0.979
 9304SOL     OW28810   4.100   4.576   1.831
 9304SOL    HW128811   4.019   4.633   1.823
 9304SOL    HW228812   4.073   4.479   1.827
 9305SOL     OW28813   3.325   0.957   0.896
 9305SOL    HW128814   3.289   0.945   0.989
 9305SOL    HW228815   3.421   0.985   0.901
 9306SOL     OW28816   0.497   5.303   5.432
 9306SOL    HW128817   0.466   5.213   5.402
 9306SOL    HW228818   0.594   5.314   5.413
 9307SOL     OW28819   1.170   3.479   1.156
 9307SOL    HW128820   1.148   3.456   1.251
 9307SOL    HW228821   1.098   3.536   1.117
 9308SOL     OW28822   2.189   3.386   0.408
 9308SOL    HW128823   2.117   3.353   0.348
 9308SOL    HW228824   2.150   3.416   0.495
 9309SOL     OW28825   3.624   4.563   6.097
 9309SOL    HW128826   3.692   4.631   6.124
 9309SOL    HW228827   3.604   4.572   5.999
 9310SOL     OW28828   5.131   5.168   6.082
 9310SOL    HW128829   5.118   5.073   6.109
 9310SOL    HW228830   5.044   5.208   6.053
 9311SOL     OW28831   4.609   4.610   1.640
 9311SOL    HW128832   4.680   4.668   1.601
 9311SOL    HW228833   4.585   4.642   1.731
 9312SOL     OW28834   1.222   3.776   0.835
 9312SOL    HW128835   1.259   3.861   0.873
 9312SOL    HW228836   1.297   3.718   0.804
 9313SOL     OW28837   0.534   0.525   0.992
 9313SOL    HW128838   0.486   0.586   1.054
 9313SOL    HW228839   0.631   0.521   1.018
 9314SOL     OW28840   5.961   4.266   6.988
 9314SOL    HW128841   5.903   4.223   0.035
 9314SOL    HW228842   5.908   4.281   6.905
 9315SOL     OW28843   6.427   0.084   5.275
 9315SOL    HW128844   6.357   0.083   5.204
 9315SOL    HW228845   6.389   0.048   5.360
 9316SOL     OW28846   5.462   6.940   5.714
 9316SOL    HW128847   5.553   6.911   5.743
 9316SOL    HW228848   5.409   6.970   5.793
 9317SOL     OW28849   5.486   5.308   3.747
 9317SOL    HW128850   5.423   5.231   3.744
 9317SOL    HW228851   5.471   5.361   3.831
 9318SOL     OW28852   5.759   1.335   5.845
 9318SOL    HW128853   5.800   1.245   5.861
 9318SOL    HW228854   5.670   1.339   5.889
 9319SOL     OW28855   2.809   2.423   6.764
 9319SOL    HW128856   2.906   2.400   6.775
 9319SOL    HW228857   2.753   2.351   6.806
 9320SOL     OW28858   3.008   0.344   4.860
 9320SOL    HW128859   3.061   0.425   4.884
 9320SOL    HW228860   2.921   0.372   4.818
 9321SOL     OW28861   0.326   0.383   4.531
 9321SOL    HW128862   0.409   0.327   4.540
 9321SOL    HW228863   0.351   0.480   4.528
 9322SOL     OW28864   6.927   3.487   5.987
 9322SOL    HW128865   6.905   3.531   6.074
 9322SOL    HW228866   0.003   3.469   5.982
 9323SOL     OW28867   1.452   0.583   5.296
 9323SOL    HW128868   1.461   0.484   5.295
 9323SOL    HW228869   1.407   0.612   5.381
 9324SOL     OW28870   1.339   4.169   1.651
 9324SOL    HW128871   1.249   4.213   1.639
 9324SOL    HW228872   1.398   4.229   1.704
 9325SOL     OW28873   5.748   1.345   0.256
 9325SOL    HW128874   5.792   1.326   0.168
 9325SOL    HW228875   5.786   1.429   0.294
 9326SOL     OW28876   2.731   4.862   0.587
 9326SOL    HW128877   2.720   4.832   0.682
 9326SOL    HW228878   2.810   4.816   0.547
 9327SOL     OW28879   4.774   0.356   2.549
 9327SOL    HW128880   4.770   0.451   2.578
 9327SOL    HW228881   4.870   0.330   2.534
 9328SOL     OW28882   2.559   0.877   4.929
 9328SOL    HW128883   2.629   0.827   4.979
 9328SOL    HW228884   2.548   0.838   4.838
 9329SOL     OW28885   5.913   3.874   0.772
 9329SOL    HW128886   5.952   3.853   0.861
 9329SOL    HW228887   5.941   3.965   0.743
 9330SOL     OW28888   6.483   0.430   5.384
 9330SOL    HW128889   6.486   0.338   5.346
 9330SOL    HW228890   6.388   0.455   5.405
 9331SOL     OW28891   2.177   0.941   6.810
 9331SOL    HW128892   2.269   0.980   6.811
 9331SOL    HW228893   2.149   0.926   6.715
 9332SOL     OW28894   4.106   4.679   0.586
 9332SOL    HW128895   4.014   4.688   0.549
 9332SOL    HW228896   4.106   4.703   0.683
 9333SOL     OW28897   3.599   4.169   6.745
 9333SOL    HW128898   3.563   4.177   6.837
 9333SOL    HW228899   3.580   4.254   6.695
 9334SOL     OW28900   5.243   6.622   3.718
 9334SOL    HW128901   5.328   6.631   3.667
 9334SOL    HW228902   5.210   6.713   3.745
 9335SOL     OW28903   1.148   0.919   6.911
 9335SOL    HW128904   1.095   0.840   6.942
 9335SOL    HW228905   1.138   0.928   6.812
 9336SOL     OW28906   3.537   6.535   5.281
 9336SOL    HW128907   3.501   6.458   5.229
 9336SOL    HW228908   3.461   6.589   5.317
 9337SOL     OW28909   4.029   1.346   4.657
 9337SOL    HW128910   4.128   1.350   4.663
 9337SOL    HW228911   3.992   1.302   4.739
 9338SOL     OW28912   6.364   0.047   1.669
 9338SOL    HW128913   6.325   0.080   1.755
 9338SOL    HW228914   6.329   0.102   1.593
 9339SOL     OW28915   6.002   6.282   0.845
 9339SOL    HW128916   5.937   6.283   0.921
 9339SOL    HW228917   5.988   6.363   0.788
 9340SOL     OW28918   4.662   4.813   3.441
 9340SOL    HW128919   4.647   4.792   3.345
 9340SOL    HW228920   4.584   4.782   3.495
 9341SOL     OW28921   6.751   5.215   0.975
 9341SOL    HW128922   6.692   5.176   0.905
 9341SOL    HW228923   6.717   5.306   1.001
 9342SOL     OW28924   3.046   6.871   3.944
 9342SOL    HW128925   2.998   6.914   3.867
 9342SOL    HW228926   3.120   6.931   3.975
 9343SOL     OW28927   5.215   3.918   1.490
 9343SOL    HW128928   5.121   3.940   1.464
 9343SOL    HW228929   5.235   3.958   1.579
 9344SOL     OW28930   5.287   6.459   1.836
 9344SOL    HW128931   5.255   6.522   1.765
 9344SOL    HW228932   5.243   6.481   1.922
 9345SOL     OW28933   6.877   5.713   2.030
 9345SOL    HW128934   6.826   5.630   2.008
 9345SOL    HW228935   6.868   5.778   1.954
 9346SOL     OW28936   5.557   0.787   1.496
 9346SOL    HW128937   5.584   0.794   1.592
 9346SOL    HW228938   5.640   0.780   1.439
 9347SOL     OW28939   3.656   3.828   0.426
 9347SOL    HW128940   3.639   3.807   0.330
 9347SOL    HW228941   3.578   3.879   0.463
 9348SOL     OW28942   2.295   6.146   2.918
 9348SOL    HW128943   2.386   6.172   2.887
 9348SOL    HW228944   2.227   6.211   2.883
 9349SOL     OW28945   5.990   4.899   2.145
 9349SOL    HW128946   6.003   4.801   2.162
 9349SOL    HW228947   6.040   4.926   2.063
 9350SOL     OW28948   6.951   2.509   5.617
 9350SOL    HW128949   6.973   2.537   5.711
 9350SOL    HW228950   7.010   2.558   5.553
 9351SOL     OW28951   3.358   0.356   6.114
 9351SOL    HW128952   3.423   0.297   6.162
 9351SOL    HW228953   3.382   0.361   6.017
 9352SOL     OW28954   3.937   1.304   6.319
 9352SOL    HW128955   3.965   1.237   6.249
 9352SOL    HW228956   3.952   1.265   6.410
 9353SOL     OW28957   0.419   4.148   0.832
 9353SOL    HW128958   0.469   4.226   0.868
 9353SOL    HW228959   0.422   4.150   0.732
 9354SOL     OW28960   0.244   2.133   6.166
 9354SOL    HW128961   0.151   2.095   6.159
 9354SOL    HW228962   0.279   2.117   6.258
 9355SOL     OW28963   0.129   1.813   4.741
 9355SOL    HW128964   0.142   1.725   4.694
 9355SOL    HW228965   0.075   1.874   4.684
 9356SOL     OW28966   4.651   6.135   2.128
 9356SOL    HW128967   4.557   6.152   2.099
 9356SOL    HW228968   4.684   6.214   2.180
 9357SOL     OW28969   1.393   3.301   6.580
 9357SOL    HW128970   1.363   3.303   6.485
 9357SOL    HW228971   1.491   3.285   6.584
 9358SOL     OW28972   7.005   3.139   2.264
 9358SOL    HW128973   7.015   3.214   2.330
 9358SOL    HW228974   6.934   3.077   2.295
 9359SOL     OW28975   1.807   3.637   5.735
 9359SOL    HW128976   1.796   3.554   5.681
 9359SOL    HW228977   1.896   3.678   5.714
 9360SOL     OW28978   1.326   5.482   6.947
 9360SOL    HW128979   1.238   5.434   6.951
 9360SOL    HW228980   1.329   5.552   7.019
 9361SOL     OW28981   1.574   5.269   2.628
 9361SOL    HW128982   1.520   5.216   2.693
 9361SOL    HW228983   1.631   5.334   2.679
 9362SOL     OW28984   2.028   2.880   2.485
 9362SOL    HW128985   2.000   2.834   2.569
 9362SOL    HW228986   2.128   2.886   2.481
 9363SOL     OW28987   3.664   6.492   2.020
 9363SOL    HW128988   3.725   6.524   2.092
 9363SOL    HW228989   3.587   6.555   2.010
 9364SOL     OW28990   3.713   3.239   6.356
 9364SOL    HW128991   3.713   3.161   6.293
 9364SOL    HW228992   3.767   3.216   6.437
 9365SOL     OW28993   2.385   1.831   4.121
 9365SOL    HW128994   2.286   1.839   4.103
 9365SOL    HW228995   2.430   1.792   4.041
 9366SOL     OW28996   3.704   5.688   6.165
 9366SOL    HW128997   3.727   5.594   6.187
 9366SOL    HW228998   3.748   5.750   6.230
 9367SOL     OW28999   0.344   6.901   3.083
 9367SOL    HW129000   0.345   6.980   3.021
 9367SOL    HW229001   0.332   6.817   3.030
 9368SOL     OW29002   2.662   1.018   2.565
 9368SOL    HW129003   2.759   1.033   2.545
 9368SOL    HW229004   2.629   0.939   2.514
 9369SOL     OW29005   6.547   5.811   4.945
 9369SOL    HW129006   6.591   5.741   4.889
 9369SOL    HW229007   6.612   5.884   4.964
 9370SOL     OW29008   5.475   0.018   3.669
 9370SOL    HW129009   5.473   7.008   3.574
 9370SOL    HW229010   5.510   0.112   3.671
 9371SOL     OW29011   2.987   5.264   0.935
 9371SOL    HW129012   2.891   5.249   0.912
 9371SOL    HW229013   3.011   5.359   0.917
 9372SOL     OW29014   5.257   0.752   2.032
 9372SOL    HW129015   5.253   0.759   1.932
 9372SOL    HW229016   5.237   0.841   2.073
 9373SOL     OW29017   5.150   1.757   2.355
 9373SOL    HW129018   5.202   1.774   2.439
 9373SOL    HW229019   5.197   1.800   2.278
 9374SOL     OW29020   0.278   3.406   0.148
 9374SOL    HW129021   0.235   3.493   0.126
 9374SOL    HW229022   0.370   3.404   0.110
 9375SOL     OW29023   0.753   1.466   1.525
 9375SOL    HW129024   0.658   1.461   1.495
 9375SOL    HW229025   0.792   1.373   1.528
 9376SOL     OW29026   2.368   3.991   1.069
 9376SOL    HW129027   2.435   4.058   1.100
 9376SOL    HW229028   2.286   4.038   1.037
 9377SOL     OW29029   1.915   5.416   3.559
 9377SOL    HW129030   1.947   5.396   3.651
 9377SOL    HW229031   1.988   5.397   3.493
 9378SOL     OW29032   1.610   1.075   3.912
 9378SOL    HW129033   1.645   1.161   3.950
 9378SOL    HW229034   1.596   1.087   3.813
 9379SOL     OW29035   4.999   6.744   5.720
 9379SOL    HW129036   5.065   6.670   5.710
 9379SOL    HW229037   4.910   6.707   5.748
 9380SOL     OW29038   4.729   5.503   5.388
 9380SOL    HW129039   4.817   5.542   5.416
 9380SOL    HW229040   4.694   5.445   5.461
 9381SOL     OW29041   4.453   3.114   5.777
 9381SOL    HW129042   4.523   3.101   5.848
 9381SOL    HW229043   4.497   3.115   5.687
 9382SOL     OW29044   3.460   0.762   4.057
 9382SOL    HW129045   3.517   0.783   3.977
 9382SOL    HW229046   3.501   0.802   4.139
 9383SOL     OW29047   6.403   5.767   4.558
 9383SOL    HW129048   6.476   5.699   4.572
 9383SOL    HW229049   6.419   5.815   4.472
 9384SOL     OW29050   4.331   0.532   1.820
 9384SOL    HW129051   4.407   0.597   1.821
 9384SOL    HW229052   4.348   0.462   1.750
 9385SOL     OW29053   4.035   1.470   3.430
 9385SOL    HW129054   4.012   1.405   3.503
 9385SOL    HW229055   4.134   1.468   3.414
 9386SOL     OW29056   2.822   5.848   5.183
 9386SOL    HW129057   2.786   5.924   5.130
 9386SOL    HW229058   2.823   5.765   5.127
 9387SOL     OW29059   2.890   1.839   0.280
 9387SOL    HW129060   2.977   1.791   0.285
 9387SOL    HW229061   2.820   1.779   0.241
 9388SOL     OW29062   2.736   5.596   3.118
 9388SOL    HW129063   2.745   5.696   3.113
 9388SOL    HW229064   2.824   5.555   3.141
 9389SOL     OW29065   2.122   0.380   3.465
 9389SOL    HW129066   2.217   0.384   3.432
 9389SOL    HW229067   2.061   0.415   3.394
 9390SOL     OW29068   5.810   4.830   6.641
 9390SOL    HW129069   5.753   4.902   6.603
 9390SOL    HW229070   5.907   4.851   6.625
 9391SOL     OW29071   1.432   1.030   5.337
 9391SOL    HW129072   1.354   1.045   5.277
 9391SOL    HW229073   1.512   1.005   5.283
 9392SOL     OW29074   5.628   5.211   5.922
 9392SOL    HW129075   5.643   5.310   5.924
 9392SOL    HW229076   5.546   5.191   5.869
 9393SOL     OW29077   3.525   6.810   6.792
 9393SOL    HW129078   3.620   6.821   6.821
 9393SOL    HW229079   3.469   6.884   6.830
 9394SOL     OW29080   6.843   0.841   1.776
 9394SOL    HW129081   6.833   0.837   1.876
 9394SOL    HW229082   6.789   0.768   1.734
 9395SOL     OW29083   3.405   1.535   1.076
 9395SOL    HW129084   3.451   1.573   0.995
 9395SOL    HW229085   3.403   1.436   1.070
 9396SOL     OW29086   2.318   4.217   4.015
 9396SOL    HW129087   2.295   4.169   4.099
 9396SOL    HW229088   2.356   4.307   4.036
 9397SOL     OW29089   3.568   6.463   6.133
 9397SOL    HW129090   3.628   6.422   6.202
 9397SOL    HW229091   3.508   6.392   6.095
 9398SOL     OW29092   6.220   0.958   5.021
 9398SOL    HW129093   6.196   1.053   5.004
 9398SOL    HW229094   6.288   0.953   5.095
 9399SOL     OW29095   1.239   2.833   5.166
 9399SOL    HW129096   1.313   2.819   5.101
 9399SOL    HW229097   1.260   2.786   5.252
 9400SOL     OW29098   4.866   1.383   1.056
 9400SOL    HW129099   4.925   1.348   1.129
 9400SOL    HW229100   4.911   1.459   1.010
 9401SOL     OW29101   6.514   1.053   3.163
 9401SOL    HW129102   6.567   0.995   3.101
 9401SOL    HW229103   6.543   1.148   3.151
 9402SOL     OW29104   1.226   5.405   2.416
 9402SOL    HW129105   1.292   5.333   2.397
 9402SOL    HW229106   1.153   5.369   2.474
 9403SOL     OW29107   6.529   1.458   1.759
 9403SOL    HW129108   6.467   1.381   1.745
 9403SOL    HW229109   6.550   1.467   1.856
 9404SOL     OW29110   0.916   2.063   0.517
 9404SOL    HW129111   0.997   2.090   0.567
 9404SOL    HW229112   0.934   2.069   0.418
 9405SOL     OW29113   2.271   4.114   3.749
 9405SOL    HW129114   2.287   4.121   3.848
 9405SOL    HW229115   2.304   4.197   3.704
 9406SOL     OW29116   0.264   2.820   6.565
 9406SOL    HW129117   0.181   2.861   6.530
 9406SOL    HW229118   0.281   2.851   6.659
 9407SOL     OW29119   2.579   4.950   3.439
 9407SOL    HW129120   2.498   4.985   3.391
 9407SOL    HW229121   2.559   4.942   3.537
 9408SOL     OW29122   6.284   2.728   5.976
 9408SOL    HW129123   6.229   2.806   6.005
 9408SOL    HW229124   6.227   2.667   5.921
 9409SOL     OW29125   6.383   5.337   0.838
 9409SOL    HW129126   6.449   5.278   0.791
 9409SOL    HW229127   6.314   5.368   0.772
 9410SOL     OW29128   1.666   0.689   2.725
 9410SOL    HW129129   1.628   0.738   2.646
 9410SOL    HW229130   1.608   0.703   2.804
 9411SOL     OW29131   3.916   3.607   3.091
 9411SOL    HW129132   3.843   3.540   3.090
 9411SOL    HW229133   3.895   3.678   3.159
 9412SOL     OW29134   1.301   1.334   2.113
 9412SOL    HW129135   1.270   1.239   2.106
 9412SOL    HW229136   1.321   1.369   2.021
 9413SOL     OW29137   4.374   5.381   3.381
 9413SOL    HW129138   4.349   5.366   3.477
 9413SOL    HW229139   4.390   5.293   3.336
 9414SOL     OW29140   2.738   1.361   2.968
 9414SOL    HW129141   2.797   1.352   2.888
 9414SOL    HW229142   2.647   1.326   2.947
 9415SOL     OW29143   2.140   6.884   2.919
 9415SOL    HW129144   2.162   6.788   2.904
 9415SOL    HW229145   2.224   6.935   2.940
 9416SOL     OW29146   0.132   1.486   6.080
 9416SOL    HW129147   0.156   1.407   6.023
 9416SOL    HW229148   0.145   1.461   6.177
 9417SOL     OW29149   3.635   0.758   0.819
 9417SOL    HW129150   3.543   0.779   0.787
 9417SOL    HW229151   3.632   0.737   0.917
 9418SOL     OW29152   3.031   0.705   1.655
 9418SOL    HW129153   2.997   0.650   1.579
 9418SOL    HW229154   3.090   0.778   1.620
 9419SOL     OW29155   2.116   4.471   6.177
 9419SOL    HW129156   2.157   4.561   6.194
 9419SOL    HW229157   2.033   4.462   6.232
 9420SOL     OW29158   5.721   4.997   0.737
 9420SOL    HW129159   5.709   4.948   0.651
 9420SOL    HW229160   5.668   5.082   0.735
 9421SOL     OW29161   2.624   6.350   4.545
 9421SOL    HW129162   2.722   6.365   4.559
 9421SOL    HW229163   2.588   6.420   4.483
 9422SOL     OW29164   3.256   5.479   2.722
 9422SOL    HW129165   3.163   5.509   2.701
 9422SOL    HW229166   3.320   5.552   2.701
 9423SOL     OW29167   3.435   6.377   3.635
 9423SOL    HW129168   3.452   6.319   3.715
 9423SOL    HW229169   3.514   6.437   3.620
 9424SOL     OW29170   4.588   2.005   4.387
 9424SOL    HW129171   4.528   1.935   4.426
 9424SOL    HW229172   4.537   2.059   4.320
 9425SOL     OW29173   5.304   3.960   1.243
 9425SOL    HW129174   5.240   4.015   1.190
 9425SOL    HW229175   5.270   3.951   1.337
 9426SOL     OW29176   3.449   1.922   6.203
 9426SOL    HW129177   3.543   1.916   6.170
 9426SOL    HW229178   3.399   1.838   6.180
 9427SOL     OW29179   3.046   5.375   3.367
 9427SOL    HW129180   3.139   5.401   3.395
 9427SOL    HW229181   3.036   5.389   3.268
 9428SOL     OW29182   0.115   0.633   1.331
 9428SOL    HW129183   0.123   0.700   1.257
 9428SOL    HW229184   0.078   0.678   1.412
 9429SOL     OW29185   1.869   3.680   3.303
 9429SOL    HW129186   1.839   3.596   3.347
 9429SOL    HW229187   1.884   3.751   3.372
 9430SOL     OW29188   0.270   2.656   5.202
 9430SOL    HW129189   0.303   2.655   5.108
 9430SOL    HW229190   0.262   2.562   5.235
 9431SOL     OW29191   6.422   4.653   0.939
 9431SOL    HW129192   6.443   4.658   0.841
 9431SOL    HW229193   6.328   4.682   0.955
 9432SOL     OW29194   6.083   0.560   3.821
 9432SOL    HW129195   6.064   0.594   3.729
 9432SOL    HW229196   6.146   0.621   3.867
 9433SOL     OW29197   3.025   6.155   3.182
 9433SOL    HW129198   3.017   6.208   3.097
 9433SOL    HW229199   3.091   6.081   3.168
 9434SOL     OW29200   5.406   5.962   2.165
 9434SOL    HW129201   5.346   6.041   2.155
 9434SOL    HW229202   5.418   5.942   2.263
 9435SOL     OW29203   0.226   2.535   3.713
 9435SOL    HW129204   0.186   2.471   3.648
 9435SOL    HW229205   0.235   2.625   3.670
 9436SOL     OW29206   1.532   2.585   1.576
 9436SOL    HW129207   1.572   2.659   1.522
 9436SOL    HW229208   1.445   2.616   1.615
 9437SOL     OW29209   0.567   6.164   2.824
 9437SOL    HW129210   0.599   6.245   2.776
 9437SOL    HW229211   0.565   6.086   2.760
 9438SOL     OW29212   0.518   0.195   2.032
 9438SOL    HW129213   0.610   0.233   2.022
 9438SOL    HW229214   0.477   0.227   2.118
 9439SOL     OW29215   0.842   3.082   0.037
 9439SOL    HW129216   0.891   3.138   6.993
 9439SOL    HW229217   0.778   3.139   0.088
 9440SOL     OW29218   3.801   4.894   2.891
 9440SOL    HW129219   3.803   4.993   2.883
 9440SOL    HW229220   3.771   4.869   2.983
 9441SOL     OW29221   5.890   4.544   5.942
 9441SOL    HW129222   5.795   4.526   5.916
 9441SOL    HW229223   5.949   4.525   5.864
 9442SOL     OW29224   5.562   3.754   1.464
 9442SOL    HW129225   5.592   3.725   1.555
 9442SOL    HW229226   5.467   3.784   1.468
 9443SOL     OW29227   2.521   5.148   0.710
 9443SOL    HW129228   2.446   5.184   0.654
 9443SOL    HW229229   2.513   5.049   0.718
 9444SOL     OW29230   1.834   3.652   0.651
 9444SOL    HW129231   1.761   3.705   0.693
 9444SOL    HW229232   1.875   3.591   0.719
 9445SOL     OW29233   6.105   3.425   2.754
 9445SOL    HW129234   6.101   3.480   2.838
 9445SOL    HW229235   6.192   3.443   2.707
 9446SOL     OW29236   6.079   5.199   5.305
 9446SOL    HW129237   6.107   5.193   5.209
 9446SOL    HW229238   6.042   5.291   5.323
 9447SOL     OW29239   5.505   4.927   3.800
 9447SOL    HW129240   5.599   4.892   3.801
 9447SOL    HW229241   5.441   4.850   3.800
 9448SOL     OW29242   6.938   6.953   6.114
 9448SOL    HW129243   6.952   0.028   6.131
 9448SOL    HW229244   6.884   6.913   6.188
 9449SOL     OW29245   5.381   7.001   0.018
 9449SOL    HW129246   5.325   6.940   6.984
 9449SOL    HW229247   5.334   7.019   0.105
 9450SOL     OW29248   2.461   5.817   3.032
 9450SOL    HW129249   2.367   5.811   3.066
 9450SOL    HW229250   2.521   5.759   3.087
 9451SOL     OW29251   4.619   6.191   5.930
 9451SOL    HW129252   4.663   6.267   5.978
 9451SOL    HW229253   4.531   6.221   5.894
 9452SOL     OW29254   1.667   3.912   6.706
 9452SOL    HW129255   1.589   3.972   6.723
 9452SOL    HW229256   1.748   3.968   6.685
 9453SOL     OW29257   2.760   5.424   2.825
 9453SOL    HW129258   2.669   5.383   2.824
 9453SOL    HW229259   2.819   5.373   2.887
 9454SOL     OW29260   3.312   3.568   6.534
 9454SOL    HW129261   3.343   3.473   6.522
 9454SOL    HW229262   3.388   3.630   6.516
 9455SOL     OW29263   2.612   1.796   3.712
 9455SOL    HW129264   2.704   1.791   3.675
 9455SOL    HW229265   2.548   1.750   3.650
 9456SOL     OW29266   6.940   3.197   0.217
 9456SOL    HW129267   6.993   3.191   0.302
 9456SOL    HW229268   7.003   3.203   0.140
 9457SOL     OW29269   0.988   4.342   4.246
 9457SOL    HW129270   0.976   4.341   4.345
 9457SOL    HW229271   0.915   4.289   4.202
 9458SOL     OW29272   0.341   3.465   6.219
 9458SOL    HW129273   0.409   3.537   6.233
 9458SOL    HW229274   0.388   3.378   6.202
 9459SOL     OW29275   5.019   4.783   3.692
 9459SOL    HW129276   5.076   4.821   3.619
 9459SOL    HW229277   4.976   4.698   3.660
 9460SOL     OW29278   2.072   3.853   4.667
 9460SOL    HW129279   2.070   3.753   4.654
 9460SOL    HW229280   2.052   3.898   4.580
 9461SOL     OW29281   0.476   1.795   1.520
 9461SOL    HW129282   0.516   1.880   1.553
 9461SOL    HW229283   0.498   1.782   1.424
 9462SOL     OW29284   1.648   3.313   3.547
 9462SOL    HW129285   1.713   3.307   3.471
 9462SOL    HW229286   1.689   3.270   3.628
 9463SOL     OW29287   6.010   0.496   1.470
 9463SOL    HW129288   6.030   0.516   1.374
 9463SOL    HW229289   6.095   0.489   1.521
 9464SOL     OW29290   5.928   0.265   0.866
 9464SOL    HW129291   5.981   0.335   0.818
 9464SOL    HW229292   5.966   0.252   0.958
 9465SOL     OW29293   0.065   3.937   1.470
 9465SOL    HW129294   6.991   3.963   1.460
 9465SOL    HW229295   0.079   3.897   1.560
 9466SOL     OW29296   3.206   4.312   5.330
 9466SOL    HW129297   3.196   4.407   5.303
 9466SOL    HW229298   3.139   4.256   5.282
 9467SOL     OW29299   1.568   2.757   1.093
 9467SOL    HW129300   1.622   2.749   1.177
 9467SOL    HW229301   1.471   2.765   1.117
 9468SOL     OW29302   5.513   4.057   6.543
 9468SOL    HW129303   5.575   4.115   6.490
 9468SOL    HW229304   5.423   4.100   6.548
 9469SOL     OW29305   0.337   5.263   1.934
 9469SOL    HW129306   0.358   5.330   1.862
 9469SOL    HW229307   0.253   5.290   1.981
 9470SOL     OW29308   5.074   3.220   0.009
 9470SOL    HW129309   5.102   3.171   0.091
 9470SOL    HW229310   4.995   3.277   0.028
 9471SOL     OW29311   6.350   2.748   4.317
 9471SOL    HW129312   6.358   2.678   4.388
 9471SOL    HW229313   6.302   2.709   4.238
 9472SOL     OW29314   6.610   2.896   5.236
 9472SOL    HW129315   6.523   2.849   5.242
 9472SOL    HW229316   6.668   2.851   5.168
 9473SOL     OW29317   3.178   4.789   0.233
 9473SOL    HW129318   3.261   4.781   0.288
 9473SOL    HW229319   3.112   4.720   0.264
 9474SOL     OW29320   6.951   3.733   0.659
 9474SOL    HW129321   0.016   3.728   0.709
 9474SOL    HW229322   6.967   3.714   0.562
 9475SOL     OW29323   3.845   3.035   0.258
 9475SOL    HW129324   3.929   3.014   0.308
 9475SOL    HW229325   3.771   3.053   0.322
 9476SOL     OW29326   4.019   3.892   4.369
 9476SOL    HW129327   4.013   3.963   4.300
 9476SOL    HW229328   4.089   3.825   4.343
 9477SOL     OW29329   1.003   3.060   0.309
 9477SOL    HW129330   0.938   3.097   0.243
 9477SOL    HW229331   0.986   3.099   0.399
 9478SOL     OW29332   5.403   3.471   1.353
 9478SOL    HW129333   5.485   3.526   1.337
 9478SOL    HW229334   5.329   3.529   1.386
 9479SOL     OW29335   4.307   6.537   0.398
 9479SOL    HW129336   4.366   6.599   0.449
 9479SOL    HW229337   4.278   6.582   0.313
 9480SOL     OW29338   5.635   5.046   0.312
 9480SOL    HW129339   5.619   5.124   0.372
 9480SOL    HW229340   5.631   4.962   0.366
 9481SOL     OW29341   4.903   3.463   2.380
 9481SOL    HW129342   4.899   3.532   2.308
 9481SOL    HW229343   4.999   3.441   2.399
 9482SOL     OW29344   0.343   1.241   2.709
 9482SOL    HW129345   0.375   1.200   2.623
 9482SOL    HW229346   0.407   1.313   2.737
 9483SOL     OW29347   1.586   0.207   0.734
 9483SOL    HW129348   1.645   0.137   0.693
 9483SOL    HW229349   1.505   0.219   0.677
 9484SOL     OW29350   4.169   6.863   4.509
 9484SOL    HW129351   4.231   6.834   4.581
 9484SOL    HW229352   4.103   6.929   4.546
 9485SOL     OW29353   0.424   0.883   0.785
 9485SOL    HW129354   0.470   0.928   0.861
 9485SOL    HW229355   0.480   0.806   0.753
 9486SOL     OW29356   4.065   6.234   1.109
 9486SOL    HW129357   4.068   6.320   1.059
 9486SOL    HW229358   4.096   6.159   1.050
 9487SOL     OW29359   3.116   3.898   3.996
 9487SOL    HW129360   3.141   3.805   4.025
 9487SOL    HW229361   3.029   3.923   4.039
 9488SOL     OW29362   2.586   0.017   1.379
 9488SOL    HW129363   2.676   7.009   1.413
 9488SOL    HW229364   2.591   0.031   1.281
 9489SOL     OW29365   4.804   4.247   1.501
 9489SOL    HW129366   4.778   4.258   1.405
 9489SOL    HW229367   4.734   4.288   1.559
 9490SOL     OW29368   5.980   5.403   2.672
 9490SOL    HW129369   5.953   5.415   2.767
 9490SOL    HW229370   6.051   5.332   2.666
 9491SOL     OW29371   5.090   4.401   4.436
 9491SOL    HW129372   5.060   4.496   4.430
 9491SOL    HW229373   5.059   4.362   4.523
 9492SOL     OW29374   3.899   3.244   4.789
 9492SOL    HW129375   3.802   3.267   4.784
 9492SOL    HW229376   3.934   3.227   4.697
 9493SOL     OW29377   2.514   5.761   4.011
 9493SOL    HW129378   2.542   5.764   4.107
 9493SOL    HW229379   2.518   5.853   3.972
 9494SOL     OW29380   5.617   3.066   2.975
 9494SOL    HW129381   5.535   3.021   2.938
 9494SOL    HW229382   5.698   3.017   2.943
 9495SOL     OW29383   6.879   2.166   3.354
 9495SOL    HW129384   6.921   2.203   3.271
 9495SOL    HW229385   6.895   2.229   3.430
 9496SOL     OW29386   6.225   3.593   1.738
 9496SOL    HW129387   6.190   3.596   1.832
 9496SOL    HW229388   6.166   3.647   1.679
 9497SOL     OW29389   6.036   6.840   5.278
 9497SOL    HW129390   6.037   6.824   5.377
 9497SOL    HW229391   5.943   6.826   5.243
 9498SOL     OW29392   5.742   5.725   4.340
 9498SOL    HW129393   5.672   5.794   4.323
 9498SOL    HW229394   5.772   5.731   4.435
 9499SOL     OW29395   2.147   4.984   6.260
 9499SOL    HW129396   2.178   4.936   6.178
 9499SOL    HW229397   2.211   4.967   6.335
 9500SOL     OW29398   4.675   0.187   0.646
 9500SOL    HW129399   4.747   0.235   0.596
 9500SOL    HW229400   4.670   0.221   0.740
 9501SOL     OW29401   2.784   0.960   5.093
 9501SOL    HW129402   2.715   0.946   5.164
 9501SOL    HW229403   2.790   1.057   5.070
 9502SOL     OW29404   5.935   2.497   5.045
 9502SOL    HW129405   6.030   2.479   5.068
 9502SOL    HW229406   5.888   2.537   5.124
 9503SOL     OW29407   0.311   1.400   0.583
 9503SOL    HW129408   0.379   1.450   0.530
 9503SOL    HW229409   0.339   1.304   0.591
 9504SOL     OW29410   6.912   3.551   0.282
 9504SOL    HW129411   6.913   3.482   0.355
 9504SOL    HW229412   6.896   3.506   0.194
 9505SOL     OW29413   5.150   4.764   4.863
 9505SOL    HW129414   5.177   4.813   4.946
 9505SOL    HW229415   5.069   4.807   4.823
 9506SOL     OW29416   1.809   2.488   6.686
 9506SOL    HW129417   1.909   2.489   6.689
 9506SOL    HW229418   1.774   2.416   6.745
 9507SOL     OW29419   0.629   1.201   2.114
 9507SOL    HW129420   0.681   1.262   2.174
 9507SOL    HW229421   0.690   1.131   2.076
 9508SOL     OW29422   6.372   2.013   1.948
 9508SOL    HW129423   6.292   1.960   1.920
 9508SOL    HW229424   6.433   2.024   1.869
 9509SOL     OW29425   0.172   0.939   4.169
 9509SOL    HW129426   0.264   0.904   4.186
 9509SOL    HW229427   0.120   0.873   4.115
 9510SOL     OW29428   1.766   3.821   3.720
 9510SOL    HW129429   1.669   3.812   3.701
 9510SOL    HW229430   1.780   3.880   3.800
 9511SOL     OW29431   1.796   0.198   1.052
 9511SOL    HW129432   1.777   0.136   1.129
 9511SOL    HW229433   1.731   0.274   1.054
 9512SOL     OW29434   6.151   2.025   1.406
 9512SOL    HW129435   6.086   1.952   1.427
 9512SOL    HW229436   6.110   2.088   1.341
 9513SOL     OW29437   2.211   4.207   6.231
 9513SOL    HW129438   2.129   4.156   6.258
 9513SOL    HW229439   2.185   4.300   6.204
 9514SOL     OW29440   2.377   5.644   5.870
 9514SOL    HW129441   2.473   5.615   5.865
 9514SOL    HW229442   2.326   5.581   5.929
 9515SOL     OW29443   1.647   5.641   1.086
 9515SOL    HW129444   1.593   5.598   1.159
 9515SOL    HW229445   1.742   5.613   1.094
 9516SOL     OW29446   6.132   5.082   6.792
 9516SOL    HW129447   6.171   4.992   6.771
 9516SOL    HW229448   6.081   5.115   6.712
 9517SOL     OW29449   1.440   3.818   1.501
 9517SOL    HW129450   1.519   3.766   1.533
 9517SOL    HW229451   1.470   3.888   1.436
 9518SOL     OW29452   2.043   1.674   0.510
 9518SOL    HW129453   1.982   1.751   0.528
 9518SOL    HW229454   1.996   1.589   0.533
 9519SOL     OW29455   3.485   3.209   4.590
 9519SOL    HW129456   3.490   3.264   4.674
 9519SOL    HW229457   3.509   3.114   4.610
 9520SOL     OW29458   2.485   1.801   2.891
 9520SOL    HW129459   2.537   1.863   2.949
 9520SOL    HW229460   2.396   1.783   2.932
 9521SOL     OW29461   5.234   6.188   2.152
 9521SOL    HW129462   5.278   6.277   2.158
 9521SOL    HW229463   5.142   6.199   2.113
 9522SOL     OW29464   2.543   5.445   1.394
 9522SOL    HW129465   2.472   5.478   1.333
 9522SOL    HW229466   2.631   5.444   1.346
 9523SOL     OW29467   3.202   5.389   4.778
 9523SOL    HW129468   3.122   5.337   4.807
 9523SOL    HW229469   3.219   5.373   4.681
 9524SOL     OW29470   3.556   2.844   1.645
 9524SOL    HW129471   3.587   2.840   1.550
 9524SOL    HW229472   3.470   2.794   1.654
 9525SOL     OW29473   2.223   3.066   5.927
 9525SOL    HW129474   2.245   3.080   6.023
 9525SOL    HW229475   2.156   2.992   5.918
 9526SOL     OW29476   5.180   5.641   1.905
 9526SOL    HW129477   5.195   5.730   1.862
 9526SOL    HW229478   5.174   5.652   2.004
 9527SOL     OW29479   0.864   0.550   2.785
 9527SOL    HW129480   0.927   0.557   2.863
 9527SOL    HW229481   0.847   0.454   2.765
 9528SOL     OW29482   6.879   0.828   0.035
 9528SOL    HW129483   6.861   0.906   0.095
 9528SOL    HW229484   6.932   0.760   0.085
 9529SOL     OW29485   6.212   2.926   5.288
 9529SOL    HW129486   6.268   2.844   5.277
 9529SOL    HW229487   6.246   2.979   5.366
 9530SOL     OW29488   1.901   3.559   2.372
 9530SOL    HW129489   1.827   3.552   2.438
 9530SOL    HW229490   1.881   3.631   2.306
 9531SOL     OW29491   4.389   5.943   2.755
 9531SOL    HW129492   4.301   5.939   2.706
 9531SOL    HW229493   4.434   5.854   2.748
 9532SOL     OW29494   6.860   6.451   2.366
 9532SOL    HW129495   6.853   6.549   2.349
 9532SOL    HW229496   6.772   6.407   2.346
 9533SOL     OW29497   6.617   0.338   5.066
 9533SOL    HW129498   6.644   0.299   5.154
 9533SOL    HW229499   6.640   0.274   4.993
 9534SOL     OW29500   6.233   3.346   5.400
 9534SOL    HW129501   6.137   3.325   5.381
 9534SOL    HW229502   6.287   3.333   5.316
 9535SOL     OW29503   2.371   1.265   5.495
 9535SOL    HW129504   2.465   1.288   5.521
 9535SOL    HW229505   2.364   1.259   5.396
 9536SOL     OW29506   3.155   4.615   5.276
 9536SOL    HW129507   3.108   4.680   5.335
 9536SOL    HW229508   3.088   4.572   5.215
 9537SOL     OW29509   2.838   6.733   2.921
 9537SOL    HW129510   2.815   6.648   2.969
 9537SOL    HW229511   2.771   6.803   2.944
 9538SOL     OW29512   6.658   2.516   3.987
 9538SOL    HW129513   6.589   2.560   3.929
 9538SOL    HW229514   6.623   2.428   4.020
 9539SOL     OW29515   1.501   3.348   5.171
 9539SOL    HW129516   1.457   3.415   5.111
 9539SOL    HW229517   1.597   3.340   5.146
 9540SOL     OW29518   5.415   3.802   4.241
 9540SOL    HW129519   5.486   3.734   4.221
 9540SOL    HW229520   5.375   3.782   4.330
 9541SOL     OW29521   3.045   1.658   5.924
 9541SOL    HW129522   2.967   1.600   5.950
 9541SOL    HW229523   3.018   1.754   5.927
 9542SOL     OW29524   5.015   3.695   4.409
 9542SOL    HW129525   5.112   3.715   4.423
 9542SOL    HW229526   4.985   3.626   4.475
 9543SOL     OW29527   2.780   0.903   4.551
 9543SOL    HW129528   2.814   0.810   4.556
 9543SOL    HW229529   2.687   0.907   4.585
 9544SOL     OW29530   0.346   1.642   3.182
 9544SOL    HW129531   0.395   1.729   3.192
 9544SOL    HW229532   0.250   1.656   3.207
 9545SOL     OW29533   6.558   5.027   3.675
 9545SOL    HW129534   6.498   4.963   3.722
 9545SOL    HW229535   6.546   5.119   3.713
 9546SOL     OW29536   2.662   2.385   6.044
 9546SOL    HW129537   2.564   2.366   6.046
 9546SOL    HW229538   2.678   2.483   6.037
 9547SOL     OW29539   2.381   6.445   3.973
 9547SOL    HW129540   2.372   6.522   3.910
 9547SOL    HW229541   2.317   6.458   4.050
 9548SOL     OW29542   6.081   6.359   4.952
 9548SOL    HW129543   6.030   6.442   4.977
 9548SOL    HW229544   6.143   6.334   5.026
 9549SOL     OW29545   2.884   3.832   1.305
 9549SOL    HW129546   2.974   3.797   1.277
 9549SOL    HW229547   2.812   3.780   1.260
 9550SOL     OW29548   0.006   1.327   6.947
 9550SOL    HW129549   6.933   1.353   6.937
 9550SOL    HW229550   0.012   1.234   6.984
 9551SOL     OW29551   6.391   0.944   4.148
 9551SOL    HW129552   6.478   0.979   4.114
 9551SOL    HW229553   6.378   0.850   4.116
 9552SOL     OW29554   0.989   5.798   2.472
 9552SOL    HW129555   0.939   5.884   2.482
 9552SOL    HW229556   0.974   5.762   2.380
 9553SOL     OW29557   6.343   3.918   6.897
 9553SOL    HW129558   6.313   4.013   6.899
 9553SOL    HW229559   6.353   3.885   6.991
 9554SOL     OW29560   2.470   0.288   1.362
 9554SOL    HW129561   2.515   0.200   1.377
 9554SOL    HW229562   2.407   0.307   1.437
 9555SOL     OW29563   0.897   1.194   1.515
 9555SOL    HW129564   0.864   1.110   1.471
 9555SOL    HW229565   0.980   1.226   1.468
 9556SOL     OW29566   3.099   2.680   0.820
 9556SOL    HW129567   3.094   2.582   0.798
 9556SOL    HW229568   3.047   2.732   0.753
 9557SOL     OW29569   6.564   0.765   3.027
 9557SOL    HW129570   6.544   0.674   3.064
 9557SOL    HW229571   6.495   0.789   2.960
 9558SOL     OW29572   6.110   5.537   4.423
 9558SOL    HW129573   6.186   5.544   4.487
 9558SOL    HW229574   6.121   5.605   4.350
 9559SOL     OW29575   0.186   3.649   1.421
 9559SOL    HW129576   0.100   3.687   1.390
 9559SOL    HW229577   0.206   3.565   1.370
 9560SOL     OW29578   1.286   1.786   2.719
 9560SOL    HW129579   1.378   1.816   2.694
 9560SOL    HW229580   1.220   1.826   2.654
 9561SOL     OW29581   1.825   6.650   0.536
 9561SOL    HW129582   1.794   6.701   0.455
 9561SOL    HW229583   1.825   6.552   0.516
 9562SOL     OW29584   3.373   6.624   4.958
 9562SOL    HW129585   3.319   6.590   4.880
 9562SOL    HW229586   3.358   6.564   5.037
 9563SOL     OW29587   5.885   6.743   0.262
 9563SOL    HW129588   5.893   6.840   0.239
 9563SOL    HW229589   5.841   6.695   0.186
 9564SOL     OW29590   2.952   6.936   6.704
 9564SOL    HW129591   2.934   6.916   6.801
 9564SOL    HW229592   2.939   0.012   6.688
 9565SOL     OW29593   4.327   6.184   5.387
 9565SOL    HW129594   4.335   6.090   5.420
 9565SOL    HW229595   4.351   6.188   5.290
 9566SOL     OW29596   3.464   4.628   0.284
 9566SOL    HW129597   3.491   4.700   0.220
 9566SOL    HW229598   3.545   4.577   0.313
 9567SOL     OW29599   6.810   5.059   6.442
 9567SOL    HW129600   6.756   5.052   6.527
 9567SOL    HW229601   6.762   5.010   6.369
 9568SOL     OW29602   5.024   2.559   6.899
 9568SOL    HW129603   5.073   2.617   6.965
 9568SOL    HW229604   4.953   2.613   6.854
 9569SOL     OW29605   0.231   0.595   2.159
 9569SOL    HW129606   0.165   0.657   2.117
 9569SOL    HW229607   0.293   0.648   2.218
 9570SOL     OW29608   0.782   2.208   1.699
 9570SOL    HW129609   0.833   2.294   1.695
 9570SOL    HW229610   0.846   2.131   1.698
 9571SOL     OW29611   2.758   3.750   6.932
 9571SOL    HW129612   2.828   3.747   6.861
 9571SOL    HW229613   2.679   3.695   6.903
 9572SOL     OW29614   1.734   5.223   1.162
 9572SOL    HW129615   1.718   5.243   1.065
 9572SOL    HW229616   1.687   5.292   1.218
 9573SOL     OW29617   0.386   1.657   6.526
 9573SOL    HW129618   0.471   1.697   6.560
 9573SOL    HW229619   0.367   1.691   6.434
 9574SOL     OW29620   4.056   3.128   4.473
 9574SOL    HW129621   3.958   3.106   4.466
 9574SOL    HW229622   4.107   3.045   4.497
 9575SOL     OW29623   5.283   0.636   0.863
 9575SOL    HW129624   5.294   0.652   0.765
 9575SOL    HW229625   5.195   0.591   0.880
 9576SOL     OW29626   2.846   0.913   2.916
 9576SOL    HW129627   2.904   0.907   2.835
 9576SOL    HW229628   2.753   0.936   2.888
 9577SOL     OW29629   1.151   0.851   3.490
 9577SOL    HW129630   1.144   0.811   3.581
 9577SOL    HW229631   1.068   0.903   3.470
 9578SOL     OW29632   0.086   3.853   3.415
 9578SOL    HW129633   0.103   3.939   3.463
 9578SOL    HW229634   0.173   3.812   3.388
 9579SOL     OW29635   1.284   5.225   3.228
 9579SOL    HW129636   1.223   5.291   3.270
 9579SOL    HW229637   1.356   5.273   3.178
 9580SOL     OW29638   4.993   2.841   1.100
 9580SOL    HW129639   4.978   2.869   1.005
 9580SOL    HW229640   5.074   2.887   1.136
 9581SOL     OW29641   1.456   5.421   6.706
 9581SOL    HW129642   1.395   5.436   6.784
 9581SOL    HW229643   1.402   5.415   6.623
 9582SOL     OW29644   4.285   4.816   4.863
 9582SOL    HW129645   4.307   4.730   4.908
 9582SOL    HW229646   4.188   4.837   4.875
 9583SOL     OW29647   2.822   3.420   1.253
 9583SOL    HW129648   2.764   3.433   1.333
 9583SOL    HW229649   2.895   3.356   1.275
 9584SOL     OW29650   5.900   6.157   6.909
 9584SOL    HW129651   5.947   6.069   6.916
 9584SOL    HW229652   5.801   6.141   6.907
 9585SOL     OW29653   6.584   1.291   3.052
 9585SOL    HW129654   6.652   1.249   2.992
 9585SOL    HW229655   6.631   1.345   3.122
 9586SOL     OW29656   6.098   3.987   1.732
 9586SOL    HW129657   6.145   4.073   1.714
 9586SOL    HW229658   6.040   3.996   1.813
 9587SOL     OW29659   6.190   0.259   2.559
 9587SOL    HW129660   6.109   0.206   2.532
 9587SOL    HW229661   6.251   0.201   2.613
 9588SOL     OW29662   0.668   1.621   2.060
 9588SOL    HW129663   0.615   1.672   2.128
 9588SOL    HW229664   0.677   1.674   1.977
 9589SOL     OW29665   2.938   5.795   6.224
 9589SOL    HW129666   2.882   5.873   6.196
 9589SOL    HW229667   2.974   5.811   6.316
 9590SOL     OW29668   0.131   4.875   2.622
 9590SOL    HW129669   0.111   4.841   2.530
 9590SOL    HW229670   0.077   4.824   2.689
 9591SOL     OW29671   3.356   5.586   0.044
 9591SOL    HW129672   3.342   5.521   6.991
 9591SOL    HW229673   3.309   5.672   0.023
 9592SOL     OW29674   3.817   5.147   1.867
 9592SOL    HW129675   3.797   5.117   1.960
 9592SOL    HW229676   3.731   5.172   1.821
 9593SOL     OW29677   5.434   0.825   4.738
 9593SOL    HW129678   5.484   0.748   4.699
 9593SOL    HW229679   5.486   0.864   4.814
 9594SOL     OW29680   0.203   5.608   3.599
 9594SOL    HW129681   0.132   5.570   3.659
 9594SOL    HW229682   0.211   5.551   3.518
 9595SOL     OW29683   1.930   4.261   4.236
 9595SOL    HW129684   1.949   4.349   4.280
 9595SOL    HW229685   1.988   4.253   4.154
 9596SOL     OW29686   0.264   5.305   0.195
 9596SOL    HW129687   0.293   5.319   0.101
 9596SOL    HW229688   0.336   5.334   0.257
 9597SOL     OW29689   6.935   4.154   1.077
 9597SOL    HW129690   6.953   4.218   1.152
 9597SOL    HW229691   7.018   4.145   1.022
 9598SOL     OW29692   0.496   3.826   5.163
 9598SOL    HW129693   0.471   3.781   5.077
 9598SOL    HW229694   0.524   3.756   5.229
 9599SOL     OW29695   2.829   0.495   4.735
 9599SOL    HW129696   2.741   0.485   4.781
 9599SOL    HW229697   2.814   0.531   4.643
 9600SOL     OW29698   2.322   7.011   5.892
 9600SOL    HW129699   2.416   6.993   5.863
 9600SOL    HW229700   2.290   6.934   5.947
 9601SOL     OW29701   6.260   4.130   5.885
 9601SOL    HW129702   6.162   4.148   5.899
 9601SOL    HW229703   6.297   4.084   5.966
 9602SOL     OW29704   6.995   4.845   6.616
 9602SOL    HW129705   6.915   4.882   6.663
 9602SOL    HW229706   0.056   4.870   6.666
 9603SOL     OW29707   2.034   6.972   4.287
 9603SOL    HW129708   1.946   6.934   4.317
 9603SOL    HW229709   2.108   6.914   4.322
 9604SOL     OW29710   5.090   0.392   0.658
 9604SOL    HW129711   5.044   0.479   0.674
 9604SOL    HW229712   5.054   0.324   0.722
 9605SOL     OW29713   0.254   4.940   6.005
 9605SOL    HW129714   0.177   4.905   5.952
 9605SOL    HW229715   0.272   5.035   5.980
 9606SOL     OW29716   0.906   6.594   4.669
 9606SOL    HW129717   0.879   6.556   4.580
 9606SOL    HW229718   0.931   6.691   4.657
 9607SOL     OW29719   1.249   1.992   1.905
 9607SOL    HW129720   1.227   1.896   1.888
 9607SOL    HW229721   1.294   2.031   1.824
 9608SOL     OW29722   0.329   6.555   2.590
 9608SOL    HW129723   0.378   6.495   2.526
 9608SOL    HW229724   0.239   6.577   2.552
 9609SOL     OW29725   1.312   3.596   5.258
 9609SOL    HW129726   1.297   3.524   5.326
 9609SOL    HW229727   1.397   3.644   5.279
 9610SOL     OW29728   1.789   3.461   5.532
 9610SOL    HW129729   1.755   3.379   5.487
 9610SOL    HW229730   1.858   3.505   5.475
 9611SOL     OW29731   0.359   6.883   1.091
 9611SOL    HW129732   0.315   6.964   1.052
 9611SOL    HW229733   0.289   6.820   1.124
 9612SOL     OW29734   6.078   3.059   0.841
 9612SOL    HW129735   6.109   2.984   0.784
 9612SOL    HW229736   6.024   3.023   0.917
 9613SOL     OW29737   5.011   6.211   4.074
 9613SOL    HW129738   5.100   6.243   4.108
 9613SOL    HW229739   4.963   6.163   4.147
 9614SOL     OW29740   3.862   3.880   1.388
 9614SOL    HW129741   3.802   3.802   1.372
 9614SOL    HW229742   3.855   3.909   1.483
 9615SOL     OW29743   1.586   6.455   2.457
 9615SOL    HW129744   1.501   6.506   2.447
 9615SOL    HW229745   1.567   6.363   2.491
 9616SOL     OW29746   4.404   3.395   1.126
 9616SOL    HW129747   4.405   3.398   1.026
 9616SOL    HW229748   4.487   3.350   1.159
 9617SOL     OW29749   1.353   3.928   4.525
 9617SOL    HW129750   1.316   4.009   4.570
 9617SOL    HW229751   1.285   3.855   4.527
 9618SOL     OW29752   3.222   0.180   0.020
 9618SOL    HW129753   3.206   0.138   0.110
 9618SOL    HW229754   3.135   0.185   6.992
 9619SOL     OW29755   1.392   0.197   0.977
 9619SOL    HW129756   1.437   0.267   1.032
 9619SOL    HW229757   1.443   0.112   0.984
 9620SOL     OW29758   4.689   2.015   0.203
 9620SOL    HW129759   4.597   2.035   0.169
 9620SOL    HW229760   4.729   1.943   0.147
 9621SOL     OW29761   1.504   1.042   2.048
 9621SOL    HW129762   1.565   1.043   2.127
 9621SOL    HW229763   1.529   1.116   1.985
 9622SOL     OW29764   6.151   1.241   7.007
 9622SOL    HW129765   6.158   1.143   6.990
 9622SOL    HW229766   6.200   1.264   0.069
 9623SOL     OW29767   4.356   5.045   6.415
 9623SOL    HW129768   4.429   4.978   6.421
 9623SOL    HW229769   4.390   5.128   6.370
 9624SOL     OW29770   5.314   4.457   5.141
 9624SOL    HW129771   5.335   4.531   5.077
 9624SOL    HW229772   5.399   4.422   5.180
 9625SOL     OW29773   4.670   4.299   6.853
 9625SOL    HW129774   4.751   4.356   6.865
 9625SOL    HW229775   4.640   4.265   6.943
 9626SOL     OW29776   2.196   5.794   4.560
 9626SOL    HW129777   2.209   5.872   4.621
 9626SOL    HW229778   2.270   5.728   4.574
 9627SOL     OW29779   0.548   4.518   5.070
 9627SOL    HW129780   0.644   4.511   5.041
 9627SOL    HW229781   0.533   4.606   5.116
 9628SOL     OW29782   5.694   3.732   0.673
 9628SOL    HW129783   5.772   3.787   0.704
 9628SOL    HW229784   5.705   3.712   0.576
 9629SOL     OW29785   6.810   6.275   3.094
 9629SOL    HW129786   6.858   6.226   3.166
 9629SOL    HW229787   6.876   6.309   3.027
 9630SOL     OW29788   6.341   5.996   5.565
 9630SOL    HW129789   6.274   6.055   5.519
 9630SOL    HW229790   6.335   6.009   5.664
 9631SOL     OW29791   4.579   1.730   0.920
 9631SOL    HW129792   4.484   1.760   0.930
 9631SOL    HW229793   4.592   1.644   0.969
 9632SOL     OW29794   2.142   5.393   1.360
 9632SOL    HW129795   2.170   5.414   1.267
 9632SOL    HW229796   2.091   5.307   1.361
 9633SOL     OW29797   4.147   3.635   0.483
 9633SOL    HW129798   4.150   3.566   0.410
 9633SOL    HW229799   4.061   3.685   0.478
 9634SOL     OW29800   6.083   5.368   3.258
 9634SOL    HW129801   6.152   5.434   3.286
 9634SOL    HW229802   6.002   5.377   3.316
 9635SOL     OW29803   0.847   4.521   5.696
 9635SOL    HW129804   0.748   4.515   5.691
 9635SOL    HW229805   0.878   4.495   5.787
 9636SOL     OW29806   3.771   1.611   6.385
 9636SOL    HW129807   3.793   1.588   6.480
 9636SOL    HW229808   3.842   1.576   6.325
 9637SOL     OW29809   3.506   3.368   1.348
 9637SOL    HW129810   3.550   3.311   1.279
 9637SOL    HW229811   3.423   3.409   1.309
 9638SOL     OW29812   0.164   3.380   6.035
 9638SOL    HW129813   0.225   3.409   6.109
 9638SOL    HW229814   0.215   3.323   5.971
 9639SOL     OW29815   4.154   2.245   1.896
 9639SOL    HW129816   4.186   2.291   1.813
 9639SOL    HW229817   4.066   2.200   1.876
 9640SOL     OW29818   3.226   0.811   2.307
 9640SOL    HW129819   3.325   0.801   2.300
 9640SOL    HW229820   3.202   0.909   2.307
 9641SOL     OW29821   5.629   6.369   2.173
 9641SOL    HW129822   5.633   6.294   2.107
 9641SOL    HW229823   5.640   6.332   2.265
 9642SOL     OW29824   1.088   6.665   4.031
 9642SOL    HW129825   0.996   6.628   4.039
 9642SOL    HW229826   1.150   6.614   4.090
 9643SOL     OW29827   5.252   3.735   3.854
 9643SOL    HW129828   5.166   3.734   3.904
 9643SOL    HW229829   5.319   3.678   3.901
 9644SOL     OW29830   2.043   5.894   5.195
 9644SOL    HW129831   2.034   5.911   5.096
 9644SOL    HW229832   2.017   5.799   5.214
 9645SOL     OW29833   2.391   4.566   5.005
 9645SOL    HW129834   2.368   4.560   5.102
 9645SOL    HW229835   2.375   4.478   4.961
 9646SOL     OW29836   2.987   5.587   2.711
 9646SOL    HW129837   2.988   5.614   2.807
 9646SOL    HW229838   2.950   5.662   2.656
 9647SOL     OW29839   0.101   0.046   3.176
 9647SOL    HW129840   0.149   6.989   3.140
 9647SOL    HW229841   0.012   0.017   3.212
 9648SOL     OW29842   4.749   2.952   1.178
 9648SOL    HW129843   4.716   2.990   1.265
 9648SOL    HW229844   4.844   2.979   1.164
 9649SOL     OW29845   2.369   4.036   6.734
 9649SOL    HW129846   2.373   4.132   6.761
 9649SOL    HW229847   2.442   4.017   6.668
 9650SOL     OW29848   5.094   4.034   3.220
 9650SOL    HW129849   5.076   3.956   3.280
 9650SOL    HW229850   5.016   4.048   3.159
 9651SOL     OW29851   4.210   1.133   0.950
 9651SOL    HW129852   4.292   1.142   0.893
 9651SOL    HW229853   4.235   1.146   1.046
 9652SOL     OW29854   0.814   5.281   1.131
 9652SOL    HW129855   0.760   5.234   1.201
 9652SOL    HW229856   0.902   5.235   1.122
 9653SOL     OW29857   4.663   4.486   5.473
 9653SOL    HW129858   4.593   4.420   5.501
 9653SOL    HW229859   4.749   4.439   5.458
 9654SOL     OW29860   3.283   3.471   3.251
 9654SOL    HW129861   3.265   3.529   3.331
 9654SOL    HW229862   3.219   3.395   3.251
 9655SOL     OW29863   6.973   1.683   0.439
 9655SOL    HW129864   6.911   1.691   0.361
 9655SOL    HW229865   0.002   1.598   0.433
 9656SOL     OW29866   4.725   2.586   0.834
 9656SOL    HW129867   4.652   2.652   0.855
 9656SOL    HW229868   4.797   2.594   0.903
 9657SOL     OW29869   5.884   4.366   2.635
 9657SOL    HW129870   5.900   4.348   2.733
 9657SOL    HW229871   5.787   4.353   2.614
 9658SOL     OW29872   6.048   2.111   2.799
 9658SOL    HW129873   6.081   2.019   2.779
 9658SOL    HW229874   6.109   2.178   2.758
 9659SOL     OW29875   1.029   2.507   0.421
 9659SOL    HW129876   1.029   2.601   0.387
 9659SOL    HW229877   1.057   2.445   0.347
 9660SOL     OW29878   0.726   6.968   2.302
 9660SOL    HW129879   0.690   7.016   2.382
 9660SOL    HW229880   0.707   6.870   2.311
 9661SOL     OW29881   4.208   6.274   1.346
 9661SOL    HW129882   4.186   6.203   1.413
 9661SOL    HW229883   4.162   6.253   1.260
 9662SOL     OW29884   5.095   3.851   0.572
 9662SOL    HW129885   5.126   3.758   0.554
 9662SOL    HW229886   4.996   3.856   0.559
 9663SOL     OW29887   0.485   5.933   2.603
 9663SOL    HW129888   0.556   5.863   2.599
 9663SOL    HW229889   0.401   5.893   2.639
 9664SOL     OW29890   5.329   4.431   4.309
 9664SOL    HW129891   5.293   4.481   4.230
 9664SOL    HW229892   5.253   4.399   4.365
 9665SOL     OW29893   6.086   6.299   5.734
 9665SOL    HW129894   6.156   6.358   5.774
 9665SOL    HW229895   6.116   6.266   5.645
 9666SOL     OW29896   6.322   3.548   2.232
 9666SOL    HW129897   6.259   3.499   2.292
 9666SOL    HW229898   6.376   3.613   2.286
 9667SOL     OW29899   3.939   3.396   0.192
 9667SOL    HW129900   3.935   3.318   0.130
 9667SOL    HW229901   3.915   3.366   0.285
 9668SOL     OW29902   1.106   0.932   6.626
 9668SOL    HW129903   1.007   0.946   6.636
 9668SOL    HW229904   1.122   0.863   6.555
 9669SOL     OW29905   1.970   6.842   1.702
 9669SOL    HW129906   1.984   6.888   1.790
 9669SOL    HW229907   1.881   6.796   1.701
 9670SOL     OW29908   0.309   5.508   5.335
 9670SOL    HW129909   0.369   5.431   5.359
 9670SOL    HW229910   0.362   5.593   5.338
 9671SOL     OW29911   6.568   4.553   0.415
 9671SOL    HW129912   6.626   4.571   0.336
 9671SOL    HW229913   6.479   4.518   0.384
 9672SOL     OW29914   1.738   4.897   3.344
 9672SOL    HW129915   1.688   4.876   3.429
 9672SOL    HW229916   1.675   4.895   3.267
 9673SOL     OW29917   3.349   3.740   1.167
 9673SOL    HW129918   3.276   3.732   1.100
 9673SOL    HW229919   3.420   3.802   1.132
 9674SOL     OW29920   3.930   6.557   3.254
 9674SOL    HW129921   3.891   6.642   3.291
 9674SOL    HW229922   3.975   6.576   3.167
 9675SOL     OW29923   4.834   2.482   0.102
 9675SOL    HW129924   4.879   2.538   0.033
 9675SOL    HW229925   4.863   2.387   0.091
 9676SOL     OW29926   1.433   3.301   5.972
 9676SOL    HW129927   1.503   3.237   5.941
 9676SOL    HW229928   1.474   3.366   6.036
 9677SOL     OW29929   6.785   5.014   5.377
 9677SOL    HW129930   6.860   5.075   5.352
 9677SOL    HW229931   6.811   4.961   5.458
 9678SOL     OW29932   2.990   3.477   4.226
 9678SOL    HW129933   3.009   3.381   4.247
 9678SOL    HW229934   2.954   3.523   4.307
 9679SOL     OW29935   2.122   7.007   3.816
 9679SOL    HW129936   2.146   6.926   3.763
 9679SOL    HW229937   2.068   0.047   3.760
 9680SOL     OW29938   4.565   0.487   4.716
 9680SOL    HW129939   4.586   0.389   4.715
 9680SOL    HW229940   4.471   0.501   4.686
 9681SOL     OW29941   3.101   2.443   0.682
 9681SOL    HW129942   3.051   2.422   0.599
 9681SOL    HW229943   3.192   2.477   0.659
 9682SOL     OW29944   4.824   4.036   3.473
 9682SOL    HW129945   4.777   4.122   3.493
 9682SOL    HW229946   4.868   4.042   3.384
 9683SOL     OW29947   3.282   6.603   1.224
 9683SOL    HW129948   3.337   6.628   1.145
 9683SOL    HW229949   3.185   6.616   1.203
 9684SOL     OW29950   0.692   4.009   5.164
 9684SOL    HW129951   0.610   3.952   5.166
 9684SOL    HW229952   0.734   4.004   5.074
 9685SOL     OW29953   4.562   4.326   1.130
 9685SOL    HW129954   4.530   4.291   1.218
 9685SOL    HW229955   4.501   4.399   1.099
 9686SOL     OW29956   0.395   2.984   6.391
 9686SOL    HW129957   0.321   3.050   6.375
 9686SOL    HW229958   0.359   2.906   6.442
 9687SOL     OW29959   0.127   1.261   3.667
 9687SOL    HW129960   0.060   1.295   3.732
 9687SOL    HW229961   0.084   1.251   3.577
 9688SOL     OW29962   1.086   2.810   0.714
 9688SOL    HW129963   0.997   2.807   0.668
 9688SOL    HW229964   1.074   2.843   0.807
 9689SOL     OW29965   1.059   4.754   6.622
 9689SOL    HW129966   1.139   4.731   6.568
 9689SOL    HW229967   1.039   4.678   6.685
 9690SOL     OW29968   5.939   6.487   6.042
 9690SOL    HW129969   5.894   6.454   6.126
 9690SOL    HW229970   5.989   6.571   6.063
 9691SOL     OW29971   2.836   3.849   1.573
 9691SOL    HW129972   2.877   3.833   1.484
 9691SOL    HW229973   2.824   3.763   1.621
 9692SOL     OW29974   4.376   5.869   1.010
 9692SOL    HW129975   4.459   5.830   1.049
 9692SOL    HW229976   4.391   5.967   0.994
 9693SOL     OW29977   6.179   4.297   3.073
 9693SOL    HW129978   6.106   4.306   3.141
 9693SOL    HW229979   6.191   4.384   3.025
 9694SOL     OW29980   3.232   1.222   1.789
 9694SOL    HW129981   3.191   1.169   1.863
 9694SOL    HW229982   3.188   1.312   1.784
 9695SOL     OW29983   6.850   2.735   3.260
 9695SOL    HW129984   6.949   2.726   3.254
 9695SOL    HW229985   6.822   2.822   3.220
 9696SOL     OW29986   5.430   2.776   1.529
 9696SOL    HW129987   5.390   2.858   1.487
 9696SOL    HW229988   5.401   2.772   1.625
 9697SOL     OW29989   0.476   5.874   0.375
 9697SOL    HW129990   0.411   5.949   0.361
 9697SOL    HW229991   0.465   5.838   0.467
 9698SOL     OW29992   5.504   2.707   6.067
 9698SOL    HW129993   5.576   2.723   6.134
 9698SOL    HW229994   5.545   2.681   5.980
 9699SOL     OW29995   6.875   5.943   7.021
 9699SOL    HW129996   6.866   5.844   7.012
 9699SOL    HW229997   6.961   5.972   6.977
 9700SOL     OW29998   5.797   5.059   4.770
 9700SOL    HW129999   5.796   4.971   4.723
 9700SOL    HW230000   5.754   5.050   4.860
 9701SOL     OW30001   5.036   4.041   6.113
 9701SOL    HW130002   5.007   3.950   6.145
 9701SOL    HW230003   5.077   4.032   6.022
 9702SOL     OW30004   3.838   2.379   6.980
 9702SOL    HW130005   3.887   2.329   6.909
 9702SOL    HW230006   3.902   2.439   0.006
 9703SOL     OW30007   5.087   3.279   3.703
 9703SOL    HW130008   5.177   3.320   3.717
 9703SOL    HW230009   5.092   3.213   3.627
 9704SOL     OW30010   3.459   6.242   1.626
 9704SOL    HW130011   3.433   6.182   1.702
 9704SOL    HW230012   3.496   6.187   1.551
 9705SOL     OW30013   5.406   4.426   6.084
 9705SOL    HW130014   5.351   4.406   6.165
 9705SOL    HW230015   5.388   4.357   6.014
 9706SOL     OW30016   2.963   2.292   0.873
 9706SOL    HW130017   3.013   2.358   0.817
 9706SOL    HW230018   3.028   2.235   0.924
 9707SOL     OW30019   6.216   4.819   2.494
 9707SOL    HW130020   6.188   4.772   2.411
 9707SOL    HW230021   6.310   4.851   2.485
 9708SOL     OW30022   0.302   1.704   3.552
 9708SOL    HW130023   0.387   1.756   3.538
 9708SOL    HW230024   0.288   1.641   3.476
 9709SOL     OW30025   5.219   5.564   2.418
 9709SOL    HW130026   5.175   5.483   2.381
 9709SOL    HW230027   5.204   5.642   2.357
 9710SOL     OW30028   0.004   1.714   1.365
 9710SOL    HW130029   0.078   1.764   1.409
 9710SOL    HW230030   6.945   1.773   1.359
 9711SOL     OW30031   4.372   5.306   6.250
 9711SOL    HW130032   4.294   5.298   6.188
 9711SOL    HW230033   4.348   5.365   6.327
 9712SOL     OW30034   5.341   3.697   0.352
 9712SOL    HW130035   5.413   3.751   0.308
 9712SOL    HW230036   5.379   3.646   0.429
 9713SOL     OW30037   2.141   4.449   3.475
 9713SOL    HW130038   2.125   4.543   3.504
 9713SOL    HW230039   2.142   4.445   3.375
 9714SOL     OW30040   4.243   6.596   6.451
 9714SOL    HW130041   4.255   6.662   6.525
 9714SOL    HW230042   4.265   6.640   6.364
 9715SOL     OW30043   5.784   4.155   0.125
 9715SOL    HW130044   5.761   4.251   0.140
 9715SOL    HW230045   5.700   4.103   0.106
 9716SOL     OW30046   3.225   4.133   6.884
 9716SOL    HW130047   3.136   4.169   6.913
 9716SOL    HW230048   3.294   4.205   6.893
 9717SOL     OW30049   5.218   6.963   6.011
 9717SOL    HW130050   5.152   6.963   5.936
 9717SOL    HW230051   5.208   0.025   6.064
 9718SOL     OW30052   5.054   3.307   0.922
 9718SOL    HW130053   5.006   3.255   0.852
 9718SOL    HW230054   5.062   3.402   0.893
 9719SOL     OW30055   5.993   0.820   5.888
 9719SOL    HW130056   6.068   0.833   5.953
 9719SOL    HW230057   6.007   0.880   5.809
 9720SOL     OW30058   0.890   4.239   2.198
 9720SOL    HW130059   0.849   4.198   2.280
 9720SOL    HW230060   0.840   4.323   2.175
 9721SOL     OW30061   0.614   1.308   0.110
 9721SOL    HW130062   0.550   1.377   0.146
 9721SOL    HW230063   0.648   1.337   0.021
 9722SOL     OW30064   3.673   1.405   4.881
 9722SOL    HW130065   3.612   1.355   4.943
 9722SOL    HW230066   3.698   1.492   4.923
 9723SOL     OW30067   3.757   6.461   3.833
 9723SOL    HW130068   3.832   6.494   3.892
 9723SOL    HW230069   3.732   6.369   3.860
 9724SOL     OW30070   1.295   5.053   0.227
 9724SOL    HW130071   1.374   5.009   0.269
 9724SOL    HW230072   1.269   5.004   0.144
 9725SOL     OW30073   4.634   6.099   6.179
 9725SOL    HW130074   4.602   6.085   6.085
 9725SOL    HW230075   4.658   6.011   6.219
 9726SOL     OW30076   4.277   1.254   3.208
 9726SOL    HW130077   4.361   1.236   3.157
 9726SOL    HW230078   4.201   1.207   3.164
 9727SOL     OW30079   0.802   2.442   6.859
 9727SOL    HW130080   0.844   2.478   6.943
 9727SOL    HW230081   0.870   2.392   6.806
 9728SOL     OW30082   0.467   0.662   5.255
 9728SOL    HW130083   0.442   0.746   5.303
 9728SOL    HW230084   0.567   0.652   5.257
 9729SOL     OW30085   1.329   4.604   3.676
 9729SOL    HW130086   1.269   4.652   3.741
 9729SOL    HW230087   1.280   4.526   3.637
 9730SOL     OW30088   1.699   4.452   2.925
 9730SOL    HW130089   1.667   4.515   2.995
 9730SOL    HW230090   1.646   4.367   2.928
 9731SOL     OW30091   5.117   5.637   1.428
 9731SOL    HW130092   5.115   5.544   1.464
 9731SOL    HW230093   5.025   5.676   1.430
 9732SOL     OW30094   0.829   4.088   1.944
 9732SOL    HW130095   0.914   4.060   1.900
 9732SOL    HW230096   0.848   4.163   2.008
 9733SOL     OW30097   4.962   5.527   0.493
 9733SOL    HW130098   4.998   5.617   0.468
 9733SOL    HW230099   4.981   5.462   0.419
 9734SOL     OW30100   0.047   0.473   0.216
 9734SOL    HW130101   0.103   0.532   0.157
 9734SOL    HW230102   6.972   0.494   0.201
 9735SOL     OW30103   1.895   3.392   3.397
 9735SOL    HW130104   1.932   3.358   3.310
 9735SOL    HW230105   1.971   3.423   3.455
 9736SOL     OW30106   5.567   1.278   5.423
 9736SOL    HW130107   5.617   1.345   5.478
 9736SOL    HW230108   5.484   1.251   5.470
 9737SOL     OW30109   5.321   2.412   3.000
 9737SOL    HW130110   5.278   2.324   3.021
 9737SOL    HW230111   5.252   2.484   3.002
 9738SOL     OW30112   2.548   6.913   0.124
 9738SOL    HW130113   2.622   6.910   0.192
 9738SOL    HW230114   2.486   6.835   0.138
 9739SOL     OW30115   5.178   5.789   0.669
 9739SOL    HW130116   5.131   5.713   0.715
 9739SOL    HW230117   5.210   5.759   0.579
 9740SOL     OW30118   0.118   1.541   3.385
 9740SOL    HW130119   0.125   1.442   3.373
 9740SOL    HW230120   0.052   1.579   3.320
 9741SOL     OW30121   2.354   1.076   2.497
 9741SOL    HW130122   2.367   1.086   2.398
 9741SOL    HW230123   2.312   0.987   2.516
 9742SOL     OW30124   3.549   1.309   0.136
 9742SOL    HW130125   3.626   1.332   0.076
 9742SOL    HW230126   3.481   1.382   0.134
 9743SOL     OW30127   6.815   3.806   3.797
 9743SOL    HW130128   6.914   3.792   3.799
 9743SOL    HW230129   6.790   3.851   3.711
 9744SOL     OW30130   1.291   6.852   2.092
 9744SOL    HW130131   1.251   6.928   2.143
 9744SOL    HW230132   1.382   6.831   2.129
 9745SOL     OW30133   4.838   2.737   6.815
 9745SOL    HW130134   4.775   2.786   6.755
 9745SOL    HW230135   4.878   2.801   6.881
 9746SOL     OW30136   5.566   0.744   5.744
 9746SOL    HW130137   5.534   0.827   5.790
 9746SOL    HW230138   5.534   0.663   5.792
 9747SOL     OW30139   2.888   2.135   1.833
 9747SOL    HW130140   2.907   2.184   1.918
 9747SOL    HW230141   2.928   2.185   1.756
 9748SOL     OW30142   6.145   6.731   3.576
 9748SOL    HW130143   6.179   6.759   3.486
 9748SOL    HW230144   6.109   6.811   3.624
 9749SOL     OW30145   1.409   0.777   4.186
 9749SOL    HW130146   1.506   0.765   4.207
 9749SOL    HW230147   1.400   0.827   4.099
 9750SOL     OW30148   5.833   5.401   3.397
 9750SOL    HW130149   5.824   5.386   3.496
 9750SOL    HW230150   5.811   5.496   3.375
 9751SOL     OW30151   2.260   0.294   1.187
 9751SOL    HW130152   2.339   0.315   1.245
 9751SOL    HW230153   2.289   0.286   1.092
 9752SOL     OW30154   4.393   1.174   5.249
 9752SOL    HW130155   4.445   1.113   5.190
 9752SOL    HW230156   4.314   1.210   5.199
 9753SOL     OW30157   0.297   5.708   6.533
 9753SOL    HW130158   0.288   5.741   6.627
 9753SOL    HW230159   0.209   5.676   6.500
 9754SOL     OW30160   1.954   6.979   0.921
 9754SOL    HW130161   1.894   7.006   0.997
 9754SOL    HW230162   1.997   6.891   0.942
 9755SOL     OW30163   3.797   3.693   4.461
 9755SOL    HW130164   3.860   3.693   4.383
 9755SOL    HW230165   3.842   3.732   4.541
 9756SOL     OW30166   5.346   2.325   5.613
 9756SOL    HW130167   5.390   2.350   5.527
 9756SOL    HW230168   5.335   2.407   5.670
 9757SOL     OW30169   5.775   4.547   4.383
 9757SOL    HW130170   5.759   4.456   4.345
 9757SOL    HW230171   5.696   4.605   4.363
 9758SOL     OW30172   2.115   0.443   0.009
 9758SOL    HW130173   2.123   0.515   0.079
 9758SOL    HW230174   2.195   0.383   0.013
 9759SOL     OW30175   1.322   0.678   6.970
 9759SOL    HW130176   1.382   0.717   6.900
 9759SOL    HW230177   1.235   0.726   6.970
 9760SOL     OW30178   4.901   3.284   5.615
 9760SOL    HW130179   4.903   3.184   5.605
 9760SOL    HW230180   4.974   3.324   5.559
 9761SOL     OW30181   0.618   2.031   1.583
 9761SOL    HW130182   0.673   1.991   1.510
 9761SOL    HW230183   0.674   2.094   1.637
 9762SOL     OW30184   3.373   2.028   4.456
 9762SOL    HW130185   3.331   2.088   4.389
 9762SOL    HW230186   3.319   2.028   4.540
 9763SOL     OW30187   5.072   2.248   2.582
 9763SOL    HW130188   5.009   2.242   2.659
 9763SOL    HW230189   5.128   2.331   2.591
 9764SOL     OW30190   6.527   2.881   3.214
 9764SOL    HW130191   6.501   2.791   3.178
 9764SOL    HW230192   6.536   2.875   3.313
 9765SOL     OW30193   6.563   6.552   3.432
 9765SOL    HW130194   6.606   6.470   3.469
 9765SOL    HW230195   6.466   6.553   3.456
 9766SOL     OW30196   2.360   6.552   2.207
 9766SOL    HW130197   2.317   6.611   2.138
 9766SOL    HW230198   2.459   6.563   2.203
 9767SOL     OW30199   3.361   1.696   5.405
 9767SOL    HW130200   3.370   1.796   5.406
 9767SOL    HW230201   3.326   1.667   5.316
 9768SOL     OW30202   5.406   1.071   1.708
 9768SOL    HW130203   5.411   1.165   1.676
 9768SOL    HW230204   5.357   1.015   1.641
 9769SOL     OW30205   4.273   0.402   4.360
 9769SOL    HW130206   4.312   0.462   4.290
 9769SOL    HW230207   4.315   0.422   4.448
 9770SOL     OW30208   4.177   0.886   6.149
 9770SOL    HW130209   4.087   0.902   6.191
 9770SOL    HW230210   4.167   0.821   6.074
 9771SOL     OW30211   2.722   5.246   0.845
 9771SOL    HW130212   2.659   5.226   0.770
 9771SOL    HW230213   2.675   5.301   0.914
 9772SOL     OW30214   1.404   5.890   1.392
 9772SOL    HW130215   1.429   5.923   1.301
 9772SOL    HW230216   1.469   5.925   1.460
 9773SOL     OW30217   5.518   5.371   4.220
 9773SOL    HW130218   5.522   5.433   4.298
 9773SOL    HW230219   5.574   5.408   4.146
 9774SOL     OW30220   6.541   5.268   2.011
 9774SOL    HW130221   6.471   5.240   1.944
 9774SOL    HW230222   6.568   5.362   1.993
 9775SOL     OW30223   2.948   0.451   3.537
 9775SOL    HW130224   3.000   0.372   3.506
 9775SOL    HW230225   2.901   0.428   3.622
 9776SOL     OW30226   0.174   4.827   5.507
 9776SOL    HW130227   0.143   4.917   5.537
 9776SOL    HW230228   0.096   4.767   5.493
 9777SOL     OW30229   5.782   5.369   0.625
 9777SOL    HW130230   5.798   5.460   0.664
 9777SOL    HW230231   5.869   5.320   0.618
 9778SOL     OW30232   0.251   2.039   4.427
 9778SOL    HW130233   0.281   2.121   4.474
 9778SOL    HW230234   0.305   1.961   4.458
 9779SOL     OW30235   0.620   2.027   4.357
 9779SOL    HW130236   0.631   1.972   4.274
 9779SOL    HW230237   0.642   1.970   4.437
 9780SOL     OW30238   2.662   2.342   0.150
 9780SOL    HW130239   2.706   2.432   0.146
 9780SOL    HW230240   2.563   2.353   0.157
 9781SOL     OW30241   2.412   2.270   4.877
 9781SOL    HW130242   2.326   2.253   4.829
 9781SOL    HW230243   2.434   2.192   4.935
 9782SOL     OW30244   0.215   1.463   0.825
 9782SOL    HW130245   0.264   1.410   0.895
 9782SOL    HW230246   0.251   1.441   0.735
 9783SOL     OW30247   4.889   2.979   3.126
 9783SOL    HW130248   4.871   3.065   3.174
 9783SOL    HW230249   4.886   2.903   3.191
 9784SOL     OW30250   3.327   1.558   6.611
 9784SOL    HW130251   3.343   1.552   6.710
 9784SOL    HW230252   3.414   1.565   6.563
 9785SOL     OW30253   0.444   2.010   6.026
 9785SOL    HW130254   0.361   2.027   6.079
 9785SOL    HW230255   0.484   1.923   6.054
 9786SOL     OW30256   2.936   3.978   0.443
 9786SOL    HW130257   2.890   4.067   0.434
 9786SOL    HW230258   2.939   3.933   0.353
 9787SOL     OW30259   3.067   3.083   2.743
 9787SOL    HW130260   2.984   3.132   2.720
 9787SOL    HW230261   3.107   3.043   2.660
 9788SOL     OW30262   0.821   0.249   3.362
 9788SOL    HW130263   0.752   0.230   3.292
 9788SOL    HW230264   0.912   0.231   3.324
 9789SOL     OW30265   1.615   4.987   0.419
 9789SOL    HW130266   1.653   5.018   0.333
 9789SOL    HW230267   1.549   5.054   0.453
 9790SOL     OW30268   6.712   4.980   6.710
 9790SOL    HW130269   6.665   4.892   6.716
 9790SOL    HW230270   6.651   5.052   6.742
 9791SOL     OW30271   0.720   0.388   6.988
 9791SOL    HW130272   0.647   0.320   7.000
 9791SOL    HW230273   0.697   0.448   6.911
 9792SOL     OW30274   3.414   4.277   0.863
 9792SOL    HW130275   3.436   4.189   0.905
 9792SOL    HW230276   3.362   4.333   0.928
 9793SOL     OW30277   4.284   7.021   2.523
 9793SOL    HW130278   4.248   0.087   2.493
 9793SOL    HW230279   4.242   6.995   2.610
 9794SOL     OW30280   6.928   4.027   6.756
 9794SOL    HW130281   6.871   4.009   6.837
 9794SOL    HW230282   6.871   4.066   6.684
 9795SOL     OW30283   1.474   1.640   4.536
 9795SOL    HW130284   1.537   1.623   4.612
 9795SOL    HW230285   1.380   1.634   4.570
 9796SOL     OW30286   4.012   3.040   2.271
 9796SOL    HW130287   4.070   3.077   2.343
 9796SOL    HW230288   3.985   2.946   2.294
 9797SOL     OW30289   2.305   5.658   0.529
 9797SOL    HW130290   2.231   5.699   0.474
 9797SOL    HW230291   2.346   5.582   0.478
 9798SOL     OW30292   3.505   0.781   2.231
 9798SOL    HW130293   3.586   0.798   2.176
 9798SOL    HW230294   3.444   0.717   2.183
 9799SOL     OW30295   2.647   4.164   5.339
 9799SOL    HW130296   2.549   4.175   5.327
 9799SOL    HW230297   2.678   4.081   5.294
 9800SOL     OW30298   4.960   5.196   5.030
 9800SOL    HW130299   4.940   5.157   5.120
 9800SOL    HW230300   5.014   5.279   5.040
 9801SOL     OW30301   4.827   3.888   7.014
 9801SOL    HW130302   4.790   3.912   0.082
 9801SOL    HW230303   4.913   3.937   7.000
 9802SOL     OW30304   6.465   4.291   1.754
 9802SOL    HW130305   6.466   4.377   1.703
 9802SOL    HW230306   6.526   4.225   1.710
 9803SOL     OW30307   1.908   2.394   6.204
 9803SOL    HW130308   1.924   2.302   6.168
 9803SOL    HW230309   1.973   2.458   6.163
 9804SOL     OW30310   1.026   6.073   2.975
 9804SOL    HW130311   1.062   6.019   3.052
 9804SOL    HW230312   1.100   6.128   2.936
 9805SOL     OW30313   0.792   0.108   3.110
 9805SOL    HW130314   0.839   0.022   3.095
 9805SOL    HW230315   0.809   0.170   3.033
 9806SOL     OW30316   1.491   0.812   6.809
 9806SOL    HW130317   1.558   0.752   6.764
 9806SOL    HW230318   1.496   0.904   6.768
 9807SOL     OW30319   3.573   3.955   1.126
 9807SOL    HW130320   3.521   4.033   1.093
 9807SOL    HW230321   3.653   3.987   1.177
 9808SOL     OW30322   3.648   6.719   4.982
 9808SOL    HW130323   3.568   6.670   4.948
 9808SOL    HW230324   3.723   6.654   4.994
 9809SOL     OW30325   0.858   3.548   6.172
 9809SOL    HW130326   0.832   3.587   6.261
 9809SOL    HW230327   0.906   3.617   6.118
 9810SOL     OW30328   2.196   2.707   3.668
 9810SOL    HW130329   2.230   2.743   3.581
 9810SOL    HW230330   2.171   2.611   3.657
 9811SOL     OW30331   5.700   4.920   3.050
 9811SOL    HW130332   5.747   4.944   3.135
 9811SOL    HW230333   5.660   4.829   3.058
 9812SOL     OW30334   3.943   1.536   5.583
 9812SOL    HW130335   3.895   1.451   5.606
 9812SOL    HW230336   4.041   1.523   5.594
 9813SOL     OW30337   4.703   1.696   0.433
 9813SOL    HW130338   4.715   1.628   0.360
 9813SOL    HW230339   4.610   1.691   0.468
 9814SOL     OW30340   0.171   0.251   6.474
 9814SOL    HW130341   0.207   0.232   6.565
 9814SOL    HW230342   0.078   0.214   6.466
 9815SOL     OW30343   5.275   3.765   4.515
 9815SOL    HW130344   5.363   3.805   4.540
 9815SOL    HW230345   5.221   3.749   4.598
 9816SOL     OW30346   1.218   0.680   6.133
 9816SOL    HW130347   1.265   0.671   6.045
 9816SOL    HW230348   1.173   0.594   6.156
 9817SOL     OW30349   2.822   6.436   3.301
 9817SOL    HW130350   2.799   6.339   3.309
 9817SOL    HW230351   2.797   6.468   3.210
 9818SOL     OW30352   0.843   0.297   3.782
 9818SOL    HW130353   0.777   0.304   3.707
 9818SOL    HW230354   0.877   0.388   3.805
 9819SOL     OW30355   4.856   3.405   3.461
 9819SOL    HW130356   4.908   3.345   3.522
 9819SOL    HW230357   4.856   3.498   3.496
 9820SOL     OW30358   3.962   3.003   6.228
 9820SOL    HW130359   3.885   2.940   6.213
 9820SOL    HW230360   3.971   3.064   6.149
 9821SOL     OW30361   4.875   1.337   6.295
 9821SOL    HW130362   4.827   1.286   6.367
 9821SOL    HW230363   4.939   1.402   6.338
 9822SOL     OW30364   1.694   0.398   3.510
 9822SOL    HW130365   1.659   0.308   3.539
 9822SOL    HW230366   1.786   0.387   3.472
 9823SOL     OW30367   2.745   0.640   0.137
 9823SOL    HW130368   2.696   0.713   0.090
 9823SOL    HW230369   2.843   0.657   0.131
 9824SOL     OW30370   1.798   5.037   4.587
 9824SOL    HW130371   1.820   4.941   4.569
 9824SOL    HW230372   1.865   5.096   4.541
 9825SOL     OW30373   4.990   5.575   5.417
 9825SOL    HW130374   5.016   5.667   5.386
 9825SOL    HW230375   5.068   5.531   5.461
 9826SOL     OW30376   4.840   4.688   6.460
 9826SOL    HW130377   4.791   4.694   6.373
 9826SOL    HW230378   4.911   4.619   6.454
 9827SOL     OW30379   2.136   3.528   3.511
 9827SOL    HW130380   2.158   3.612   3.561
 9827SOL    HW230381   2.201   3.515   3.436
 9828SOL     OW30382   2.493   2.747   5.606
 9828SOL    HW130383   2.530   2.729   5.514
 9828SOL    HW230384   2.464   2.661   5.647
 9829SOL     OW30385   3.953   4.862   7.016
 9829SOL    HW130386   4.035   4.872   0.050
 9829SOL    HW230387   3.880   4.820   0.048
 9830SOL     OW30388   6.170   2.464   2.179
 9830SOL    HW130389   6.205   2.371   2.164
 9830SOL    HW230390   6.073   2.467   2.155
 9831SOL     OW30391   2.468   5.186   1.488
 9831SOL    HW130392   2.454   5.154   1.394
 9831SOL    HW230393   2.499   5.281   1.487
 9832SOL     OW30394   5.105   5.308   2.764
 9832SOL    HW130395   5.196   5.275   2.788
 9832SOL    HW230396   5.046   5.230   2.742
 9833SOL     OW30397   3.441   3.573   4.934
 9833SOL    HW130398   3.346   3.596   4.955
 9833SOL    HW230399   3.501   3.609   5.006
 9834SOL     OW30400   2.688   4.486   5.340
 9834SOL    HW130401   2.770   4.496   5.284
 9834SOL    HW230402   2.682   4.392   5.373
 9835SOL     OW30403   4.144   3.319   5.407
 9835SOL    HW130404   4.105   3.237   5.366
 9835SOL    HW230405   4.128   3.317   5.506
 9836SOL     OW30406   6.937   4.655   3.605
 9836SOL    HW130407   6.889   4.712   3.671
 9836SOL    HW230408   7.004   4.710   3.555
 9837SOL     OW30409   3.132   0.254   3.157
 9837SOL    HW130410   3.164   0.315   3.230
 9837SOL    HW230411   3.129   0.304   3.071
 9838SOL     OW30412   2.064   6.933   6.620
 9838SOL    HW130413   1.984   6.874   6.616
 9838SOL    HW230414   2.147   6.877   6.624
 9839SOL     OW30415   5.605   0.611   3.743
 9839SOL    HW130416   5.678   0.544   3.738
 9839SOL    HW230417   5.517   0.565   3.730
 9840SOL     OW30418   5.988   1.396   0.903
 9840SOL    HW130419   5.933   1.320   0.868
 9840SOL    HW230420   6.064   1.360   0.956
 9841SOL     OW30421   1.944   4.860   5.177
 9841SOL    HW130422   1.960   4.940   5.236
 9841SOL    HW230423   2.030   4.831   5.136
 9842SOL     OW30424   3.894   3.662   2.076
 9842SOL    HW130425   3.816   3.598   2.076
 9842SOL    HW230426   3.956   3.638   2.001
 9843SOL     OW30427   6.104   0.893   1.287
 9843SOL    HW130428   6.035   0.914   1.356
 9843SOL    HW230429   6.070   0.921   1.197
 9844SOL     OW30430   6.269   0.643   2.329
 9844SOL    HW130431   6.184   0.631   2.279
 9844SOL    HW230432   6.258   0.610   2.423
 9845SOL     OW30433   1.995   2.786   2.734
 9845SOL    HW130434   2.086   2.784   2.775
 9845SOL    HW230435   1.929   2.746   2.798
 9846SOL     OW30436   3.685   3.451   1.998
 9846SOL    HW130437   3.628   3.415   1.925
 9846SOL    HW230438   3.693   3.383   2.071
 9847SOL     OW30439   3.515   2.984   3.794
 9847SOL    HW130440   3.610   2.954   3.781
 9847SOL    HW230441   3.501   3.008   3.891
 9848SOL     OW30442   3.659   3.266   5.012
 9848SOL    HW130443   3.607   3.299   4.934
 9848SOL    HW230444   3.719   3.338   5.046
 9849SOL     OW30445   0.836   7.001   6.536
 9849SOL    HW130446   0.826   6.913   6.581
 9849SOL    HW230447   0.891   0.040   6.593
 9850SOL     OW30448   5.690   0.178   4.207
 9850SOL    HW130449   5.703   0.167   4.306
 9850SOL    HW230450   5.596   0.156   4.183
 9851SOL     OW30451   6.023   0.525   4.614
 9851SOL    HW130452   6.100   0.515   4.677
 9851SOL    HW230453   5.938   0.511   4.663
 9852SOL     OW30454   4.175   2.153   3.547
 9852SOL    HW130455   4.212   2.104   3.468
 9852SOL    HW230456   4.218   2.119   3.630
 9853SOL     OW30457   4.834   4.016   4.901
 9853SOL    HW130458   4.795   4.005   4.993
 9853SOL    HW230459   4.792   4.094   4.855
 9854SOL     OW30460   6.845   5.412   4.965
 9854SOL    HW130461   6.910   5.351   4.919
 9854SOL    HW230462   6.789   5.359   5.028
 9855SOL     OW30463   2.178   3.283   1.282
 9855SOL    HW130464   2.080   3.296   1.297
 9855SOL    HW230465   2.221   3.252   1.367
 9856SOL     OW30466   5.011   4.637   5.089
 9856SOL    HW130467   5.026   4.541   5.113
 9856SOL    HW230468   4.957   4.642   5.005
 9857SOL     OW30469   4.786   3.059   2.710
 9857SOL    HW130470   4.807   3.112   2.627
 9857SOL    HW230471   4.805   3.115   2.791
 9858SOL     OW30472   0.504   0.745   1.166
 9858SOL    HW130473   0.582   0.792   1.123
 9858SOL    HW230474   0.503   0.765   1.264
 9859SOL     OW30475   6.275   7.008   2.667
 9859SOL    HW130476   6.308   6.987   2.575
 9859SOL    HW230477   6.207   6.941   2.694
 9860SOL     OW30478   1.143   1.574   3.240
 9860SOL    HW130479   1.191   1.487   3.254
 9860SOL    HW230480   1.183   1.643   3.300
 9861SOL     OW30481   3.088   0.236   3.466
 9861SOL    HW130482   3.170   0.189   3.500
 9861SOL    HW230483   3.043   0.179   3.398
 9862SOL     OW30484   3.786   2.879   6.992
 9862SOL    HW130485   3.750   2.958   0.020
 9862SOL    HW230486   3.776   2.797   0.025
 9863SOL     OW30487   3.239   0.222   2.658
 9863SOL    HW130488   3.141   0.211   2.640
 9863SOL    HW230489   3.291   0.190   2.579
 9864SOL     OW30490   3.963   6.732   3.935
 9864SOL    HW130491   3.892   6.786   3.979
 9864SOL    HW230492   3.979   6.648   3.988
 9865SOL     OW30493   1.328   0.576   4.665
 9865SOL    HW130494   1.327   0.632   4.748
 9865SOL    HW230495   1.386   0.619   4.596
 9866SOL     OW30496   5.474   4.646   6.320
 9866SOL    HW130497   5.490   4.635   6.222
 9866SOL    HW230498   5.533   4.719   6.355
 9867SOL     OW30499   6.595   0.699   1.112
 9867SOL    HW130500   6.643   0.624   1.066
 9867SOL    HW230501   6.625   0.704   1.207
 9868SOL     OW30502   0.369   3.489   5.522
 9868SOL    HW130503   0.334   3.583   5.519
 9868SOL    HW230504   0.384   3.456   5.429
 9869SOL     OW30505   1.222   3.096   1.766
 9869SOL    HW130506   1.209   3.127   1.860
 9869SOL    HW230507   1.247   2.999   1.767
 9870SOL     OW30508   3.572   6.110   2.774
 9870SOL    HW130509   3.638   6.044   2.811
 9870SOL    HW230510   3.524   6.154   2.850
 9871SOL     OW30511   0.202   5.962   5.926
 9871SOL    HW130512   0.198   6.052   5.971
 9871SOL    HW230513   0.284   5.914   5.956
 9872SOL     OW30514   2.153   5.789   4.286
 9872SOL    HW130515   2.205   5.852   4.228
 9872SOL    HW230516   2.173   5.808   4.382
 9873SOL     OW30517   2.600   2.642   0.309
 9873SOL    HW130518   2.552   2.593   0.381
 9873SOL    HW230519   2.539   2.709   0.266
 9874SOL     OW30520   5.880   3.079   5.159
 9874SOL    HW130521   5.852   3.011   5.091
 9874SOL    HW230522   5.841   3.168   5.135
 9875SOL     OW30523   5.871   6.504   1.868
 9875SOL    HW130524   5.847   6.575   1.935
 9875SOL    HW230525   5.895   6.420   1.916
 9876SOL     OW30526   6.496   0.097   3.508
 9876SOL    HW130527   6.467   0.013   3.553
 9876SOL    HW230528   6.456   0.175   3.557
 9877SOL     OW30529   0.053   5.725   4.316
 9877SOL    HW130530   7.015   5.802   4.294
 9877SOL    HW230531   0.003   5.639   4.306
 9878SOL     OW30532   2.611   4.735   5.404
 9878SOL    HW130533   2.683   4.782   5.454
 9878SOL    HW230534   2.642   4.644   5.378
 9879SOL     OW30535   5.771   5.434   5.075
 9879SOL    HW130536   5.712   5.392   5.144
 9879SOL    HW230537   5.781   5.532   5.095
 9880SOL     OW30538   3.853   0.948   6.923
 9880SOL    HW130539   3.840   1.047   6.931
 9880SOL    HW230540   3.768   0.902   6.948
 9881SOL     OW30541   1.223   1.211   4.432
 9881SOL    HW130542   1.308   1.226   4.482
 9881SOL    HW230543   1.204   1.113   4.428
 9882SOL     OW30544   1.606   2.985   4.155
 9882SOL    HW130545   1.555   3.061   4.196
 9882SOL    HW230546   1.573   2.970   4.061
 9883SOL     OW30547   1.312   6.300   1.182
 9883SOL    HW130548   1.260   6.340   1.257
 9883SOL    HW230549   1.336   6.372   1.116
 9884SOL     OW30550   4.688   2.281   1.875
 9884SOL    HW130551   4.730   2.370   1.890
 9884SOL    HW230552   4.719   2.217   1.945
 9885SOL     OW30553   6.808   2.191   4.815
 9885SOL    HW130554   6.781   2.095   4.809
 9885SOL    HW230555   6.784   2.237   4.729
 9886SOL     OW30556   1.490   4.708   1.728
 9886SOL    HW130557   1.567   4.672   1.781
 9886SOL    HW230558   1.405   4.667   1.761
 9887SOL     OW30559   3.890   0.223   6.709
 9887SOL    HW130560   3.799   0.261   6.720
 9887SOL    HW230561   3.958   0.296   6.717
 9888SOL     OW30562   5.387   4.828   2.149
 9888SOL    HW130563   5.476   4.800   2.113
 9888SOL    HW230564   5.382   4.804   2.246
 9889SOL     OW30565   6.510   4.627   0.660
 9889SOL    HW130566   6.585   4.667   0.713
 9889SOL    HW230567   6.546   4.596   0.572
 9890SOL     OW30568   0.882   2.838   1.221
 9890SOL    HW130569   0.887   2.749   1.175
 9890SOL    HW230570   0.797   2.842   1.273
 9891SOL     OW30571   5.802   3.203   1.688
 9891SOL    HW130572   5.702   3.211   1.699
 9891SOL    HW230573   5.823   3.130   1.623
 9892SOL     OW30574   0.988   4.761   1.912
 9892SOL    HW130575   1.032   4.672   1.917
 9892SOL    HW230576   0.981   4.789   1.816
 9893SOL     OW30577   0.506   0.672   2.035
 9893SOL    HW130578   0.469   0.726   1.960
 9893SOL    HW230579   0.462   0.699   2.121
 9894SOL     OW30580   3.184   2.256   0.290
 9894SOL    HW130581   3.155   2.324   0.222
 9894SOL    HW230582   3.120   2.179   0.290
 9895SOL     OW30583   5.523   3.684   5.218
 9895SOL    HW130584   5.496   3.781   5.216
 9895SOL    HW230585   5.607   3.675   5.271
 9896SOL     OW30586   6.266   1.180   0.780
 9896SOL    HW130587   6.364   1.169   0.792
 9896SOL    HW230588   6.248   1.246   0.707
 9897SOL     OW30589   5.802   6.854   2.502
 9897SOL    HW130590   5.893   6.851   2.459
 9897SOL    HW230591   5.734   6.818   2.437
 9898SOL     OW30592   1.224   5.294   5.690
 9898SOL    HW130593   1.231   5.325   5.785
 9898SOL    HW230594   1.283   5.350   5.632
 9899SOL     OW30595   1.543   5.505   1.281
 9899SOL    HW130596   1.538   5.572   1.355
 9899SOL    HW230597   1.576   5.418   1.316
 9900SOL     OW30598   1.235   3.147   3.028
 9900SOL    HW130599   1.228   3.064   3.083
 9900SOL    HW230600   1.330   3.179   3.027
 9901SOL     OW30601   2.990   0.743   6.845
 9901SOL    HW130602   2.926   0.723   6.919
 9901SOL    HW230603   2.969   0.684   6.766
 9902SOL     OW30604   3.072   4.449   1.262
 9902SOL    HW130605   2.986   4.432   1.310
 9902SOL    HW230606   3.053   4.494   1.174
 9903SOL     OW30607   5.360   1.343   1.621
 9903SOL    HW130608   5.304   1.365   1.541
 9903SOL    HW230609   5.380   1.426   1.672
 9904SOL     OW30610   0.497   3.915   6.707
 9904SOL    HW130611   0.454   3.831   6.675
 9904SOL    HW230612   0.506   3.913   6.806
 9905SOL     OW30613   2.435   0.414   5.729
 9905SOL    HW130614   2.342   0.376   5.726
 9905SOL    HW230615   2.460   0.431   5.825
 9906SOL     OW30616   1.824   2.886   0.353
 9906SOL    HW130617   1.769   2.814   0.312
 9906SOL    HW230618   1.765   2.947   0.406
 9907SOL     OW30619   1.462   0.833   1.340
 9907SOL    HW130620   1.412   0.801   1.260
 9907SOL    HW230621   1.400   0.883   1.401
 9908SOL     OW30622   6.216   2.043   4.726
 9908SOL    HW130623   6.315   2.041   4.713
 9908SOL    HW230624   6.185   2.138   4.729
 9909SOL     OW30625   4.010   0.867   2.517
 9909SOL    HW130626   4.029   0.866   2.615
 9909SOL    HW230627   4.087   0.826   2.468
 9910SOL     OW30628   1.260   4.907   1.711
 9910SOL    HW130629   1.286   5.002   1.695
 9910SOL    HW230630   1.338   4.848   1.690
 9911SOL     OW30631   2.643   6.342   2.346
 9911SOL    HW130632   2.608   6.429   2.312
 9911SOL    HW230633   2.706   6.358   2.422
 9912SOL     OW30634   3.601   1.441   0.829
 9912SOL    HW130635   3.653   1.358   0.847
 9912SOL    HW230636   3.663   1.520   0.831
 9913SOL     OW30637   6.337   3.591   0.868
 9913SOL    HW130638   6.335   3.492   0.853
 9913SOL    HW230639   6.381   3.636   0.790
 9914SOL     OW30640   6.219   0.413   5.157
 9914SOL    HW130641   6.158   0.447   5.229
 9914SOL    HW230642   6.289   0.482   5.137
 9915SOL     OW30643   6.080   0.665   3.548
 9915SOL    HW130644   6.125   0.751   3.573
 9915SOL    HW230645   6.142   0.610   3.492
 9916SOL     OW30646   2.041   2.403   2.899
 9916SOL    HW130647   2.052   2.439   2.807
 9916SOL    HW230648   2.130   2.398   2.945
 9917SOL     OW30649   4.172   4.153   5.814
 9917SOL    HW130650   4.141   4.235   5.767
 9917SOL    HW230651   4.148   4.159   5.911
 9918SOL     OW30652   1.323   2.489   3.069
 9918SOL    HW130653   1.304   2.492   2.971
 9918SOL    HW230654   1.351   2.579   3.101
 9919SOL     OW30655   1.438   5.469   0.945
 9919SOL    HW130656   1.498   5.539   0.985
 9919SOL    HW230657   1.359   5.455   1.004
 9920SOL     OW30658   5.372   0.760   2.377
 9920SOL    HW130659   5.305   0.770   2.450
 9920SOL    HW230660   5.411   0.849   2.355
 9921SOL     OW30661   4.340   6.218   3.978
 9921SOL    HW130662   4.394   6.301   3.965
 9921SOL    HW230663   4.250   6.231   3.935
 9922SOL     OW30664   3.887   4.089   0.729
 9922SOL    HW130665   3.862   4.086   0.826
 9922SOL    HW230666   3.825   4.151   0.680
 9923SOL     OW30667   5.837   4.297   6.591
 9923SOL    HW130668   5.898   4.346   6.529
 9923SOL    HW230669   5.834   4.344   6.679
 9924SOL     OW30670   5.950   2.522   2.911
 9924SOL    HW130671   5.982   2.574   2.990
 9924SOL    HW230672   5.948   2.425   2.933
 9925SOL     OW30673   0.328   5.479   4.209
 9925SOL    HW130674   0.392   5.412   4.171
 9925SOL    HW230675   0.252   5.493   4.145
 9926SOL     OW30676   4.185   2.559   1.125
 9926SOL    HW130677   4.143   2.643   1.093
 9926SOL    HW230678   4.146   2.481   1.076
 9927SOL     OW30679   1.711   0.788   0.738
 9927SOL    HW130680   1.770   0.865   0.712
 9927SOL    HW230681   1.727   0.765   0.834
 9928SOL     OW30682   4.893   4.579   3.607
 9928SOL    HW130683   4.793   4.582   3.611
 9928SOL    HW230684   4.922   4.491   3.570
 9929SOL     OW30685   3.571   4.127   4.540
 9929SOL    HW130686   3.573   4.027   4.541
 9929SOL    HW230687   3.597   4.160   4.450
 9930SOL     OW30688   0.008   6.743   5.688
 9930SOL    HW130689   0.091   6.752   5.632
 9930SOL    HW230690   0.010   6.811   5.762
 9931SOL     OW30691   7.007   4.804   4.716
 9931SOL    HW130692   6.934   4.844   4.660
 9931SOL    HW230693   6.993   4.831   4.811
 9932SOL     OW30694   2.699   2.943   5.593
 9932SOL    HW130695   2.688   2.974   5.498
 9932SOL    HW230696   2.637   2.866   5.610
 9933SOL     OW30697   1.942   6.709   4.072
 9933SOL    HW130698   1.898   6.619   4.083
 9933SOL    HW230699   1.879   6.781   4.102
 9934SOL     OW30700   0.329   2.067   6.428
 9934SOL    HW130701   0.281   2.017   6.500
 9934SOL    HW230702   0.393   2.132   6.469
 9935SOL     OW30703   2.572   0.078   1.105
 9935SOL    HW130704   2.572   0.000   1.043
 9935SOL    HW230705   2.645   0.141   1.079
 9936SOL     OW30706   5.941   4.670   0.341
 9936SOL    HW130707   5.963   4.613   0.262
 9936SOL    HW230708   6.007   4.744   0.348
 9937SOL     OW30709   0.377   2.127   1.695
 9937SOL    HW130710   0.327   2.162   1.616
 9937SOL    HW230711   0.464   2.087   1.665
 9938SOL     OW30712   5.312   5.107   3.717
 9938SOL    HW130713   5.387   5.070   3.771
 9938SOL    HW230714   5.226   5.065   3.746
 9939SOL     OW30715   4.227   3.010   1.293
 9939SOL    HW130716   4.231   2.933   1.230
 9939SOL    HW230717   4.163   3.079   1.258
 9940SOL     OW30718   1.101   0.457   1.763
 9940SOL    HW130719   1.115   0.359   1.746
 9940SOL    HW230720   1.102   0.474   1.861
 9941SOL     OW30721   3.361   3.728   5.490
 9941SOL    HW130722   3.455   3.707   5.465
 9941SOL    HW230723   3.321   3.650   5.539
 9942SOL     OW30724   3.643   5.178   2.609
 9942SOL    HW130725   3.690   5.246   2.665
 9942SOL    HW230726   3.673   5.186   2.514
 9943SOL     OW30727   0.954   4.998   6.496
 9943SOL    HW130728   0.994   4.921   6.545
 9943SOL    HW230729   0.966   4.985   6.398
 9944SOL     OW30730   0.862   4.652   6.377
 9944SOL    HW130731   0.784   4.697   6.334
 9944SOL    HW230732   0.930   4.720   6.405
 9945SOL     OW30733   4.813   5.831   6.998
 9945SOL    HW130734   4.881   5.829   6.925
 9945SOL    HW230735   4.839   5.767   0.048
 9946SOL     OW30736   6.064   7.013   3.591
 9946SOL    HW130737   6.088   0.071   3.646
 9946SOL    HW230738   6.136   6.996   3.524
 9947SOL     OW30739   2.869   2.260   4.368
 9947SOL    HW130740   2.842   2.164   4.354
 9947SOL    HW230741   2.817   2.298   4.445
 9948SOL     OW30742   6.993   5.083   6.159
 9948SOL    HW130743   0.024   5.089   6.243
 9948SOL    HW230744   6.962   4.988   6.145
 9949SOL     OW30745   6.623   4.655   4.219
 9949SOL    HW130746   6.640   4.629   4.124
 9949SOL    HW230747   6.639   4.576   4.278
 9950SOL     OW30748   5.767   6.035   6.328
 9950SOL    HW130749   5.695   5.975   6.365
 9950SOL    HW230750   5.804   6.091   6.402
 9951SOL     OW30751   1.405   2.743   3.232
 9951SOL    HW130752   1.482   2.793   3.193
 9951SOL    HW230753   1.437   2.682   3.304
 9952SOL     OW30754   1.413   4.206   0.419
 9952SOL    HW130755   1.469   4.277   0.377
 9952SOL    HW230756   1.471   4.142   0.469
 9953SOL     OW30757   6.193   2.658   4.073
 9953SOL    HW130758   6.128   2.658   3.997
 9953SOL    HW230759   6.187   2.571   4.122
 9954SOL     OW30760   1.120   0.347   5.451
 9954SOL    HW130761   1.190   0.417   5.467
 9954SOL    HW230762   1.063   0.373   5.374
 9955SOL     OW30763   4.690   3.997   6.414
 9955SOL    HW130764   4.726   3.907   6.440
 9955SOL    HW230765   4.667   4.048   6.497
 9956SOL     OW30766   1.038   5.463   4.178
 9956SOL    HW130767   1.067   5.497   4.268
 9956SOL    HW230768   0.973   5.388   4.191
 9957SOL     OW30769   5.774   0.124   1.675
 9957SOL    HW130770   5.814   0.160   1.590
 9957SOL    HW230771   5.712   0.049   1.654
 9958SOL     OW30772   2.467   5.722   6.925
 9958SOL    HW130773   2.385   5.749   6.976
 9958SOL    HW230774   2.442   5.659   6.852
 9959SOL     OW30775   4.098   3.687   4.009
 9959SOL    HW130776   4.186   3.726   4.034
 9959SOL    HW230777   4.099   3.662   3.912
 9960SOL     OW30778   0.030   0.176   1.949
 9960SOL    HW130779   0.101   0.117   1.987
 9960SOL    HW230780   0.059   0.272   1.958
 9961SOL     OW30781   1.248   4.807   4.433
 9961SOL    HW130782   1.336   4.845   4.402
 9961SOL    HW230783   1.262   4.752   4.515
 9962SOL     OW30784   4.854   1.110   2.447
 9962SOL    HW130785   4.799   1.062   2.379
 9962SOL    HW230786   4.823   1.085   2.539
 9963SOL     OW30787   2.401   2.372   6.127
 9963SOL    HW130788   2.371   2.278   6.108
 9963SOL    HW230789   2.456   2.373   6.211
 9964SOL     OW30790   4.594   3.914   5.949
 9964SOL    HW130791   4.655   3.977   5.997
 9964SOL    HW230792   4.565   3.841   6.012
 9965SOL     OW30793   4.134   5.189   6.092
 9965SOL    HW130794   4.042   5.172   6.128
 9965SOL    HW230795   4.193   5.111   6.112
 9966SOL     OW30796   2.480   5.869   2.162
 9966SOL    HW130797   2.555   5.935   2.157
 9966SOL    HW230798   2.441   5.868   2.254
 9967SOL     OW30799   6.056   5.900   1.342
 9967SOL    HW130800   6.126   5.832   1.364
 9967SOL    HW230801   6.100   5.983   1.309
 9968SOL     OW30802   3.069   4.472   6.421
 9968SOL    HW130803   3.022   4.421   6.349
 9968SOL    HW230804   3.043   4.435   6.511
 9969SOL     OW30805   1.832   2.855   4.218
 9969SOL    HW130806   1.820   2.795   4.297
 9969SOL    HW230807   1.743   2.895   4.193
 9970SOL     OW30808   5.404   4.574   2.339
 9970SOL    HW130809   5.480   4.592   2.276
 9970SOL    HW230810   5.437   4.579   2.433
 9971SOL     OW30811   2.802   3.585   0.500
 9971SOL    HW130812   2.727   3.610   0.562
 9971SOL    HW230813   2.774   3.601   0.406
 9972SOL     OW30814   3.588   4.477   0.666
 9972SOL    HW130815   3.505   4.454   0.718
 9972SOL    HW230816   3.666   4.478   0.729
 9973SOL     OW30817   4.254   1.582   3.959
 9973SOL    HW130818   4.287   1.676   3.948
 9973SOL    HW230819   4.238   1.563   4.056
 9974SOL     OW30820   6.267   3.641   3.597
 9974SOL    HW130821   6.221   3.665   3.511
 9974SOL    HW230822   6.285   3.543   3.599
 9975SOL     OW30823   6.292   4.403   0.042
 9975SOL    HW130824   6.253   4.493   0.024
 9975SOL    HW230825   6.247   4.335   7.007
 9976SOL     OW30826   0.471   5.364   5.737
 9976SOL    HW130827   0.417   5.448   5.745
 9976SOL    HW230828   0.443   5.315   5.654
 9977SOL     OW30829   0.013   5.537   6.491
 9977SOL    HW130830   6.944   5.498   6.481
 9977SOL    HW230831   0.079   5.481   6.440
 9978SOL     OW30832   6.396   3.077   3.720
 9978SOL    HW130833   6.376   2.996   3.774
 9978SOL    HW230834   6.491   3.104   3.733
 9979SOL     OW30835   6.014   4.705   5.693
 9979SOL    HW130836   5.986   4.670   5.604
 9979SOL    HW230837   6.097   4.657   5.723
 9980SOL     OW30838   1.702   1.733   6.448
 9980SOL    HW130839   1.794   1.696   6.436
 9980SOL    HW230840   1.703   1.831   6.430
 9981SOL     OW30841   2.443   1.766   1.593
 9981SOL    HW130842   2.456   1.847   1.649
 9981SOL    HW230843   2.517   1.701   1.611
 9982SOL     OW30844   0.467   1.350   3.691
 9982SOL    HW130845   0.376   1.362   3.729
 9982SOL    HW230846   0.461   1.309   3.600
 9983SOL     OW30847   1.307   2.237   2.684
 9983SOL    HW130848   1.402   2.217   2.710
 9983SOL    HW230849   1.287   2.193   2.596
 9984SOL     OW30850   1.580   6.879   0.443
 9984SOL    HW130851   1.597   6.807   0.510
 9984SOL    HW230852   1.525   6.951   0.486
 9985SOL     OW30853   2.687   0.984   1.714
 9985SOL    HW130854   2.598   0.964   1.756
 9985SOL    HW230855   2.759   0.933   1.762
 9986SOL     OW30856   5.335   3.829   6.980
 9986SOL    HW130857   5.358   3.750   0.014
 9986SOL    HW230858   5.364   3.813   6.886
 9987SOL     OW30859   6.110   2.210   3.199
 9987SOL    HW130860   6.112   2.218   3.299
 9987SOL    HW230861   6.040   2.144   3.172
 9988SOL     OW30862   0.129   5.224   5.114
 9988SOL    HW130863   0.080   5.203   5.199
 9988SOL    HW230864   0.143   5.322   5.107
 9989SOL     OW30865   5.950   4.249   3.229
 9989SOL    HW130866   5.992   4.303   3.302
 9989SOL    HW230867   5.974   4.153   3.242
 9990SOL     OW30868   2.252   0.434   2.864
 9990SOL    HW130869   2.181   0.381   2.818
 9990SOL    HW230870   2.219   0.466   2.953
 9991SOL     OW30871   2.208   2.971   4.061
 9991SOL    HW130872   2.190   2.873   4.066
 9991SOL    HW230873   2.162   3.018   4.136
 9992SOL     OW30874   4.525   3.640   0.579
 9992SOL    HW130875   4.524   3.578   0.501
 9992SOL    HW230876   4.615   3.682   0.588
 9993SOL     OW30877   4.018   0.370   2.023
 9993SOL    HW130878   4.098   0.408   2.071
 9993SOL    HW230879   3.942   0.435   2.028
 9994SOL     OW30880   6.942   4.422   4.028
 9994SOL    HW130881   7.012   4.489   4.055
 9994SOL    HW230882   6.915   4.369   4.108
 9995SOL     OW30883   2.977   0.875   2.681
 9995SOL    HW130884   2.997   0.965   2.644
 9995SOL    HW230885   3.049   0.811   2.655
 9996SOL     OW30886   3.099   3.397   1.742
 9996SOL    HW130887   3.154   3.334   1.688
 9996SOL    HW230888   3.048   3.346   1.812
 9997SOL     OW30889   4.075   1.772   0.888
 9997SOL    HW130890   4.018   1.853   0.897
 9997SOL    HW230891   4.164   1.788   0.930
 9998SOL     OW30892   6.381   3.833   1.835
 9998SOL    HW130893   6.415   3.796   1.748
 9998SOL    HW230894   6.282   3.841   1.832
 9999SOL     OW30895   6.181   4.011   4.958
 9999SOL    HW130896   6.197   3.914   4.977
 9999SOL    HW230897   6.128   4.019   4.873
10000SOL     OW30898   5.792   3.482   6.824
10000SOL    HW130899   5.732   3.449   6.896
10000SOL    HW230900   5.886   3.455   6.844
10001SOL     OW30901   5.563   1.256   2.186
10001SOL    HW130902   5.510   1.201   2.120
10001SOL    HW230903   5.512   1.339   2.207
10002SOL     OW30904   1.682   0.474   0.791
10002SOL    HW130905   1.755   0.511   0.734
10002SOL    HW230906   1.677   0.375   0.779
10003SOL     OW30907   3.435   1.718   3.533
10003SOL    HW130908   3.510   1.654   3.548
10003SOL    HW230909   3.466   1.792   3.473
10004SOL     OW30910   4.680   2.287   4.485
10004SOL    HW130911   4.654   2.222   4.414
10004SOL    HW230912   4.620   2.275   4.565
10005SOL     OW30913   4.583   0.264   3.744
10005SOL    HW130914   4.665   0.216   3.778
10005SOL    HW230915   4.535   0.205   3.679
10006SOL     OW30916   5.258   1.355   3.790
10006SOL    HW130917   5.307   1.290   3.732
10006SOL    HW230918   5.161   1.334   3.789
10007SOL     OW30919   0.826   4.715   4.877
10007SOL    HW130920   0.863   4.755   4.793
10007SOL    HW230921   0.776   4.631   4.855
10008SOL     OW30922   4.403   1.378   3.828
10008SOL    HW130923   4.349   1.425   3.898
10008SOL    HW230924   4.436   1.444   3.761
10009SOL     OW30925   1.755   4.386   1.174
10009SOL    HW130926   1.839   4.414   1.220
10009SOL    HW230927   1.702   4.468   1.148
10010SOL     OW30928   2.389   6.271   6.812
10010SOL    HW130929   2.434   6.188   6.781
10010SOL    HW230930   2.417   6.291   6.906
10011SOL     OW30931   5.605   2.220   4.783
10011SOL    HW130932   5.510   2.250   4.771
10011SOL    HW230933   5.635   2.173   4.699
10012SOL     OW30934   4.561   0.509   3.081
10012SOL    HW130935   4.570   0.479   3.176
10012SOL    HW230936   4.467   0.535   3.063
10013SOL     OW30937   1.204   1.585   3.973
10013SOL    HW130938   1.132   1.583   3.904
10013SOL    HW230939   1.267   1.509   3.959
10014SOL     OW30940   6.288   3.020   6.930
10014SOL    HW130941   6.306   3.029   6.832
10014SOL    HW230942   6.318   2.930   6.961
10015SOL     OW30943   2.714   4.209   0.475
10015SOL    HW130944   2.622   4.170   0.478
10015SOL    HW230945   2.754   4.208   0.567
10016SOL     OW30946   2.098   0.058   5.244
10016SOL    HW130947   2.029   0.049   5.316
10016SOL    HW230948   2.189   0.042   5.282
10017SOL     OW30949   2.336   2.336   2.336
10017SOL    HW130950   2.317   2.417   2.391
10017SOL    HW230951   2.392   2.272   2.389
10018SOL     OW30952   4.502   6.956   5.646
10018SOL    HW130953   4.589   6.949   5.596
10018SOL    HW230954   4.520   6.944   5.744
10019SOL     OW30955   1.077   1.595   2.793
10019SOL    HW130956   1.100   1.692   2.803
10019SOL    HW230957   1.157   1.539   2.811
10020SOL     OW30958   0.629   3.100   1.472
10020SOL    HW130959   0.534   3.123   1.493
10020SOL    HW230960   0.687   3.122   1.550
10021SOL     OW30961   0.058   2.672   0.790
10021SOL    HW130962   7.017   2.618   0.734
10021SOL    HW230963   0.014   2.695   0.877
10022SOL     OW30964   3.657   6.906   0.356
10022SOL    HW130965   3.756   6.917   0.344
10022SOL    HW230966   3.626   6.964   0.432
10023SOL     OW30967   1.626   5.199   6.243
10023SOL    HW130968   1.609   5.107   6.209
10023SOL    HW230969   1.700   5.197   6.310
10024SOL     OW30970   2.128   6.702   2.033
10024SOL    HW130971   2.125   6.634   1.959
10024SOL    HW230972   2.082   6.664   2.114
10025SOL     OW30973   1.559   1.196   1.173
10025SOL    HW130974   1.554   1.296   1.180
10025SOL    HW230975   1.549   1.156   1.263
10026SOL     OW30976   4.695   6.741   4.117
10026SOL    HW130977   4.624   6.800   4.079
10026SOL    HW230978   4.718   6.670   4.050
10027SOL     OW30979   6.783   4.217   5.397
10027SOL    HW130980   6.750   4.270   5.319
10027SOL    HW230981   6.878   4.188   5.380
10028SOL     OW30982   1.575   1.534   1.322
10028SOL    HW130983   1.658   1.485   1.297
10028SOL    HW230984   1.598   1.615   1.376
10029SOL     OW30985   3.661   2.048   4.280
10029SOL    HW130986   3.619   1.958   4.269
10029SOL    HW230987   3.646   2.080   4.373
10030SOL     OW30988   2.132   6.765   3.634
10030SOL    HW130989   2.107   6.763   3.537
10030SOL    HW230990   2.052   6.742   3.690
10031SOL     OW30991   6.063   4.906   4.162
10031SOL    HW130992   6.070   4.901   4.063
10031SOL    HW230993   6.041   4.815   4.198
10032SOL     OW30994   2.837   1.760   4.682
10032SOL    HW130995   2.925   1.726   4.716
10032SOL    HW230996   2.838   1.860   4.680
10033SOL     OW30997   5.579   2.328   3.736
10033SOL    HW130998   5.490   2.305   3.695
10033SOL    HW230999   5.630   2.386   3.673
10034SOL     OW31000   2.517   0.141   4.260
10034SOL    HW131001   2.571   0.113   4.181
10034SOL    HW231002   2.552   0.097   4.343
10035SOL     OW31003   6.575   4.167   1.968
10035SOL    HW131004   6.522   4.219   1.902
10035SOL    HW231005   6.625   4.094   1.921
10036SOL     OW31006   5.878   1.915   1.734
10036SOL    HW131007   5.860   1.818   1.748
10036SOL    HW231008   5.798   1.968   1.763
10037SOL     OW31009   6.735   1.166   0.824
10037SOL    HW131010   6.768   1.174   0.918
10037SOL    HW231011   6.653   1.221   0.811
10038SOL     OW31012   5.049   0.806   0.319
10038SOL    HW131013   5.026   0.903   0.316
10038SOL    HW231014   4.985   0.759   0.380
10039SOL     OW31015   3.655   0.330   3.275
10039SOL    HW131016   3.709   0.246   3.278
10039SOL    HW231017   3.571   0.314   3.223
10040SOL     OW31018   4.967   5.385   6.308
10040SOL    HW131019   4.981   5.384   6.209
10040SOL    HW231020   4.872   5.411   6.328
10041SOL     OW31021   3.968   6.240   7.018
10041SOL    HW131022   3.988   6.145   6.993
10041SOL    HW231023   3.977   6.298   6.937
10042SOL     OW31024   0.862   1.571   4.343
10042SOL    HW131025   0.883   1.643   4.409
10042SOL    HW231026   0.947   1.537   4.303
10043SOL     OW31027   6.246   1.235   5.082
10043SOL    HW131028   6.341   1.265   5.073
10043SOL    HW231029   6.226   1.217   5.179
10044SOL     OW31030   2.344   1.932   4.651
10044SOL    HW131031   2.284   1.979   4.586
10044SOL    HW231032   2.432   1.980   4.656
10045SOL     OW31033   3.847   0.193   2.988
10045SOL    HW131034   3.897   0.273   2.958
10045SOL    HW231035   3.836   0.196   3.088
10046SOL     OW31036   2.188   3.765   0.979
10046SOL    HW131037   2.282   3.798   0.977
10046SOL    HW231038   2.179   3.694   1.048
10047SOL     OW31039   0.896   3.600   4.860
10047SOL    HW131040   0.934   3.643   4.942
10047SOL    HW231041   0.801   3.573   4.877
10048SOL     OW31042   6.996   0.528   2.359
10048SOL    HW131043   0.028   0.609   2.336
10048SOL    HW231044   6.934   0.507   2.283
10049SOL     OW31045   1.522   1.662   5.743
10049SOL    HW131046   1.537   1.619   5.655
10049SOL    HW231047   1.610   1.677   5.789
10050SOL     OW31048   4.960   3.811   5.134
10050SOL    HW131049   4.890   3.879   5.157
10050SOL    HW231050   4.916   3.723   5.118
10051SOL     OW31051   6.429   3.913   5.401
10051SOL    HW131052   6.445   4.005   5.366
10051SOL    HW231053   6.516   3.864   5.408
10052SOL     OW31054   2.104   1.298   3.109
10052SOL    HW131055   2.186   1.355   3.109
10052SOL    HW231056   2.127   1.206   3.078
10053SOL     OW31057   4.431   5.453   3.669
10053SOL    HW131058   4.531   5.447   3.661
10053SOL    HW231059   4.404   5.548   3.686
10054SOL     OW31060   5.429   6.342   5.531
10054SOL    HW131061   5.355   6.316   5.593
10054SOL    HW231062   5.470   6.428   5.561
10055SOL     OW31063   6.105   1.453   5.398
10055SOL    HW131064   6.007   1.471   5.408
10055SOL    HW231065   6.119   1.359   5.366
10056SOL     OW31066   5.269   4.372   2.998
10056SOL    HW131067   5.180   4.327   2.996
10056SOL    HW231068   5.305   4.379   2.905
10057SOL     OW31069   4.760   3.359   5.337
10057SOL    HW131070   4.741   3.413   5.255
10057SOL    HW231071   4.815   3.414   5.401
10058SOL     OW31072   6.432   3.611   4.667
10058SOL    HW131073   6.467   3.694   4.623
10058SOL    HW231074   6.333   3.617   4.677
10059SOL     OW31075   0.293   1.788   6.841
10059SOL    HW131076   0.194   1.805   6.848
10059SOL    HW231077   0.339   1.871   6.811
10060SOL     OW31078   2.331   2.719   2.264
10060SOL    HW131079   2.253   2.769   2.228
10060SOL    HW231080   2.396   2.701   2.191
10061SOL     OW31081   4.428   1.811   3.758
10061SOL    HW131082   4.431   1.727   3.704
10061SOL    HW231083   4.515   1.825   3.803
10062SOL     OW31084   6.454   0.907   4.406
10062SOL    HW131085   6.411   0.823   4.437
10062SOL    HW231086   6.435   0.920   4.308
10063SOL     OW31087   3.176   1.304   4.452
10063SOL    HW131088   3.093   1.356   4.431
10063SOL    HW231089   3.250   1.333   4.391
10064SOL     OW31090   4.826   6.469   0.098
10064SOL    HW131091   4.868   6.556   0.072
10064SOL    HW231092   4.765   6.439   0.025
10065SOL     OW31093   2.358   0.707   2.246
10065SOL    HW131094   2.421   0.770   2.200
10065SOL    HW231095   2.403   0.669   2.327
10066SOL     OW31096   0.357   2.651   4.949
10066SOL    HW131097   0.329   2.727   4.891
10066SOL    HW231098   0.444   2.673   4.994
10067SOL     OW31099   0.078   3.502   5.685
10067SOL    HW131100   0.095   3.587   5.735
10067SOL    HW231101   0.131   3.427   5.726
10068SOL     OW31102   1.132   3.595   3.965
10068SOL    HW131103   1.036   3.592   3.992
10068SOL    HW231104   1.187   3.626   4.043
10069SOL     OW31105   3.051   5.040   1.787
10069SOL    HW131106   3.000   5.020   1.704
10069SOL    HW231107   2.990   5.032   1.866
10070SOL     OW31108   0.267   5.878   5.385
10070SOL    HW131109   0.194   5.820   5.420
10070SOL    HW231110   0.249   5.973   5.411
10071SOL     OW31111   0.419   6.592   4.546
10071SOL    HW131112   0.388   6.586   4.641
10071SOL    HW231113   0.485   6.519   4.527
10072SOL     OW31114   0.084   0.824   3.934
10072SOL    HW131115   0.128   0.797   3.848
10072SOL    HW231116   0.058   0.920   3.929
10073SOL     OW31117   0.016   4.423   3.765
10073SOL    HW131118   7.014   4.503   3.710
10073SOL    HW231119   6.971   4.410   3.838
10074SOL     OW31120   2.444   6.630   6.484
10074SOL    HW131121   2.429   6.721   6.522
10074SOL    HW231122   2.528   6.592   6.524
10075SOL     OW31123   1.666   2.106   1.843
10075SOL    HW131124   1.716   2.133   1.761
10075SOL    HW231125   1.574   2.144   1.840
10076SOL     OW31126   4.830   6.260   3.013
10076SOL    HW131127   4.777   6.223   3.090
10076SOL    HW231128   4.909   6.310   3.048
10077SOL     OW31129   4.061   2.983   0.659
10077SOL    HW131130   4.076   2.912   0.591
10077SOL    HW231131   4.147   3.031   0.676
10078SOL     OW31132   6.321   5.991   4.805
10078SOL    HW131133   6.374   5.912   4.835
10078SOL    HW231134   6.262   5.965   4.728
10079SOL     OW31135   6.405   3.209   2.852
10079SOL    HW131136   6.348   3.136   2.890
10079SOL    HW231137   6.498   3.175   2.839
10080SOL     OW31138   4.985   1.727   5.878
10080SOL    HW131139   4.911   1.662   5.859
10080SOL    HW231140   4.946   1.810   5.918
10081SOL     OW31141   0.965   1.632   6.962
10081SOL    HW131142   1.010   1.566   7.022
10081SOL    HW231143   1.010   1.633   6.873
10082SOL     OW31144   0.647   5.481   2.383
10082SOL    HW131145   0.603   5.401   2.425
10082SOL    HW231146   0.584   5.523   2.318
10083SOL     OW31147   3.019   0.035   3.737
10083SOL    HW131148   3.068   6.996   3.674
10083SOL    HW231149   3.066   0.123   3.742
10084SOL     OW31150   0.471   0.186   5.379
10084SOL    HW131151   0.473   0.178   5.479
10084SOL    HW231152   0.436   0.101   5.339
10085SOL     OW31153   3.772   0.203   0.868
10085SOL    HW131154   3.864   0.188   0.832
10085SOL    HW231155   3.726   0.273   0.813
10086SOL     OW31156   5.999   6.398   2.901
10086SOL    HW131157   5.933   6.352   2.961
10086SOL    HW231158   5.998   6.353   2.811
10087SOL     OW31159   6.033   5.882   3.911
10087SOL    HW131160   6.048   5.788   3.942
10087SOL    HW231161   5.952   5.919   3.956
10088SOL     OW31162   6.847   0.140   1.332
10088SOL    HW131163   6.931   0.106   1.291
10088SOL    HW231164   6.853   0.240   1.343
10089SOL     OW31165   3.602   2.040   2.877
10089SOL    HW131166   3.570   1.949   2.902
10089SOL    HW231167   3.623   2.043   2.779
10090SOL     OW31168   0.553   5.262   2.100
10090SOL    HW131169   0.490   5.273   2.023
10090SOL    HW231170   0.516   5.197   2.165
10091SOL     OW31171   0.050   6.023   6.648
10091SOL    HW131172   0.047   6.001   6.746
10091SOL    HW231173   0.130   6.080   6.629
10092SOL     OW31174   0.617   3.136   5.943
10092SOL    HW131175   0.632   3.059   5.882
10092SOL    HW231176   0.553   3.201   5.900
10093SOL     OW31177   5.041   3.497   5.150
10093SOL    HW131178   5.094   3.454   5.077
10093SOL    HW231179   4.964   3.546   5.110
10094SOL     OW31180   2.437   6.508   0.915
10094SOL    HW131181   2.411   6.564   0.836
10094SOL    HW231182   2.410   6.555   0.999
10095SOL     OW31183   5.195   1.631   4.413
10095SOL    HW131184   5.166   1.632   4.509
10095SOL    HW231185   5.293   1.615   4.407
10096SOL     OW31186   4.570   0.238   2.826
10096SOL    HW131187   4.533   0.307   2.765
10096SOL    HW231188   4.513   0.232   2.908
10097SOL     OW31189   2.185   1.973   6.604
10097SOL    HW131190   2.227   1.957   6.693
10097SOL    HW231191   2.109   2.037   6.614
10098SOL     OW31192   3.027   6.621   4.836
10098SOL    HW131193   2.968   6.699   4.814
10098SOL    HW231194   2.981   6.563   4.903
10099SOL     OW31195   6.743   4.518   1.835
10099SOL    HW131196   6.800   4.436   1.836
10099SOL    HW231197   6.648   4.494   1.854
10100SOL     OW31198   5.484   5.962   5.524
10100SOL    HW131199   5.523   6.013   5.448
10100SOL    HW231200   5.557   5.927   5.582
10101SOL     OW31201   6.698   3.430   1.529
10101SOL    HW131202   6.698   3.429   1.429
10101SOL    HW231203   6.674   3.522   1.562
10102SOL     OW31204   6.704   0.298   1.552
10102SOL    HW131205   6.704   0.200   1.534
10102SOL    HW231206   6.797   0.329   1.570
10103SOL     OW31207   1.918   0.532   5.309
10103SOL    HW131208   2.002   0.516   5.360
10103SOL    HW231209   1.844   0.478   5.349
10104SOL     OW31210   1.407   0.963   5.613
10104SOL    HW131211   1.453   1.045   5.647
10104SOL    HW231212   1.385   0.975   5.516
10105SOL     OW31213   1.684   0.255   5.873
10105SOL    HW131214   1.692   0.207   5.960
10105SOL    HW231215   1.691   0.354   5.889
10106SOL     OW31216   4.021   6.492   0.950
10106SOL    HW131217   3.953   6.548   0.998
10106SOL    HW231218   4.014   6.508   0.852
10107SOL     OW31219   5.365   1.616   6.153
10107SOL    HW131220   5.456   1.655   6.136
10107SOL    HW231221   5.305   1.688   6.188
10108SOL     OW31222   0.429   2.312   0.161
10108SOL    HW131223   0.526   2.305   0.138
10108SOL    HW231224   0.415   2.388   0.224
10109SOL     OW31225   0.797   1.074   0.613
10109SOL    HW131226   0.857   1.074   0.533
10109SOL    HW231227   0.778   1.168   0.641
10110SOL     OW31228   4.803   4.793   4.287
10110SOL    HW131229   4.840   4.760   4.374
10110SOL    HW231230   4.862   4.865   4.251
10111SOL     OW31231   0.241   3.503   2.974
10111SOL    HW131232   0.195   3.545   2.896
10111SOL    HW231233   0.306   3.569   3.013
10112SOL     OW31234   5.652   3.533   2.852
10112SOL    HW131235   5.618   3.440   2.839
10112SOL    HW231236   5.650   3.582   2.765
10113SOL     OW31237   4.277   0.090   1.001
10113SOL    HW131238   4.294   0.004   0.952
10113SOL    HW231239   4.355   0.151   0.987
10114SOL     OW31240   4.240   2.109   3.206
10114SOL    HW131241   4.162   2.165   3.177
10114SOL    HW231242   4.307   2.167   3.253
10115SOL     OW31243   3.755   1.658   5.027
10115SOL    HW131244   3.815   1.614   5.094
10115SOL    HW231245   3.713   1.739   5.068
10116SOL     OW31246   0.363   6.976   6.359
10116SOL    HW131247   0.363   7.001   6.456
10116SOL    HW231248   0.364   0.036   6.303
10117SOL     OW31249   6.999   6.113   5.636
10117SOL    HW131250   0.001   6.025   5.675
10117SOL    HW231251   6.903   6.112   5.608
10118SOL     OW31252   2.699   4.658   4.144
10118SOL    HW131253   2.745   4.691   4.062
10118SOL    HW231254   2.602   4.682   4.140
10119SOL     OW31255   6.334   4.963   4.222
10119SOL    HW131256   6.358   4.947   4.318
10119SOL    HW231257   6.240   4.935   4.206
10120SOL     OW31258   1.617   3.307   3.967
10120SOL    HW131259   1.702   3.322   3.917
10120SOL    HW231260   1.621   3.355   4.054
10121SOL     OW31261   5.723   4.595   0.822
10121SOL    HW131262   5.637   4.544   0.826
10121SOL    HW231263   5.764   4.584   0.731
10122SOL     OW31264   6.031   2.824   3.735
10122SOL    HW131265   6.008   2.765   3.813
10122SOL    HW231266   5.989   2.788   3.652
10123SOL     OW31267   5.793   6.556   0.866
10123SOL    HW131268   5.773   6.459   0.882
10123SOL    HW231269   5.880   6.564   0.818
10124SOL     OW31270   1.036   5.125   1.122
10124SOL    HW131271   1.106   5.126   1.051
10124SOL    HW231272   1.076   5.093   1.208
10125SOL     OW31273   2.636   1.639   1.140
10125SOL    HW131274   2.643   1.592   1.052
10125SOL    HW231275   2.559   1.602   1.192
10126SOL     OW31276   6.635   0.156   5.891
10126SOL    HW131277   6.634   0.056   5.881
10126SOL    HW231278   6.697   0.196   5.823
10127SOL     OW31279   1.975   3.900   6.839
10127SOL    HW131280   1.997   3.961   6.915
10127SOL    HW231281   1.927   3.952   6.768
10128SOL     OW31282   2.923   0.968   6.111
10128SOL    HW131283   2.990   0.970   6.037
10128SOL    HW231284   2.863   1.048   6.104
10129SOL     OW31285   0.124   2.142   2.417
10129SOL    HW131286   0.189   2.167   2.346
10129SOL    HW231287   0.079   2.056   2.391
10130SOL     OW31288   0.761   3.130   1.706
10130SOL    HW131289   0.714   3.089   1.785
10130SOL    HW231290   0.859   3.129   1.723
10131SOL     OW31291   1.213   0.560   4.171
10131SOL    HW131292   1.304   0.598   4.152
10131SOL    HW231293   1.215   0.512   4.258
10132SOL     OW31294   1.330   0.243   2.840
10132SOL    HW131295   1.423   0.278   2.837
10132SOL    HW231296   1.266   0.319   2.826
10133SOL     OW31297   4.415   6.569   0.995
10133SOL    HW131298   4.414   6.666   0.970
10133SOL    HW231299   4.387   6.559   1.090
10134SOL     OW31300   6.423   1.686   3.472
10134SOL    HW131301   6.436   1.778   3.435
10134SOL    HW231302   6.377   1.629   3.404
10135SOL     OW31303   4.888   1.950   3.223
10135SOL    HW131304   4.853   1.879   3.163
10135SOL    HW231305   4.987   1.959   3.210
10136SOL     OW31306   5.644   2.334   2.781
10136SOL    HW131307   5.664   2.285   2.696
10136SOL    HW231308   5.570   2.400   2.764
10137SOL     OW31309   0.090   5.113   6.406
10137SOL    HW131310   0.011   5.059   6.434
10137SOL    HW231311   0.160   5.053   6.368
10138SOL     OW31312   5.234   2.329   0.536
10138SOL    HW131313   5.285   2.390   0.475
10138SOL    HW231314   5.267   2.235   0.526
10139SOL     OW31315   3.567   3.380   4.780
10139SOL    HW131316   3.596   3.414   4.691
10139SOL    HW231317   3.511   3.450   4.826
10140SOL     OW31318   6.807   6.128   6.225
10140SOL    HW131319   6.895   6.156   6.262
10140SOL    HW231320   6.806   6.030   6.207
10141SOL     OW31321   4.582   0.860   3.727
10141SOL    HW131322   4.551   0.943   3.774
10141SOL    HW231323   4.682   0.855   3.731
10142SOL     OW31324   6.339   6.641   5.692
10142SOL    HW131325   6.373   6.712   5.631
10142SOL    HW231326   6.367   6.551   5.658
10143SOL     OW31327   5.548   2.538   0.484
10143SOL    HW131328   5.504   2.626   0.469
10143SOL    HW231329   5.614   2.522   0.411
10144SOL     OW31330   4.544   0.006   5.302
10144SOL    HW131331   4.478   6.956   5.282
10144SOL    HW231332   4.593   7.006   5.386
10145SOL     OW31333   3.792   5.934   3.178
10145SOL    HW131334   3.861   6.005   3.193
10145SOL    HW231335   3.715   5.949   3.240
10146SOL     OW31336   6.686   4.433   4.333
10146SOL    HW131337   6.754   4.366   4.301
10146SOL    HW231338   6.686   4.435   4.433
10147SOL     OW31339   5.232   4.452   6.637
10147SOL    HW131340   5.314   4.508   6.623
10147SOL    HW231341   5.174   4.457   6.556
10148SOL     OW31342   5.767   4.037   1.144
10148SOL    HW131343   5.687   3.980   1.127
10148SOL    HW231344   5.849   3.980   1.146
10149SOL     OW31345   5.115   4.890   1.489
10149SOL    HW131346   5.204   4.885   1.534
10149SOL    HW231347   5.105   4.813   1.425
10150SOL     OW31348   5.069   3.129   1.811
10150SOL    HW131349   5.093   3.040   1.772
10150SOL    HW231350   5.129   3.150   1.887
10151SOL     OW31351   0.753   6.667   5.707
10151SOL    HW131352   0.663   6.662   5.751
10151SOL    HW231353   0.794   6.576   5.707
10152SOL     OW31354   6.290   5.723   3.788
10152SOL    HW131355   6.246   5.801   3.830
10152SOL    HW231356   6.381   5.749   3.754
10153SOL     OW31357   4.667   5.932   3.997
10153SOL    HW131358   4.710   5.941   3.907
10153SOL    HW231359   4.672   5.836   4.026
10154SOL     OW31360   3.553   5.968   6.225
10154SOL    HW131361   3.497   5.889   6.200
10154SOL    HW231362   3.638   5.966   6.172
10155SOL     OW31363   5.066   2.631   5.455
10155SOL    HW131364   5.012   2.663   5.377
10155SOL    HW231365   5.053   2.693   5.533
10156SOL     OW31366   4.760   0.468   1.139
10156SOL    HW131367   4.858   0.455   1.151
10156SOL    HW231368   4.711   0.424   1.215
10157SOL     OW31369   6.763   1.944   0.164
10157SOL    HW131370   6.826   1.867   0.169
10157SOL    HW231371   6.767   1.996   0.249
10158SOL     OW31372   6.080   6.394   2.304
10158SOL    HW131373   6.081   6.352   2.395
10158SOL    HW231374   5.990   6.433   2.287
10159SOL     OW31375   4.101   3.461   2.932
10159SOL    HW131376   4.181   3.463   2.992
10159SOL    HW231377   4.029   3.519   2.972
10160SOL     OW31378   1.624   3.925   3.307
10160SOL    HW131379   1.712   3.887   3.335
10160SOL    HW231380   1.629   4.025   3.308
10161SOL     OW31381   3.649   4.991   6.872
10161SOL    HW131382   3.555   4.959   6.886
10161SOL    HW231383   3.671   5.059   6.942
10162SOL     OW31384   2.390   4.331   1.213
10162SOL    HW131385   2.460   4.264   1.188
10162SOL    HW231386   2.338   4.356   1.131
10163SOL     OW31387   1.014   5.671   6.406
10163SOL    HW131388   1.014   5.737   6.330
10163SOL    HW231389   0.938   5.693   6.468
10164SOL     OW31390   6.086   3.539   3.830
10164SOL    HW131391   6.127   3.559   3.741
10164SOL    HW231392   6.122   3.452   3.864
10165SOL     OW31393   6.561   2.690   3.742
10165SOL    HW131394   6.519   2.764   3.689
10165SOL    HW231395   6.632   2.729   3.802
10166SOL     OW31396   1.337   2.352   1.226
10166SOL    HW131397   1.266   2.422   1.233
10166SOL    HW231398   1.395   2.370   1.147
10167SOL     OW31399   0.009   5.362   0.317
10167SOL    HW131400   0.008   5.327   0.410
10167SOL    HW231401   0.099   5.346   0.276
10168SOL     OW31402   6.140   1.567   5.854
10168SOL    HW131403   6.090   1.586   5.770
10168SOL    HW231404   6.105   1.482   5.895
10169SOL     OW31405   6.687   3.642   3.146
10169SOL    HW131406   6.664   3.692   3.063
10169SOL    HW231407   6.663   3.698   3.226
10170SOL     OW31408   6.249   5.159   6.420
10170SOL    HW131409   6.195   5.202   6.493
10170SOL    HW231410   6.223   5.200   6.332
10171SOL     OW31411   0.216   3.082   5.316
10171SOL    HW131412   0.214   3.161   5.377
10171SOL    HW231413   0.236   3.112   5.223
10172SOL     OW31414   0.120   6.971   4.509
10172SOL    HW131415   0.136   6.977   4.608
10172SOL    HW231416   0.188   0.005   4.461
10173SOL     OW31417   2.270   3.298   6.853
10173SOL    HW131418   2.283   3.210   6.899
10173SOL    HW231419   2.196   3.290   6.786
10174SOL     OW31420   4.288   4.648   3.819
10174SOL    HW131421   4.367   4.709   3.812
10174SOL    HW231422   4.278   4.617   3.913
10175SOL     OW31423   6.503   1.979   3.633
10175SOL    HW131424   6.592   2.019   3.613
10175SOL    HW231425   6.458   1.953   3.547
10176SOL     OW31426   5.841   4.049   5.365
10176SOL    HW131427   5.939   4.061   5.353
10176SOL    HW231428   5.805   3.995   5.288
10177SOL     OW31429   1.578   6.870   1.148
10177SOL    HW131430   1.591   6.834   1.056
10177SOL    HW231431   1.625   6.959   1.156
10178SOL     OW31432   1.685   1.456   1.021
10178SOL    HW131433   1.763   1.519   1.018
10178SOL    HW231434   1.605   1.499   0.979
10179SOL     OW31435   0.307   4.142   6.871
10179SOL    HW131436   0.228   4.201   6.859
10179SOL    HW231437   0.389   4.188   6.835
10180SOL     OW31438   4.020   0.641   0.100
10180SOL    HW131439   4.070   0.718   0.062
10180SOL    HW231440   4.073   0.557   0.086
10181SOL     OW31441   0.144   3.071   1.261
10181SOL    HW131442   0.063   3.129   1.267
10181SOL    HW231443   0.177   3.072   1.166
10182SOL     OW31444   4.824   1.205   7.007
10182SOL    HW131445   4.796   1.247   6.921
10182SOL    HW231446   4.872   1.272   0.040
10183SOL     OW31447   5.817   2.958   5.885
10183SOL    HW131448   5.721   2.982   5.875
10183SOL    HW231449   5.873   3.041   5.878
10184SOL     OW31450   5.723   3.172   6.947
10184SOL    HW131451   5.655   3.157   6.876
10184SOL    HW231452   5.810   3.200   6.906
10185SOL     OW31453   5.276   6.569   2.530
10185SOL    HW131454   5.210   6.541   2.459
10185SOL    HW231455   5.365   6.528   2.511
10186SOL     OW31456   4.864   3.765   4.818
10186SOL    HW131457   4.828   3.854   4.847
10186SOL    HW231458   4.855   3.700   4.894
10187SOL     OW31459   1.613   4.174   5.427
10187SOL    HW131460   1.690   4.115   5.401
10187SOL    HW231461   1.538   4.163   5.362
10188SOL     OW31462   2.866   5.499   6.750
10188SOL    HW131463   2.920   5.574   6.711
10188SOL    HW231464   2.823   5.448   6.675
10189SOL     OW31465   1.727   0.784   6.430
10189SOL    HW131466   1.639   0.824   6.402
10189SOL    HW231467   1.797   0.806   6.362
10190SOL     OW31468   3.919   3.307   1.150
10190SOL    HW131469   3.850   3.368   1.111
10190SOL    HW231470   3.924   3.223   1.098
10191SOL     OW31471   6.064   5.847   0.829
10191SOL    HW131472   6.109   5.844   0.919
10191SOL    HW231473   6.102   5.923   0.776
10192SOL     OW31474   3.078   1.670   4.801
10192SOL    HW131475   3.083   1.639   4.896
10192SOL    HW231476   3.089   1.591   4.740
10193SOL     OW31477   2.967   3.749   2.670
10193SOL    HW131478   2.932   3.681   2.734
10193SOL    HW231479   2.996   3.831   2.719
10194SOL     OW31480   4.055   0.266   4.648
10194SOL    HW131481   4.005   0.318   4.716
10194SOL    HW231482   4.060   0.170   4.676
10195SOL     OW31483   6.906   6.923   1.677
10195SOL    HW131484   6.828   6.914   1.615
10195SOL    HW231485   6.949   7.012   1.664
10196SOL     OW31486   5.490   1.950   3.254
10196SOL    HW131487   5.504   1.922   3.159
10196SOL    HW231488   5.576   1.943   3.304
10197SOL     OW31489   4.872   1.286   3.994
10197SOL    HW131490   4.915   1.242   3.915
10197SOL    HW231491   4.939   1.297   4.066
10198SOL     OW31492   3.403   0.146   1.025
10198SOL    HW131493   3.352   0.070   0.985
10198SOL    HW231494   3.405   0.223   0.960
10199SOL     OW31495   0.602   1.641   6.751
10199SOL    HW131496   0.642   1.713   6.807
10199SOL    HW231497   0.523   1.601   6.798
10200SOL     OW31498   4.928   3.154   4.982
10200SOL    HW131499   4.869   3.124   5.057
10200SOL    HW231500   5.019   3.175   5.017
10201SOL     OW31501   0.442   6.349   1.420
10201SOL    HW131502   0.422   6.414   1.346
10201SOL    HW231503   0.541   6.338   1.428
10202SOL     OW31504   1.619   3.350   0.377
10202SOL    HW131505   1.532   3.325   0.419
10202SOL    HW231506   1.609   3.438   0.330
10203SOL     OW31507   1.131   3.049   1.532
10203SOL    HW131508   1.166   3.076   1.621
10203SOL    HW231509   1.095   3.129   1.484
10204SOL     OW31510   3.656   4.945   6.314
10204SOL    HW131511   3.729   4.973   6.376
10204SOL    HW231512   3.610   4.865   6.352
10205SOL     OW31513   3.559   1.129   2.680
10205SOL    HW131514   3.593   1.051   2.732
10205SOL    HW231515   3.589   1.121   2.585
10206SOL     OW31516   4.861   6.582   6.433
10206SOL    HW131517   4.830   6.674   6.456
10206SOL    HW231518   4.783   6.524   6.413
10207SOL     OW31519   1.874   0.861   0.476
10207SOL    HW131520   1.933   0.782   0.490
10207SOL    HW231521   1.929   0.944   0.471
10208SOL     OW31522   6.377   4.948   4.502
10208SOL    HW131523   6.384   4.973   4.599
10208SOL    HW231524   6.286   4.910   4.485
10209SOL     OW31525   0.821   0.794   5.524
10209SOL    HW131526   0.863   0.800   5.614
10209SOL    HW231527   0.778   0.881   5.501
10210SOL     OW31528   5.183   0.246   1.507
10210SOL    HW131529   5.251   0.304   1.553
10210SOL    HW231530   5.109   0.224   1.570
10211SOL     OW31531   4.443   6.023   5.718
10211SOL    HW131532   4.387   6.103   5.741
10211SOL    HW231533   4.498   6.043   5.637
10212SOL     OW31534   0.362   1.349   4.800
10212SOL    HW131535   0.405   1.373   4.713
10212SOL    HW231536   0.266   1.323   4.784
10213SOL     OW31537   6.648   1.931   2.325
10213SOL    HW131538   6.642   2.026   2.357
10213SOL    HW231539   6.650   1.930   2.225
10214SOL     OW31540   1.161   2.224   2.283
10214SOL    HW131541   1.214   2.182   2.358
10214SOL    HW231542   1.151   2.322   2.300
10215SOL     OW31543   3.481   2.933   4.674
10215SOL    HW131544   3.568   2.911   4.719
10215SOL    HW231545   3.413   2.954   4.744
10216SOL     OW31546   0.410   0.092   0.811
10216SOL    HW131547   0.474   0.094   0.735
10216SOL    HW231548   0.346   0.016   0.799
10217SOL     OW31549   2.487   1.272   4.146
10217SOL    HW131550   2.484   1.322   4.060
10217SOL    HW231551   2.513   1.334   4.220
10218SOL     OW31552   1.598   0.946   1.595
10218SOL    HW131553   1.506   0.970   1.564
10218SOL    HW231554   1.663   1.014   1.562
10219SOL     OW31555   0.441   3.044   2.158
10219SOL    HW131556   0.430   3.079   2.065
10219SOL    HW231557   0.531   3.003   2.169
10220SOL     OW31558   4.442   1.571   2.427
10220SOL    HW131559   4.504   1.592   2.352
10220SOL    HW231560   4.350   1.558   2.392
10221SOL     OW31561   1.641   2.568   3.469
10221SOL    HW131562   1.573   2.633   3.502
10221SOL    HW231563   1.632   2.482   3.520
10222SOL     OW31564   1.608   3.122   5.871
10222SOL    HW131565   1.575   3.081   5.786
10222SOL    HW231566   1.686   3.070   5.905
10223SOL     OW31567   1.581   6.024   0.091
10223SOL    HW131568   1.675   5.999   0.066
10223SOL    HW231569   1.526   6.031   0.007
10224SOL     OW31570   6.741   1.002   4.987
10224SOL    HW131571   6.819   0.960   4.942
10224SOL    HW231572   6.711   1.082   4.935
10225SOL     OW31573   1.926   6.236   5.874
10225SOL    HW131574   2.021   6.239   5.845
10225SOL    HW231575   1.902   6.142   5.900
10226SOL     OW31576   2.640   6.897   6.889
10226SOL    HW131577   2.601   6.907   6.981
10226SOL    HW231578   2.708   6.823   6.890
10227SOL     OW31579   4.747   4.870   0.787
10227SOL    HW131580   4.712   4.791   0.838
10227SOL    HW231581   4.671   4.920   0.747
10228SOL     OW31582   1.318   5.855   2.312
10228SOL    HW131583   1.300   5.843   2.215
10228SOL    HW231584   1.291   5.773   2.362
10229SOL     OW31585   0.529   1.154   4.148
10229SOL    HW131586   0.515   1.180   4.053
10229SOL    HW231587   0.627   1.154   4.168
10230SOL     OW31588   6.266   6.848   3.864
10230SOL    HW131589   6.333   6.895   3.921
10230SOL    HW231590   6.175   6.857   3.905
10231SOL     OW31591   6.718   5.728   5.908
10231SOL    HW131592   6.704   5.793   5.833
10231SOL    HW231593   6.658   5.648   5.895
10232SOL     OW31594   2.449   0.873   3.620
10232SOL    HW131595   2.469   0.936   3.695
10232SOL    HW231596   2.365   0.823   3.640
10233SOL     OW31597   5.274   3.560   5.283
10233SOL    HW131598   5.347   3.626   5.262
10233SOL    HW231599   5.191   3.586   5.233
10234SOL     OW31600   5.014   1.263   1.246
10234SOL    HW131601   5.103   1.255   1.291
10234SOL    HW231602   4.961   1.180   1.263
10235SOL     OW31603   4.518   2.319   0.265
10235SOL    HW131604   4.496   2.289   0.358
10235SOL    HW231605   4.504   2.244   0.201
10236SOL     OW31606   2.231   6.861   2.383
10236SOL    HW131607   2.169   6.922   2.432
10236SOL    HW231608   2.181   6.782   2.348
10237SOL     OW31609   6.252   3.663   1.356
10237SOL    HW131610   6.294   3.728   1.293
10237SOL    HW231611   6.198   3.712   1.424
10238SOL     OW31612   3.370   4.183   3.867
10238SOL    HW131613   3.381   4.134   3.954
10238SOL    HW231614   3.274   4.181   3.840
10239SOL     OW31615   0.892   4.291   4.949
10239SOL    HW131616   0.865   4.284   5.045
10239SOL    HW231617   0.991   4.278   4.942
10240SOL     OW31618   1.997   4.810   3.216
10240SOL    HW131619   1.950   4.876   3.275
10240SOL    HW231620   1.988   4.839   3.121
10241SOL     OW31621   0.140   0.445   1.928
10241SOL    HW131622   0.209   0.472   1.994
10241SOL    HW231623   0.058   0.502   1.939
10242SOL     OW31624   6.592   1.593   6.580
10242SOL    HW131625   6.632   1.521   6.523
10242SOL    HW231626   6.492   1.587   6.575
10243SOL     OW31627   0.526   5.426   1.237
10243SOL    HW131628   0.583   5.507   1.241
10243SOL    HW231629   0.531   5.376   1.323
10244SOL     OW31630   1.850   4.812   0.347
10244SOL    HW131631   1.794   4.891   0.373
10244SOL    HW231632   1.820   4.778   0.258
10245SOL     OW31633   3.161   4.824   6.779
10245SOL    HW131634   3.066   4.854   6.774
10245SOL    HW231635   3.208   4.873   6.853
10246SOL     OW31636   2.909   3.716   4.077
10246SOL    HW131637   2.933   3.621   4.060
10246SOL    HW231638   2.964   3.751   4.154
10247SOL     OW31639   0.231   5.495   5.065
10247SOL    HW131640   0.295   5.471   4.991
10247SOL    HW231641   0.282   5.514   5.149
10248SOL     OW31642   3.592   6.674   2.405
10248SOL    HW131643   3.604   6.762   2.451
10248SOL    HW231644   3.496   6.645   2.412
10249SOL     OW31645   3.665   1.369   6.117
10249SOL    HW131646   3.566   1.365   6.123
10249SOL    HW231647   3.697   1.309   6.044
10250SOL     OW31648   6.718   2.151   1.052
10250SOL    HW131649   6.779   2.079   1.085
10250SOL    HW231650   6.632   2.111   1.022
10251SOL     OW31651   2.914   2.245   4.844
10251SOL    HW131652   2.840   2.288   4.894
10251SOL    HW231653   2.998   2.248   4.898
10252SOL     OW31654   6.307   6.034   0.524
10252SOL    HW131655   6.232   6.059   0.463
10252SOL    HW231656   6.280   6.053   0.619
10253SOL     OW31657   5.596   5.577   0.433
10253SOL    HW131658   5.634   5.611   0.347
10253SOL    HW231659   5.538   5.498   0.414
10254SOL     OW31660   4.002   1.846   5.380
10254SOL    HW131661   4.038   1.884   5.295
10254SOL    HW231662   3.910   1.882   5.395
10255SOL     OW31663   2.190   5.566   1.573
10255SOL    HW131664   2.162   5.541   1.481
10255SOL    HW231665   2.277   5.523   1.595
10256SOL     OW31666   6.169   0.599   1.709
10256SOL    HW131667   6.121   0.677   1.748
10256SOL    HW231668   6.150   0.517   1.764
10257SOL     OW31669   1.834   5.281   4.251
10257SOL    HW131670   1.789   5.362   4.214
10257SOL    HW231671   1.892   5.306   4.328
10258SOL     OW31672   4.631   0.220   4.089
10258SOL    HW131673   4.582   0.181   4.166
10258SOL    HW231674   4.674   0.146   4.036
10259SOL     OW31675   0.912   4.834   3.285
10259SOL    HW131676   0.979   4.825   3.359
10259SOL    HW231677   0.961   4.848   3.198
10260SOL     OW31678   0.342   0.442   3.056
10260SOL    HW131679   0.291   0.464   3.140
10260SOL    HW231680   0.385   0.525   3.021
10261SOL     OW31681   6.686   5.787   2.738
10261SOL    HW131682   6.602   5.822   2.697
10261SOL    HW231683   6.741   5.863   2.772
10262SOL     OW31684   2.503   6.811   4.314
10262SOL    HW131685   2.444   6.840   4.390
10262SOL    HW231686   2.466   6.846   4.228
10263SOL     OW31687   4.744   1.146   6.448
10263SOL    HW131688   4.806   1.089   6.395
10263SOL    HW231689   4.652   1.106   6.446
10264SOL     OW31690   5.605   2.323   6.927
10264SOL    HW131691   5.557   2.359   7.007
10264SOL    HW231692   5.549   2.253   6.883
10265SOL     OW31693   3.059   2.187   2.898
10265SOL    HW131694   2.971   2.161   2.936
10265SOL    HW231695   3.046   2.237   2.812
10266SOL     OW31696   3.480   2.771   5.604
10266SOL    HW131697   3.571   2.731   5.606
10266SOL    HW231698   3.414   2.706   5.642
10267SOL     OW31699   5.882   1.719   6.556
10267SOL    HW131700   5.841   1.653   6.620
10267SOL    HW231701   5.890   1.808   6.602
10268SOL     OW31702   4.181   5.597   2.066
10268SOL    HW131703   4.139   5.506   2.074
10268SOL    HW231704   4.276   5.593   2.096
10269SOL     OW31705   1.283   1.946   5.152
10269SOL    HW131706   1.370   1.935   5.103
10269SOL    HW231707   1.240   2.032   5.124
10270SOL     OW31708   2.377   5.360   3.282
10270SOL    HW131709   2.420   5.315   3.360
10270SOL    HW231710   2.447   5.388   3.217
10271SOL     OW31711   4.128   2.549   0.764
10271SOL    HW131712   4.064   2.616   0.728
10271SOL    HW231713   4.217   2.560   0.719
10272SOL     OW31714   0.371   0.034   4.329
10272SOL    HW131715   0.435   0.111   4.331
10272SOL    HW231716   0.392   6.994   4.404
10273SOL     OW31717   4.421   5.099   3.340
10273SOL    HW131718   4.471   5.087   3.254
10273SOL    HW231719   4.368   5.016   3.359
10274SOL     OW31720   0.790   4.036   4.904
10274SOL    HW131721   0.805   3.963   4.837
10274SOL    HW231722   0.877   4.082   4.923
10275SOL     OW31723   0.691   6.369   2.114
10275SOL    HW131724   0.643   6.353   2.028
10275SOL    HW231725   0.769   6.430   2.099
10276SOL     OW31726   5.589   5.580   5.712
10276SOL    HW131727   5.632   5.542   5.793
10276SOL    HW231728   5.586   5.680   5.719
10277SOL     OW31729   2.510   5.426   3.791
10277SOL    HW131730   2.421   5.466   3.767
10277SOL    HW231731   2.576   5.499   3.803
10278SOL     OW31732   5.614   0.986   4.533
10278SOL    HW131733   5.624   0.918   4.460
10278SOL    HW231734   5.535   0.963   4.590
10279SOL     OW31735   1.722   6.177   4.301
10279SOL    HW131736   1.747   6.254   4.242
10279SOL    HW231737   1.668   6.111   4.248
10280SOL     OW31738   1.552   3.479   1.362
10280SOL    HW131739   1.554   3.497   1.264
10280SOL    HW231740   1.554   3.566   1.412
10281SOL     OW31741   6.334   2.054   2.966
10281SOL    HW131742   6.360   2.142   3.008
10281SOL    HW231743   6.385   2.041   2.882
10282SOL     OW31744   6.379   4.430   4.304
10282SOL    HW131745   6.358   4.334   4.288
10282SOL    HW231746   6.478   4.442   4.309
10283SOL     OW31747   0.926   3.203   0.534
10283SOL    HW131748   0.974   3.265   0.597
10283SOL    HW231749   0.828   3.206   0.552
10284SOL     OW31750   5.141   3.902   5.361
10284SOL    HW131751   5.167   3.846   5.283
10284SOL    HW231752   5.099   3.845   5.431
10285SOL     OW31753   4.355   1.070   0.692
10285SOL    HW131754   4.415   0.990   0.685
10285SOL    HW231755   4.263   1.044   0.664
10286SOL     OW31756   3.187   2.100   4.076
10286SOL    HW131757   3.133   2.183   4.060
10286SOL    HW231758   3.252   2.087   4.001
10287SOL     OW31759   2.193   6.366   2.164
10287SOL    HW131760   2.205   6.349   2.066
10287SOL    HW231761   2.253   6.440   2.193
10288SOL     OW31762   4.898   6.558   2.483
10288SOL    HW131763   4.898   6.459   2.495
10288SOL    HW231764   4.804   6.593   2.492
10289SOL     OW31765   3.120   1.150   2.684
10289SOL    HW131766   3.153   1.243   2.703
10289SOL    HW231767   3.197   1.092   2.659
10290SOL     OW31768   3.488   4.009   2.168
10290SOL    HW131769   3.483   4.107   2.149
10290SOL    HW231770   3.582   3.977   2.158
10291SOL     OW31771   4.239   1.265   4.314
10291SOL    HW131772   4.238   1.166   4.304
10291SOL    HW231773   4.331   1.296   4.336
10292SOL     OW31774   1.388   0.910   4.525
10292SOL    HW131775   1.431   0.822   4.546
10292SOL    HW231776   1.308   0.895   4.468
10293SOL     OW31777   2.055   5.831   3.821
10293SOL    HW131778   2.007   5.761   3.873
10293SOL    HW231779   2.016   5.837   3.729
10294SOL     OW31780   4.831   3.937   2.527
10294SOL    HW131781   4.830   3.959   2.430
10294SOL    HW231782   4.852   3.840   2.539
10295SOL     OW31783   5.994   5.254   5.977
10295SOL    HW131784   5.953   5.284   6.063
10295SOL    HW231785   5.932   5.277   5.902
10296SOL     OW31786   4.909   3.087   6.478
10296SOL    HW131787   4.964   3.145   6.417
10296SOL    HW231788   4.943   3.095   6.572
10297SOL     OW31789   2.080   6.756   5.024
10297SOL    HW131790   2.027   6.748   5.109
10297SOL    HW231791   2.097   6.852   5.004
10298SOL     OW31792   3.877   5.142   2.243
10298SOL    HW131793   3.807   5.101   2.184
10298SOL    HW231794   3.922   5.070   2.296
10299SOL     OW31795   4.916   4.466   2.911
10299SOL    HW131796   4.960   4.553   2.935
10299SOL    HW231797   4.935   4.445   2.815
10300SOL     OW31798   1.986   4.524   2.926
10300SOL    HW131799   1.891   4.528   2.958
10300SOL    HW231800   2.048   4.528   3.004
10301SOL     OW31801   6.292   2.556   3.202
10301SOL    HW131802   6.197   2.584   3.187
10301SOL    HW231803   6.307   2.540   3.299
10302SOL     OW31804   0.334   6.244   4.147
10302SOL    HW131805   0.363   6.314   4.081
10302SOL    HW231806   0.390   6.162   4.134
10303SOL     OW31807   2.907   5.309   1.515
10303SOL    HW131808   2.834   5.295   1.582
10303SOL    HW231809   2.868   5.321   1.424
10304SOL     OW31810   5.401   0.602   2.796
10304SOL    HW131811   5.454   0.569   2.875
10304SOL    HW231812   5.463   0.621   2.720
10305SOL     OW31813   0.461   5.354   6.972
10305SOL    HW131814   0.485   5.451   6.970
10305SOL    HW231815   0.542   5.299   6.952
10306SOL     OW31816   4.993   6.560   6.840
10306SOL    HW131817   4.902   6.590   6.867
10306SOL    HW231818   4.987   6.505   6.757
10307SOL     OW31819   1.993   2.165   4.328
10307SOL    HW131820   2.063   2.117   4.381
10307SOL    HW231821   2.009   2.264   4.333
10308SOL     OW31822   2.515   5.094   4.061
10308SOL    HW131823   2.481   5.001   4.076
10308SOL    HW231824   2.573   5.121   4.137
10309SOL     OW31825   6.473   0.324   3.703
10309SOL    HW131826   6.462   0.418   3.671
10309SOL    HW231827   6.473   0.323   3.803
10310SOL     OW31828   4.271   2.332   1.661
10310SOL    HW131829   4.331   2.395   1.711
10310SOL    HW231830   4.315   2.307   1.574
10311SOL     OW31831   0.538   5.898   1.296
10311SOL    HW131832   0.535   5.927   1.392
10311SOL    HW231833   0.481   5.816   1.284
10312SOL     OW31834   2.711   5.830   1.132
10312SOL    HW131835   2.791   5.821   1.192
10312SOL    HW231836   2.727   5.780   1.047
10313SOL     OW31837   3.627   0.371   1.678
10313SOL    HW131838   3.576   0.318   1.610
10313SOL    HW231839   3.722   0.382   1.647
10314SOL     OW31840   6.648   0.663   1.702
10314SOL    HW131841   6.557   0.698   1.677
10314SOL    HW231842   6.638   0.574   1.747
10315SOL     OW31843   5.946   5.390   4.834
10315SOL    HW131844   5.911   5.346   4.752
10315SOL    HW231845   5.876   5.387   4.906
10316SOL     OW31846   6.103   2.865   4.915
10316SOL    HW131847   6.173   2.865   4.844
10316SOL    HW231848   6.015   2.840   4.875
10317SOL     OW31849   3.383   5.049   6.183
10317SOL    HW131850   3.462   5.000   6.219
10317SOL    HW231851   3.411   5.140   6.151
10318SOL     OW31852   5.314   5.995   0.330
10318SOL    HW131853   5.295   5.949   0.243
10318SOL    HW231854   5.288   6.092   0.322
10319SOL     OW31855   1.254   3.029   5.526
10319SOL    HW131856   1.202   3.098   5.474
10319SOL    HW231857   1.310   3.075   5.594
10320SOL     OW31858   0.874   0.729   1.234
10320SOL    HW131859   0.966   0.720   1.197
10320SOL    HW231860   0.819   0.786   1.173
10321SOL     OW31861   4.022   0.398   3.866
10321SOL    HW131862   3.942   0.457   3.856
10321SOL    HW231863   4.012   0.343   3.949
10322SOL     OW31864   6.099   5.877   6.874
10322SOL    HW131865   6.079   5.800   6.814
10322SOL    HW231866   6.027   5.886   6.943
10323SOL     OW31867   6.364   3.795   5.974
10323SOL    HW131868   6.303   3.721   5.946
10323SOL    HW231869   6.386   3.852   5.894
10324SOL     OW31870   3.239   3.075   3.216
10324SOL    HW131871   3.199   3.020   3.290
10324SOL    HW231872   3.166   3.113   3.160
10325SOL     OW31873   6.726   4.805   3.124
10325SOL    HW131874   6.750   4.723   3.177
10325SOL    HW231875   6.627   4.817   3.125
10326SOL     OW31876   4.269   2.901   6.857
10326SOL    HW131877   4.211   2.943   6.787
10326SOL    HW231878   4.285   2.805   6.835
10327SOL     OW31879   2.660   1.828   2.464
10327SOL    HW131880   2.566   1.848   2.490
10327SOL    HW231881   2.677   1.730   2.476
10328SOL     OW31882   6.560   3.229   1.685
10328SOL    HW131883   6.623   3.301   1.655
10328SOL    HW231884   6.488   3.269   1.741
10329SOL     OW31885   3.996   0.391   4.338
10329SOL    HW131886   4.000   0.458   4.413
10329SOL    HW231887   4.084   0.344   4.332
10330SOL     OW31888   3.417   5.848   2.718
10330SOL    HW131889   3.324   5.850   2.754
10330SOL    HW231890   3.472   5.918   2.764
10331SOL     OW31891   6.461   0.566   3.221
10331SOL    HW131892   6.498   0.634   3.284
10331SOL    HW231893   6.364   0.552   3.241
10332SOL     OW31894   5.841   1.574   0.413
10332SOL    HW131895   5.797   1.553   0.500
10332SOL    HW231896   5.799   1.656   0.374
10333SOL     OW31897   6.506   4.354   4.777
10333SOL    HW131898   6.546   4.289   4.712
10333SOL    HW231899   6.452   4.422   4.727
10334SOL     OW31900   2.256   5.830   3.594
10334SOL    HW131901   2.171   5.779   3.581
10334SOL    HW231902   2.240   5.926   3.572
10335SOL     OW31903   2.311   4.172   0.022
10335SOL    HW131904   2.223   4.188   0.066
10335SOL    HW231905   2.340   4.078   0.040
10336SOL     OW31906   5.542   6.852   3.021
10336SOL    HW131907   5.620   6.801   3.059
10336SOL    HW231908   5.525   6.822   2.928
10337SOL     OW31909   6.560   6.575   5.316
10337SOL    HW131910   6.549   6.638   5.240
10337SOL    HW231911   6.638   6.514   5.297
10338SOL     OW31912   3.031   6.773   1.528
10338SOL    HW131913   2.998   6.680   1.543
10338SOL    HW231914   3.129   6.777   1.545
10339SOL     OW31915   3.778   4.489   0.886
10339SOL    HW131916   3.734   4.540   0.961
10339SOL    HW231917   3.857   4.440   0.922
10340SOL     OW31918   1.301   5.311   0.198
10340SOL    HW131919   1.219   5.328   0.143
10340SOL    HW231920   1.310   5.213   0.215
10341SOL     OW31921   2.515   3.204   1.679
10341SOL    HW131922   2.454   3.279   1.706
10341SOL    HW231923   2.575   3.181   1.755
10342SOL     OW31924   2.609   5.837   5.360
10342SOL    HW131925   2.664   5.841   5.276
10342SOL    HW231926   2.647   5.899   5.428
10343SOL     OW31927   2.480   4.068   0.472
10343SOL    HW131928   2.490   4.003   0.396
10343SOL    HW231929   2.413   4.032   0.537
10344SOL     OW31930   3.663   3.611   2.795
10344SOL    HW131931   3.667   3.524   2.747
10344SOL    HW231932   3.569   3.630   2.823
10345SOL     OW31933   1.765   0.117   6.130
10345SOL    HW131934   1.669   0.088   6.128
10345SOL    HW231935   1.809   0.079   6.211
10346SOL     OW31936   6.316   0.715   1.307
10346SOL    HW131937   6.230   0.760   1.285
10346SOL    HW231938   6.389   0.750   1.248
10347SOL     OW31939   4.913   2.525   1.726
10347SOL    HW131940   4.843   2.547   1.657
10347SOL    HW231941   5.002   2.556   1.694
10348SOL     OW31942   6.730   1.377   6.469
10348SOL    HW131943   6.656   1.380   6.402
10348SOL    HW231944   6.808   1.328   6.430
10349SOL     OW31945   6.721   1.553   0.676
10349SOL    HW131946   6.756   1.641   0.643
10349SOL    HW231947   6.780   1.519   0.749
10350SOL     OW31948   2.913   6.140   4.907
10350SOL    HW131949   2.983   6.212   4.902
10350SOL    HW231950   2.898   6.115   5.002
10351SOL     OW31951   6.197   4.928   6.103
10351SOL    HW131952   6.112   4.876   6.094
10351SOL    HW231953   6.178   5.026   6.092
10352SOL     OW31954   5.486   2.357   6.397
10352SOL    HW131955   5.398   2.377   6.439
10352SOL    HW231956   5.491   2.402   6.307
10353SOL     OW31957   6.636   3.463   4.216
10353SOL    HW131958   6.697   3.432   4.143
10353SOL    HW231959   6.541   3.451   4.188
10354SOL     OW31960   0.775   3.056   0.932
10354SOL    HW131961   0.856   3.113   0.919
10354SOL    HW231962   0.749   3.056   1.029
10355SOL     OW31963   1.211   0.895   0.767
10355SOL    HW131964   1.271   0.832   0.816
10355SOL    HW231965   1.256   0.926   0.683
10356SOL     OW31966   6.772   3.446   5.751
10356SOL    HW131967   6.810   3.485   5.835
10356SOL    HW231968   6.757   3.348   5.763
10357SOL     OW31969   3.673   2.387   5.575
10357SOL    HW131970   3.585   2.375   5.620
10357SOL    HW231971   3.737   2.317   5.607
10358SOL     OW31972   0.981   3.129   3.981
10358SOL    HW131973   0.918   3.189   3.933
10358SOL    HW231974   1.042   3.084   3.915
10359SOL     OW31975   5.301   1.966   2.212
10359SOL    HW131976   5.292   1.984   2.114
10359SOL    HW231977   5.239   2.026   2.262
10360SOL     OW31978   5.552   6.083   2.607
10360SOL    HW131979   5.587   6.069   2.700
10360SOL    HW231980   5.571   6.002   2.552
10361SOL     OW31981   2.586   0.983   2.823
10361SOL    HW131982   2.568   0.885   2.827
10361SOL    HW231983   2.608   1.009   2.729
10362SOL     OW31984   0.526   5.283   2.765
10362SOL    HW131985   0.522   5.380   2.738
10362SOL    HW231986   0.516   5.276   2.864
10363SOL     OW31987   4.804   2.441   1.182
10363SOL    HW131988   4.762   2.522   1.222
10363SOL    HW231989   4.848   2.466   1.096
10364SOL     OW31990   4.858   4.364   1.902
10364SOL    HW131991   4.866   4.266   1.884
10364SOL    HW231992   4.762   4.389   1.905
10365SOL     OW31993   5.998   4.520   0.087
10365SOL    HW131994   5.969   4.432   0.051
10365SOL    HW231995   6.012   4.584   0.012
10366SOL     OW31996   3.513   6.643   3.384
10366SOL    HW131997   3.547   6.610   3.473
10366SOL    HW231998   3.503   6.565   3.322
10367SOL     OW31999   6.946   1.904   2.298
10367SOL    HW132000   6.939   1.882   2.201
10367SOL    HW232001   6.956   1.820   2.351
10368SOL     OW32002   1.912   0.863   2.530
10368SOL    HW132003   1.955   0.919   2.459
10368SOL    HW232004   1.855   0.920   2.588
10369SOL     OW32005   2.589   6.308   6.145
10369SOL    HW132006   2.534   6.224   6.144
10369SOL    HW232007   2.634   6.318   6.057
10370SOL     OW32008   6.105   1.633   4.918
10370SOL    HW132009   6.110   1.537   4.888
10370SOL    HW232010   6.160   1.645   5.001
10371SOL     OW32011   2.215   6.739   4.099
10371SOL    HW132012   2.119   6.713   4.101
10371SOL    HW232013   2.225   6.824   4.046
10372SOL     OW32014   3.125   1.160   0.964
10372SOL    HW132015   3.190   1.123   0.897
10372SOL    HW232016   3.151   1.128   1.055
10373SOL     OW32017   0.546   6.783   5.030
10373SOL    HW132018   0.616   6.758   4.963
10373SOL    HW232019   0.502   6.869   5.002
10374SOL     OW32020   3.328   0.447   3.609
10374SOL    HW132021   3.330   0.411   3.702
10374SOL    HW232022   3.273   0.531   3.607
10375SOL     OW32023   2.808   2.088   5.979
10375SOL    HW132024   2.881   2.041   5.929
10375SOL    HW232025   2.723   2.083   5.926
10376SOL     OW32026   1.039   6.368   4.155
10376SOL    HW132027   0.994   6.429   4.220
10376SOL    HW232028   1.138   6.386   4.155
10377SOL     OW32029   0.315   1.309   1.447
10377SOL    HW132030   0.227   1.265   1.463
10377SOL    HW232031   0.371   1.304   1.530
10378SOL     OW32032   5.929   5.877   5.782
10378SOL    HW132033   5.949   5.914   5.873
10378SOL    HW232034   5.964   5.784   5.776
10379SOL     OW32035   3.276   5.528   4.176
10379SOL    HW132036   3.210   5.455   4.163
10379SOL    HW232037   3.363   5.503   4.132
10380SOL     OW32038   0.692   2.522   5.069
10380SOL    HW132039   0.718   2.609   5.027
10380SOL    HW232040   0.758   2.498   5.139
10381SOL     OW32041   4.322   4.022   1.233
10381SOL    HW132042   4.308   3.970   1.317
10381SOL    HW232043   4.416   4.010   1.201
10382SOL     OW32044   3.225   5.904   1.789
10382SOL    HW132045   3.138   5.937   1.823
10382SOL    HW232046   3.300   5.949   1.839
10383SOL     OW32047   1.141   4.195   0.491
10383SOL    HW132048   1.111   4.106   0.526
10383SOL    HW232049   1.240   4.194   0.477
10384SOL     OW32050   6.856   6.804   0.504
10384SOL    HW132051   6.912   6.803   0.421
10384SOL    HW232052   6.793   6.881   0.500
10385SOL     OW32053   4.309   6.174   6.814
10385SOL    HW132054   4.234   6.222   6.861
10385SOL    HW232055   4.271   6.120   6.739
10386SOL     OW32056   0.383   0.647   5.651
10386SOL    HW132057   0.415   0.563   5.605
10386SOL    HW232058   0.358   0.625   5.745
10387SOL     OW32059   5.222   3.102   2.728
10387SOL    HW132060   5.306   3.111   2.781
10387SOL    HW232061   5.168   3.186   2.737
10388SOL     OW32062   1.030   6.173   1.679
10388SOL    HW132063   1.043   6.199   1.774
10388SOL    HW232064   1.069   6.244   1.619
10389SOL     OW32065   6.113   4.009   1.408
10389SOL    HW132066   6.025   4.054   1.423
10389SOL    HW232067   6.159   3.995   1.495
10390SOL     OW32068   1.949   3.006   0.116
10390SOL    HW132069   1.873   2.966   0.168
10390SOL    HW232070   2.013   2.933   0.090
10391SOL     OW32071   0.283   5.993   4.771
10391SOL    HW132072   0.300   6.074   4.826
10391SOL    HW232073   0.231   5.926   4.825
10392SOL     OW32074   5.723   4.998   5.560
10392SOL    HW132075   5.662   5.010   5.482
10392SOL    HW232076   5.818   5.006   5.529
10393SOL     OW32077   2.353   2.823   3.442
10393SOL    HW132078   2.448   2.852   3.446
10393SOL    HW232079   2.347   2.732   3.400
10394SOL     OW32080   2.836   5.387   5.023
10394SOL    HW132081   2.849   5.351   5.115
10394SOL    HW232082   2.738   5.392   5.003
10395SOL     OW32083   0.523   0.596   1.558
10395SOL    HW132084   0.514   0.538   1.639
10395SOL    HW232085   0.470   0.556   1.483
10396SOL     OW32086   3.288   1.760   3.954
10396SOL    HW132087   3.270   1.786   3.859
10396SOL    HW232088   3.381   1.786   3.979
10397SOL     OW32089   3.557   1.121   4.249
10397SOL    HW132090   3.506   1.042   4.284
10397SOL    HW232091   3.529   1.140   4.155
10398SOL     OW32092   5.777   2.508   0.321
10398SOL    HW132093   5.873   2.517   0.349
10398SOL    HW232094   5.772   2.498   0.222
10399SOL     OW32095   4.904   2.146   2.988
10399SOL    HW132096   4.889   2.110   3.081
10399SOL    HW232097   4.856   2.233   2.979
10400SOL     OW32098   4.780   5.667   0.182
10400SOL    HW132099   4.747   5.576   0.208
10400SOL    HW232100   4.713   5.736   0.209
10401SOL     OW32101   0.088   6.626   2.480
10401SOL    HW132102   0.007   6.621   2.538
10401SOL    HW232103   0.064   6.670   2.394
10402SOL     OW32104   6.740   1.629   5.247
10402SOL    HW132105   6.677   1.635   5.325
10402SOL    HW232106   6.830   1.599   5.279
10403SOL     OW32107   4.701   2.817   2.945
10403SOL    HW132108   4.698   2.812   2.845
10403SOL    HW232109   4.763   2.891   2.972
10404SOL     OW32110   5.749   6.607   4.505
10404SOL    HW132111   5.662   6.581   4.547
10404SOL    HW232112   5.735   6.689   4.449
10405SOL     OW32113   1.387   6.844   4.557
10405SOL    HW132114   1.362   6.754   4.521
10405SOL    HW232115   1.472   6.836   4.610
10406SOL     OW32116   2.064   3.247   3.664
10406SOL    HW132117   2.090   3.343   3.677
10406SOL    HW232118   2.145   3.194   3.637
10407SOL     OW32119   2.846   6.785   6.507
10407SOL    HW132120   2.892   6.843   6.573
10407SOL    HW232121   2.778   6.728   6.554
10408SOL     OW32122   4.462   0.286   1.149
10408SOL    HW132123   4.487   0.256   1.241
10408SOL    HW232124   4.386   0.351   1.154
10409SOL     OW32125   6.915   5.118   1.228
10409SOL    HW132126   6.853   5.129   1.149
10409SOL    HW232127   6.861   5.121   1.312
10410SOL     OW32128   4.744   2.038   1.803
10410SOL    HW132129   4.817   2.037   1.735
10410SOL    HW232130   4.707   2.130   1.812
10411SOL     OW32131   2.866   6.767   3.683
10411SOL    HW132132   2.777   6.751   3.638
10411SOL    HW232133   2.939   6.754   3.616
10412SOL     OW32134   0.089   1.550   0.044
10412SOL    HW132135   0.050   1.467   0.004
10412SOL    HW232136   0.183   1.532   0.073
10413SOL     OW32137   0.103   2.619   0.456
10413SOL    HW132138   0.148   2.559   0.522
10413SOL    HW232139   0.169   2.686   0.421
10414SOL     OW32140   4.416   5.453   5.687
10414SOL    HW132141   4.355   5.427   5.762
10414SOL    HW232142   4.461   5.539   5.710
10415SOL     OW32143   1.276   3.925   5.285
10415SOL    HW132144   1.322   4.014   5.291
10415SOL    HW232145   1.341   3.855   5.257
10416SOL     OW32146   5.645   0.260   5.427
10416SOL    HW132147   5.558   0.304   5.450
10416SOL    HW232148   5.628   0.176   5.377
10417SOL     OW32149   3.102   4.880   3.958
10417SOL    HW132150   3.174   4.901   3.891
10417SOL    HW232151   3.083   4.962   4.013
10418SOL     OW32152   6.305   4.017   6.141
10418SOL    HW132153   6.317   3.933   6.090
10418SOL    HW232154   6.220   4.012   6.194
10419SOL     OW32155   3.094   6.774   6.056
10419SOL    HW132156   3.163   6.704   6.039
10419SOL    HW232157   3.022   6.736   6.115
10420SOL     OW32158   0.350   3.884   4.033
10420SOL    HW132159   0.368   3.807   4.094
10420SOL    HW232160   0.436   3.922   4.001
10421SOL     OW32161   0.923   2.599   3.918
10421SOL    HW132162   1.012   2.553   3.912
10421SOL    HW232163   0.868   2.556   3.989
10422SOL     OW32164   5.956   3.376   5.314
10422SOL    HW132165   5.885   3.356   5.246
10422SOL    HW232166   5.942   3.319   5.394
10423SOL     OW32167   5.331   4.895   5.466
10423SOL    HW132168   5.342   4.801   5.435
10423SOL    HW232169   5.239   4.908   5.503
10424SOL     OW32170   4.438   2.947   0.621
10424SOL    HW132171   4.478   2.979   0.535
10424SOL    HW232172   4.365   3.009   0.648
10425SOL     OW32173   0.981   6.514   2.080
10425SOL    HW132174   0.965   6.594   2.022
10425SOL    HW232175   1.047   6.538   2.152
10426SOL     OW32176   5.272   5.258   0.374
10426SOL    HW132177   5.254   5.174   0.323
10426SOL    HW232178   5.209   5.330   0.345
10427SOL     OW32179   3.727   1.037   6.654
10427SOL    HW132180   3.735   1.114   6.716
10427SOL    HW232181   3.682   0.961   6.701
10428SOL     OW32182   3.902   0.667   3.719
10428SOL    HW132183   3.861   0.617   3.796
10428SOL    HW232184   3.853   0.753   3.706
10429SOL     OW32185   6.947   4.313   1.317
10429SOL    HW132186   6.879   4.385   1.324
10429SOL    HW232187   0.017   4.353   1.320
10430SOL     OW32188   5.073   0.181   4.951
10430SOL    HW132189   5.095   0.247   5.023
10430SOL    HW232190   5.152   0.170   4.890
10431SOL     OW32191   2.521   5.800   4.275
10431SOL    HW132192   2.452   5.872   4.283
10431SOL    HW232193   2.612   5.840   4.277
10432SOL     OW32194   5.321   0.001   4.403
10432SOL    HW132195   5.370   0.050   4.474
10432SOL    HW232196   5.222   0.014   4.415
10433SOL     OW32197   1.024   5.991   2.110
10433SOL    HW132198   1.109   6.043   2.107
10433SOL    HW232199   1.043   5.895   2.088
10434SOL     OW32200   3.809   6.336   3.047
10434SOL    HW132201   3.819   6.313   2.951
10434SOL    HW232202   3.838   6.259   3.104
10435SOL     OW32203   0.487   0.919   5.344
10435SOL    HW132204   0.578   0.959   5.357
10435SOL    HW232205   0.429   0.943   5.422
10436SOL     OW32206   6.811   4.688   5.711
10436SOL    HW132207   6.875   4.692   5.787
10436SOL    HW232208   6.776   4.595   5.701
10437SOL     OW32209   4.898   3.793   6.102
10437SOL    HW132210   4.867   3.758   6.013
10437SOL    HW232211   4.932   3.717   6.157
10438SOL     OW32212   6.166   6.365   7.000
10438SOL    HW132213   6.111   6.443   0.008
10438SOL    HW232214   6.158   6.356   6.900
10439SOL     OW32215   3.677   0.973   4.925
10439SOL    HW132216   3.624   1.007   5.002
10439SOL    HW232217   3.634   0.890   4.888
10440SOL     OW32218   1.506   6.638   0.750
10440SOL    HW132219   1.513   6.568   0.678
10440SOL    HW232220   1.418   6.684   0.742
10441SOL     OW32221   3.965   1.108   1.328
10441SOL    HW132222   3.928   1.114   1.421
10441SOL    HW232223   3.997   1.198   1.299
10442SOL     OW32224   4.174   6.078   6.568
10442SOL    HW132225   4.221   6.167   6.568
10442SOL    HW232226   4.101   6.079   6.499
10443SOL     OW32227   4.991   3.672   3.972
10443SOL    HW132228   4.989   3.598   4.040
10443SOL    HW232229   4.989   3.760   4.019
10444SOL     OW32230   4.459   5.317   3.942
10444SOL    HW132231   4.469   5.220   3.919
10444SOL    HW232232   4.494   5.373   3.868
10445SOL     OW32233   0.802   4.456   4.534
10445SOL    HW132234   0.724   4.394   4.525
10445SOL    HW232235   0.785   4.538   4.480
10446SOL     OW32236   1.318   3.223   5.331
10446SOL    HW132237   1.299   3.296   5.397
10446SOL    HW232238   1.385   3.256   5.264
10447SOL     OW32239   0.482   1.243   1.687
10447SOL    HW132240   0.543   1.166   1.670
10447SOL    HW232241   0.533   1.317   1.732
10448SOL     OW32242   4.889   0.797   2.301
10448SOL    HW132243   4.801   0.826   2.338
10448SOL    HW232244   4.890   0.813   2.202
10449SOL     OW32245   2.417   5.369   4.862
10449SOL    HW132246   2.356   5.424   4.804
10449SOL    HW232247   2.512   5.389   4.838
10450SOL     OW32248   0.771   1.560   0.510
10450SOL    HW132249   0.839   1.550   0.438
10450SOL    HW232250   0.793   1.639   0.567
10451SOL     OW32251   1.583   5.359   2.349
10451SOL    HW132252   1.581   5.345   2.448
10451SOL    HW232253   1.563   5.454   2.328
10452SOL     OW32254   6.487   2.981   1.981
10452SOL    HW132255   6.459   2.976   1.886
10452SOL    HW232256   6.526   2.893   2.009
10453SOL     OW32257   3.801   6.978   1.136
10453SOL    HW132258   3.739   0.034   1.136
10453SOL    HW232259   3.801   6.935   1.046
10454SOL     OW32260   4.467   3.447   0.323
10454SOL    HW132261   4.528   3.427   0.247
10454SOL    HW232262   4.378   3.475   0.288
10455SOL     OW32263   6.532   6.243   3.119
10455SOL    HW132264   6.523   6.215   3.215
10455SOL    HW232265   6.628   6.266   3.100
10456SOL     OW32266   2.776   6.491   0.754
10456SOL    HW132267   2.757   6.588   0.746
10456SOL    HW232268   2.691   6.439   0.749
10457SOL     OW32269   3.111   3.640   1.876
10457SOL    HW132270   3.113   3.543   1.852
10457SOL    HW232271   3.081   3.650   1.971
10458SOL     OW32272   6.511   1.380   6.314
10458SOL    HW132273   6.440   1.360   6.382
10458SOL    HW232274   6.474   1.442   6.245
10459SOL     OW32275   5.106   5.927   1.552
10459SOL    HW132276   5.088   5.933   1.454
10459SOL    HW232277   5.030   5.968   1.603
10460SOL     OW32278   0.728   4.456   2.108
10460SOL    HW132279   0.758   4.541   2.151
10460SOL    HW232280   0.636   4.433   2.140
10461SOL     OW32281   0.177   5.364   6.095
10461SOL    HW132282   0.193   5.459   6.071
10461SOL    HW232283   0.107   5.325   6.035
10462SOL     OW32284   5.828   1.627   3.344
10462SOL    HW132285   5.763   1.606   3.272
10462SOL    HW232286   5.890   1.699   3.313
10463SOL     OW32287   4.199   2.808   5.655
10463SOL    HW132288   4.232   2.862   5.577
10463SOL    HW232289   4.103   2.782   5.638
10464SOL     OW32290   6.696   0.325   0.861
10464SOL    HW132291   6.690   0.228   0.885
10464SOL    HW232292   6.781   0.342   0.810
10465SOL     OW32293   6.311   5.304   1.099
10465SOL    HW132294   6.345   5.317   1.006
10465SOL    HW232295   6.222   5.349   1.108
10466SOL     OW32296   4.576   4.842   6.457
10466SOL    HW132297   4.641   4.826   6.532
10466SOL    HW232298   4.506   4.771   6.459
10467SOL     OW32299   2.463   1.821   6.194
10467SOL    HW132300   2.397   1.747   6.183
10467SOL    HW232301   2.543   1.787   6.244
10468SOL     OW32302   3.850   5.160   2.962
10468SOL    HW132303   3.884   5.164   3.056
10468SOL    HW232304   3.915   5.205   2.901
10469SOL     OW32305   3.860   4.216   5.875
10469SOL    HW132306   3.900   4.179   5.791
10469SOL    HW232307   3.764   4.189   5.881
10470SOL     OW32308   2.379   2.570   3.376
10470SOL    HW132309   2.332   2.482   3.374
10470SOL    HW232310   2.466   2.560   3.424
10471SOL     OW32311   2.735   2.373   1.063
10471SOL    HW132312   2.695   2.459   1.032
10471SOL    HW232313   2.815   2.351   1.008
10472SOL     OW32314   4.345   5.334   0.425
10472SOL    HW132315   4.300   5.287   0.349
10472SOL    HW232316   4.303   5.424   0.438
10473SOL     OW32317   0.073   0.490   6.396
10473SOL    HW132318   0.050   0.542   6.478
10473SOL    HW232319   0.122   0.407   6.422
10474SOL     OW32320   4.144   2.011   4.438
10474SOL    HW132321   4.228   2.065   4.432
10474SOL    HW232322   4.158   1.936   4.502
10475SOL     OW32323   4.635   6.892   2.054
10475SOL    HW132324   4.692   6.973   2.042
10475SOL    HW232325   4.546   6.920   2.091
10476SOL     OW32326   6.927   6.457   0.061
10476SOL    HW132327   6.935   6.479   6.986
10476SOL    HW232328   6.907   6.360   0.072
10477SOL     OW32329   6.773   1.777   4.192
10477SOL    HW132330   6.713   1.844   4.147
10477SOL    HW232331   6.780   1.695   4.135
10478SOL     OW32332   0.408   0.447   1.346
10478SOL    HW132333   0.395   0.350   1.326
10478SOL    HW232334   0.319   0.494   1.343
10479SOL     OW32335   0.635   2.811   1.363
10479SOL    HW132336   0.613   2.779   1.456
10479SOL    HW232337   0.673   2.903   1.369
10480SOL     OW32338   6.766   0.196   1.843
10480SOL    HW132339   6.722   0.141   1.771
10480SOL    HW232340   6.863   0.171   1.848
10481SOL     OW32341   2.628   7.015   4.482
10481SOL    HW132342   2.713   0.033   4.515
10481SOL    HW232343   2.649   6.935   4.427
10482SOL     OW32344   6.329   5.669   4.959
10482SOL    HW132345   6.408   5.731   4.965
10482SOL    HW232346   6.295   5.667   4.865
10483SOL     OW32347   6.441   5.235   0.041
10483SOL    HW132348   6.462   5.330   0.017
10483SOL    HW232349   6.459   5.221   0.138
10484SOL     OW32350   6.055   1.283   1.732
10484SOL    HW132351   5.964   1.248   1.755
10484SOL    HW232352   6.079   1.255   1.639
10485SOL     OW32353   3.350   4.093   1.867
10485SOL    HW132354   3.259   4.128   1.890
10485SOL    HW232355   3.345   3.994   1.852
10486SOL     OW32356   6.794   0.644   6.374
10486SOL    HW132357   6.737   0.725   6.390
10486SOL    HW232358   6.869   0.668   6.313
10487SOL     OW32359   4.710   1.807   2.336
10487SOL    HW132360   4.728   1.847   2.426
10487SOL    HW232361   4.789   1.820   2.277
10488SOL     OW32362   2.922   1.539   5.388
10488SOL    HW132363   3.005   1.503   5.429
10488SOL    HW232364   2.847   1.531   5.453
10489SOL     OW32365   6.216   0.133   4.471
10489SOL    HW132366   6.286   0.145   4.541
10489SOL    HW232367   6.245   0.062   4.406
10490SOL     OW32368   6.343   1.693   0.932
10490SOL    HW132369   6.351   1.751   1.013
10490SOL    HW232370   6.263   1.634   0.942
10491SOL     OW32371   2.610   2.317   5.209
10491SOL    HW132372   2.704   2.295   5.235
10491SOL    HW232373   2.547   2.269   5.270
10492SOL     OW32374   5.154   5.963   1.056
10492SOL    HW132375   5.240   5.967   1.005
10492SOL    HW232376   5.169   5.923   1.146
10493SOL     OW32377   3.033   6.495   2.331
10493SOL    HW132378   3.054   6.399   2.349
10493SOL    HW232379   3.070   6.521   2.241
10494SOL     OW32380   5.352   4.386   6.377
10494SOL    HW132381   5.437   4.339   6.401
10494SOL    HW232382   5.370   4.483   6.364
10495SOL     OW32383   1.075   6.711   0.835
10495SOL    HW132384   1.141   6.776   0.873
10495SOL    HW232385   1.039   6.653   0.908
10496SOL     OW32386   6.039   4.079   6.257
10496SOL    HW132387   6.016   4.172   6.230
10496SOL    HW232388   6.028   4.069   6.356
10497SOL     OW32389   1.808   6.819   2.218
10497SOL    HW132390   1.853   6.906   2.199
10497SOL    HW232391   1.755   6.827   2.302
10498SOL     OW32392   5.312   5.361   0.636
10498SOL    HW132393   5.294   5.328   0.543
10498SOL    HW232394   5.225   5.382   0.681
10499SOL     OW32395   4.958   0.379   2.038
10499SOL    HW132396   4.916   0.300   2.082
10499SOL    HW232397   5.028   0.417   2.099
10500SOL     OW32398   5.942   1.218   5.656
10500SOL    HW132399   5.920   1.231   5.559
10500SOL    HW232400   5.877   1.270   5.712
10501SOL     OW32401   2.300   5.247   1.909
10501SOL    HW132402   2.295   5.189   1.827
10501SOL    HW232403   2.209   5.281   1.932
10502SOL     OW32404   2.903   2.683   1.048
10502SOL    HW132405   2.952   2.650   0.968
10502SOL    HW232406   2.890   2.782   1.041
10503SOL     OW32407   4.918   3.141   0.748
10503SOL    HW132408   4.837   3.166   0.696
10503SOL    HW232409   4.927   3.042   0.751
10504SOL     OW32410   0.621   3.036   5.600
10504SOL    HW132411   0.565   3.113   5.631
10504SOL    HW232412   0.658   2.987   5.679
10505SOL     OW32413   5.718   5.164   1.108
10505SOL    HW132414   5.779   5.085   1.114
10505SOL    HW232415   5.712   5.208   1.198
10506SOL     OW32416   0.445   3.716   0.030
10506SOL    HW132417   0.380   3.750   0.098
10506SOL    HW232418   0.482   3.628   0.059
10507SOL     OW32419   2.215   5.769   1.130
10507SOL    HW132420   2.218   5.772   1.230
10507SOL    HW232421   2.286   5.830   1.093
10508SOL     OW32422   7.017   5.242   4.831
10508SOL    HW132423   0.017   5.171   4.764
10508SOL    HW232424   0.057   5.234   4.909
10509SOL     OW32425   6.677   5.311   5.171
10509SOL    HW132426   6.608   5.322   5.099
10509SOL    HW232427   6.638   5.257   5.246
10510SOL     OW32428   4.509   6.733   0.468
10510SOL    HW132429   4.565   6.709   0.388
10510SOL    HW232430   4.560   6.795   0.527
10511SOL     OW32431   2.953   1.295   2.055
10511SOL    HW132432   2.954   1.371   1.990
10511SOL    HW232433   2.996   1.215   2.013
10512SOL     OW32434   3.482   0.772   6.108
10512SOL    HW132435   3.455   0.836   6.035
10512SOL    HW232436   3.451   0.807   6.196
10513SOL     OW32437   6.645   3.422   3.577
10513SOL    HW132438   6.742   3.398   3.569
10513SOL    HW232439   6.610   3.390   3.665
10514SOL     OW32440   0.653   3.130   1.211
10514SOL    HW132441   0.561   3.152   1.178
10514SOL    HW232442   0.652   3.121   1.311
10515SOL     OW32443   1.733   3.618   4.672
10515SOL    HW132444   1.734   3.620   4.772
10515SOL    HW232445   1.697   3.704   4.637
10516SOL     OW32446   3.081   1.788   0.620
10516SOL    HW132447   3.152   1.789   0.550
10516SOL    HW232448   3.101   1.858   0.688
10517SOL     OW32449   0.988   3.269   1.041
10517SOL    HW132450   1.071   3.320   1.059
10517SOL    HW232451   0.909   3.319   1.076
10518SOL     OW32452   6.833   6.358   1.397
10518SOL    HW132453   6.806   6.426   1.464
10518SOL    HW232454   6.837   6.268   1.440
10519SOL     OW32455   3.190   3.734   0.667
10519SOL    HW132456   3.177   3.670   0.592
10519SOL    HW232457   3.131   3.708   0.744
10520SOL     OW32458   0.638   2.241   5.956
10520SOL    HW132459   0.602   2.213   6.045
10520SOL    HW232460   0.716   2.302   5.970
10521SOL     OW32461   6.671   5.303   1.306
10521SOL    HW132462   6.730   5.334   1.381
10521SOL    HW232463   6.669   5.203   1.304
10522SOL     OW32464   6.976   1.966   4.537
10522SOL    HW132465   6.879   1.945   4.523
10522SOL    HW232466   7.015   1.998   4.450
10523SOL     OW32467   0.874   4.546   2.903
10523SOL    HW132468   0.777   4.558   2.924
10523SOL    HW232469   0.901   4.608   2.830
10524SOL     OW32470   0.094   6.407   4.593
10524SOL    HW132471   0.175   6.398   4.536
10524SOL    HW232472   0.059   6.316   4.617
10525SOL     OW32473   3.487   0.754   4.860
10525SOL    HW132474   3.497   0.738   4.959
10525SOL    HW232475   3.415   0.822   4.845
10526SOL     OW32476   0.992   0.102   1.949
10526SOL    HW132477   0.930   0.131   1.876
10526SOL    HW232478   0.939   0.079   2.030
10527SOL     OW32479   1.182   1.042   5.208
10527SOL    HW132480   1.117   1.002   5.272
10527SOL    HW232481   1.162   1.011   5.115
10528SOL     OW32482   1.622   3.911   6.280
10528SOL    HW132483   1.706   3.914   6.227
10528SOL    HW232484   1.576   3.823   6.266
10529SOL     OW32485   2.453   6.196   4.169
10529SOL    HW132486   2.516   6.199   4.092
10529SOL    HW232487   2.439   6.289   4.205
10530SOL     OW32488   1.388   0.179   6.457
10530SOL    HW132489   1.366   0.106   6.521
10530SOL    HW232490   1.484   0.205   6.466
10531SOL     OW32491   1.886   2.349   4.072
10531SOL    HW132492   1.947   2.385   4.143
10531SOL    HW232493   1.920   2.260   4.042
10532SOL     OW32494   0.569   6.853   6.702
10532SOL    HW132495   0.557   6.755   6.691
10532SOL    HW232496   0.641   6.871   6.769
10533SOL     OW32497   3.029   6.590   3.392
10533SOL    HW132498   3.025   6.675   3.340
10533SOL    HW232499   2.957   6.528   3.360
10534SOL     OW32500   6.308   5.381   2.150
10534SOL    HW132501   6.395   5.335   2.170
10534SOL    HW232502   6.234   5.313   2.149
10535SOL     OW32503   2.020   1.939   2.506
10535SOL    HW132504   2.105   1.965   2.553
10535SOL    HW232505   1.955   2.015   2.510
10536SOL     OW32506   4.622   0.421   4.386
10536SOL    HW132507   4.641   0.428   4.288
10536SOL    HW232508   4.605   0.513   4.423
10537SOL     OW32509   4.374   6.093   4.575
10537SOL    HW132510   4.399   6.138   4.489
10537SOL    HW232511   4.389   5.995   4.567
10538SOL     OW32512   6.824   3.368   0.875
10538SOL    HW132513   6.755   3.370   0.803
10538SOL    HW232514   6.808   3.443   0.939
10539SOL     OW32515   6.558   5.067   0.816
10539SOL    HW132516   6.495   5.067   0.893
10539SOL    HW232517   6.505   5.066   0.730
10540SOL     OW32518   1.553   3.006   5.311
10540SOL    HW132519   1.459   3.039   5.320
10540SOL    HW232520   1.558   2.910   5.340
10541SOL     OW32521   3.960   3.931   2.156
10541SOL    HW132522   4.011   3.847   2.177
10541SOL    HW232523   3.902   3.955   2.235
10542SOL     OW32524   6.535   1.215   5.377
10542SOL    HW132525   6.558   1.178   5.286
10542SOL    HW232526   6.587   1.299   5.393
10543SOL     OW32527   1.063   1.812   4.413
10543SOL    HW132528   1.089   1.753   4.490
10543SOL    HW232529   1.061   1.907   4.443
10544SOL     OW32530   2.569   6.579   1.797
10544SOL    HW132531   2.612   6.669   1.794
10544SOL    HW232532   2.607   6.527   1.873
10545SOL     OW32533   0.722   2.081   1.278
10545SOL    HW132534   0.786   2.097   1.202
10545SOL    HW232535   0.628   2.093   1.245
10546SOL     OW32536   2.536   6.284   0.397
10546SOL    HW132537   2.488   6.241   0.473
10546SOL    HW232538   2.611   6.224   0.368
10547SOL     OW32539   5.484   3.291   3.083
10547SOL    HW132540   5.538   3.233   3.022
10547SOL    HW232541   5.488   3.255   3.176
10548SOL     OW32542   6.896   4.223   4.256
10548SOL    HW132543   6.861   4.166   4.181
10548SOL    HW232544   6.948   4.166   4.320
10549SOL     OW32545   0.593   1.336   1.066
10549SOL    HW132546   0.549   1.320   0.977
10549SOL    HW232547   0.687   1.369   1.051
10550SOL     OW32548   4.381   6.889   3.621
10550SOL    HW132549   4.472   6.856   3.597
10550SOL    HW232550   4.342   6.830   3.693
10551SOL     OW32551   2.438   2.074   6.617
10551SOL    HW132552   2.358   2.024   6.585
10551SOL    HW232553   2.520   2.041   6.570
10552SOL     OW32554   1.955   0.631   5.721
10552SOL    HW132555   1.890   0.576   5.774
10552SOL    HW232556   2.033   0.655   5.779
10553SOL     OW32557   0.638   4.854   1.398
10553SOL    HW132558   0.700   4.777   1.412
10553SOL    HW232559   0.548   4.820   1.373
10554SOL     OW32560   4.860   4.884   1.170
10554SOL    HW132561   4.941   4.826   1.169
10554SOL    HW232562   4.786   4.838   1.122
10555SOL     OW32563   2.742   2.898   0.890
10555SOL    HW132564   2.678   2.975   0.889
10555SOL    HW232565   2.693   2.814   0.868
10556SOL     OW32566   1.254   1.226   3.953
10556SOL    HW132567   1.182   1.157   3.943
10556SOL    HW232568   1.261   1.279   3.869
10557SOL     OW32569   2.132   2.811   3.054
10557SOL    HW132570   2.111   2.908   3.065
10557SOL    HW232571   2.096   2.760   3.132
10558SOL     OW32572   3.854   6.002   5.452
10558SOL    HW132573   3.926   5.943   5.415
10558SOL    HW232574   3.891   6.057   5.527
10559SOL     OW32575   4.348   1.083   1.706
10559SOL    HW132576   4.268   1.034   1.742
10559SOL    HW232577   4.365   1.164   1.762
10560SOL     OW32578   4.811   0.151   2.793
10560SOL    HW132579   4.723   0.196   2.810
10560SOL    HW232580   4.874   0.216   2.749
10561SOL     OW32581   3.517   4.496   1.597
10561SOL    HW132582   3.455   4.422   1.626
10561SOL    HW232583   3.549   4.545   1.678
10562SOL     OW32584   4.300   5.311   6.712
10562SOL    HW132585   4.229   5.262   6.662
10562SOL    HW232586   4.340   5.251   6.781
10563SOL     OW32587   0.323   0.980   2.234
10563SOL    HW132588   0.251   1.033   2.278
10563SOL    HW232589   0.327   1.003   2.137
10564SOL     OW32590   5.517   6.276   3.490
10564SOL    HW132591   5.507   6.231   3.579
10564SOL    HW232592   5.610   6.311   3.481
10565SOL     OW32593   0.073   6.367   5.697
10565SOL    HW132594   0.032   6.276   5.689
10565SOL    HW232595   0.079   6.410   5.607
10566SOL     OW32596   3.861   1.800   6.615
10566SOL    HW132597   3.959   1.811   6.603
10566SOL    HW232598   3.839   1.703   6.626
10567SOL     OW32599   2.258   2.407   5.437
10567SOL    HW132600   2.308   2.426   5.522
10567SOL    HW232601   2.202   2.487   5.414
10568SOL     OW32602   6.873   3.155   0.634
10568SOL    HW132603   6.889   3.056   0.639
10568SOL    HW232604   6.862   3.192   0.726
10569SOL     OW32605   6.171   0.957   2.374
10569SOL    HW132606   6.221   0.898   2.310
10569SOL    HW232607   6.096   0.905   2.416
10570SOL     OW32608   1.549   4.737   3.546
10570SOL    HW132609   1.467   4.681   3.557
10570SOL    HW232610   1.627   4.678   3.523
10571SOL     OW32611   0.596   4.797   5.042
10571SOL    HW132612   0.564   4.892   5.034
10571SOL    HW232613   0.662   4.778   4.969
10572SOL     OW32614   6.859   4.660   2.721
10572SOL    HW132615   6.848   4.605   2.639
10572SOL    HW232616   6.898   4.604   2.794
10573SOL     OW32617   5.398   0.805   5.107
10573SOL    HW132618   5.379   0.901   5.125
10573SOL    HW232619   5.328   0.769   5.044
10574SOL     OW32620   0.639   1.351   4.371
10574SOL    HW132621   0.705   1.420   4.402
10574SOL    HW232622   0.672   1.308   4.287
10575SOL     OW32623   6.849   0.603   3.725
10575SOL    HW132624   6.839   0.505   3.709
10575SOL    HW232625   6.826   0.623   3.820
10576SOL     OW32626   0.553   5.914   4.724
10576SOL    HW132627   0.454   5.924   4.735
10576SOL    HW232628   0.590   5.997   4.682
10577SOL     OW32629   1.875   4.454   0.504
10577SOL    HW132630   1.912   4.482   0.415
10577SOL    HW232631   1.949   4.444   0.570
10578SOL     OW32632   4.203   1.693   3.094
10578SOL    HW132633   4.291   1.645   3.088
10578SOL    HW232634   4.194   1.736   3.183
10579SOL     OW32635   4.167   2.598   1.562
10579SOL    HW132636   4.161   2.568   1.467
10579SOL    HW232637   4.208   2.526   1.617
10580SOL     OW32638   6.942   0.089   6.451
10580SOL    HW132639   6.900   0.143   6.524
10580SOL    HW232640   6.902   7.020   6.449
10581SOL     OW32641   5.756   0.301   2.951
10581SOL    HW132642   5.852   0.327   2.937
10581SOL    HW232643   5.749   0.201   2.955
10582SOL     OW32644   4.604   4.583   5.852
10582SOL    HW132645   4.618   4.484   5.863
10582SOL    HW232646   4.689   4.625   5.822
10583SOL     OW32647   4.471   1.015   4.125
10583SOL    HW132648   4.387   1.012   4.179
10583SOL    HW232649   4.549   0.987   4.182
10584SOL     OW32650   0.029   0.599   0.567
10584SOL    HW132651   6.981   0.664   0.595
10584SOL    HW232652   0.109   0.649   0.533
10585SOL     OW32653   2.749   1.648   4.903
10585SOL    HW132654   2.757   1.691   4.813
10585SOL    HW232655   2.838   1.613   4.931
10586SOL     OW32656   5.078   4.534   5.768
10586SOL    HW132657   5.170   4.539   5.809
10586SOL    HW232658   5.039   4.444   5.786
10587SOL     OW32659   6.638   5.215   6.817
10587SOL    HW132660   6.667   5.304   6.783
10587SOL    HW232661   6.591   5.226   6.905
10588SOL     OW32662   1.602   1.677   5.233
10588SOL    HW132663   1.592   1.579   5.219
10588SOL    HW232664   1.697   1.704   5.218
10589SOL     OW32665   5.670   0.755   4.344
10589SOL    HW132666   5.644   0.687   4.412
10589SOL    HW232667   5.632   0.731   4.255
10590SOL     OW32668   0.569   0.024   0.592
10590SOL    HW132669   0.584   6.965   0.648
10590SOL    HW232670   0.553   7.019   0.497
10591SOL     OW32671   2.060   2.136   0.111
10591SOL    HW132672   1.972   2.159   0.152
10591SOL    HW232673   2.078   2.038   0.125
10592SOL     OW32674   6.054   3.676   3.006
10592SOL    HW132675   5.979   3.675   3.073
10592SOL    HW232676   6.140   3.654   3.051
10593SOL     OW32677   3.154   6.049   1.236
10593SOL    HW132678   3.108   6.116   1.177
10593SOL    HW232679   3.251   6.070   1.241
10594SOL     OW32680   5.397   1.348   2.793
10594SOL    HW132681   5.315   1.359   2.737
10594SOL    HW232682   5.389   1.403   2.876
10595SOL     OW32683   5.586   0.163   0.034
10595SOL    HW132684   5.547   0.240   0.085
10595SOL    HW232685   5.520   0.087   0.034
10596SOL     OW32686   4.037   0.944   0.244
10596SOL    HW132687   3.959   0.892   0.279
10596SOL    HW232688   4.004   1.028   0.201
10597SOL     OW32689   3.415   1.284   5.395
10597SOL    HW132690   3.465   1.342   5.460
10597SOL    HW232691   3.341   1.336   5.353
10598SOL     OW32692   3.516   2.690   0.412
10598SOL    HW132693   3.478   2.598   0.405
10598SOL    HW232694   3.443   2.755   0.435
10599SOL     OW32695   5.333   3.724   6.533
10599SOL    HW132696   5.427   3.739   6.564
10599SOL    HW232697   5.322   3.628   6.506
10600SOL     OW32698   3.334   2.617   1.666
10600SOL    HW132699   3.402   2.566   1.719
10600SOL    HW232700   3.299   2.559   1.592
10601SOL     OW32701   1.487   4.649   5.420
10601SOL    HW132702   1.559   4.596   5.375
10601SOL    HW232703   1.397   4.616   5.390
10602SOL     OW32704   1.338   0.987   1.548
10602SOL    HW132705   1.302   1.062   1.603
10602SOL    HW232706   1.271   0.963   1.477
10603SOL     OW32707   3.807   0.114   3.238
10603SOL    HW132708   3.882   0.050   3.253
10603SOL    HW232709   3.721   0.073   3.267
10604SOL     OW32710   6.232   5.463   5.390
10604SOL    HW132711   6.245   5.388   5.325
10604SOL    HW232712   6.143   5.506   5.374
10605SOL     OW32713   2.446   6.027   6.730
10605SOL    HW132714   2.519   5.977   6.777
10605SOL    HW232715   2.359   5.982   6.747
10606SOL     OW32716   0.428   0.357   0.753
10606SOL    HW132717   0.365   0.288   0.788
10606SOL    HW232718   0.472   0.404   0.830
10607SOL     OW32719   4.040   4.820   6.210
10607SOL    HW132720   3.982   4.780   6.139
10607SOL    HW232721   4.019   4.917   6.221
10608SOL     OW32722   6.593   4.123   4.322
10608SOL    HW132723   6.526   4.049   4.311
10608SOL    HW232724   6.648   4.131   4.239
10609SOL     OW32725   2.797   6.704   6.963
10609SOL    HW132726   2.874   6.648   6.932
10609SOL    HW232727   2.731   6.647   7.011
10610SOL     OW32728   0.904   2.377   4.150
10610SOL    HW132729   0.816   2.422   4.166
10610SOL    HW232730   0.891   2.278   4.145
10611SOL     OW32731   2.568   4.409   6.710
10611SOL    HW132732   2.594   4.402   6.614
10611SOL    HW232733   2.637   4.365   6.767
10612SOL     OW32734   3.918   2.050   4.679
10612SOL    HW132735   3.963   2.138   4.697
10612SOL    HW232736   3.969   1.977   4.724
10613SOL     OW32737   5.647   5.821   5.777
10613SOL    HW132738   5.746   5.835   5.779
10613SOL    HW232739   5.602   5.890   5.833
10614SOL     OW32740   4.863   1.623   4.903
10614SOL    HW132741   4.872   1.641   4.805
10614SOL    HW232742   4.769   1.595   4.923
10615SOL     OW32743   3.796   0.723   6.190
10615SOL    HW132744   3.708   0.714   6.236
10615SOL    HW232745   3.794   0.804   6.131
10616SOL     OW32746   2.411   6.906   6.761
10616SOL    HW132747   2.348   6.962   6.814
10616SOL    HW232748   2.503   6.912   6.800
10617SOL     OW32749   3.186   4.108   1.359
10617SOL    HW132750   3.099   4.111   1.309
10617SOL    HW232751   3.224   4.016   1.354
10618SOL     OW32752   1.360   4.221   6.052
10618SOL    HW132753   1.454   4.242   6.080
10618SOL    HW232754   1.337   4.128   6.079
10619SOL     OW32755   0.314   3.445   3.647
10619SOL    HW132756   0.297   3.454   3.549
10619SOL    HW232757   0.374   3.519   3.677
10620SOL     OW32758   1.144   6.808   4.997
10620SOL    HW132759   1.164   6.710   5.009
10620SOL    HW232760   1.130   6.827   4.900
10621SOL     OW32761   1.020   4.845   1.617
10621SOL    HW132762   1.118   4.860   1.634
10621SOL    HW232763   1.009   4.791   1.533
10622SOL     OW32764   5.223   1.486   2.562
10622SOL    HW132765   5.175   1.458   2.479
10622SOL    HW232766   5.232   1.586   2.564
10623SOL     OW32767   6.893   5.329   6.169
10623SOL    HW132768   6.868   5.338   6.265
10623SOL    HW232769   6.916   5.234   6.149
10624SOL     OW32770   0.666   2.152   5.146
10624SOL    HW132771   0.641   2.198   5.231
10624SOL    HW232772   0.765   2.133   5.147
10625SOL     OW32773   0.420   4.725   1.318
10625SOL    HW132774   0.347   4.700   1.255
10625SOL    HW232775   0.471   4.643   1.344
10626SOL     OW32776   3.601   2.907   1.028
10626SOL    HW132777   3.606   2.811   1.054
10626SOL    HW232778   3.600   2.915   0.928
10627SOL     OW32779   5.751   1.507   6.667
10627SOL    HW132780   5.796   1.477   6.582
10627SOL    HW232781   5.675   1.446   6.688
10628SOL     OW32782   4.817   6.310   1.118
10628SOL    HW132783   4.784   6.401   1.093
10628SOL    HW232784   4.910   6.298   1.083
10629SOL     OW32785   2.472   5.031   4.987
10629SOL    HW132786   2.466   4.935   4.961
10629SOL    HW232787   2.423   5.088   4.921
10630SOL     OW32788   6.680   1.967   3.312
10630SOL    HW132789   6.749   2.031   3.280
10630SOL    HW232790   6.603   1.966   3.247
10631SOL     OW32791   3.678   5.005   5.083
10631SOL    HW132792   3.662   4.974   5.177
10631SOL    HW232793   3.628   4.947   5.019
10632SOL     OW32794   5.188   6.969   3.734
10632SOL    HW132795   5.146   6.976   3.644
10632SOL    HW232796   5.270   0.005   3.737
10633SOL     OW32797   2.795   2.496   1.445
10633SOL    HW132798   2.762   2.574   1.393
10633SOL    HW232799   2.756   2.412   1.408
10634SOL     OW32800   2.176   4.185   0.447
10634SOL    HW132801   2.164   4.282   0.424
10634SOL    HW232802   2.223   4.177   0.535
10635SOL     OW32803   1.647   3.663   6.552
10635SOL    HW132804   1.622   3.756   6.579
10635SOL    HW232805   1.570   3.620   6.504
10636SOL     OW32806   0.341   2.252   0.880
10636SOL    HW132807   0.348   2.176   0.816
10636SOL    HW232808   0.263   2.238   0.940
10637SOL     OW32809   1.121   4.479   6.136
10637SOL    HW132810   1.183   4.486   6.214
10637SOL    HW232811   1.171   4.444   6.057
10638SOL     OW32812   5.898   5.840   2.676
10638SOL    HW132813   5.984   5.789   2.679
10638SOL    HW232814   5.880   5.880   2.766
10639SOL     OW32815   0.891   3.962   3.412
10639SOL    HW132816   0.842   3.988   3.328
10639SOL    HW232817   0.985   3.994   3.406
10640SOL     OW32818   4.923   6.914   4.136
10640SOL    HW132819   4.831   6.880   4.120
10640SOL    HW232820   4.919   7.009   4.166
10641SOL     OW32821   2.417   1.860   2.539
10641SOL    HW132822   2.381   1.810   2.460
10641SOL    HW232823   2.342   1.910   2.584
10642SOL     OW32824   6.035   2.169   0.563
10642SOL    HW132825   5.986   2.230   0.625
10642SOL    HW232826   6.132   2.167   0.587
10643SOL     OW32827   1.633   6.130   4.772
10643SOL    HW132828   1.699   6.107   4.702
10643SOL    HW232829   1.632   6.229   4.787
10644SOL     OW32830   6.049   2.531   1.855
10644SOL    HW132831   6.130   2.590   1.861
10644SOL    HW232832   5.990   2.548   1.934
10645SOL     OW32833   2.020   2.268   4.916
10645SOL    HW132834   1.989   2.360   4.939
10645SOL    HW232835   1.941   2.208   4.905
10646SOL     OW32836   0.517   6.657   5.854
10646SOL    HW132837   0.437   6.602   5.833
10646SOL    HW232838   0.489   6.741   5.900
10647SOL     OW32839   3.155   5.650   4.921
10647SOL    HW132840   3.178   5.574   4.860
10647SOL    HW232841   3.240   5.695   4.950
10648SOL     OW32842   5.600   4.283   6.409
10648SOL    HW132843   5.624   4.360   6.351
10648SOL    HW232844   5.676   4.264   6.472
10649SOL     OW32845   0.920   4.456   3.208
10649SOL    HW132846   0.938   4.550   3.178
10649SOL    HW232847   0.969   4.392   3.149
10650SOL     OW32848   0.665   0.382   3.564
10650SOL    HW132849   0.712   0.344   3.484
10650SOL    HW232850   0.608   0.460   3.535
10651SOL     OW32851   5.832   6.422   6.907
10651SOL    HW132852   5.861   6.327   6.918
10651SOL    HW232853   5.752   6.425   6.847
10652SOL     OW32854   3.539   6.758   5.590
10652SOL    HW132855   3.580   6.687   5.533
10652SOL    HW232856   3.468   6.805   5.538
10653SOL     OW32857   4.657   5.547   4.419
10653SOL    HW132858   4.739   5.497   4.443
10653SOL    HW232859   4.682   5.633   4.373
10654SOL     OW32860   5.252   0.611   0.189
10654SOL    HW132861   5.200   0.694   0.211
10654SOL    HW232862   5.346   0.621   0.222
10655SOL     OW32863   2.306   5.226   0.538
10655SOL    HW132864   2.265   5.139   0.510
10655SOL    HW232865   2.234   5.290   0.564
10656SOL     OW32866   0.462   2.136   3.159
10656SOL    HW132867   0.392   2.204   3.140
10656SOL    HW232868   0.550   2.181   3.175
10657SOL     OW32869   5.404   0.385   5.617
10657SOL    HW132870   5.429   0.481   5.601
10657SOL    HW232871   5.374   0.374   5.711
10658SOL     OW32872   6.618   4.720   4.813
10658SOL    HW132873   6.520   4.712   4.834
10658SOL    HW232874   6.646   4.816   4.823
10659SOL     OW32875   0.372   5.450   1.714
10659SOL    HW132876   0.309   5.514   1.669
10659SOL    HW232877   0.466   5.482   1.701
10660SOL     OW32878   5.239   3.594   6.043
10660SOL    HW132879   5.306   3.533   6.087
10660SOL    HW232880   5.253   3.687   6.075
10661SOL     OW32881   1.438   6.955   1.750
10661SOL    HW132882   1.343   6.973   1.723
10661SOL    HW232883   1.443   6.867   1.798
10662SOL     OW32884   5.181   0.529   2.172
10662SOL    HW132885   5.218   0.616   2.141
10662SOL    HW232886   5.191   0.521   2.271
10663SOL     OW32887   0.797   2.195   2.732
10663SOL    HW132888   0.806   2.293   2.718
10663SOL    HW232889   0.785   2.176   2.830
10664SOL     OW32890   6.368   4.188   5.044
10664SOL    HW132891   6.286   4.143   5.008
10664SOL    HW232892   6.449   4.146   5.004
10665SOL     OW32893   0.621   1.811   0.366
10665SOL    HW132894   0.611   1.910   0.363
10665SOL    HW232895   0.679   1.785   0.443
10666SOL     OW32896   4.096   3.589   1.873
10666SOL    HW132897   4.146   3.504   1.854
10666SOL    HW232898   4.139   3.665   1.826
10667SOL     OW32899   4.785   2.482   4.160
10667SOL    HW132900   4.868   2.530   4.191
10667SOL    HW232901   4.712   2.549   4.144
10668SOL     OW32902   2.544   0.365   5.169
10668SOL    HW132903   2.606   0.442   5.185
10668SOL    HW232904   2.464   0.396   5.119
10669SOL     OW32905   5.686   0.345   1.819
10669SOL    HW132906   5.608   0.286   1.837
10669SOL    HW232907   5.754   0.296   1.764
10670SOL     OW32908   5.548   4.846   5.171
10670SOL    HW132909   5.585   4.765   5.127
10670SOL    HW232910   5.451   4.856   5.147
10671SOL     OW32911   2.298   2.306   3.372
10671SOL    HW132912   2.347   2.274   3.291
10671SOL    HW232913   2.277   2.227   3.430
10672SOL     OW32914   6.498   3.210   1.166
10672SOL    HW132915   6.413   3.208   1.114
10672SOL    HW232916   6.498   3.134   1.231
10673SOL     OW32917   0.834   0.918   6.690
10673SOL    HW132918   0.791   0.896   6.603
10673SOL    HW232919   0.809   0.849   6.758
10674SOL     OW32920   3.394   3.748   2.106
10674SOL    HW132921   3.439   3.826   2.149
10674SOL    HW232922   3.312   3.778   2.058
10675SOL     OW32923   1.881   6.730   6.579
10675SOL    HW132924   1.837   6.727   6.489
10675SOL    HW232925   1.813   6.757   6.648
10676SOL     OW32926   6.483   5.775   5.485
10676SOL    HW132927   6.422   5.852   5.505
10676SOL    HW232928   6.445   5.720   5.411
10677SOL     OW32929   1.068   1.000   1.705
10677SOL    HW132930   1.124   0.917   1.702
10677SOL    HW232931   0.987   0.987   1.649
10678SOL     OW32932   4.376   5.024   3.765
10678SOL    HW132933   4.438   5.061   3.696
10678SOL    HW232934   4.407   4.932   3.793
10679SOL     OW32935   4.799   5.611   6.568
10679SOL    HW132936   4.710   5.652   6.545
10679SOL    HW232937   4.785   5.527   6.620
10680SOL     OW32938   3.697   1.642   3.917
10680SOL    HW132939   3.781   1.645   3.863
10680SOL    HW232940   3.681   1.549   3.950
10681SOL     OW32941   0.978   3.653   0.775
10681SOL    HW132942   1.000   3.579   0.713
10681SOL    HW232943   1.063   3.699   0.803
10682SOL     OW32944   0.863   1.380   5.674
10682SOL    HW132945   0.783   1.434   5.647
10682SOL    HW232946   0.893   1.324   5.596
10683SOL     OW32947   3.595   2.117   3.716
10683SOL    HW132948   3.655   2.118   3.636
10683SOL    HW232949   3.647   2.142   3.797
10684SOL     OW32950   5.258   4.371   2.730
10684SOL    HW132951   5.238   4.300   2.662
10684SOL    HW232952   5.186   4.440   2.729
10685SOL     OW32953   0.655   6.005   2.302
10685SOL    HW132954   0.723   6.009   2.376
10685SOL    HW232955   0.694   5.959   2.223
10686SOL     OW32956   0.426   4.635   6.447
10686SOL    HW132957   0.327   4.625   6.441
10686SOL    HW232958   0.469   4.545   6.443
10687SOL     OW32959   5.886   5.890   2.948
10687SOL    HW132960   5.974   5.915   2.988
10687SOL    HW232961   5.813   5.911   3.013
10688SOL     OW32962   6.605   3.853   2.244
10688SOL    HW132963   6.553   3.938   2.238
10688SOL    HW232964   6.610   3.824   2.340
10689SOL     OW32965   0.202   5.835   3.428
10689SOL    HW132966   0.212   5.763   3.496
10689SOL    HW232967   0.123   5.815   3.370
10690SOL     OW32968   6.752   6.082   3.726
10690SOL    HW132969   6.803   6.158   3.767
10690SOL    HW232970   6.749   6.006   3.790
10691SOL     OW32971   0.561   2.372   2.382
10691SOL    HW132972   0.497   2.447   2.361
10691SOL    HW232973   0.654   2.400   2.359
10692SOL     OW32974   3.067   5.884   3.675
10692SOL    HW132975   3.092   5.787   3.673
10692SOL    HW232976   3.150   5.939   3.669
10693SOL     OW32977   2.401   6.036   0.148
10693SOL    HW132978   2.467   5.961   0.146
10693SOL    HW232979   2.329   6.016   0.214
10694SOL     OW32980   5.543   6.561   1.812
10694SOL    HW132981   5.607   6.487   1.790
10694SOL    HW232982   5.451   6.523   1.824
10695SOL     OW32983   6.805   2.498   2.611
10695SOL    HW132984   6.779   2.422   2.671
10695SOL    HW232985   6.825   2.462   2.519
10696SOL     OW32986   0.342   3.971   3.635
10696SOL    HW132987   0.395   3.950   3.553
10696SOL    HW232988   0.280   4.047   3.616
10697SOL     OW32989   6.851   5.685   5.310
10697SOL    HW132990   6.789   5.749   5.264
10697SOL    HW232991   6.916   5.649   5.244
10698SOL     OW32992   4.739   5.074   5.895
10698SOL    HW132993   4.675   5.063   5.818
10698SOL    HW232994   4.708   5.018   5.972
10699SOL     OW32995   4.171   3.308   1.778
10699SOL    HW132996   4.134   3.251   1.852
10699SOL    HW232997   4.264   3.281   1.758
10700SOL     OW32998   0.169   6.704   1.209
10700SOL    HW132999   0.142   6.761   1.287
10700SOL    HW233000   0.087   6.670   1.163
10701SOL     OW33001   3.601   5.891   0.053
10701SOL    HW133002   3.504   5.914   0.066
10701SOL    HW233003   3.618   5.873   6.978
10702SOL     OW33004   5.976   2.674   1.440
10702SOL    HW133005   6.021   2.732   1.508
10702SOL    HW233006   5.879   2.666   1.462
10703SOL     OW33007   3.109   3.183   4.713
10703SOL    HW133008   3.190   3.204   4.767
10703SOL    HW233009   3.091   3.257   4.648
10704SOL     OW33010   6.310   5.759   1.654
10704SOL    HW133011   6.243   5.818   1.700
10704SOL    HW233012   6.313   5.783   1.557
10705SOL     OW33013   6.201   4.257   1.721
10705SOL    HW133014   6.157   4.334   1.767
10705SOL    HW233015   6.289   4.286   1.685
10706SOL     OW33016   4.906   6.505   1.485
10706SOL    HW133017   4.809   6.511   1.508
10706SOL    HW233018   4.943   6.597   1.470
10707SOL     OW33019   0.264   6.347   4.393
10707SOL    HW133020   0.286   6.276   4.326
10707SOL    HW233021   0.188   6.403   4.359
10708SOL     OW33022   3.920   0.297   2.299
10708SOL    HW133023   3.823   0.304   2.276
10708SOL    HW233024   3.959   0.216   2.257
10709SOL     OW33025   6.054   5.771   4.947
10709SOL    HW133026   6.085   5.835   5.017
10709SOL    HW233027   6.127   5.707   4.925
10710SOL     OW33028   0.258   6.549   4.787
10710SOL    HW133029   0.316   6.479   4.828
10710SOL    HW233030   0.201   6.509   4.716
10711SOL     OW33031   1.115   6.027   3.993
10711SOL    HW133032   1.125   5.968   3.913
10711SOL    HW233033   1.057   6.105   3.970
10712SOL     OW33034   3.016   1.144   1.270
10712SOL    HW133035   3.038   1.138   1.367
10712SOL    HW233036   2.979   1.234   1.249
10713SOL     OW33037   0.781   3.495   1.635
10713SOL    HW133038   0.809   3.428   1.567
10713SOL    HW233039   0.772   3.585   1.592
10714SOL     OW33040   6.231   4.262   4.665
10714SOL    HW133041   6.316   4.223   4.700
10714SOL    HW233042   6.156   4.198   4.681
10715SOL     OW33043   5.374   0.233   2.700
10715SOL    HW133044   5.395   0.324   2.665
10715SOL    HW233045   5.321   0.241   2.785
10716SOL     OW33046   5.629   2.377   4.429
10716SOL    HW133047   5.637   2.437   4.508
10716SOL    HW233048   5.618   2.282   4.460
10717SOL     OW33049   1.370   2.785   0.699
10717SOL    HW133050   1.427   2.705   0.715
10717SOL    HW233051   1.275   2.762   0.720
10718SOL     OW33052   1.056   2.446   6.501
10718SOL    HW133053   1.053   2.536   6.458
10718SOL    HW233054   1.015   2.379   6.440
10719SOL     OW33055   5.910   5.647   1.352
10719SOL    HW133056   5.936   5.743   1.355
10719SOL    HW233057   5.895   5.614   1.445
10720SOL     OW33058   0.030   3.948   5.316
10720SOL    HW133059   0.022   3.998   5.402
10720SOL    HW233060   0.125   3.918   5.304
10721SOL     OW33061   5.728   3.986   4.882
10721SOL    HW133062   5.636   3.952   4.903
10721SOL    HW233063   5.769   3.928   4.812
10722SOL     OW33064   1.044   4.311   0.799
10722SOL    HW133065   0.994   4.366   0.866
10722SOL    HW233066   0.981   4.246   0.757
10723SOL     OW33067   0.564   3.670   6.018
10723SOL    HW133068   0.597   3.647   6.109
10723SOL    HW233069   0.466   3.691   6.022
10724SOL     OW33070   5.086   0.996   6.975
10724SOL    HW133071   5.104   1.080   6.923
10724SOL    HW233072   5.173   0.950   6.996
10725SOL     OW33073   0.726   4.471   4.807
10725SOL    HW133074   0.779   4.409   4.865
10725SOL    HW233075   0.746   4.452   4.711
10726SOL     OW33076   5.247   0.172   5.270
10726SOL    HW133077   5.170   0.109   5.278
10726SOL    HW233078   5.220   0.263   5.303
10727SOL     OW33079   0.214   4.945   4.250
10727SOL    HW133080   0.185   5.009   4.180
10727SOL    HW233081   0.136   4.892   4.282
10728SOL     OW33082   6.654   6.319   0.441
10728SOL    HW133083   6.715   6.398   0.441
10728SOL    HW233084   6.663   6.271   0.528
10729SOL     OW33085   5.942   1.234   2.781
10729SOL    HW133086   5.949   1.256   2.879
10729SOL    HW233087   5.888   1.150   2.770
10730SOL     OW33088   2.376   0.006   2.212
10730SOL    HW133089   2.328   6.965   2.272
10730SOL    HW233090   2.425   6.976   2.141
10731SOL     OW33091   2.984   6.136   0.530
10731SOL    HW133092   2.889   6.159   0.549
10731SOL    HW233093   3.035   6.219   0.507
10732SOL     OW33094   5.205   4.776   3.132
10732SOL    HW133095   5.135   4.829   3.083
10732SOL    HW233096   5.227   4.822   3.218
10733SOL     OW33097   5.103   2.151   6.813
10733SOL    HW133098   5.017   2.186   6.773
10733SOL    HW233099   5.147   2.224   6.866
10734SOL     OW33100   1.419   6.753   0.052
10734SOL    HW133101   1.485   6.682   0.074
10734SOL    HW233102   1.454   6.842   0.081
10735SOL     OW33103   1.357   4.250   2.674
10735SOL    HW133104   1.311   4.162   2.668
10735SOL    HW233105   1.417   4.251   2.754
10736SOL     OW33106   0.225   0.218   3.419
10736SOL    HW133107   0.142   0.164   3.408
10736SOL    HW233108   0.248   0.263   3.333
10737SOL     OW33109   1.656   2.018   6.887
10737SOL    HW133110   1.568   2.046   6.848
10737SOL    HW233111   1.642   1.973   6.975
10738SOL     OW33112   2.469   0.456   3.669
10738SOL    HW133113   2.416   0.530   3.709
10738SOL    HW233114   2.422   0.369   3.684
10739SOL     OW33115   0.459   1.228   0.866
10739SOL    HW133116   0.488   1.193   0.777
10739SOL    HW233117   0.367   1.194   0.886
10740SOL     OW33118   0.525   4.521   5.681
10740SOL    HW133119   0.457   4.555   5.615
10740SOL    HW233120   0.518   4.574   5.765
10741SOL     OW33121   0.276   0.541   2.615
10741SOL    HW133122   0.239   0.627   2.579
10741SOL    HW233123   0.365   0.559   2.658
10742SOL     OW33124   6.061   0.317   1.731
10742SOL    HW133125   6.035   0.278   1.643
10742SOL    HW233126   6.118   0.252   1.781
10743SOL     OW33127   2.611   2.218   5.698
10743SOL    HW133128   2.555   2.294   5.665
10743SOL    HW233129   2.668   2.183   5.624
10744SOL     OW33130   2.749   1.401   2.198
10744SOL    HW133131   2.830   1.361   2.155
10744SOL    HW233132   2.767   1.496   2.222
10745SOL     OW33133   0.949   4.962   0.704
10745SOL    HW133134   0.946   4.935   0.801
10745SOL    HW233135   1.014   5.037   0.693
10746SOL     OW33136   1.938   3.745   1.335
10746SOL    HW133137   1.954   3.670   1.398
10746SOL    HW233138   1.907   3.826   1.386
10747SOL     OW33139   4.328   0.811   3.255
10747SOL    HW133140   4.353   0.867   3.334
10747SOL    HW233141   4.311   0.717   3.285
10748SOL     OW33142   3.631   0.883   1.735
10748SOL    HW133143   3.563   0.874   1.662
10748SOL    HW233144   3.721   0.858   1.700
10749SOL     OW33145   6.786   5.050   3.507
10749SOL    HW133146   6.703   5.033   3.560
10749SOL    HW233147   6.800   5.149   3.498
10750SOL     OW33148   4.551   5.899   4.299
10750SOL    HW133149   4.570   5.925   4.204
10750SOL    HW233150   4.456   5.870   4.307
10751SOL     OW33151   1.417   4.388   4.708
10751SOL    HW133152   1.478   4.427   4.777
10751SOL    HW233153   1.466   4.383   4.620
10752SOL     OW33154   6.026   3.890   6.065
10752SOL    HW133155   6.055   3.972   6.115
10752SOL    HW233156   5.962   3.917   5.993
10753SOL     OW33157   3.757   6.572   4.466
10753SOL    HW133158   3.739   6.528   4.554
10753SOL    HW233159   3.726   6.512   4.392
10754SOL     OW33160   1.135   1.932   3.626
10754SOL    HW133161   1.193   1.856   3.596
10754SOL    HW233162   1.071   1.899   3.696
10755SOL     OW33163   0.743   1.528   6.531
10755SOL    HW133164   0.697   1.568   6.610
10755SOL    HW233165   0.795   1.447   6.559
10756SOL     OW33166   6.570   4.301   0.131
10756SOL    HW133167   6.586   4.291   0.032
10756SOL    HW233168   6.476   4.331   0.146
10757SOL     OW33169   1.314   2.786   6.978
10757SOL    HW133170   1.380   2.735   0.010
10757SOL    HW233171   1.241   2.819   0.016
10758SOL     OW33172   0.849   6.663   5.294
10758SOL    HW133173   0.848   6.757   5.326
10758SOL    HW233174   0.869   6.661   5.196
10759SOL     OW33175   1.652   2.672   0.020
10759SOL    HW133176   1.666   2.762   0.062
10759SOL    HW233177   1.580   2.678   6.974
10760SOL     OW33178   6.218   1.263   1.040
10760SOL    HW133179   6.251   1.225   0.954
10760SOL    HW233180   6.295   1.296   1.095
10761SOL     OW33181   1.429   1.594   6.017
10761SOL    HW133182   1.512   1.575   5.965
10761SOL    HW233183   1.381   1.508   6.037
10762SOL     OW33184   3.620   1.895   5.124
10762SOL    HW133185   3.646   1.962   5.193
10762SOL    HW233186   3.664   1.918   5.037
10763SOL     OW33187   4.381   6.608   1.271
10763SOL    HW133188   4.297   6.613   1.324
10763SOL    HW233189   4.440   6.536   1.308
10764SOL     OW33190   5.484   2.010   6.117
10764SOL    HW133191   5.495   2.109   6.130
10764SOL    HW233192   5.429   1.993   6.035
10765SOL     OW33193   5.440   2.511   1.006
10765SOL    HW133194   5.443   2.489   1.104
10765SOL    HW233195   5.360   2.468   0.965
10766SOL     OW33196   3.882   2.935   1.410
10766SOL    HW133197   3.926   3.007   1.357
10766SOL    HW233198   3.787   2.924   1.380
10767SOL     OW33199   0.951   0.602   0.376
10767SOL    HW133200   1.034   0.611   0.322
10767SOL    HW233201   0.966   0.637   0.468
10768SOL     OW33202   4.195   4.719   0.929
10768SOL    HW133203   4.246   4.779   0.990
10768SOL    HW233204   4.109   4.763   0.903
10769SOL     OW33205   2.342   4.950   4.712
10769SOL    HW133206   2.405   4.888   4.759
10769SOL    HW233207   2.248   4.924   4.732
10770SOL     OW33208   5.419   0.102   5.076
10770SOL    HW133209   5.360   0.144   5.145
10770SOL    HW233210   5.369   0.096   4.990
10771SOL     OW33211   4.981   1.270   3.750
10771SOL    HW133212   4.888   1.302   3.729
10771SOL    HW233213   5.003   1.192   3.692
10772SOL     OW33214   0.112   6.777   4.805
10772SOL    HW133215   0.182   6.848   4.816
10772SOL    HW233216   0.156   6.690   4.782
10773SOL     OW33217   0.157   5.533   6.982
10773SOL    HW133218   0.129   5.502   6.891
10773SOL    HW233219   0.245   5.493   7.005
10774SOL     OW33220   1.972   1.351   6.303
10774SOL    HW133221   1.924   1.358   6.391
10774SOL    HW233222   1.940   1.422   6.242
10775SOL     OW33223   0.332   3.121   0.556
10775SOL    HW133224   0.412   3.061   0.553
10775SOL    HW233225   0.339   3.183   0.635
10776SOL     OW33226   1.442   6.336   7.018
10776SOL    HW133227   1.387   6.407   0.039
10776SOL    HW233228   1.400   6.246   0.010
10777SOL     OW33229   3.429   5.993   3.574
10777SOL    HW133230   3.384   6.001   3.663
10777SOL    HW233231   3.386   6.056   3.509
10778SOL     OW33232   5.337   6.597   5.120
10778SOL    HW133233   5.411   6.531   5.109
10778SOL    HW233234   5.263   6.574   5.056
10779SOL     OW33235   6.427   4.821   3.149
10779SOL    HW133236   6.363   4.852   3.078
10779SOL    HW233237   6.399   4.858   3.238
10780SOL     OW33238   1.678   0.533   3.739
10780SOL    HW133239   1.748   0.499   3.802
10780SOL    HW233240   1.688   0.485   3.651
10781SOL     OW33241   4.076   0.900   3.423
10781SOL    HW133242   4.020   0.819   3.438
10781SOL    HW233243   4.149   0.879   3.358
10782SOL     OW33244   6.587   2.365   3.496
10782SOL    HW133245   6.632   2.276   3.505
10782SOL    HW233246   6.633   2.431   3.554
10783SOL     OW33247   0.627   3.391   3.460
10783SOL    HW133248   0.712   3.392   3.407
10783SOL    HW233249   0.631   3.463   3.529
10784SOL     OW33250   3.311   0.947   3.846
10784SOL    HW133251   3.251   0.929   3.768
10784SOL    HW233252   3.404   0.919   3.823
10785SOL     OW33253   0.135   5.259   1.279
10785SOL    HW133254   0.051   5.207   1.263
10785SOL    HW233255   0.157   5.258   1.377
10786SOL     OW33256   4.933   5.072   2.723
10786SOL    HW133257   4.932   4.990   2.666
10786SOL    HW233258   4.859   5.133   2.696
10787SOL     OW33259   2.732   1.512   4.553
10787SOL    HW133260   2.708   1.438   4.616
10787SOL    HW233261   2.758   1.593   4.604
10788SOL     OW33262   2.454   5.138   6.381
10788SOL    HW133263   2.439   5.041   6.401
10788SOL    HW233264   2.548   5.150   6.350
10789SOL     OW33265   6.346   2.622   6.877
10789SOL    HW133266   6.371   2.689   6.807
10789SOL    HW233267   6.429   2.582   6.915
10790SOL     OW33268   1.075   1.205   2.581
10790SOL    HW133269   1.020   1.248   2.509
10790SOL    HW233270   1.029   1.122   2.614
10791SOL     OW33271   0.557   6.968   0.309
10791SOL    HW133272   0.472   7.017   0.291
10791SOL    HW233273   0.539   6.870   0.310
10792SOL     OW33274   3.523   3.669   3.165
10792SOL    HW133275   3.532   3.731   3.088
10792SOL    HW233276   3.502   3.721   3.248
10793SOL     OW33277   5.510   2.466   3.956
10793SOL    HW133278   5.544   2.398   3.891
10793SOL    HW233279   5.521   2.558   3.918
10794SOL     OW33280   2.942   3.773   3.788
10794SOL    HW133281   2.914   3.781   3.884
10794SOL    HW233282   2.995   3.689   3.776
10795SOL     OW33283   0.043   4.145   2.958
10795SOL    HW133284   7.003   4.142   3.037
10795SOL    HW233285   0.137   4.152   2.991
10796SOL     OW33286   5.564   6.657   0.716
10796SOL    HW133287   5.604   6.661   0.625
10796SOL    HW233288   5.637   6.645   0.784
10797SOL     OW33289   3.965   1.888   1.930
10797SOL    HW133290   3.932   1.982   1.934
10797SOL    HW233291   4.061   1.885   1.957
10798SOL     OW33292   2.625   6.540   0.365
10798SOL    HW133293   2.592   6.448   0.387
10798SOL    HW233294   2.722   6.546   0.388
10799SOL     OW33295   3.459   0.750   2.649
10799SOL    HW133296   3.541   0.777   2.600
10799SOL    HW233297   3.414   0.676   2.598
10800SOL     OW33298   0.437   6.955   6.922
10800SOL    HW133299   0.452   6.958   6.823
10800SOL    HW233300   0.499   6.889   6.963
10801SOL     OW33301   0.544   6.205   6.435
10801SOL    HW133302   0.593   6.292   6.433
10801SOL    HW233303   0.533   6.170   6.342
10802SOL     OW33304   0.926   2.667   3.312
10802SOL    HW133305   0.948   2.574   3.282
10802SOL    HW233306   0.866   2.663   3.392
10803SOL     OW33307   3.146   3.455   5.889
10803SOL    HW133308   3.131   3.496   5.979
10803SOL    HW233309   3.219   3.387   5.895
10804SOL     OW33310   5.704   4.008   1.802
10804SOL    HW133311   5.675   3.912   1.792
10804SOL    HW233312   5.782   4.012   1.865
10805SOL     OW33313   3.697   0.233   0.405
10805SOL    HW133314   3.742   0.255   0.491
10805SOL    HW233315   3.766   0.220   0.334
10806SOL     OW33316   4.695   3.532   6.207
10806SOL    HW133317   4.678   3.459   6.140
10806SOL    HW233318   4.792   3.552   6.210
10807SOL     OW33319   1.461   6.998   2.422
10807SOL    HW133320   1.490   6.999   2.518
10807SOL    HW233321   1.516   0.041   2.370
10808SOL     OW33322   6.181   2.991   6.296
10808SOL    HW133323   6.214   3.082   6.273
10808SOL    HW233324   6.247   2.946   6.357
10809SOL     OW33325   2.952   6.268   3.656
10809SOL    HW133326   3.047   6.292   3.670
10809SOL    HW233327   2.936   6.173   3.685
10810SOL     OW33328   2.077   0.602   5.067
10810SOL    HW133329   2.050   0.555   4.983
10810SOL    HW233330   2.022   0.568   5.144
10811SOL     OW33331   4.024   4.724   5.509
10811SOL    HW133332   4.031   4.688   5.416
10811SOL    HW233333   3.941   4.689   5.552
10812SOL     OW33334   0.902   3.299   1.461
10812SOL    HW133335   0.866   3.223   1.407
10812SOL    HW233336   0.997   3.317   1.435
10813SOL     OW33337   2.338   4.870   6.428
10813SOL    HW133338   2.307   4.776   6.413
10813SOL    HW233339   2.294   4.906   6.511
10814SOL     OW33340   1.740   6.732   6.341
10814SOL    HW133341   1.723   6.773   6.251
10814SOL    HW233342   1.655   6.732   6.394
10815SOL     OW33343   4.692   4.598   4.119
10815SOL    HW133344   4.739   4.660   4.182
10815SOL    HW233345   4.691   4.506   4.158
10816SOL     OW33346   2.343   2.394   1.326
10816SOL    HW133347   2.322   2.428   1.235
10816SOL    HW233348   2.375   2.469   1.384
10817SOL     OW33349   4.777   6.662   2.794
10817SOL    HW133350   4.761   6.591   2.725
10817SOL    HW233351   4.770   6.752   2.751
10818SOL     OW33352   4.545   4.968   5.328
10818SOL    HW133353   4.482   5.021   5.385
10818SOL    HW233354   4.578   4.890   5.380
10819SOL     OW33355   6.993   4.524   6.661
10819SOL    HW133356   7.000   4.557   6.755
10819SOL    HW233357   0.017   4.588   6.600
10820SOL     OW33358   5.819   5.673   4.084
10820SOL    HW133359   5.744   5.734   4.056
10820SOL    HW233360   5.819   5.665   4.184
10821SOL     OW33361   5.795   6.933   2.050
10821SOL    HW133362   5.713   6.889   2.015
10821SOL    HW233363   5.775   6.978   2.137
10822SOL     OW33364   0.196   3.086   3.103
10822SOL    HW133365   0.189   3.124   3.195
10822SOL    HW233366   0.228   2.991   3.108
10823SOL     OW33367   1.735   5.836   1.742
10823SOL    HW133368   1.742   5.744   1.782
10823SOL    HW233369   1.770   5.903   1.807
10824SOL     OW33370   6.377   0.606   3.644
10824SOL    HW133371   6.471   0.609   3.609
10824SOL    HW233372   6.338   0.698   3.643
10825SOL     OW33373   2.984   0.614   6.403
10825SOL    HW133374   2.953   0.709   6.397
10825SOL    HW233375   3.046   0.594   6.326
10826SOL     OW33376   1.092   3.190   3.556
10826SOL    HW133377   1.036   3.256   3.606
10826SOL    HW233378   1.173   3.235   3.520
10827SOL     OW33379   6.016   4.075   4.752
10827SOL    HW133380   5.965   4.160   4.747
10827SOL    HW233381   5.954   3.998   4.736
10828SOL     OW33382   1.079   5.793   1.909
10828SOL    HW133383   1.082   5.873   1.849
10828SOL    HW233384   1.018   5.725   1.870
10829SOL     OW33385   3.814   2.363   1.153
10829SOL    HW133386   3.782   2.270   1.168
10829SOL    HW233387   3.907   2.361   1.115
10830SOL     OW33388   5.321   1.766   3.496
10830SOL    HW133389   5.312   1.717   3.583
10830SOL    HW233390   5.417   1.787   3.479
10831SOL     OW33391   3.890   5.680   2.879
10831SOL    HW133392   3.843   5.651   2.796
10831SOL    HW233393   3.989   5.668   2.867
10832SOL     OW33394   1.450   2.386   0.212
10832SOL    HW133395   1.384   2.452   0.176
10832SOL    HW233396   1.501   2.428   0.288
10833SOL     OW33397   1.993   0.819   2.063
10833SOL    HW133398   2.077   0.868   2.040
10833SOL    HW233399   2.017   0.730   2.103
10834SOL     OW33400   0.943   1.902   6.492
10834SOL    HW133401   0.867   1.849   6.456
10834SOL    HW233402   0.965   1.976   6.427
10835SOL     OW33403   6.109   2.085   6.895
10835SOL    HW133404   6.150   2.153   6.957
10835SOL    HW233405   6.170   2.070   6.817
10836SOL     OW33406   6.705   1.922   4.774
10836SOL    HW133407   6.633   1.882   4.717
10836SOL    HW233408   6.706   1.875   4.862
10837SOL     OW33409   6.818   4.985   0.770
10837SOL    HW133410   6.871   5.032   0.700
10837SOL    HW233411   6.722   4.983   0.743
10838SOL     OW33412   5.508   6.536   4.589
10838SOL    HW133413   5.423   6.538   4.538
10838SOL    HW233414   5.533   6.442   4.611
10839SOL     OW33415   4.508   2.844   1.504
10839SOL    HW133416   4.415   2.806   1.505
10839SOL    HW233417   4.574   2.769   1.505
10840SOL     OW33418   3.330   5.382   2.257
10840SOL    HW133419   3.411   5.430   2.290
10840SOL    HW233420   3.292   5.326   2.332
10841SOL     OW33421   5.440   5.166   6.804
10841SOL    HW133422   5.455   5.233   6.732
10841SOL    HW233423   5.412   5.212   6.888
10842SOL     OW33424   4.778   2.577   1.507
10842SOL    HW133425   4.734   2.629   1.434
10842SOL    HW233426   4.776   2.479   1.484
10843SOL     OW33427   1.424   3.045   1.494
10843SOL    HW133428   1.424   3.112   1.420
10843SOL    HW233429   1.333   3.004   1.501
10844SOL     OW33430   0.020   0.156   3.728
10844SOL    HW133431   0.067   0.069   3.715
10844SOL    HW233432   0.087   0.230   3.727
10845SOL     OW33433   3.386   0.521   4.908
10845SOL    HW133434   3.421   0.599   4.857
10845SOL    HW233435   3.296   0.543   4.947
10846SOL     OW33436   4.910   1.722   0.635
10846SOL    HW133437   4.834   1.697   0.575
10846SOL    HW233438   4.874   1.755   0.722
10847SOL     OW33439   3.598   3.490   6.393
10847SOL    HW133440   3.646   3.407   6.364
10847SOL    HW233441   3.512   3.498   6.342
10848SOL     OW33442   2.946   3.418   6.728
10848SOL    HW133443   3.010   3.357   6.682
10848SOL    HW233444   2.960   3.511   6.696
10849SOL     OW33445   2.767   6.396   2.809
10849SOL    HW133446   2.784   6.376   2.712
10849SOL    HW233447   2.850   6.378   2.861
10850SOL     OW33448   3.373   4.676   6.698
10850SOL    HW133449   3.407   4.697   6.607
10850SOL    HW233450   3.285   4.722   6.713
10851SOL     OW33451   2.227   2.910   6.612
10851SOL    HW133452   2.263   2.912   6.518
10851SOL    HW233453   2.153   2.978   6.620
10852SOL     OW33454   1.132   0.307   6.992
10852SOL    HW133455   1.066   0.323   0.044
10852SOL    HW233456   1.083   0.292   6.906
10853SOL     OW33457   2.887   1.863   5.844
10853SOL    HW133458   2.790   1.845   5.865
10853SOL    HW233459   2.904   1.844   5.747
10854SOL     OW33460   4.329   5.896   5.476
10854SOL    HW133461   4.266   5.906   5.553
10854SOL    HW233462   4.277   5.874   5.393
10855SOL     OW33463   2.991   6.571   1.233
10855SOL    HW133464   2.909   6.562   1.177
10855SOL    HW233465   2.976   6.526   1.322
10856SOL     OW33466   6.071   1.634   1.342
10856SOL    HW133467   6.016   1.551   1.355
10856SOL    HW233468   6.019   1.713   1.375
10857SOL     OW33469   6.463   2.443   2.876
10857SOL    HW133470   6.366   2.423   2.890
10857SOL    HW233471   6.519   2.377   2.927
10858SOL     OW33472   0.607   2.086   6.318
10858SOL    HW133473   0.528   2.028   6.302
10858SOL    HW233474   0.688   2.047   6.274
10859SOL     OW33475   2.153   3.272   3.987
10859SOL    HW133476   2.099   3.259   3.904
10859SOL    HW233477   2.198   3.187   4.012
10860SOL     OW33478   6.406   1.630   5.700
10860SOL    HW133479   6.449   1.720   5.693
10860SOL    HW233480   6.344   1.630   5.779
10861SOL     OW33481   3.662   2.922   3.058
10861SOL    HW133482   3.624   2.865   2.985
10861SOL    HW233483   3.762   2.918   3.054
10862SOL     OW33484   2.613   1.810   5.938
10862SOL    HW133485   2.628   1.865   6.021
10862SOL    HW233486   2.602   1.714   5.963
10863SOL     OW33487   4.219   0.360   3.303
10863SOL    HW133488   4.231   0.271   3.346
10863SOL    HW233489   4.280   0.427   3.346
10864SOL     OW33490   3.081   5.233   0.346
10864SOL    HW133491   3.112   5.222   0.251
10864SOL    HW233492   3.076   5.143   0.389
10865SOL     OW33493   6.666   1.812   2.907
10865SOL    HW133494   6.574   1.773   2.914
10865SOL    HW233495   6.714   1.770   2.830
10866SOL     OW33496   5.226   5.000   0.233
10866SOL    HW133497   5.171   4.942   0.174
10866SOL    HW233498   5.316   5.014   0.192
10867SOL     OW33499   3.337   3.977   0.055
10867SOL    HW133500   3.285   4.035   7.015
10867SOL    HW233501   3.394   3.914   0.002
10868SOL     OW33502   3.152   2.094   3.643
10868SOL    HW133503   3.055   2.112   3.628
10868SOL    HW233504   3.169   2.089   3.742
10869NA      NA33505   0.475   2.157   5.800
10870NA      NA33506   4.401   4.685   5.146
10871NA      NA33507   1.803   4.011   2.524
10872NA      NA33508   4.903   4.028   3.717
10873NA      NA33509   4.255   2.323   5.274
10874NA      NA33510   3.203   4.858   1.867
10875NA      NA33511   6.934   4.604   0.567
10876NA      NA33512   3.528   3.432   3.179
10877NA      NA33513   4.890   5.135   1.190
10878NA      NA33514   3.760   6.529   5.347
10879NA      NA33515   5.969   5.318   1.503
10880NA      NA33516   2.145   1.173   4.662
10881NA      NA33517   3.976   5.115   1.707
10882NA      NA33518   4.031   3.361   1.594
   7.02224   7.02224   7.02224
