Generated by trjconv : CNT in water t= 132.00000
33518
    1C        C    1   2.838   2.770   4.744
    1C        C    2   2.896   2.720   4.862
    1C        C    3   2.842   2.772   4.980
    1C        C    4   2.850   2.775   4.258
    1C        C    5   2.900   2.723   4.380
    1C        C    6   2.848   2.771   4.502
    1C        C    7   3.008   2.636   4.624
    1C        C    8   2.893   2.718   4.625
    1C        C    9   3.073   2.604   4.745
    1C        C   10   3.011   2.637   4.867
    1C        C   11   3.178   2.491   4.975
    1C        C   12   3.054   2.555   4.972
    1C        C   13   2.847   2.765   3.771
    1C        C   14   2.900   2.720   3.894
    1C        C   15   2.847   2.771   4.014
    1C        C   16   3.018   2.644   4.138
    1C        C   17   2.902   2.725   4.136
    1C        C   18   3.078   2.605   4.259
    1C        C   19   3.015   2.641   4.380
    1C        C   20   3.204   2.552   4.503
    1C        C   21   3.072   2.602   4.503
    1C        C   22   3.274   2.529   4.624
    1C        C   23   3.204   2.547   4.745
    1C        C   24   3.410   2.481   4.863
    1C        C   25   3.268   2.503   4.864
    1C        C   26   3.484   2.474   4.982
    1C        C   27   2.849   2.762   3.279
    1C        C   28   2.903   2.721   3.403
    1C        C   29   2.854   2.771   3.525
    1C        C   30   3.020   2.643   3.647
    1C        C   31   2.902   2.720   3.648
    1C        C   32   3.077   2.604   3.771
    1C        C   33   3.014   2.637   3.893
    1C        C   34   3.208   2.551   4.018
    1C        C   35   3.076   2.603   4.016
    1C        C   36   3.276   2.530   4.139
    1C        C   37   3.210   2.554   4.261
    1C        C   38   3.414   2.497   4.381
    1C        C   39   3.276   2.528   4.384
    1C        C   40   3.483   2.492   4.504
    1C        C   41   3.411   2.497   4.625
    1C        C   42   3.628   2.484   4.744
    1C        C   43   3.486   2.477   4.743
    1C        C   44   3.702   2.486   4.864
    1C        C   45   3.623   2.479   4.979
    1C        C   46   2.838   2.750   2.793
    1C        C   47   2.896   2.709   2.915
    1C        C   48   2.850   2.762   3.038
    1C        C   49   3.017   2.628   3.159
    1C        C   50   2.902   2.710   3.158
    1C        C   51   3.076   2.591   3.282
    1C        C   52   3.017   2.637   3.401
    1C        C   53   3.207   2.545   3.525
    1C        C   54   3.080   2.607   3.524
    1C        C   55   3.270   2.520   3.649
    1C        C   56   3.205   2.544   3.772
    1C        C   57   3.412   2.499   3.894
    1C        C   58   3.274   2.530   3.895
    1C        C   59   3.485   2.497   4.015
    1C        C   60   3.414   2.496   4.137
    1C        C   61   3.625   2.490   4.257
    1C        C   62   3.484   2.484   4.259
    1C        C   63   3.695   2.501   4.379
    1C        C   64   3.624   2.494   4.501
    1C        C   65   3.833   2.540   4.619
    1C        C   66   3.696   2.503   4.622
    1C        C   67   3.901   2.563   4.740
    1C        C   68   3.839   2.522   4.861
    1C        C   69   4.050   2.576   4.972
    1C        C   70   3.918   2.530   4.976
    1C        C   71   2.824   2.731   2.308
    1C        C   72   2.885   2.694   2.430
    1C        C   73   2.829   2.741   2.551
    1C        C   74   3.001   2.615   2.671
    1C        C   75   2.885   2.695   2.672
    1C        C   76   3.069   2.587   2.791
    1C        C   77   3.009   2.623   2.914
    1C        C   78   3.203   2.534   3.035
    1C        C   79   3.074   2.591   3.035
    1C        C   80   3.272   2.517   3.157
    1C        C   81   3.207   2.536   3.281
    1C        C   82   3.412   2.490   3.403
    1C        C   83   3.274   2.517   3.404
    1C        C   84   3.479   2.482   3.527
    1C        C   85   3.409   2.493   3.649
    1C        C   86   3.621   2.499   3.768
    1C        C   87   3.480   2.490   3.771
    1C        C   88   3.694   2.505   3.888
    1C        C   89   3.626   2.500   4.012
    1C        C   90   3.832   2.541   4.131
    1C        C   91   3.696   2.504   4.135
    1C        C   92   3.896   2.571   4.253
    1C        C   93   3.830   2.543   4.374
    1C        C   94   4.022   2.632   4.496
    1C        C   95   3.899   2.562   4.496
    1C        C   96   4.086   2.671   4.616
    1C        C   97   4.027   2.629   4.737
    1C        C   98   4.190   2.759   4.858
    1C        C   99   4.094   2.654   4.860
    1C        C  100   4.208   2.840   4.972
    1C        C  101   2.821   2.730   2.070
    1C        C  102   2.989   2.588   2.189
    1C        C  103   2.873   2.673   2.187
    1C        C  104   3.059   2.565   2.310
    1C        C  105   3.000   2.613   2.430
    1C        C  106   3.198   2.528   2.549
    1C        C  107   3.067   2.582   2.550
    1C        C  108   3.268   2.511   2.670
    1C        C  109   3.201   2.537   2.792
    1C        C  110   3.410   2.494   2.912
    1C        C  111   3.270   2.514   2.913
    1C        C  112   3.481   2.488   3.034
    1C        C  113   3.411   2.491   3.156
    1C        C  114   3.622   2.490   3.280
    1C        C  115   3.481   2.483   3.279
    1C        C  116   3.691   2.506   3.402
    1C        C  117   3.620   2.491   3.523
    1C        C  118   3.827   2.543   3.645
    1C        C  119   3.691   2.504   3.645
    1C        C  120   3.896   2.569   3.765
    1C        C  121   3.830   2.543   3.887
    1C        C  122   4.020   2.639   4.009
    1C        C  123   3.897   2.569   4.009
    1C        C  124   4.085   2.671   4.131
    1C        C  125   4.024   2.632   4.252
    1C        C  126   4.190   2.763   4.375
    1C        C  127   4.080   2.674   4.374
    1C        C  128   4.241   2.818   4.495
    1C        C  129   4.191   2.765   4.616
    1C        C  130   4.322   2.932   4.736
    1C        C  131   4.241   2.815   4.738
    1C        C  132   4.350   3.000   4.856
    1C        C  133   4.286   2.955   4.972
    1C        C  134   3.169   2.469   2.076
    1C        C  135   3.036   2.512   2.077
    1C        C  136   3.256   2.478   2.186
    1C        C  137   3.191   2.513   2.306
    1C        C  138   3.402   2.474   2.426
    1C        C  139   3.262   2.495   2.427
    1C        C  140   3.478   2.473   2.545
    1C        C  141   3.407   2.485   2.667
    1C        C  142   3.619   2.489   2.789
    1C        C  143   3.478   2.479   2.788
    1C        C  144   3.689   2.501   2.911
    1C        C  145   3.622   2.491   3.035
    1C        C  146   3.827   2.538   3.153
    1C        C  147   3.692   2.499   3.157
    1C        C  148   3.894   2.564   3.275
    1C        C  149   3.826   2.546   3.397
    1C        C  150   4.020   2.625   3.521
    1C        C  151   3.892   2.565   3.521
    1C        C  152   4.078   2.671   3.641
    1C        C  153   4.021   2.634   3.766
    1C        C  154   4.189   2.766   3.886
    1C        C  155   4.078   2.679   3.887
    1C        C  156   4.239   2.813   4.009
    1C        C  157   4.194   2.761   4.132
    1C        C  158   4.330   2.923   4.251
    1C        C  159   4.245   2.811   4.254
    1C        C  160   4.371   2.985   4.372
    1C        C  161   4.330   2.928   4.494
    1C        C  162   4.434   3.115   4.616
    1C        C  163   4.366   2.992   4.615
    1C        C  164   4.462   3.183   4.737
    1C        C  165   4.429   3.117   4.857
    1C        C  166   4.506   3.319   4.973
    1C        C  167   4.472   3.185   4.972
    1C        C  168   3.474   2.438   2.072
    1C        C  169   3.396   2.460   2.187
    1C        C  170   3.615   2.465   2.303
    1C        C  171   3.473   2.464   2.305
    1C        C  172   3.688   2.484   2.422
    1C        C  173   3.618   2.490   2.545
    1C        C  174   3.825   2.541   2.663
    1C        C  175   3.689   2.502   2.667
    1C        C  176   3.890   2.565   2.786
    1C        C  177   3.825   2.541   2.909
    1C        C  178   4.019   2.627   3.030
    1C        C  179   3.892   2.565   3.030
    1C        C  180   4.081   2.664   3.152
    1C        C  181   4.020   2.628   3.274
    1C        C  182   4.188   2.751   3.396
    1C        C  183   4.078   2.663   3.398
    1C        C  184   4.243   2.803   3.516
    1C        C  185   4.187   2.760   3.638
    1C        C  186   4.326   2.920   3.761
    1C        C  187   4.236   2.811   3.760
    1C        C  188   4.363   2.982   3.883
    1C        C  189   4.327   2.924   4.006
    1C        C  190   4.438   3.104   4.129
    1C        C  191   4.370   2.981   4.128
    1C        C  192   4.466   3.173   4.249
    1C        C  193   4.436   3.111   4.372
    1C        C  194   4.501   3.315   4.490
    1C        C  195   4.462   3.179   4.493
    1C        C  196   4.518   3.386   4.611
    1C        C  197   4.513   3.316   4.733
    1C        C  198   4.551   3.531   4.849
    1C        C  199   4.532   3.389   4.854
    1C        C  200   4.575   3.615   4.962
    1C        C  201   3.612   2.417   2.069
    1C        C  202   3.823   2.507   2.179
    1C        C  203   3.690   2.455   2.183
    1C        C  204   3.896   2.535   2.298
    1C        C  205   3.825   2.516   2.419
    1C        C  206   4.020   2.609   2.540
    1C        C  207   3.892   2.550   2.539
    1C        C  208   4.079   2.654   2.661
    1C        C  209   4.019   2.624   2.785
    1C        C  210   4.190   2.748   2.905
    1C        C  211   4.078   2.663   2.907
    1C        C  212   4.242   2.798   3.026
    1C        C  213   4.192   2.751   3.150
    1C        C  214   4.327   2.911   3.271
    1C        C  215   4.240   2.799   3.273
    1C        C  216   4.365   2.972   3.392
    1C        C  217   4.332   2.912   3.516
    1C        C  218   4.427   3.104   3.637
    1C        C  219   4.368   2.975   3.637
    1C        C  220   4.456   3.169   3.759
    1C        C  221   4.434   3.104   3.883
    1C        C  222   4.499   3.305   4.002
    1C        C  223   4.465   3.168   4.005
    1C        C  224   4.513   3.378   4.122
    1C        C  225   4.504   3.309   4.245
    1C        C  226   4.522   3.522   4.364
    1C        C  227   4.519   3.380   4.366
    1C        C  228   4.523   3.597   4.484
    1C        C  229   4.530   3.526   4.606
    1C        C  230   4.509   3.741   4.724
    1C        C  231   4.535   3.601   4.726
    1C        C  232   4.500   3.815   4.844
    1C        C  233   4.543   3.751   4.961
    1C        C  234   4.014   2.605   2.061
    1C        C  235   3.894   2.535   2.061
    1C        C  236   4.079   2.647   2.178
    1C        C  237   4.019   2.605   2.298
    1C        C  238   4.197   2.729   2.418
    1C        C  239   4.083   2.644   2.418
    1C        C  240   4.245   2.784   2.538
    1C        C  241   4.192   2.738   2.661
    1C        C  242   4.329   2.904   2.784
    1C        C  243   4.243   2.792   2.781
    1C        C  244   4.371   2.967   2.903
    1C        C  245   4.333   2.906   3.025
    1C        C  246   4.431   3.093   3.148
    1C        C  247   4.371   2.966   3.148
    1C        C  248   4.457   3.162   3.268
    1C        C  249   4.424   3.100   3.391
    1C        C  250   4.497   3.300   3.514
    1C        C  251   4.451   3.166   3.513
    1C        C  252   4.513   3.371   3.635
    1C        C  253   4.499   3.303   3.758
    1C        C  254   4.522   3.515   3.877
    1C        C  255   4.516   3.374   3.879
    1C        C  256   4.520   3.588   3.997
    1C        C  257   4.521   3.519   4.121
    1C        C  258   4.496   3.731   4.239
    1C        C  259   4.519   3.592   4.242
    1C        C  260   4.476   3.802   4.359
    1C        C  261   4.495   3.735   4.482
    1C        C  262   4.427   3.938   4.599
    1C        C  263   4.480   3.807   4.603
    1C        C  264   4.400   4.005   4.721
    1C        C  265   4.440   3.943   4.841
    1C        C  266   4.323   4.130   4.955
    1C        C  267   4.385   4.005   4.954
    1C        C  268   4.260   2.772   2.063
    1C        C  269   4.195   2.728   2.179
    1C        C  270   4.345   2.886   2.298
    1C        C  271   4.255   2.776   2.298
    1C        C  272   4.380   2.951   2.419
    1C        C  273   4.335   2.893   2.540
    1C        C  274   4.447   3.077   2.659
    1C        C  275   4.375   2.955   2.660
    1C        C  276   4.467   3.152   2.777
    1C        C  277   4.438   3.091   2.902
    1C        C  278   4.500   3.292   3.023
    1C        C  279   4.464   3.155   3.025
    1C        C  280   4.510   3.363   3.144
    1C        C  281   4.496   3.298   3.269
    1C        C  282   4.513   3.510   3.387
    1C        C  283   4.507   3.369   3.391
    1C        C  284   4.511   3.580   3.509
    1C        C  285   4.516   3.512   3.633
    1C        C  286   4.494   3.724   3.750
    1C        C  287   4.518   3.585   3.754
    1C        C  288   4.476   3.792   3.873
    1C        C  289   4.497   3.728   3.998
    1C        C  290   4.430   3.933   4.114
    1C        C  291   4.481   3.801   4.117
    1C        C  292   4.397   3.999   4.234
    1C        C  293   4.429   3.936   4.357
    1C        C  294   4.326   4.125   4.476
    1C        C  295   4.397   4.003   4.477
    1C        C  296   4.284   4.186   4.596
    1C        C  297   4.324   4.125   4.718
    1C        C  298   4.196   4.306   4.836
    1C        C  299   4.283   4.192   4.836
    1C        C  300   4.168   4.395   4.945
    1C        C  301   4.347   2.880   2.061
    1C        C  302   4.469   3.064   2.175
    1C        C  303   4.396   2.941   2.177
    1C        C  304   4.483   3.139   2.295
    1C        C  305   4.442   3.078   2.416
    1C        C  306   4.504   3.282   2.536
    1C        C  307   4.468   3.145   2.538
    1C        C  308   4.515   3.355   2.656
    1C        C  309   4.500   3.289   2.779
    1C        C  310   4.525   3.501   2.894
    1C        C  311   4.513   3.361   2.900
    1C        C  312   4.518   3.572   3.016
    1C        C  313   4.519   3.504   3.140
    1C        C  314   4.495   3.715   3.262
    1C        C  315   4.517   3.575   3.262
    1C        C  316   4.479   3.788   3.381
    1C        C  317   4.494   3.720   3.504
    1C        C  318   4.425   3.920   3.626
    1C        C  319   4.478   3.789   3.626
    1C        C  320   4.387   3.980   3.748
    1C        C  321   4.426   3.924   3.871
    1C        C  322   4.315   4.109   3.987
    1C        C  323   4.395   3.993   3.990
    1C        C  324   4.270   4.165   4.109
    1C        C  325   4.316   4.114   4.233
    1C        C  326   4.185   4.283   4.352
    1C        C  327   4.278   4.177   4.354
    1C        C  328   4.134   4.333   4.473
    1C        C  329   4.187   4.288   4.596
    1C        C  330   4.018   4.426   4.713
    1C        C  331   4.134   4.344   4.714
    1C        C  332   3.966   4.484   4.831
    1C        C  333   4.049   4.469   4.943
    1C        C  334   4.554   3.264   2.060
    1C        C  335   4.530   3.126   2.062
    1C        C  336   4.540   3.347   2.172
    1C        C  337   4.511   3.278   2.292
    1C        C  338   4.524   3.490   2.410
    1C        C  339   4.524   3.349   2.413
    1C        C  340   4.522   3.566   2.529
    1C        C  341   4.522   3.496   2.651
    1C        C  342   4.493   3.710   2.773
    1C        C  343   4.519   3.571   2.771
    1C        C  344   4.478   3.781   2.894
    1C        C  345   4.497   3.712   3.017
    1C        C  346   4.426   3.913   3.137
    1C        C  347   4.474   3.781   3.138
    1C        C  348   4.399   3.981   3.258
    1C        C  349   4.428   3.920   3.382
    1C        C  350   4.315   4.100   3.501
    1C        C  351   4.396   3.984   3.503
    1C        C  352   4.273   4.160   3.622
    1C        C  353   4.315   4.102   3.744
    1C        C  354   4.168   4.258   3.864
    1C        C  355   4.270   4.161   3.864
    1C        C  356   4.120   4.313   3.985
    1C        C  357   4.171   4.266   4.108
    1C        C  358   4.010   4.403   4.228
    1C        C  359   4.122   4.317   4.230
    1C        C  360   3.950   4.444   4.349
    1C        C  361   4.015   4.410   4.470
    1C        C  362   3.827   4.515   4.593
    1C        C  363   3.952   4.451   4.590
    1C        C  364   3.758   4.546   4.713
    1C        C  365   3.837   4.540   4.830
    1C        C  366   3.628   4.588   4.949
    1C        C  367   3.767   4.574   4.946
    1C        C  368   4.515   3.557   2.049
    1C        C  369   4.531   3.488   2.169
    1C        C  370   4.502   3.702   2.284
    1C        C  371   4.517   3.562   2.288
    1C        C  372   4.482   3.774   2.405
    1C        C  373   4.502   3.706   2.527
    1C        C  374   4.422   3.905   2.646
    1C        C  375   4.475   3.774   2.648
    1C        C  376   4.395   3.971   2.767
    1C        C  377   4.427   3.912   2.891
    1C        C  378   4.313   4.091   3.009
    1C        C  379   4.394   3.975   3.014
    1C        C  380   4.270   4.147   3.132
    1C        C  381   4.317   4.096   3.255
    1C        C  382   4.174   4.254   3.375
    1C        C  383   4.272   4.152   3.377
    1C        C  384   4.118   4.302   3.495
    1C        C  385   4.167   4.254   3.618
    1C        C  386   4.002   4.387   3.741
    1C        C  387   4.114   4.300   3.740
    1C        C  388   3.945   4.431   3.863
    1C        C  389   4.007   4.397   3.985
    1C        C  390   3.815   4.492   4.106
    1C        C  391   3.944   4.432   4.107
    1C        C  392   3.748   4.513   4.228
    1C        C  393   3.819   4.496   4.350
    1C        C  394   3.616   4.549   4.471
    1C        C  395   3.757   4.531   4.471
    1C        C  396   3.544   4.560   4.592
    1C        C  397   3.618   4.561   4.713
    1C        C  398   3.409   4.552   4.837
    1C        C  399   3.549   4.574   4.835
    1C        C  400   3.341   4.514   4.954
    1C        C  401   4.515   3.696   2.051
    1C        C  402   4.445   3.909   2.161
    1C        C  403   4.490   3.776   2.164
    1C        C  404   4.400   3.970   2.281
    1C        C  405   4.426   3.903   2.403
    1C        C  406   4.322   4.091   2.520
    1C        C  407   4.395   3.970   2.524
    1C        C  408   4.273   4.142   2.643
    1C        C  409   4.313   4.086   2.766
    1C        C  410   4.170   4.246   2.887
    1C        C  411   4.267   4.144   2.887
    1C        C  412   4.119   4.294   3.010
    1C        C  413   4.170   4.247   3.133
    1C        C  414   3.996   4.372   3.252
    1C        C  415   4.113   4.294   3.253
    1C        C  416   3.936   4.411   3.374
    1C        C  417   4.000   4.379   3.496
    1C        C  418   3.811   4.476   3.618
    1C        C  419   3.940   4.418   3.618
    1C        C  420   3.745   4.506   3.739
    1C        C  421   3.814   4.484   3.861
    1C        C  422   3.609   4.533   3.984
    1C        C  423   3.749   4.512   3.983
    1C        C  424   3.539   4.541   4.106
    1C        C  425   3.609   4.538   4.228
    1C        C  426   3.401   4.545   4.354
    1C        C  427   3.542   4.553   4.351
    1C        C  428   3.330   4.545   4.476
    1C        C  429   3.403   4.552   4.596
    1C        C  430   3.193   4.513   4.720
    1C        C  431   3.333   4.542   4.719
    1C        C  432   3.122   4.488   4.841
    1C        C  433   3.205   4.485   4.954
    1C        C  434   4.383   4.120   2.049
    1C        C  435   4.445   3.994   2.050
    1C        C  436   4.302   4.160   2.159
    1C        C  437   4.323   4.089   2.281
    1C        C  438   4.178   4.250   2.398
    1C        C  439   4.275   4.147   2.400
    1C        C  440   4.123   4.293   2.520
    1C        C  441   4.172   4.241   2.642
    1C        C  442   4.001   4.370   2.763
    1C        C  443   4.116   4.288   2.763
    1C        C  444   3.940   4.407   2.885
    1C        C  445   4.001   4.372   3.008
    1C        C  446   3.806   4.461   3.127
    1C        C  447   3.934   4.403   3.128
    1C        C  448   3.741   4.488   3.250
    1C        C  449   3.806   4.466   3.374
    1C        C  450   3.604   4.523   3.495
    1C        C  451   3.743   4.496   3.496
    1C        C  452   3.535   4.530   3.618
    1C        C  453   3.606   4.528   3.740
    1C        C  454   3.395   4.536   3.862
    1C        C  455   3.536   4.539   3.863
    1C        C  456   3.328   4.528   3.986
    1C        C  457   3.397   4.540   4.108
    1C        C  458   3.195   4.493   4.235
    1C        C  459   3.330   4.532   4.232
    1C        C  460   3.125   4.484   4.357
    1C        C  461   3.193   4.508   4.479
    1C        C  462   2.996   4.429   4.603
    1C        C  463   3.123   4.489   4.600
    1C        C  464   2.927   4.397   4.722
    1C        C  465   2.987   4.440   4.843
    1C        C  466   2.799   4.336   4.959
    1C        C  467   2.911   4.421   4.962
    1C        C  468   4.117   4.278   2.043
    1C        C  469   4.190   4.249   2.159
    1C        C  470   4.008   4.376   2.279
    1C        C  471   4.130   4.303   2.276
    1C        C  472   3.938   4.401   2.400
    1C        C  473   4.005   4.371   2.520
    1C        C  474   3.811   4.462   2.639
    1C        C  475   3.941   4.408   2.641
    1C        C  476   3.744   4.486   2.761
    1C        C  477   3.811   4.463   2.884
    1C        C  478   3.603   4.518   3.006
    1C        C  479   3.741   4.487   3.004
    1C        C  480   3.535   4.530   3.129
    1C        C  481   3.605   4.523   3.252
    1C        C  482   3.392   4.534   3.373
    1C        C  483   3.534   4.535   3.373
    1C        C  484   3.324   4.525   3.496
    1C        C  485   3.394   4.534   3.618
    1C        C  486   3.185   4.500   3.743
    1C        C  487   3.323   4.532   3.740
    1C        C  488   3.123   4.476   3.867
    1C        C  489   3.190   4.496   3.990
    1C        C  490   3.000   4.409   4.113
    1C        C  491   3.126   4.473   4.113
    1C        C  492   2.940   4.381   4.239
    1C        C  493   2.998   4.422   4.361
    1C        C  494   2.826   4.296   4.481
    1C        C  495   2.939   4.380   4.482
    1C        C  496   2.771   4.252   4.604
    1C        C  497   2.815   4.308   4.725
    1C        C  498   2.661   4.162   4.842
    1C        C  499   2.748   4.273   4.845
    1C        C  500   2.589   4.114   4.953
    1C        C  501   3.999   4.353   2.040
    1C        C  502   3.815   4.463   2.156
    1C        C  503   3.945   4.407   2.157
    1C        C  504   3.744   4.486   2.276
    1C        C  505   3.809   4.459   2.398
    1C        C  506   3.604   4.518   2.518
    1C        C  507   3.741   4.483   2.519
    1C        C  508   3.533   4.530   2.640
    1C        C  509   3.606   4.518   2.760
    1C        C  510   3.394   4.523   2.883
    1C        C  511   3.535   4.522   2.882
    1C        C  512   3.323   4.521   3.005
    1C        C  513   3.394   4.528   3.127
    1C        C  514   3.187   4.485   3.253
    1C        C  515   3.324   4.522   3.250
    1C        C  516   3.121   4.467   3.376
    1C        C  517   3.186   4.493   3.499
    1C        C  518   2.993   4.408   3.621
    1C        C  519   3.119   4.472   3.621
    1C        C  520   2.940   4.369   3.746
    1C        C  521   2.999   4.408   3.868
    1C        C  522   2.833   4.279   3.993
    1C        C  523   2.941   4.369   3.991
    1C        C  524   2.784   4.233   4.118
    1C        C  525   2.831   4.292   4.237
    1C        C  526   2.692   4.132   4.362
    1C        C  527   2.776   4.245   4.359
    1C        C  528   2.645   4.075   4.482
    1C        C  529   2.682   4.142   4.601
    1C        C  530   2.577   3.960   4.729
    1C        C  531   2.634   4.091   4.723
    1C        C  532   2.529   3.902   4.850
    1C        C  533   2.519   3.993   4.960
    1C        C  534   3.615   4.548   2.037
    1C        C  535   3.750   4.513   2.042
    1C        C  536   3.535   4.531   2.154
    1C        C  537   3.605   4.516   2.277
    1C        C  538   3.391   4.506   2.396
    1C        C  539   3.531   4.525   2.397
    1C        C  540   3.322   4.507   2.519
    1C        C  541   3.392   4.523   2.641
    1C        C  542   3.184   4.478   2.761
    1C        C  543   3.321   4.513   2.762
    1C        C  544   3.121   4.459   2.886
    1C        C  545   3.187   4.485   3.008
    1C        C  546   2.999   4.390   3.132
    1C        C  547   3.122   4.460   3.131
    1C        C  548   2.937   4.360   3.256
    1C        C  549   2.994   4.404   3.378
    1C        C  550   2.826   4.275   3.502
    1C        C  551   2.932   4.369   3.500
    1C        C  552   2.780   4.226   3.626
    1C        C  553   2.834   4.275   3.748
    1C        C  554   2.696   4.116   3.874
    1C        C  555   2.785   4.226   3.871
    1C        C  556   2.654   4.061   3.997
    1C        C  557   2.694   4.124   4.117
    1C        C  558   2.588   3.945   4.244
    1C        C  559   2.655   4.069   4.241
    1C        C  560   2.561   3.877   4.365
    1C        C  561   2.589   3.945   4.485
    1C        C  562   2.521   3.751   4.613
    1C        C  563   2.561   3.886   4.610
    1C        C  564   2.507   3.680   4.734
    1C        C  565   2.508   3.761   4.852
    1C        C  566   2.521   3.549   4.978
    1C        C  567   2.517   3.688   4.971
    1C        C  568   3.329   4.467   2.035
    1C        C  569   3.395   4.506   2.152
    1C        C  570   3.184   4.468   2.276
    1C        C  571   3.321   4.504   2.273
    1C        C  572   3.118   4.447   2.399
    1C        C  573   3.184   4.478   2.520
    1C        C  574   2.985   4.399   2.645
    1C        C  575   3.114   4.455   2.641
    1C        C  576   2.928   4.361   2.768
    1C        C  577   2.993   4.398   2.888
    1C        C  578   2.827   4.265   3.012
    1C        C  579   2.937   4.354   3.010
    1C        C  580   2.779   4.218   3.136
    1C        C  581   2.827   4.272   3.257
    1C        C  582   2.694   4.109   3.382
    1C        C  583   2.779   4.222   3.380
    1C        C  584   2.654   4.055   3.506
    1C        C  585   2.693   4.115   3.628
    1C        C  586   2.590   3.933   3.754
    1C        C  587   2.658   4.057   3.752
    1C        C  588   2.560   3.869   3.877
    1C        C  589   2.591   3.935   3.998
    1C        C  590   2.524   3.740   4.125
    1C        C  591   2.565   3.875   4.123
    1C        C  592   2.514   3.671   4.248
    1C        C  593   2.525   3.740   4.370
    1C        C  594   2.504   3.534   4.496
    1C        C  595   2.507   3.675   4.494
    1C        C  596   2.515   3.467   4.620
    1C        C  597   2.513   3.538   4.742
    1C        C  598   2.533   3.327   4.861
    1C        C  599   2.526   3.468   4.864
    1C        C  600   2.533   3.251   4.979
    1C        C  601   3.196   4.429   2.039
    1C        C  602   2.983   4.386   2.155
    1C        C  603   3.119   4.429   2.156
    1C        C  604   2.923   4.356   2.281
    1C        C  605   2.990   4.386   2.401
    1C        C  606   2.821   4.263   2.526
    1C        C  607   2.925   4.359   2.524
    1C        C  608   2.773   4.213   2.649
    1C        C  609   2.821   4.268   2.769
    1C        C  610   2.680   4.109   2.891
    1C        C  611   2.774   4.215   2.891
    1C        C  612   2.646   4.053   3.016
    1C        C  613   2.688   4.110   3.138
    1C        C  614   2.585   3.927   3.262
    1C        C  615   2.647   4.053   3.261
    1C        C  616   2.561   3.865   3.386
    1C        C  617   2.590   3.929   3.509
    1C        C  618   2.522   3.730   3.635
    1C        C  619   2.568   3.864   3.633
    1C        C  620   2.510   3.663   3.759
    1C        C  621   2.527   3.732   3.881
    1C        C  622   2.507   3.525   4.010
    1C        C  623   2.516   3.666   4.005
    1C        C  624   2.510   3.455   4.133
    1C        C  625   2.506   3.530   4.252
    1C        C  626   2.541   3.323   4.375
    1C        C  627   2.508   3.461   4.376
    1C        C  628   2.563   3.259   4.499
    1C        C  629   2.541   3.328   4.620
    1C        C  630   2.594   3.120   4.741
    1C        C  631   2.550   3.255   4.740
    1C        C  632   2.616   3.052   4.864
    1C        C  633   2.563   3.114   4.982
    1C        C  634   2.780   4.302   2.050
    1C        C  635   2.893   4.384   2.044
    1C        C  636   2.747   4.230   2.166
    1C        C  637   2.809   4.271   2.286
    1C        C  638   2.670   4.108   2.407
    1C        C  639   2.762   4.215   2.407
    1C        C  640   2.635   4.046   2.529
    1C        C  641   2.683   4.104   2.648
    1C        C  642   2.579   3.920   2.772
    1C        C  643   2.641   4.047   2.770
    1C        C  644   2.557   3.857   2.897
    1C        C  645   2.583   3.926   3.017
    1C        C  646   2.522   3.725   3.146
    1C        C  647   2.554   3.862   3.140
    1C        C  648   2.504   3.657   3.268
    1C        C  649   2.523   3.729   3.388
    1C        C  650   2.506   3.521   3.518
    1C        C  651   2.512   3.662   3.512
    1C        C  652   2.513   3.452   3.641
    1C        C  653   2.507   3.521   3.764
    1C        C  654   2.540   3.316   3.886
    1C        C  655   2.508   3.453   3.888
    1C        C  656   2.556   3.249   4.010
    1C        C  657   2.536   3.316   4.133
    1C        C  658   2.604   3.116   4.256
    1C        C  659   2.556   3.249   4.256
    1C        C  660   2.638   3.057   4.379
    1C        C  661   2.610   3.125   4.499
    1C        C  662   2.711   2.940   4.622
    1C        C  663   2.629   3.055   4.620
    1C        C  664   2.749   2.881   4.744
    1C        C  665   2.697   2.935   4.866
    1C        C  666   2.743   2.871   4.981
    1C        C  667   2.671   4.024   2.049
    1C        C  668   2.682   4.105   2.163
    1C        C  669   2.582   3.916   2.287
    1C        C  670   2.638   4.047   2.284
    1C        C  671   2.554   3.849   2.408
    1C        C  672   2.576   3.917   2.530
    1C        C  673   2.512   3.715   2.657
    1C        C  674   2.550   3.851   2.652
    1C        C  675   2.502   3.648   2.781
    1C        C  676   2.521   3.721   2.900
    1C        C  677   2.504   3.512   3.029
    1C        C  678   2.516   3.653   3.024
    1C        C  679   2.506   3.443   3.152
    1C        C  680   2.500   3.516   3.273
    1C        C  681   2.532   3.309   3.398
    1C        C  682   2.504   3.448   3.397
    1C        C  683   2.561   3.245   3.521
    1C        C  684   2.541   3.314   3.643
    1C        C  685   2.607   3.112   3.768
    1C        C  686   2.560   3.245   3.765
    1C        C  687   2.638   3.050   3.892
    1C        C  688   2.609   3.119   4.012
    1C        C  689   2.714   2.934   4.136
    1C        C  690   2.639   3.054   4.134
    1C        C  691   2.756   2.880   4.260
    1C        C  692   2.716   2.939   4.382
    1C        C  693   2.758   2.880   4.503
    1C        C  694   2.624   3.892   2.054
    1C        C  695   2.526   3.703   2.175
    1C        C  696   2.575   3.835   2.172
    1C        C  697   2.503   3.636   2.297
    1C        C  698   2.517   3.713   2.415
    1C        C  699   2.486   3.502   2.540
    1C        C  700   2.499   3.643   2.536
    1C        C  701   2.501   3.435   2.664
    1C        C  702   2.501   3.507   2.785
    1C        C  703   2.529   3.300   2.910
    1C        C  704   2.503   3.438   2.909
    1C        C  705   2.550   3.234   3.033
    1C        C  706   2.538   3.305   3.154
    1C        C  707   2.598   3.105   3.277
    1C        C  708   2.551   3.238   3.278
    1C        C  709   2.635   3.045   3.399
    1C        C  710   2.611   3.113   3.521
    1C        C  711   2.714   2.932   3.647
    1C        C  712   2.637   3.050   3.645
    1C        C  713   2.754   2.871   3.767
    1C        C  714   2.716   2.932   3.889
    1C        C  715   2.753   2.876   4.013
    1C        C  716   2.454   3.497   2.061
    1C        C  717   2.492   3.631   2.059
    1C        C  718   2.465   3.419   2.181
    1C        C  719   2.485   3.495   2.299
    1C        C  720   2.517   3.287   2.423
    1C        C  721   2.486   3.425   2.422
    1C        C  722   2.541   3.222   2.546
    1C        C  723   2.526   3.296   2.666
    1C        C  724   2.593   3.097   2.790
    1C        C  725   2.540   3.228   2.788
    1C        C  726   2.628   3.034   2.912
    1C        C  727   2.600   3.101   3.033
    1C        C  728   2.712   2.923   3.160
    1C        C  729   2.631   3.039   3.156
    1C        C  730   2.754   2.866   3.282
    1C        C  731   2.712   2.927   3.403
    1C        C  732   2.756   2.873   3.526
    1C        C  733   2.486   3.191   2.072
    1C        C  734   2.489   3.278   2.182
    1C        C  735   2.582   3.083   2.306
    1C        C  736   2.525   3.213   2.303
    1C        C  737   2.622   3.021   2.427
    1C        C  738   2.595   3.092   2.547
    1C        C  739   2.699   2.909   2.671
    1C        C  740   2.626   3.030   2.670
    1C        C  741   2.743   2.855   2.794
    1C        C  742   2.704   2.915   2.915
    1C        C  743   2.755   2.867   3.038
    1C        C  744   2.542   3.064   2.075
    1C        C  745   2.688   2.897   2.184
    1C        C  746   2.615   3.018   2.185
    1C        C  747   2.731   2.838   2.305
    1C        C  748   2.689   2.898   2.426
    1C        C  749   2.736   2.847   2.549
    1C        C  750   2.733   2.837   2.065
    1C        C  751   3.640   2.309   1.971
    1C        O  752   3.704   2.207   2.010
    1C        O  753   3.662   2.350   1.839
    1C        C  754   4.635   3.044   1.998
    1C        O  755   4.604   3.007   1.882
    1C        O  756   4.771   3.064   2.027
    1C        C  757   4.440   4.222   1.959
    1C        O  758   4.524   4.308   1.997
    1C        O  759   4.422   4.206   1.821
    1C        C  760   3.585   4.654   1.938
    1C        O  761   3.592   4.773   1.979
    1C        O  762   3.574   4.636   1.799
    1C        C  763   2.883   4.506   1.959
    1C        O  764   2.897   4.501   1.834
    1C        O  765   2.795   4.610   1.989
    1C        C  766   2.346   3.465   1.964
    1C        O  767   2.387   3.458   1.845
    1C        O  768   2.226   3.536   1.976
    1C        C  769   4.676   3.586   5.066
    1C        O  770   4.648   3.597   5.189
    1C        O  771   4.810   3.622   5.051
    1C        C  772   4.268   4.448   5.041
    1C        O  773   4.277   4.430   5.165
    1C        O  774   4.375   4.527   4.997
    1C        C  775   4.144   2.511   5.066
    1C        O  776   4.241   2.440   5.027
    1C        O  777   4.176   2.561   5.192
    1C        C  778   2.887   4.532   5.058
    1C        O  779   2.813   4.622   5.011
    1C        O  780   2.877   4.517   5.197
    1C        C  781   2.471   3.039   5.070
    1C        O  782   2.360   2.987   5.043
    1C        O  783   2.487   3.027   5.208
    1C        C  784   2.391   4.001   5.034
    1C        O  785   2.292   4.068   4.996
    1C        O  786   2.387   3.987   5.173
    1C        C  787   2.948   2.414   2.011
    1C        O  788   2.917   2.421   1.889
    1C        O  789   2.966   2.277   2.031
    1C        C  790   3.186   2.370   5.061
    1C        O  791   3.117   2.268   5.036
    1C        O  792   3.199   2.380   5.200
    1C        H  793   4.254   3.031   5.041
    1C        H  794   4.145   2.829   5.058
    1C        H  795   4.504   3.129   5.058
    1C        H  796   4.476   3.375   5.059
    1C        H  797   4.569   3.820   5.039
    1C        H  798   4.384   3.949   5.045
    1C        H  799   4.271   4.156   5.045
    1C        H  800   3.994   4.451   5.032
    1C        H  801   3.823   4.631   5.018
    1C        H  802   3.582   4.618   5.041
    1C        H  803   3.395   4.483   5.041
    1C        H  804   3.162   4.484   5.051
    1C        H  805   3.892   2.463   5.056
    1C        H  806   3.673   2.458   5.071
    1C        H  807   2.985   2.537   5.052
    1C        H  808   3.437   2.486   5.077
    1C        H  809   2.868   2.727   5.073
    1C        H  810   2.707   2.910   5.074
    1C        H  811   2.497   3.292   5.071
    1C        H  812   2.461   3.507   5.056
    1C        H  813   2.526   3.739   5.064
    1C        H  814   2.572   4.185   5.032
    1C        H  815   2.782   4.284   5.051
    1C        H  816   2.679   2.854   1.974
    1C        H  817   2.839   2.674   1.981
    1C        H  818   3.202   2.405   1.996
    1C        H  819   3.426   2.448   1.977
    1C        H  820   3.836   2.544   1.972
    1C        H  821   4.060   2.625   1.967
    1C        H  822   4.252   2.706   1.980
    1C        H  823   4.398   2.901   1.969
    1C        H  824   4.601   3.305   1.973
    1C        H  825   4.452   3.510   1.976
    1C        H  826   4.583   3.739   1.980
    1C        H  827   3.814   4.533   1.959
    1C        H  828   3.943   4.348   1.950
    1C        H  829   4.115   4.203   1.966
    1C        H  830   4.520   3.972   1.977
    1C        H  831   2.671   3.825   1.984
    1C        H  832   2.665   4.076   1.956
    1C        H  833   2.703   4.318   1.978
    1C        H  834   3.368   4.493   1.939
    1C        H  835   3.162   4.358   1.966
    1C        H  836   2.519   2.997   1.994
    1C        H  837   2.458   3.229   1.976
    1C        H  838   2.462   3.686   1.972
    2V3OU   H29  839   2.799   3.548   1.544
    2V3OU   C27  840   2.784   3.504   1.646
    2V3OU   H27  841   2.722   3.568   1.714
    2V3OU   H28  842   2.732   3.406   1.625
    2V3OU   O11  843   2.908   3.478   1.710
    2V3OU   C15  844   2.918   3.391   1.817
    2V3OU   C13  845   3.046   3.367   1.871
    2V3OU   C14  846   3.069   3.264   1.963
    2V3OU   C16  847   2.966   3.183   2.008
    2V3OU    H6  848   2.989   3.096   2.071
    2V3OU   C12  849   3.208   3.228   2.002
    2V3OU    O2  850   3.240   3.121   2.058
    2V3OU   C10  851   3.324   3.299   1.947
    2V3OU    C8  852   3.454   3.265   1.985
    2V3OU   O10  853   3.492   3.148   2.042
    2V3OU   H26  854   3.404   3.112   2.064
    2V3OU    C6  855   3.561   3.348   1.940
    2V3OU    C5  856   3.536   3.463   1.866
    2V3OU    C4  857   3.699   3.293   1.929
    2V3OU    H4  858   3.720   3.222   2.014
    2V3OU    H5  859   3.708   3.232   1.835
    2V3OU    C2  860   3.812   3.396   1.927
    2V3OU    O6  861   3.804   3.467   2.051
    2V3OU   H21  862   3.764   3.550   2.022
    2V3OU    C3  863   3.779   3.495   1.815
    2V3OU    H2  864   3.860   3.572   1.806
    2V3OU    H3  865   3.780   3.439   1.719
    2V3OU   C25  866   3.942   3.316   1.917
    2V3OU    O7  867   3.995   3.285   1.811
    2V3OU   C26  868   4.023   3.285   2.042
    2V3OU   H22  869   4.059   3.383   2.084
    2V3OU   H23  870   4.112   3.222   2.015
    2V3OU    O8  871   3.956   3.209   2.139
    2V3OU   H24  872   3.918   3.267   2.207
    2V3OU    C1  873   3.644   3.562   1.834
    2V3OU    H1  874   3.622   3.620   1.740
    2V3OU    O3  875   3.651   3.652   1.944
    2V3OU   C19  876   3.618   3.791   1.936
    2V3OU    H9  877   3.514   3.800   1.892
    2V3OU    O4  878   3.713   3.847   1.848
    2V3OU   C20  879   3.840   3.873   1.909
    2V3OU   H10  880   3.898   3.780   1.933
    2V3OU   C24  881   3.607   3.852   2.075
    2V3OU   H16  882   3.540   3.791   2.141
    2V3OU   H17  883   3.560   3.952   2.056
    2V3OU   C23  884   3.743   3.876   2.141
    2V3OU   H15  885   3.787   3.772   2.159
    2V3OU    N1  886   3.729   3.952   2.264
    2V3OU   H19  887   3.808   3.932   2.323
    2V3OU   H20  888   3.645   3.927   2.312
    2V3OU   C21  889   3.845   3.944   2.045
    2V3OU   H11  890   3.950   3.927   2.084
    2V3OU    O5  891   3.820   4.084   2.050
    2V3OU   H18  892   3.785   4.103   2.139
    2V3OU   C22  893   3.914   3.950   1.801
    2V3OU   H12  894   3.861   4.047   1.783
    2V3OU   H13  895   3.910   3.892   1.705
    2V3OU   H14  896   4.022   3.962   1.830
    2V3OU   C11  897   3.157   3.462   1.859
    2V3OU    O1  898   3.128   3.582   1.838
    2V3OU    C9  899   3.297   3.418   1.874
    2V3OU    C7  900   3.402   3.500   1.833
    2V3OU    O9  901   3.387   3.605   1.745
    2V3OU   H25  902   3.291   3.620   1.744
    2V3OU   C17  903   2.813   3.311   1.869
    2V3OU    H7  904   2.714   3.337   1.832
    2V3OU   C18  905   2.838   3.211   1.962
    2V3OU    H8  906   2.757   3.139   1.981
    3SOL     OW  907   2.299   3.921   0.995
    3SOL    HW1  908   2.216   3.972   0.973
    3SOL    HW2  909   2.294   3.829   0.957
    4SOL     OW  910   0.054   6.028   1.876
    4SOL    HW1  911   0.078   6.003   1.783
    4SOL    HW2  912   0.062   5.948   1.936
    5SOL     OW  913   3.988   1.534   2.023
    5SOL    HW1  914   3.904   1.554   1.973
    5SOL    HW2  915   4.037   1.619   2.044
    6SOL     OW  916   3.622   2.061   2.219
    6SOL    HW1  917   3.696   2.083   2.282
    6SOL    HW2  918   3.632   2.116   2.136
    7SOL     OW  919   6.457   2.426   1.806
    7SOL    HW1  920   6.414   2.465   1.726
    7SOL    HW2  921   6.491   2.334   1.785
    8SOL     OW  922   2.388   6.609   5.276
    8SOL    HW1  923   2.430   6.656   5.199
    8SOL    HW2  924   2.458   6.559   5.326
    9SOL     OW  925   1.356   5.545   5.774
    9SOL    HW1  926   1.377   5.516   5.867
    9SOL    HW2  927   1.371   5.468   5.711
   10SOL     OW  928   0.178   4.272   5.794
   10SOL    HW1  929   0.202   4.302   5.886
   10SOL    HW2  930   0.158   4.352   5.737
   11SOL     OW  931   2.958   0.153   0.473
   11SOL    HW1  932   2.997   0.161   0.565
   11SOL    HW2  933   2.877   0.095   0.476
   12SOL     OW  934   4.723   6.083   3.257
   12SOL    HW1  935   4.676   6.078   3.169
   12SOL    HW2  936   4.702   6.001   3.310
   13SOL     OW  937   3.339   6.073   4.457
   13SOL    HW1  938   3.244   6.101   4.469
   13SOL    HW2  939   3.346   5.974   4.466
   14SOL     OW  940   3.628   5.865   6.216
   14SOL    HW1  941   3.627   5.842   6.314
   14SOL    HW2  942   3.639   5.964   6.206
   15SOL     OW  943   1.572   5.966   0.245
   15SOL    HW1  944   1.576   5.910   0.162
   15SOL    HW2  945   1.569   5.907   0.325
   16SOL     OW  946   6.492   1.920   5.659
   16SOL    HW1  947   6.412   1.948   5.606
   16SOL    HW2  948   6.537   1.843   5.613
   17SOL     OW  949   5.128   6.067   4.569
   17SOL    HW1  950   5.078   6.048   4.484
   17SOL    HW2  951   5.064   6.064   4.646
   18SOL     OW  952   3.048   2.242   6.462
   18SOL    HW1  953   3.109   2.317   6.486
   18SOL    HW2  954   3.100   2.170   6.416
   19SOL     OW  955   0.323   6.876   3.091
   19SOL    HW1  956   0.248   6.884   3.156
   19SOL    HW2  957   0.390   6.809   3.125
   20SOL     OW  958   3.195   0.875   4.136
   20SOL    HW1  959   3.196   0.971   4.165
   20SOL    HW2  960   3.247   0.865   4.051
   21SOL     OW  961   2.954   1.638   2.479
   21SOL    HW1  962   2.979   1.718   2.425
   21SOL    HW2  963   2.910   1.570   2.420
   22SOL     OW  964   1.852   0.564   0.032
   22SOL    HW1  965   1.758   0.571   7.017
   22SOL    HW2  966   1.900   0.493   7.000
   23SOL     OW  967   4.627   6.788   3.488
   23SOL    HW1  968   4.560   6.862   3.481
   23SOL    HW2  969   4.579   6.700   3.492
   24SOL     OW  970   5.248   1.342   4.676
   24SOL    HW1  971   5.306   1.398   4.734
   24SOL    HW2  972   5.153   1.348   4.709
   25SOL     OW  973   2.917   5.867   6.230
   25SOL    HW1  974   2.883   5.915   6.149
   25SOL    HW2  975   3.013   5.890   6.244
   26SOL     OW  976   6.195   1.166   1.419
   26SOL    HW1  977   6.125   1.167   1.348
   26SOL    HW2  978   6.282   1.198   1.381
   27SOL     OW  979   6.979   0.559   2.398
   27SOL    HW1  980   0.059   0.553   2.385
   27SOL    HW2  981   6.933   0.539   2.311
   28SOL     OW  982   4.657   0.757   6.686
   28SOL    HW1  983   4.575   0.803   6.654
   28SOL    HW2  984   4.722   0.825   6.719
   29SOL     OW  985   4.904   2.570   2.095
   29SOL    HW1  986   4.973   2.641   2.081
   29SOL    HW2  987   4.857   2.551   2.009
   30SOL     OW  988   2.673   6.892   5.778
   30SOL    HW1  989   2.735   6.872   5.854
   30SOL    HW2  990   2.705   6.845   5.696
   31SOL     OW  991   0.634   1.271   5.584
   31SOL    HW1  992   0.625   1.365   5.551
   31SOL    HW2  993   0.721   1.233   5.552
   32SOL     OW  994   0.393   2.700   3.036
   32SOL    HW1  995   0.449   2.618   3.028
   32SOL    HW2  996   0.371   2.716   3.132
   33SOL     OW  997   1.884   2.832   6.224
   33SOL    HW1  998   1.867   2.766   6.151
   33SOL    HW2  999   1.814   2.903   6.221
   34SOL     OW 1000   1.625   0.443   4.774
   34SOL    HW1 1001   1.665   0.512   4.834
   34SOL    HW2 1002   1.696   0.379   4.745
   35SOL     OW 1003   4.626   2.670   6.229
   35SOL    HW1 1004   4.554   2.710   6.173
   35SOL    HW2 1005   4.667   2.593   6.180
   36SOL     OW 1006   0.649   0.640   6.353
   36SOL    HW1 1007   0.609   0.712   6.296
   36SOL    HW2 1008   0.601   0.554   6.336
   37SOL     OW 1009   2.326   6.698   0.824
   37SOL    HW1 1010   2.285   6.660   0.907
   37SOL    HW2 1011   2.426   6.694   0.832
   38SOL     OW 1012   0.260   5.779   3.003
   38SOL    HW1 1013   0.188   5.849   3.001
   38SOL    HW2 1014   0.311   5.782   2.917
   39SOL     OW 1015   6.383   3.946   6.278
   39SOL    HW1 1016   6.362   3.849   6.281
   39SOL    HW2 1017   6.463   3.965   6.334
   40SOL     OW 1018   6.528   2.539   2.427
   40SOL    HW1 1019   6.527   2.586   2.340
   40SOL    HW2 1020   6.470   2.587   2.492
   41SOL     OW 1021   1.581   6.325   4.000
   41SOL    HW1 1022   1.608   6.368   4.085
   41SOL    HW2 1023   1.522   6.388   3.948
   42SOL     OW 1024   2.790   6.658   6.062
   42SOL    HW1 1025   2.797   6.757   6.066
   42SOL    HW2 1026   2.871   6.617   6.106
   43SOL     OW 1027   5.918   5.774   6.157
   43SOL    HW1 1028   5.882   5.712   6.226
   43SOL    HW2 1029   5.968   5.722   6.088
   44SOL     OW 1030   6.714   2.673   6.460
   44SOL    HW1 1031   6.659   2.755   6.474
   44SOL    HW2 1032   6.697   2.638   6.368
   45SOL     OW 1033   3.721   0.200   2.806
   45SOL    HW1 1034   3.745   0.260   2.882
   45SOL    HW2 1035   3.795   0.135   2.790
   46SOL     OW 1036   0.974   3.633   4.358
   46SOL    HW1 1037   0.964   3.538   4.388
   46SOL    HW2 1038   1.002   3.635   4.262
   47SOL     OW 1039   6.144   3.241   3.651
   47SOL    HW1 1040   6.172   3.330   3.687
   47SOL    HW2 1041   6.201   3.216   3.573
   48SOL     OW 1042   0.886   2.208   5.094
   48SOL    HW1 1043   0.803   2.153   5.103
   48SOL    HW2 1044   0.926   2.192   5.004
   49SOL     OW 1045   4.701   3.879   1.759
   49SOL    HW1 1046   4.653   3.966   1.745
   49SOL    HW2 1047   4.758   3.884   1.840
   50SOL     OW 1048   6.855   3.028   4.828
   50SOL    HW1 1049   6.890   2.954   4.885
   50SOL    HW2 1050   6.876   3.116   4.870
   51SOL     OW 1051   2.818   5.595   2.816
   51SOL    HW1 1052   2.881   5.660   2.857
   51SOL    HW2 1053   2.827   5.597   2.717
   52SOL     OW 1054   3.632   1.618   3.530
   52SOL    HW1 1055   3.696   1.541   3.527
   52SOL    HW2 1056   3.683   1.704   3.529
   53SOL     OW 1057   4.389   0.604   3.630
   53SOL    HW1 1058   4.405   0.600   3.531
   53SOL    HW2 1059   4.450   0.540   3.676
   54SOL     OW 1060   2.729   5.038   6.452
   54SOL    HW1 1061   2.753   5.018   6.357
   54SOL    HW2 1062   2.646   5.094   6.455
   55SOL     OW 1063   3.848   1.362   6.099
   55SOL    HW1 1064   3.820   1.455   6.074
   55SOL    HW2 1065   3.773   1.316   6.144
   56SOL     OW 1066   1.902   0.453   1.663
   56SOL    HW1 1067   1.964   0.521   1.624
   56SOL    HW2 1068   1.824   0.439   1.602
   57SOL     OW 1069   5.004   0.337   0.754
   57SOL    HW1 1070   5.062   0.415   0.730
   57SOL    HW2 1071   4.997   0.275   0.676
   58SOL     OW 1072   0.376   5.594   6.470
   58SOL    HW1 1073   0.305   5.590   6.541
   58SOL    HW2 1074   0.451   5.652   6.502
   59SOL     OW 1075   1.751   1.001   6.090
   59SOL    HW1 1076   1.781   0.910   6.062
   59SOL    HW2 1077   1.668   0.994   6.146
   60SOL     OW 1078   5.130   0.700   6.050
   60SOL    HW1 1079   5.145   0.613   6.098
   60SOL    HW2 1080   5.168   0.775   6.104
   61SOL     OW 1081   4.934   1.089   4.049
   61SOL    HW1 1082   4.844   1.055   4.020
   61SOL    HW2 1083   5.002   1.016   4.039
   62SOL     OW 1084   0.685   1.191   3.593
   62SOL    HW1 1085   0.763   1.213   3.652
   62SOL    HW2 1086   0.604   1.240   3.624
   63SOL     OW 1087   6.640   1.902   3.689
   63SOL    HW1 1088   6.600   1.837   3.624
   63SOL    HW2 1089   6.723   1.863   3.728
   64SOL     OW 1090   6.634   3.775   6.506
   64SOL    HW1 1091   6.697   3.832   6.453
   64SOL    HW2 1092   6.684   3.707   6.558
   65SOL     OW 1093   6.250   4.196   5.612
   65SOL    HW1 1094   6.317   4.127   5.584
   65SOL    HW2 1095   6.197   4.161   5.689
   66SOL     OW 1096   3.383   1.091   6.667
   66SOL    HW1 1097   3.294   1.048   6.651
   66SOL    HW2 1098   3.397   1.101   6.766
   67SOL     OW 1099   5.541   5.965   5.483
   67SOL    HW1 1100   5.627   5.975   5.534
   67SOL    HW2 1101   5.556   5.995   5.389
   68SOL     OW 1102   6.047   1.167   6.615
   68SOL    HW1 1103   6.067   1.112   6.696
   68SOL    HW2 1104   6.113   1.242   6.608
   69SOL     OW 1105   1.392   4.368   6.202
   69SOL    HW1 1106   1.448   4.450   6.193
   69SOL    HW2 1107   1.452   4.288   6.204
   70SOL     OW 1108   6.803   5.827   2.993
   70SOL    HW1 1109   6.728   5.818   2.927
   70SOL    HW2 1110   6.766   5.822   3.085
   71SOL     OW 1111   2.938   2.201   3.001
   71SOL    HW1 1112   2.932   2.129   2.932
   71SOL    HW2 1113   2.921   2.290   2.958
   72SOL     OW 1114   2.460   6.185   4.486
   72SOL    HW1 1115   2.489   6.107   4.540
   72SOL    HW2 1116   2.526   6.259   4.496
   73SOL     OW 1117   3.414   2.267   0.064
   73SOL    HW1 1118   3.356   2.349   0.070
   73SOL    HW2 1119   3.369   2.192   0.112
   74SOL     OW 1120   5.192   6.684   0.363
   74SOL    HW1 1121   5.265   6.718   0.302
   74SOL    HW2 1122   5.121   6.640   0.308
   75SOL     OW 1123   3.366   5.434   5.442
   75SOL    HW1 1124   3.379   5.460   5.346
   75SOL    HW2 1125   3.454   5.440   5.490
   76SOL     OW 1126   2.031   2.522   1.353
   76SOL    HW1 1127   2.087   2.455   1.402
   76SOL    HW2 1128   2.008   2.487   1.262
   77SOL     OW 1129   4.711   5.442   4.621
   77SOL    HW1 1130   4.744   5.361   4.572
   77SOL    HW2 1131   4.690   5.417   4.716
   78SOL     OW 1132   0.117   6.656   6.315
   78SOL    HW1 1133   0.042   6.715   6.344
   78SOL    HW2 1134   0.199   6.678   6.366
   79SOL     OW 1135   2.782   6.811   0.298
   79SOL    HW1 1136   2.879   6.800   0.321
   79SOL    HW2 1137   2.766   6.783   0.204
   80SOL     OW 1138   6.156   0.631   4.481
   80SOL    HW1 1139   6.185   0.625   4.385
   80SOL    HW2 1140   6.189   0.716   4.521
   81SOL     OW 1141   2.249   0.166   2.787
   81SOL    HW1 1142   2.195   0.196   2.865
   81SOL    HW2 1143   2.280   0.072   2.801
   82SOL     OW 1144   6.882   5.501   0.050
   82SOL    HW1 1145   6.784   5.504   0.028
   82SOL    HW2 1146   6.895   5.469   0.143
   83SOL     OW 1147   6.463   0.092   0.496
   83SOL    HW1 1148   6.535   0.027   0.518
   83SOL    HW2 1149   6.493   0.184   0.520
   84SOL     OW 1150   4.932   3.495   2.922
   84SOL    HW1 1151   4.947   3.525   2.828
   84SOL    HW2 1152   4.916   3.397   2.925
   85SOL     OW 1153   0.506   1.353   5.285
   85SOL    HW1 1154   0.560   1.398   5.357
   85SOL    HW2 1155   0.515   1.405   5.200
   86SOL     OW 1156   0.971   0.367   5.858
   86SOL    HW1 1157   1.037   0.308   5.905
   86SOL    HW2 1158   0.974   0.348   5.760
   87SOL     OW 1159   4.673   2.766   0.406
   87SOL    HW1 1160   4.601   2.779   0.474
   87SOL    HW2 1161   4.650   2.818   0.324
   88SOL     OW 1162   4.706   2.055   0.364
   88SOL    HW1 1163   4.641   2.066   0.439
   88SOL    HW2 1164   4.665   2.088   0.279
   89SOL     OW 1165   1.992   2.864   6.817
   89SOL    HW1 1166   1.928   2.940   6.817
   89SOL    HW2 1167   2.026   2.848   6.725
   90SOL     OW 1168   5.006   0.059   3.950
   90SOL    HW1 1169   5.091   0.006   3.952
   90SOL    HW2 1170   4.958   0.047   4.037
   91SOL     OW 1171   4.916   4.743   4.236
   91SOL    HW1 1172   4.827   4.712   4.269
   91SOL    HW2 1173   4.919   4.737   4.136
   92SOL     OW 1174   3.002   5.099   0.390
   92SOL    HW1 1175   3.038   5.040   0.462
   92SOL    HW2 1176   3.015   5.054   0.301
   93SOL     OW 1177   2.509   4.310   6.145
   93SOL    HW1 1178   2.519   4.407   6.165
   93SOL    HW2 1179   2.567   4.285   6.067
   94SOL     OW 1180   2.672   5.533   6.676
   94SOL    HW1 1181   2.726   5.572   6.602
   94SOL    HW2 1182   2.576   5.553   6.662
   95SOL     OW 1183   0.585   2.266   3.417
   95SOL    HW1 1184   0.537   2.260   3.330
   95SOL    HW2 1185   0.521   2.247   3.492
   96SOL     OW 1186   2.707   0.112   5.985
   96SOL    HW1 1187   2.762   0.029   5.992
   96SOL    HW2 1188   2.729   0.159   5.899
   97SOL     OW 1189   0.033   4.093   5.228
   97SOL    HW1 1190   0.005   4.116   5.321
   97SOL    HW2 1191   0.042   3.994   5.220
   98SOL     OW 1192   6.270   3.610   6.813
   98SOL    HW1 1193   6.241   3.638   6.721
   98SOL    HW2 1194   6.311   3.688   6.860
   99SOL     OW 1195   4.452   3.524   1.365
   99SOL    HW1 1196   4.507   3.441   1.377
   99SOL    HW2 1197   4.402   3.543   1.449
  100SOL     OW 1198   0.511   0.023   6.134
  100SOL    HW1 1199   0.433   6.985   6.160
  100SOL    HW2 1200   0.590   7.018   6.191
  101SOL     OW 1201   0.861   5.760   2.313
  101SOL    HW1 1202   0.927   5.790   2.382
  101SOL    HW2 1203   0.768   5.782   2.344
  102SOL     OW 1204   4.767   1.197   2.618
  102SOL    HW1 1205   4.669   1.185   2.628
  102SOL    HW2 1206   4.791   1.209   2.522
  103SOL     OW 1207   4.320   1.629   1.860
  103SOL    HW1 1208   4.290   1.646   1.766
  103SOL    HW2 1209   4.277   1.544   1.893
  104SOL     OW 1210   0.191   5.666   2.608
  104SOL    HW1 1211   0.195   5.569   2.633
  104SOL    HW2 1212   0.154   5.675   2.516
  105SOL     OW 1213   6.310   1.630   6.616
  105SOL    HW1 1214   6.274   1.630   6.522
  105SOL    HW2 1215   6.259   1.695   6.671
  106SOL     OW 1216   3.278   0.022   6.045
  106SOL    HW1 1217   3.222   7.017   5.965
  106SOL    HW2 1218   3.280   6.963   6.108
  107SOL     OW 1219   1.682   2.155   1.801
  107SOL    HW1 1220   1.613   2.182   1.868
  107SOL    HW2 1221   1.773   2.168   1.841
  108SOL     OW 1222   5.098   4.629   0.045
  108SOL    HW1 1223   5.055   4.557   7.009
  108SOL    HW2 1224   5.033   4.703   0.061
  109SOL     OW 1225   0.555   0.234   1.225
  109SOL    HW1 1226   0.471   0.230   1.171
  109SOL    HW2 1227   0.581   0.330   1.238
  110SOL     OW 1228   4.120   6.465   5.461
  110SOL    HW1 1229   4.133   6.483   5.364
  110SOL    HW2 1230   4.032   6.502   5.491
  111SOL     OW 1231   3.975   0.753   4.165
  111SOL    HW1 1232   3.971   0.702   4.250
  111SOL    HW2 1233   3.900   0.724   4.105
  112SOL     OW 1234   6.074   5.965   6.256
  112SOL    HW1 1235   6.092   5.949   6.353
  112SOL    HW2 1236   6.034   5.883   6.215
  113SOL     OW 1237   6.812   4.532   3.371
  113SOL    HW1 1238   6.908   4.548   3.393
  113SOL    HW2 1239   6.801   4.533   3.271
  114SOL     OW 1240   0.742   7.014   0.483
  114SOL    HW1 1241   0.670   0.063   0.500
  114SOL    HW2 1242   0.811   0.002   0.556
  115SOL     OW 1243   4.460   1.305   4.244
  115SOL    HW1 1244   4.487   1.210   4.261
  115SOL    HW2 1245   4.370   1.322   4.283
  116SOL     OW 1246   6.156   5.590   2.310
  116SOL    HW1 1247   6.116   5.524   2.374
  116SOL    HW2 1248   6.129   5.566   2.217
  117SOL     OW 1249   0.592   1.509   6.504
  117SOL    HW1 1250   0.639   1.434   6.457
  117SOL    HW2 1251   0.613   1.595   6.459
  118SOL     OW 1252   0.341   1.586   2.354
  118SOL    HW1 1253   0.281   1.599   2.275
  118SOL    HW2 1254   0.435   1.573   2.321
  119SOL     OW 1255   0.792   2.481   6.701
  119SOL    HW1 1256   0.750   2.390   6.697
  119SOL    HW2 1257   0.881   2.474   6.744
  120SOL     OW 1258   0.008   6.738   0.871
  120SOL    HW1 1259   6.956   6.808   0.879
  120SOL    HW2 1260   0.030   6.701   0.961
  121SOL     OW 1261   2.570   3.541   0.353
  121SOL    HW1 1262   2.594   3.535   0.256
  121SOL    HW2 1263   2.653   3.547   0.408
  122SOL     OW 1264   1.242   4.340   5.984
  122SOL    HW1 1265   1.297   4.360   6.065
  122SOL    HW2 1266   1.296   4.285   5.920
  123SOL     OW 1267   0.439   1.913   1.606
  123SOL    HW1 1268   0.457   1.815   1.603
  123SOL    HW2 1269   0.496   1.960   1.539
  124SOL     OW 1270   5.396   3.430   0.162
  124SOL    HW1 1271   5.356   3.521   0.172
  124SOL    HW2 1272   5.460   3.431   0.084
  125SOL     OW 1273   2.296   1.731   2.742
  125SOL    HW1 1274   2.216   1.685   2.778
  125SOL    HW2 1275   2.327   1.685   2.659
  126SOL     OW 1276   2.855   5.153   0.682
  126SOL    HW1 1277   2.815   5.106   0.603
  126SOL    HW2 1278   2.787   5.213   0.723
  127SOL     OW 1279   0.160   4.864   6.371
  127SOL    HW1 1280   0.225   4.794   6.400
  127SOL    HW2 1281   0.068   4.837   6.399
  128SOL     OW 1282   4.297   2.842   1.458
  128SOL    HW1 1283   4.360   2.881   1.526
  128SOL    HW2 1284   4.304   2.895   1.373
  129SOL     OW 1285   4.170   3.788   5.757
  129SOL    HW1 1286   4.230   3.723   5.804
  129SOL    HW2 1287   4.075   3.758   5.765
  130SOL     OW 1288   0.691   0.621   4.361
  130SOL    HW1 1289   0.688   0.666   4.272
  130SOL    HW2 1290   0.761   0.549   4.359
  131SOL     OW 1291   4.906   0.923   2.315
  131SOL    HW1 1292   4.907   0.823   2.319
  131SOL    HW2 1293   4.989   0.959   2.357
  132SOL     OW 1294   1.719   3.101   0.668
  132SOL    HW1 1295   1.761   3.107   0.758
  132SOL    HW2 1296   1.715   3.192   0.627
  133SOL     OW 1297   5.687   6.862   3.421
  133SOL    HW1 1298   5.637   6.835   3.338
  133SOL    HW2 1299   5.665   6.956   3.443
  134SOL     OW 1300   5.705   2.495   3.025
  134SOL    HW1 1301   5.681   2.401   3.050
  134SOL    HW2 1302   5.634   2.557   3.058
  135SOL     OW 1303   5.022   2.521   2.684
  135SOL    HW1 1304   5.045   2.501   2.589
  135SOL    HW2 1305   5.078   2.598   2.716
  136SOL     OW 1306   4.422   4.164   0.056
  136SOL    HW1 1307   4.381   4.113   0.132
  136SOL    HW2 1308   4.432   4.260   0.082
  137SOL     OW 1309   4.290   0.267   5.369
  137SOL    HW1 1310   4.299   0.224   5.458
  137SOL    HW2 1311   4.236   0.208   5.309
  138SOL     OW 1312   0.390   4.799   4.387
  138SOL    HW1 1313   0.395   4.880   4.444
  138SOL    HW2 1314   0.453   4.729   4.421
  139SOL     OW 1315   2.300   6.069   5.170
  139SOL    HW1 1316   2.337   6.067   5.078
  139SOL    HW2 1317   2.262   5.979   5.194
  140SOL     OW 1318   6.976   5.792   3.982
  140SOL    HW1 1319   7.013   5.759   3.895
  140SOL    HW2 1320   6.900   5.734   4.010
  141SOL     OW 1321   0.151   1.865   5.290
  141SOL    HW1 1322   0.113   1.933   5.354
  141SOL    HW2 1323   0.081   1.839   5.224
  142SOL     OW 1324   2.101   6.029   1.025
  142SOL    HW1 1325   2.150   6.116   1.016
  142SOL    HW2 1326   2.134   5.965   0.956
  143SOL     OW 1327   5.309   4.787   2.340
  143SOL    HW1 1328   5.311   4.738   2.427
  143SOL    HW2 1329   5.277   4.725   2.268
  144SOL     OW 1330   1.862   6.484   6.109
  144SOL    HW1 1331   1.799   6.426   6.057
  144SOL    HW2 1332   1.845   6.580   6.087
  145SOL     OW 1333   0.839   4.919   0.646
  145SOL    HW1 1334   0.828   5.010   0.605
  145SOL    HW2 1335   0.750   4.885   0.675
  146SOL     OW 1336   4.259   6.702   6.045
  146SOL    HW1 1337   4.258   6.792   6.088
  146SOL    HW2 1338   4.167   6.663   6.048
  147SOL     OW 1339   6.077   2.688   0.374
  147SOL    HW1 1340   6.104   2.739   0.455
  147SOL    HW2 1341   6.154   2.683   0.311
  148SOL     OW 1342   0.456   4.902   5.989
  148SOL    HW1 1343   0.374   4.845   5.981
  148SOL    HW2 1344   0.433   4.988   6.033
  149SOL     OW 1345   2.950   1.255   4.083
  149SOL    HW1 1346   2.936   1.164   4.123
  149SOL    HW2 1347   3.047   1.279   4.088
  150SOL     OW 1348   6.494   5.056   6.159
  150SOL    HW1 1349   6.518   5.052   6.062
  150SOL    HW2 1350   6.453   5.146   6.179
  151SOL     OW 1351   3.696   2.265   1.311
  151SOL    HW1 1352   3.683   2.182   1.257
  151SOL    HW2 1353   3.770   2.250   1.376
  152SOL     OW 1354   1.787   1.074   4.436
  152SOL    HW1 1355   1.705   1.127   4.459
  152SOL    HW2 1356   1.771   0.977   4.455
  153SOL     OW 1357   2.758   6.933   1.883
  153SOL    HW1 1358   2.665   6.954   1.912
  153SOL    HW2 1359   2.795   7.010   1.830
  154SOL     OW 1360   0.065   3.172   2.335
  154SOL    HW1 1361   0.147   3.216   2.298
  154SOL    HW2 1362   0.015   3.127   2.261
  155SOL     OW 1363   0.401   1.596   3.651
  155SOL    HW1 1364   0.401   1.497   3.663
  155SOL    HW2 1365   0.391   1.618   3.553
  156SOL     OW 1366   6.814   1.714   1.419
  156SOL    HW1 1367   6.819   1.670   1.508
  156SOL    HW2 1368   6.811   1.814   1.431
  157SOL     OW 1369   5.851   3.254   1.937
  157SOL    HW1 1370   5.896   3.175   1.894
  157SOL    HW2 1371   5.920   3.318   1.969
  158SOL     OW 1372   2.812   0.101   2.271
  158SOL    HW1 1373   2.791   0.066   2.362
  158SOL    HW2 1374   2.892   0.054   2.235
  159SOL     OW 1375   4.666   4.616   1.101
  159SOL    HW1 1376   4.702   4.629   1.008
  159SOL    HW2 1377   4.597   4.686   1.120
  160SOL     OW 1378   6.902   4.794   6.420
  160SOL    HW1 1379   6.902   4.778   6.519
  160SOL    HW2 1380   6.831   4.861   6.398
  161SOL     OW 1381   1.672   4.744   4.764
  161SOL    HW1 1382   1.739   4.809   4.800
  161SOL    HW2 1383   1.584   4.757   4.809
  162SOL     OW 1384   4.109   6.502   0.433
  162SOL    HW1 1385   4.073   6.571   0.370
  162SOL    HW2 1386   4.079   6.411   0.404
  163SOL     OW 1387   4.544   5.772   1.319
  163SOL    HW1 1388   4.534   5.787   1.417
  163SOL    HW2 1389   4.553   5.860   1.272
  164SOL     OW 1390   6.874   3.785   1.641
  164SOL    HW1 1391   6.936   3.862   1.655
  164SOL    HW2 1392   6.927   3.704   1.617
  165SOL     OW 1393   5.088   3.017   1.140
  165SOL    HW1 1394   5.020   2.956   1.180
  165SOL    HW2 1395   5.091   3.004   1.041
  166SOL     OW 1396   0.019   5.102   3.570
  166SOL    HW1 1397   0.054   5.079   3.660
  166SOL    HW2 1398   6.970   5.033   3.542
  167SOL     OW 1399   6.152   1.995   0.606
  167SOL    HW1 1400   6.240   1.947   0.605
  167SOL    HW2 1401   6.078   1.931   0.625
  168SOL     OW 1402   2.751   3.809   0.778
  168SOL    HW1 1403   2.707   3.898   0.785
  168SOL    HW2 1404   2.829   3.805   0.840
  169SOL     OW 1405   3.811   0.143   1.884
  169SOL    HW1 1406   3.729   0.106   1.841
  169SOL    HW2 1407   3.798   0.241   1.901
  170SOL     OW 1408   0.549   1.792   3.920
  170SOL    HW1 1409   0.474   1.852   3.948
  170SOL    HW2 1410   0.514   1.701   3.901
  171SOL     OW 1411   3.485   4.033   0.191
  171SOL    HW1 1412   3.486   4.118   0.139
  171SOL    HW2 1413   3.550   4.038   0.266
  172SOL     OW 1414   5.981   1.311   4.257
  172SOL    HW1 1415   5.958   1.342   4.165
  172SOL    HW2 1416   5.922   1.356   4.324
  173SOL     OW 1417   6.418   0.450   4.587
  173SOL    HW1 1418   6.495   0.504   4.554
  173SOL    HW2 1419   6.450   0.382   4.653
  174SOL     OW 1420   2.859   5.398   3.637
  174SOL    HW1 1421   2.879   5.315   3.689
  174SOL    HW2 1422   2.857   5.476   3.700
  175SOL     OW 1423   2.199   0.072   1.838
  175SOL    HW1 1424   2.194   0.130   1.919
  175SOL    HW2 1425   2.127   0.003   1.841
  176SOL     OW 1426   1.901   3.895   0.744
  176SOL    HW1 1427   1.981   3.845   0.777
  176SOL    HW2 1428   1.932   3.977   0.695
  177SOL     OW 1429   5.419   2.813   2.892
  177SOL    HW1 1430   5.453   2.791   2.800
  177SOL    HW2 1431   5.352   2.887   2.886
  178SOL     OW 1432   4.734   3.625   6.062
  178SOL    HW1 1433   4.736   3.657   5.967
  178SOL    HW2 1434   4.761   3.700   6.122
  179SOL     OW 1435   2.900   1.593   6.333
  179SOL    HW1 1436   2.880   1.689   6.352
  179SOL    HW2 1437   2.910   1.544   6.419
  180SOL     OW 1438   1.309   1.122   6.404
  180SOL    HW1 1439   1.393   1.113   6.350
  180SOL    HW2 1440   1.327   1.092   6.498
  181SOL     OW 1441   3.570   1.355   6.943
  181SOL    HW1 1442   3.522   1.443   6.947
  181SOL    HW2 1443   3.505   1.280   6.948
  182SOL     OW 1444   4.194   2.338   4.645
  182SOL    HW1 1445   4.270   2.360   4.706
  182SOL    HW2 1446   4.116   2.397   4.665
  183SOL     OW 1447   3.532   0.928   2.981
  183SOL    HW1 1448   3.480   1.012   2.968
  183SOL    HW2 1449   3.491   0.854   2.927
  184SOL     OW 1450   1.549   5.730   3.577
  184SOL    HW1 1451   1.526   5.742   3.481
  184SOL    HW2 1452   1.474   5.764   3.634
  185SOL     OW 1453   1.613   2.589   6.332
  185SOL    HW1 1454   1.683   2.571   6.262
  185SOL    HW2 1455   1.553   2.510   6.341
  186SOL     OW 1456   6.723   0.801   3.456
  186SOL    HW1 1457   6.744   0.765   3.547
  186SOL    HW2 1458   6.654   0.873   3.464
  187SOL     OW 1459   5.111   1.143   3.141
  187SOL    HW1 1460   5.105   1.109   3.235
  187SOL    HW2 1461   5.155   1.074   3.084
  188SOL     OW 1462   5.959   2.481   3.145
  188SOL    HW1 1463   6.018   2.435   3.078
  188SOL    HW2 1464   5.867   2.490   3.107
  189SOL     OW 1465   1.730   5.357   2.846
  189SOL    HW1 1466   1.766   5.403   2.927
  189SOL    HW2 1467   1.773   5.394   2.764
  190SOL     OW 1468   3.901   1.336   5.236
  190SOL    HW1 1469   3.962   1.364   5.311
  190SOL    HW2 1470   3.811   1.376   5.251
  191SOL     OW 1471   5.683   5.453   6.498
  191SOL    HW1 1472   5.698   5.449   6.597
  191SOL    HW2 1473   5.673   5.360   6.462
  192SOL     OW 1474   0.249   6.498   2.191
  192SOL    HW1 1475   0.309   6.438   2.138
  192SOL    HW2 1476   0.223   6.576   2.135
  193SOL     OW 1477   4.939   2.690   5.971
  193SOL    HW1 1478   5.036   2.683   5.996
  193SOL    HW2 1479   4.930   2.690   5.872
  194SOL     OW 1480   3.714   0.641   3.052
  194SOL    HW1 1481   3.789   0.694   3.012
  194SOL    HW2 1482   3.630   0.696   3.052
  195SOL     OW 1483   1.764   6.184   3.843
  195SOL    HW1 1484   1.686   6.214   3.899
  195SOL    HW2 1485   1.737   6.107   3.786
  196SOL     OW 1486   2.737   2.763   6.832
  196SOL    HW1 1487   2.804   2.760   6.906
  196SOL    HW2 1488   2.662   2.701   6.852
  197SOL     OW 1489   2.334   1.726   1.327
  197SOL    HW1 1490   2.358   1.758   1.236
  197SOL    HW2 1491   2.321   1.626   1.325
  198SOL     OW 1492   4.353   1.046   3.011
  198SOL    HW1 1493   4.384   1.132   3.051
  198SOL    HW2 1494   4.431   0.982   3.005
  199SOL     OW 1495   1.459   2.745   3.807
  199SOL    HW1 1496   1.476   2.654   3.771
  199SOL    HW2 1497   1.361   2.757   3.824
  200SOL     OW 1498   0.628   2.640   1.113
  200SOL    HW1 1499   0.576   2.619   1.196
  200SOL    HW2 1500   0.650   2.555   1.065
  201SOL     OW 1501   0.176   0.391   6.200
  201SOL    HW1 1502   0.118   0.469   6.222
  201SOL    HW2 1503   0.252   0.388   6.265
  202SOL     OW 1504   4.506   0.956   6.472
  202SOL    HW1 1505   4.426   0.928   6.524
  202SOL    HW2 1506   4.491   1.048   6.435
  203SOL     OW 1507   6.176   2.494   5.673
  203SOL    HW1 1508   6.246   2.429   5.701
  203SOL    HW2 1509   6.161   2.486   5.575
  204SOL     OW 1510   0.586   0.211   5.622
  204SOL    HW1 1511   0.647   0.172   5.690
  204SOL    HW2 1512   0.619   0.190   5.530
  205SOL     OW 1513   1.483   2.039   2.847
  205SOL    HW1 1514   1.422   1.970   2.885
  205SOL    HW2 1515   1.454   2.130   2.877
  206SOL     OW 1516   0.591   3.187   1.780
  206SOL    HW1 1517   0.618   3.197   1.876
  206SOL    HW2 1518   0.600   3.091   1.753
  207SOL     OW 1519   5.449   1.331   2.916
  207SOL    HW1 1520   5.456   1.408   2.980
  207SOL    HW2 1521   5.437   1.365   2.823
  208SOL     OW 1522   6.813   4.188   5.503
  208SOL    HW1 1523   6.839   4.098   5.537
  208SOL    HW2 1524   6.880   4.257   5.532
  209SOL     OW 1525   6.616   4.481   2.654
  209SOL    HW1 1526   6.673   4.406   2.687
  209SOL    HW2 1527   6.540   4.444   2.600
  210SOL     OW 1528   4.164   2.094   0.422
  210SOL    HW1 1529   4.097   2.115   0.493
  210SOL    HW2 1530   4.205   2.179   0.389
  211SOL     OW 1531   1.003   0.153   2.616
  211SOL    HW1 1532   1.101   0.156   2.632
  211SOL    HW2 1533   0.955   0.154   2.704
  212SOL     OW 1534   1.462   3.886   2.702
  212SOL    HW1 1535   1.426   3.963   2.649
  212SOL    HW2 1536   1.536   3.842   2.650
  213SOL     OW 1537   2.056   5.680   0.738
  213SOL    HW1 1538   2.026   5.668   0.832
  213SOL    HW2 1539   2.134   5.743   0.735
  214SOL     OW 1540   3.913   5.171   2.243
  214SOL    HW1 1541   3.842   5.150   2.175
  214SOL    HW2 1542   3.984   5.100   2.240
  215SOL     OW 1543   2.487   4.551   1.142
  215SOL    HW1 1544   2.484   4.596   1.053
  215SOL    HW2 1545   2.443   4.461   1.135
  216SOL     OW 1546   0.939   0.309   2.933
  216SOL    HW1 1547   0.909   0.309   3.029
  216SOL    HW2 1548   0.871   0.356   2.877
  217SOL     OW 1549   1.391   2.640   5.343
  217SOL    HW1 1550   1.360   2.639   5.438
  217SOL    HW2 1551   1.458   2.567   5.329
  218SOL     OW 1552   1.068   1.924   4.733
  218SOL    HW1 1553   1.122   1.988   4.679
  218SOL    HW2 1554   1.081   1.831   4.697
  219SOL     OW 1555   4.555   0.711   0.522
  219SOL    HW1 1556   4.482   0.709   0.591
  219SOL    HW2 1557   4.516   0.737   0.434
  220SOL     OW 1558   2.725   0.364   0.751
  220SOL    HW1 1559   2.727   0.293   0.822
  220SOL    HW2 1560   2.773   0.445   0.784
  221SOL     OW 1561   6.087   4.786   1.553
  221SOL    HW1 1562   5.998   4.745   1.532
  221SOL    HW2 1563   6.157   4.714   1.558
  222SOL     OW 1564   1.438   4.345   6.611
  222SOL    HW1 1565   1.371   4.414   6.638
  222SOL    HW2 1566   1.435   4.269   6.675
  223SOL     OW 1567   0.211   2.602   4.898
  223SOL    HW1 1568   0.202   2.680   4.960
  223SOL    HW2 1569   0.200   2.634   4.804
  224SOL     OW 1570   3.482   2.061   5.849
  224SOL    HW1 1571   3.544   2.047   5.926
  224SOL    HW2 1572   3.398   2.009   5.864
  225SOL     OW 1573   4.172   3.397   5.878
  225SOL    HW1 1574   4.115   3.330   5.926
  225SOL    HW2 1575   4.199   3.470   5.941
  226SOL     OW 1576   0.731   1.618   6.259
  226SOL    HW1 1577   0.814   1.641   6.309
  226SOL    HW2 1578   0.744   1.532   6.209
  227SOL     OW 1579   2.365   4.473   2.585
  227SOL    HW1 1580   2.425   4.460   2.664
  227SOL    HW2 1581   2.344   4.385   2.544
  228SOL     OW 1582   2.189   1.000   3.195
  228SOL    HW1 1583   2.140   1.046   3.121
  228SOL    HW2 1584   2.125   0.980   3.270
  229SOL     OW 1585   5.268   5.124   6.448
  229SOL    HW1 1586   5.262   5.165   6.539
  229SOL    HW2 1587   5.280   5.196   6.379
  230SOL     OW 1588   4.265   6.035   4.834
  230SOL    HW1 1589   4.202   6.059   4.759
  230SOL    HW2 1590   4.353   6.079   4.818
  231SOL     OW 1591   5.438   1.491   6.624
  231SOL    HW1 1592   5.512   1.510   6.689
  231SOL    HW2 1593   5.422   1.572   6.568
  232SOL     OW 1594   6.870   3.072   6.413
  232SOL    HW1 1595   6.780   3.027   6.413
  232SOL    HW2 1596   6.858   3.170   6.430
  233SOL     OW 1597   3.417   2.102   3.630
  233SOL    HW1 1598   3.376   2.081   3.719
  233SOL    HW2 1599   3.349   2.146   3.571
  234SOL     OW 1600   5.963   0.793   6.344
  234SOL    HW1 1601   5.900   0.773   6.269
  234SOL    HW2 1602   6.057   0.791   6.310
  235SOL     OW 1603   5.313   3.377   2.299
  235SOL    HW1 1604   5.224   3.402   2.260
  235SOL    HW2 1605   5.386   3.409   2.239
  236SOL     OW 1606   5.020   3.185   6.944
  236SOL    HW1 1607   4.997   3.089   6.931
  236SOL    HW2 1608   5.057   3.198   0.017
  237SOL     OW 1609   0.258   4.328   2.033
  237SOL    HW1 1610   0.254   4.255   1.964
  237SOL    HW2 1611   0.348   4.371   2.030
  238SOL     OW 1612   6.499   1.094   0.770
  238SOL    HW1 1613   6.400   1.084   0.756
  238SOL    HW2 1614   6.533   1.016   0.823
  239SOL     OW 1615   0.879   3.853   0.332
  239SOL    HW1 1616   0.916   3.922   0.269
  239SOL    HW2 1617   0.891   3.885   0.426
  240SOL     OW 1618   0.334   2.936   3.495
  240SOL    HW1 1619   0.378   3.020   3.463
  240SOL    HW2 1620   0.296   2.951   3.586
  241SOL     OW 1621   2.373   2.464   4.214
  241SOL    HW1 1622   2.311   2.393   4.179
  241SOL    HW2 1623   2.326   2.552   4.214
  242SOL     OW 1624   3.341   3.770   3.263
  242SOL    HW1 1625   3.243   3.784   3.278
  242SOL    HW2 1626   3.393   3.826   3.327
  243SOL     OW 1627   4.375   1.681   6.882
  243SOL    HW1 1628   4.328   1.638   6.959
  243SOL    HW2 1629   4.470   1.702   6.908
  244SOL     OW 1630   5.895   3.580   6.076
  244SOL    HW1 1631   5.938   3.597   5.987
  244SOL    HW2 1632   5.898   3.482   6.095
  245SOL     OW 1633   4.121   1.930   3.885
  245SOL    HW1 1634   4.215   1.901   3.869
  245SOL    HW2 1635   4.113   2.028   3.867
  246SOL     OW 1636   4.929   1.926   3.134
  246SOL    HW1 1637   4.933   1.828   3.114
  246SOL    HW2 1638   4.963   1.977   3.055
  247SOL     OW 1639   2.599   1.811   1.000
  247SOL    HW1 1640   2.572   1.901   0.965
  247SOL    HW2 1641   2.688   1.786   0.962
  248SOL     OW 1642   2.010   0.789   2.854
  248SOL    HW1 1643   1.999   0.706   2.908
  248SOL    HW2 1644   1.924   0.812   2.809
  249SOL     OW 1645   5.168   0.073   5.146
  249SOL    HW1 1646   5.134   0.140   5.080
  249SOL    HW2 1647   5.176   0.116   5.236
  250SOL     OW 1648   4.066   3.697   0.671
  250SOL    HW1 1649   3.982   3.651   0.642
  250SOL    HW2 1650   4.144   3.637   0.654
  251SOL     OW 1651   4.701   3.415   5.346
  251SOL    HW1 1652   4.631   3.343   5.344
  251SOL    HW2 1653   4.668   3.494   5.296
  252SOL     OW 1654   5.899   6.937   5.555
  252SOL    HW1 1655   5.969   6.880   5.512
  252SOL    HW2 1656   5.867   7.006   5.489
  253SOL     OW 1657   3.852   4.865   6.162
  253SOL    HW1 1658   3.764   4.853   6.207
  253SOL    HW2 1659   3.858   4.956   6.123
  254SOL     OW 1660   6.990   2.219   3.609
  254SOL    HW1 1661   6.965   2.129   3.572
  254SOL    HW2 1662   6.952   2.228   3.702
  255SOL     OW 1663   1.515   4.631   5.963
  255SOL    HW1 1664   1.472   4.658   5.877
  255SOL    HW2 1665   1.543   4.535   5.958
  256SOL     OW 1666   5.416   3.186   6.019
  256SOL    HW1 1667   5.448   3.244   6.095
  256SOL    HW2 1668   5.483   3.189   5.945
  257SOL     OW 1669   5.446   6.852   2.673
  257SOL    HW1 1670   5.364   6.851   2.615
  257SOL    HW2 1671   5.420   6.830   2.767
  258SOL     OW 1672   2.340   3.801   5.418
  258SOL    HW1 1673   2.429   3.759   5.432
  258SOL    HW2 1674   2.345   3.865   5.341
  259SOL     OW 1675   5.715   0.985   1.930
  259SOL    HW1 1676   5.698   1.011   2.025
  259SOL    HW2 1677   5.660   1.041   1.870
  260SOL     OW 1678   3.823   5.514   3.013
  260SOL    HW1 1679   3.922   5.501   3.017
  260SOL    HW2 1680   3.801   5.582   2.943
  261SOL     OW 1681   5.557   4.670   1.569
  261SOL    HW1 1682   5.560   4.749   1.508
  261SOL    HW2 1683   5.568   4.586   1.515
  262SOL     OW 1684   1.719   4.023   0.900
  262SOL    HW1 1685   1.798   3.978   0.859
  262SOL    HW2 1686   1.648   3.956   0.920
  263SOL     OW 1687   1.416   0.555   4.516
  263SOL    HW1 1688   1.452   0.464   4.536
  263SOL    HW2 1689   1.474   0.600   4.449
  264SOL     OW 1690   6.533   2.630   0.384
  264SOL    HW1 1691   6.455   2.655   0.327
  264SOL    HW2 1692   6.568   2.712   0.429
  265SOL     OW 1693   6.333   6.262   2.747
  265SOL    HW1 1694   6.405   6.271   2.816
  265SOL    HW2 1695   6.344   6.175   2.698
  266SOL     OW 1696   4.682   2.946   5.890
  266SOL    HW1 1697   4.686   2.851   5.860
  266SOL    HW2 1698   4.593   2.985   5.869
  267SOL     OW 1699   0.935   1.378   5.350
  267SOL    HW1 1700   1.023   1.423   5.338
  267SOL    HW2 1701   0.862   1.446   5.341
  268SOL     OW 1702   3.073   1.094   6.358
  268SOL    HW1 1703   3.001   1.027   6.377
  268SOL    HW2 1704   3.056   1.177   6.411
  269SOL     OW 1705   2.477   2.980   0.550
  269SOL    HW1 1706   2.432   2.897   0.516
  269SOL    HW2 1707   2.558   2.955   0.603
  270SOL     OW 1708   0.581   6.241   0.354
  270SOL    HW1 1709   0.586   6.259   0.452
  270SOL    HW2 1710   0.640   6.306   0.305
  271SOL     OW 1711   0.337   1.706   6.824
  271SOL    HW1 1712   0.401   1.754   6.884
  271SOL    HW2 1713   0.244   1.731   6.849
  272SOL     OW 1714   3.751   6.362   4.011
  272SOL    HW1 1715   3.813   6.322   3.944
  272SOL    HW2 1716   3.670   6.303   4.021
  273SOL     OW 1717   1.780   4.853   5.125
  273SOL    HW1 1718   1.877   4.872   5.142
  273SOL    HW2 1719   1.745   4.919   5.058
  274SOL     OW 1720   3.339   1.204   3.224
  274SOL    HW1 1721   3.367   1.281   3.282
  274SOL    HW2 1722   3.397   1.125   3.244
  275SOL     OW 1723   6.801   6.207   2.801
  275SOL    HW1 1724   6.718   6.263   2.797
  275SOL    HW2 1725   6.861   6.242   2.872
  276SOL     OW 1726   0.112   6.784   3.776
  276SOL    HW1 1727   0.084   6.873   3.740
  276SOL    HW2 1728   0.037   6.719   3.766
  277SOL     OW 1729   1.982   3.655   6.870
  277SOL    HW1 1730   2.037   3.665   6.787
  277SOL    HW2 1731   2.003   3.567   6.913
  278SOL     OW 1732   0.113   3.232   2.611
  278SOL    HW1 1733   0.044   3.247   2.681
  278SOL    HW2 1734   0.069   3.201   2.527
  279SOL     OW 1735   5.237   2.848   4.305
  279SOL    HW1 1736   5.207   2.883   4.216
  279SOL    HW2 1737   5.336   2.835   4.303
  280SOL     OW 1738   2.703   5.375   1.478
  280SOL    HW1 1739   2.728   5.470   1.498
  280SOL    HW2 1740   2.741   5.315   1.549
  281SOL     OW 1741   2.006   4.620   1.610
  281SOL    HW1 1742   1.946   4.541   1.594
  281SOL    HW2 1743   2.100   4.589   1.617
  282SOL     OW 1744   3.037   1.201   5.427
  282SOL    HW1 1745   2.945   1.231   5.450
  282SOL    HW2 1746   3.033   1.132   5.354
  283SOL     OW 1747   5.583   2.555   6.847
  283SOL    HW1 1748   5.565   2.514   6.757
  283SOL    HW2 1749   5.680   2.578   6.854
  284SOL     OW 1750   1.437   3.328   4.050
  284SOL    HW1 1751   1.360   3.362   3.995
  284SOL    HW2 1752   1.523   3.351   4.004
  285SOL     OW 1753   5.431   4.822   4.231
  285SOL    HW1 1754   5.334   4.833   4.211
  285SOL    HW2 1755   5.480   4.800   4.147
  286SOL     OW 1756   3.235   4.201   6.698
  286SOL    HW1 1757   3.204   4.180   6.606
  286SOL    HW2 1758   3.277   4.291   6.700
  287SOL     OW 1759   1.727   3.148   1.122
  287SOL    HW1 1760   1.785   3.158   1.203
  287SOL    HW2 1761   1.665   3.071   1.135
  288SOL     OW 1762   4.084   1.681   6.152
  288SOL    HW1 1763   3.987   1.678   6.174
  288SOL    HW2 1764   4.130   1.746   6.212
  289SOL     OW 1765   1.777   4.170   5.444
  289SOL    HW1 1766   1.713   4.220   5.385
  289SOL    HW2 1767   1.741   4.079   5.462
  290SOL     OW 1768   6.555   1.289   5.194
  290SOL    HW1 1769   6.637   1.333   5.230
  290SOL    HW2 1770   6.564   1.189   5.201
  291SOL     OW 1771   0.842   1.262   3.795
  291SOL    HW1 1772   0.796   1.202   3.860
  291SOL    HW2 1773   0.867   1.348   3.840
  292SOL     OW 1774   2.062   1.114   3.485
  292SOL    HW1 1775   1.988   1.152   3.430
  292SOL    HW2 1776   2.132   1.184   3.499
  293SOL     OW 1777   4.631   5.829   3.377
  293SOL    HW1 1778   4.723   5.843   3.411
  293SOL    HW2 1779   4.574   5.788   3.448
  294SOL     OW 1780   5.938   6.338   0.151
  294SOL    HW1 1781   5.864   6.272   0.141
  294SOL    HW2 1782   5.998   6.310   0.227
  295SOL     OW 1783   4.350   0.517   2.868
  295SOL    HW1 1784   4.280   0.466   2.818
  295SOL    HW2 1785   4.347   0.491   2.965
  296SOL     OW 1786   3.647   1.706   2.899
  296SOL    HW1 1787   3.573   1.642   2.923
  296SOL    HW2 1788   3.711   1.711   2.976
  297SOL     OW 1789   2.286   4.322   3.046
  297SOL    HW1 1790   2.369   4.310   3.102
  297SOL    HW2 1791   2.211   4.270   3.087
  298SOL     OW 1792   6.067   5.726   0.930
  298SOL    HW1 1793   6.143   5.760   0.874
  298SOL    HW2 1794   5.999   5.799   0.942
  299SOL     OW 1795   6.377   2.510   4.860
  299SOL    HW1 1796   6.373   2.590   4.800
  299SOL    HW2 1797   6.298   2.451   4.842
  300SOL     OW 1798   6.736   0.647   2.999
  300SOL    HW1 1799   6.725   0.659   3.098
  300SOL    HW2 1800   6.702   0.728   2.951
  301SOL     OW 1801   5.721   3.658   6.806
  301SOL    HW1 1802   5.670   3.627   6.726
  301SOL    HW2 1803   5.766   3.745   6.785
  302SOL     OW 1804   0.838   0.671   3.797
  302SOL    HW1 1805   0.806   0.766   3.787
  302SOL    HW2 1806   0.938   0.669   3.790
  303SOL     OW 1807   5.314   0.752   2.672
  303SOL    HW1 1808   5.293   0.839   2.717
  303SOL    HW2 1809   5.326   0.768   2.574
  304SOL     OW 1810   2.068   0.380   3.213
  304SOL    HW1 1811   2.166   0.389   3.233
  304SOL    HW2 1812   2.016   0.389   3.298
  305SOL     OW 1813   1.026   3.656   6.876
  305SOL    HW1 1814   0.989   3.607   6.955
  305SOL    HW2 1815   1.126   3.646   6.875
  306SOL     OW 1816   1.911   1.120   4.047
  306SOL    HW1 1817   1.943   1.028   4.022
  306SOL    HW2 1818   1.936   1.139   4.142
  307SOL     OW 1819   4.576   0.400   1.218
  307SOL    HW1 1820   4.599   0.386   1.314
  307SOL    HW2 1821   4.533   0.317   1.182
  308SOL     OW 1822   0.648   6.214   3.304
  308SOL    HW1 1823   0.706   6.133   3.299
  308SOL    HW2 1824   0.594   6.212   3.388
  309SOL     OW 1825   3.793   4.601   5.334
  309SOL    HW1 1826   3.696   4.623   5.328
  309SOL    HW2 1827   3.813   4.521   5.277
  310SOL     OW 1828   6.934   6.631   5.733
  310SOL    HW1 1829   6.903   6.725   5.722
  310SOL    HW2 1830   6.895   6.592   5.816
  311SOL     OW 1831   6.888   5.521   1.482
  311SOL    HW1 1832   6.800   5.556   1.514
  311SOL    HW2 1833   6.922   5.578   1.407
  312SOL     OW 1834   4.769   1.486   5.062
  312SOL    HW1 1835   4.718   1.430   5.127
  312SOL    HW2 1836   4.844   1.533   5.109
  313SOL     OW 1837   2.295   4.358   1.900
  313SOL    HW1 1838   2.250   4.278   1.860
  313SOL    HW2 1839   2.322   4.336   1.994
  314SOL     OW 1840   3.408   5.379   0.519
  314SOL    HW1 1841   3.314   5.412   0.518
  314SOL    HW2 1842   3.470   5.455   0.542
  315SOL     OW 1843   0.672   2.709   3.600
  315SOL    HW1 1844   0.645   2.798   3.564
  315SOL    HW2 1845   0.607   2.639   3.570
  316SOL     OW 1846   2.203   2.985   3.947
  316SOL    HW1 1847   2.224   3.062   3.886
  316SOL    HW2 1848   2.166   2.910   3.892
  317SOL     OW 1849   0.157   1.231   0.099
  317SOL    HW1 1850   0.110   1.314   0.130
  317SOL    HW2 1851   0.173   1.236   0.001
  318SOL     OW 1852   1.601   4.502   0.773
  318SOL    HW1 1853   1.657   4.540   0.699
  318SOL    HW2 1854   1.528   4.566   0.796
  319SOL     OW 1855   1.016   6.730   1.570
  319SOL    HW1 1856   1.092   6.666   1.566
  319SOL    HW2 1857   0.931   6.683   1.547
  320SOL     OW 1858   6.201   3.094   0.941
  320SOL    HW1 1859   6.248   3.078   1.027
  320SOL    HW2 1860   6.222   3.186   0.907
  321SOL     OW 1861   1.535   2.283   1.989
  321SOL    HW1 1862   1.464   2.253   1.924
  321SOL    HW2 1863   1.535   2.222   2.068
  322SOL     OW 1864   3.734   2.976   5.137
  322SOL    HW1 1865   3.719   2.975   5.038
  322SOL    HW2 1866   3.652   3.012   5.183
  323SOL     OW 1867   0.425   4.482   0.814
  323SOL    HW1 1868   0.346   4.421   0.820
  323SOL    HW2 1869   0.396   4.576   0.832
  324SOL     OW 1870   1.156   2.902   4.711
  324SOL    HW1 1871   1.125   2.995   4.730
  324SOL    HW2 1872   1.113   2.838   4.775
  325SOL     OW 1873   1.746   2.882   1.650
  325SOL    HW1 1874   1.791   2.901   1.738
  325SOL    HW2 1875   1.736   2.783   1.639
  326SOL     OW 1876   1.860   6.711   6.692
  326SOL    HW1 1877   1.891   6.654   6.615
  326SOL    HW2 1878   1.897   6.803   6.682
  327SOL     OW 1879   6.865   4.692   4.964
  327SOL    HW1 1880   6.888   4.601   5.000
  327SOL    HW2 1881   6.903   4.702   4.872
  328SOL     OW 1882   4.313   4.941   2.296
  328SOL    HW1 1883   4.313   4.994   2.211
  328SOL    HW2 1884   4.233   4.881   2.298
  329SOL     OW 1885   3.219   3.451   3.223
  329SOL    HW1 1886   3.277   3.391   3.278
  329SOL    HW2 1887   3.274   3.492   3.150
  330SOL     OW 1888   3.483   6.609   1.416
  330SOL    HW1 1889   3.563   6.662   1.386
  330SOL    HW2 1890   3.459   6.635   1.509
  331SOL     OW 1891   4.487   5.621   5.676
  331SOL    HW1 1892   4.575   5.655   5.710
  331SOL    HW2 1893   4.413   5.654   5.735
  332SOL     OW 1894   3.095   1.517   4.007
  332SOL    HW1 1895   2.998   1.493   3.998
  332SOL    HW2 1896   3.103   1.600   4.063
  333SOL     OW 1897   3.856   6.581   6.017
  333SOL    HW1 1898   3.888   6.492   5.985
  333SOL    HW2 1899   3.881   6.651   5.950
  334SOL     OW 1900   3.652   6.817   2.214
  334SOL    HW1 1901   3.701   6.825   2.127
  334SOL    HW2 1902   3.584   6.745   2.207
  335SOL     OW 1903   3.540   5.539   3.628
  335SOL    HW1 1904   3.478   5.481   3.681
  335SOL    HW2 1905   3.577   5.487   3.551
  336SOL     OW 1906   2.895   0.984   3.531
  336SOL    HW1 1907   2.966   0.933   3.484
  336SOL    HW2 1908   2.825   0.922   3.566
  337SOL     OW 1909   0.393   3.368   1.803
  337SOL    HW1 1910   0.456   3.290   1.810
  337SOL    HW2 1911   0.424   3.441   1.863
  338SOL     OW 1912   3.055   3.080   1.482
  338SOL    HW1 1913   2.958   3.064   1.499
  338SOL    HW2 1914   3.108   3.053   1.562
  339SOL     OW 1915   3.987   6.982   3.295
  339SOL    HW1 1916   3.992   6.882   3.301
  339SOL    HW2 1917   3.995   7.010   3.200
  340SOL     OW 1918   5.289   4.398   4.644
  340SOL    HW1 1919   5.306   4.489   4.606
  340SOL    HW2 1920   5.336   4.329   4.588
  341SOL     OW 1921   5.177   5.805   4.140
  341SOL    HW1 1922   5.224   5.863   4.074
  341SOL    HW2 1923   5.152   5.718   4.098
  342SOL     OW 1924   5.748   4.814   0.285
  342SOL    HW1 1925   5.674   4.778   0.343
  342SOL    HW2 1926   5.737   4.913   0.277
  343SOL     OW 1927   3.781   6.518   1.827
  343SOL    HW1 1928   3.740   6.608   1.812
  343SOL    HW2 1929   3.716   6.447   1.797
  344SOL     OW 1930   1.868   5.370   0.529
  344SOL    HW1 1931   1.802   5.417   0.588
  344SOL    HW2 1932   1.928   5.313   0.584
  345SOL     OW 1933   0.995   0.444   5.569
  345SOL    HW1 1934   0.965   0.371   5.507
  345SOL    HW2 1935   0.973   0.533   5.530
  346SOL     OW 1936   1.308   0.196   2.936
  346SOL    HW1 1937   1.277   0.287   2.906
  346SOL    HW2 1938   1.393   0.205   2.987
  347SOL     OW 1939   5.608   0.165   6.486
  347SOL    HW1 1940   5.594   0.179   6.388
  347SOL    HW2 1941   5.660   0.241   6.524
  348SOL     OW 1942   3.720   5.255   1.358
  348SOL    HW1 1943   3.819   5.261   1.345
  348SOL    HW2 1944   3.687   5.339   1.402
  349SOL     OW 1945   0.313   4.287   2.661
  349SOL    HW1 1946   0.299   4.335   2.574
  349SOL    HW2 1947   0.320   4.354   2.735
  350SOL     OW 1948   3.967   3.340   1.525
  350SOL    HW1 1949   3.957   3.439   1.509
  350SOL    HW2 1950   3.980   3.324   1.623
  351SOL     OW 1951   2.376   1.749   0.371
  351SOL    HW1 1952   2.438   1.746   0.449
  351SOL    HW2 1953   2.352   1.656   0.344
  352SOL     OW 1954   3.132   0.423   5.822
  352SOL    HW1 1955   3.205   0.363   5.790
  352SOL    HW2 1956   3.146   0.515   5.785
  353SOL     OW 1957   1.641   6.241   0.847
  353SOL    HW1 1958   1.554   6.192   0.832
  353SOL    HW2 1959   1.681   6.263   0.758
  354SOL     OW 1960   4.108   1.893   0.083
  354SOL    HW1 1961   4.068   1.918   7.013
  354SOL    HW2 1962   4.080   1.800   0.108
  355SOL     OW 1963   6.722   3.287   2.540
  355SOL    HW1 1964   6.772   3.321   2.460
  355SOL    HW2 1965   6.785   3.280   2.618
  356SOL     OW 1966   4.499   4.455   4.246
  356SOL    HW1 1967   4.577   4.406   4.208
  356SOL    HW2 1968   4.415   4.423   4.202
  357SOL     OW 1969   0.466   5.550   5.209
  357SOL    HW1 1970   0.518   5.470   5.177
  357SOL    HW2 1971   0.419   5.527   5.294
  358SOL     OW 1972   6.160   0.194   1.514
  358SOL    HW1 1973   6.085   0.231   1.459
  358SOL    HW2 1974   6.190   0.264   1.580
  359SOL     OW 1975   1.478   2.326   2.601
  359SOL    HW1 1976   1.558   2.304   2.545
  359SOL    HW2 1977   1.502   2.397   2.667
  360SOL     OW 1978   4.583   6.909   6.743
  360SOL    HW1 1979   4.660   6.920   6.806
  360SOL    HW2 1980   4.506   6.965   6.774
  361SOL     OW 1981   5.530   5.833   3.343
  361SOL    HW1 1982   5.451   5.893   3.331
  361SOL    HW2 1983   5.499   5.738   3.343
  362SOL     OW 1984   2.609   4.055   0.798
  362SOL    HW1 1985   2.655   4.104   0.724
  362SOL    HW2 1986   2.547   4.116   0.846
  363SOL     OW 1987   4.206   5.133   4.462
  363SOL    HW1 1988   4.187   5.038   4.488
  363SOL    HW2 1989   4.304   5.144   4.446
  364SOL     OW 1990   1.131   5.449   5.565
  364SOL    HW1 1991   1.091   5.385   5.500
  364SOL    HW2 1992   1.224   5.421   5.588
  365SOL     OW 1993   5.373   6.062   2.530
  365SOL    HW1 1994   5.297   6.002   2.506
  365SOL    HW2 1995   5.357   6.153   2.491
  366SOL     OW 1996   6.318   1.166   6.878
  366SOL    HW1 1997   6.290   1.070   6.874
  366SOL    HW2 1998   6.236   1.224   6.880
  367SOL     OW 1999   5.581   3.364   1.270
  367SOL    HW1 2000   5.489   3.400   1.259
  367SOL    HW2 2001   5.644   3.412   1.209
  368SOL     OW 2002   1.629   4.318   5.263
  368SOL    HW1 2003   1.567   4.251   5.222
  368SOL    HW2 2004   1.679   4.367   5.192
  369SOL     OW 2005   0.430   4.411   1.618
  369SOL    HW1 2006   0.475   4.372   1.699
  369SOL    HW2 2007   0.341   4.449   1.645
  370SOL     OW 2008   2.672   0.969   6.090
  370SOL    HW1 2009   2.602   0.925   6.034
  370SOL    HW2 2010   2.759   0.969   6.039
  371SOL     OW 2011   3.082   3.059   0.126
  371SOL    HW1 2012   3.130   3.132   0.175
  371SOL    HW2 2013   3.022   3.011   0.189
  372SOL     OW 2014   6.782   6.870   5.813
  372SOL    HW1 2015   6.846   6.845   5.886
  372SOL    HW2 2016   6.776   6.969   5.807
  373SOL     OW 2017   0.443   6.231   0.864
  373SOL    HW1 2018   0.346   6.255   0.864
  373SOL    HW2 2019   0.495   6.301   0.912
  374SOL     OW 2020   3.504   0.087   2.240
  374SOL    HW1 2021   3.571   0.159   2.261
  374SOL    HW2 2022   3.539   7.018   2.272
  375SOL     OW 2023   6.635   4.690   3.526
  375SOL    HW1 2024   6.714   4.661   3.473
  375SOL    HW2 2025   6.560   4.625   3.513
  376SOL     OW 2026   1.551   2.413   3.972
  376SOL    HW1 2027   1.645   2.432   3.942
  376SOL    HW2 2028   1.489   2.428   3.895
  377SOL     OW 2029   5.011   2.082   2.893
  377SOL    HW1 2030   5.105   2.065   2.864
  377SOL    HW2 2031   4.966   2.141   2.827
  378SOL     OW 2032   4.461   3.344   5.763
  378SOL    HW1 2033   4.501   3.427   5.723
  378SOL    HW2 2034   4.370   3.366   5.798
  379SOL     OW 2035   5.801   3.884   1.498
  379SOL    HW1 2036   5.812   3.886   1.398
  379SOL    HW2 2037   5.719   3.934   1.523
  380SOL     OW 2038   1.678   1.561   1.290
  380SOL    HW1 2039   1.605   1.597   1.232
  380SOL    HW2 2040   1.763   1.558   1.237
  381SOL     OW 2041   3.226   4.471   1.145
  381SOL    HW1 2042   3.135   4.429   1.157
  381SOL    HW2 2043   3.223   4.535   1.068
  382SOL     OW 2044   3.363   5.817   0.415
  382SOL    HW1 2045   3.415   5.751   0.361
  382SOL    HW2 2046   3.413   5.838   0.499
  383SOL     OW 2047   6.384   2.443   0.031
  383SOL    HW1 2048   6.424   2.534   0.022
  383SOL    HW2 2049   6.427   2.396   0.108
  384SOL     OW 2050   0.940   5.172   4.823
  384SOL    HW1 2051   0.906   5.138   4.911
  384SOL    HW2 2052   0.869   5.159   4.753
  385SOL     OW 2053   4.687   6.356   0.385
  385SOL    HW1 2054   4.750   6.319   0.317
  385SOL    HW2 2055   4.599   6.376   0.342
  386SOL     OW 2056   3.894   6.559   5.548
  386SOL    HW1 2057   3.836   6.479   5.564
  386SOL    HW2 2058   3.838   6.634   5.511
  387SOL     OW 2059   0.242   0.412   5.206
  387SOL    HW1 2060   0.333   0.430   5.244
  387SOL    HW2 2061   0.232   0.314   5.190
  388SOL     OW 2062   0.015   2.073   5.402
  388SOL    HW1 2063   0.097   2.056   5.456
  388SOL    HW2 2064   0.024   2.161   5.354
  389SOL     OW 2065   4.320   4.710   1.431
  389SOL    HW1 2066   4.308   4.648   1.509
  389SOL    HW2 2067   4.246   4.778   1.432
  390SOL     OW 2068   3.751   1.547   0.303
  390SOL    HW1 2069   3.798   1.600   0.374
  390SOL    HW2 2070   3.768   1.588   0.214
  391SOL     OW 2071   3.070   3.830   6.098
  391SOL    HW1 2072   3.141   3.883   6.146
  391SOL    HW2 2073   3.015   3.892   6.042
  392SOL     OW 2074   1.485   3.789   2.381
  392SOL    HW1 2075   1.578   3.827   2.381
  392SOL    HW2 2076   1.419   3.864   2.385
  393SOL     OW 2077   1.000   4.317   1.171
  393SOL    HW1 2078   1.034   4.286   1.260
  393SOL    HW2 2079   1.075   4.355   1.118
  394SOL     OW 2080   6.559   1.781   6.539
  394SOL    HW1 2081   6.494   1.727   6.592
  394SOL    HW2 2082   6.604   1.723   6.471
  395SOL     OW 2083   5.332   4.808   1.612
  395SOL    HW1 2084   5.251   4.796   1.554
  395SOL    HW2 2085   5.413   4.780   1.561
  396SOL     OW 2086   2.794   1.622   2.767
  396SOL    HW1 2087   2.844   1.536   2.773
  396SOL    HW2 2088   2.741   1.624   2.682
  397SOL     OW 2089   4.198   1.422   5.464
  397SOL    HW1 2090   4.104   1.410   5.497
  397SOL    HW2 2091   4.218   1.519   5.458
  398SOL     OW 2092   2.490   0.450   4.769
  398SOL    HW1 2093   2.417   0.499   4.817
  398SOL    HW2 2094   2.513   0.367   4.820
  399SOL     OW 2095   5.408   6.331   3.820
  399SOL    HW1 2096   5.425   6.367   3.729
  399SOL    HW2 2097   5.326   6.275   3.820
  400SOL     OW 2098   6.309   0.337   5.186
  400SOL    HW1 2099   6.370   0.347   5.107
  400SOL    HW2 2100   6.217   0.367   5.160
  401SOL     OW 2101   6.923   5.544   5.518
  401SOL    HW1 2102   6.936   5.642   5.499
  401SOL    HW2 2103   6.840   5.532   5.572
  402SOL     OW 2104   6.832   0.319   2.668
  402SOL    HW1 2105   6.913   0.262   2.652
  402SOL    HW2 2106   6.857   0.396   2.726
  403SOL     OW 2107   2.921   1.041   5.948
  403SOL    HW1 2108   2.969   1.002   5.870
  403SOL    HW2 2109   2.934   1.140   5.949
  404SOL     OW 2110   4.085   4.961   4.731
  404SOL    HW1 2111   4.146   4.903   4.676
  404SOL    HW2 2112   4.055   4.910   4.812
  405SOL     OW 2113   2.707   4.623   3.892
  405SOL    HW1 2114   2.790   4.635   3.837
  405SOL    HW2 2115   2.729   4.637   3.988
  406SOL     OW 2116   0.332   5.171   5.801
  406SOL    HW1 2117   0.279   5.250   5.772
  406SOL    HW2 2118   0.275   5.089   5.796
  407SOL     OW 2119   1.706   2.991   4.329
  407SOL    HW1 2120   1.801   2.961   4.324
  407SOL    HW2 2121   1.676   3.023   4.239
  408SOL     OW 2122   3.013   1.432   3.675
  408SOL    HW1 2123   2.987   1.353   3.729
  408SOL    HW2 2124   3.104   1.464   3.703
  409SOL     OW 2125   1.058   3.769   2.247
  409SOL    HW1 2126   0.992   3.777   2.172
  409SOL    HW2 2127   1.025   3.822   2.325
  410SOL     OW 2128   1.951   1.934   1.440
  410SOL    HW1 2129   2.044   1.903   1.458
  410SOL    HW2 2130   1.942   2.029   1.469
  411SOL     OW 2131   0.582   2.036   1.420
  411SOL    HW1 2132   0.656   1.988   1.374
  411SOL    HW2 2133   0.549   2.110   1.361
  412SOL     OW 2134   1.819   4.673   1.789
  412SOL    HW1 2135   1.882   4.664   1.711
  412SOL    HW2 2136   1.867   4.713   1.867
  413SOL     OW 2137   4.617   5.219   2.826
  413SOL    HW1 2138   4.606   5.318   2.833
  413SOL    HW2 2139   4.709   5.199   2.793
  414SOL     OW 2140   2.688   6.312   3.573
  414SOL    HW1 2141   2.601   6.360   3.556
  414SOL    HW2 2142   2.761   6.358   3.523
  415SOL     OW 2143   6.531   0.650   0.512
  415SOL    HW1 2144   6.440   0.608   0.513
  415SOL    HW2 2145   6.572   0.637   0.421
  416SOL     OW 2146   4.862   3.328   4.603
  416SOL    HW1 2147   4.906   3.347   4.515
  416SOL    HW2 2148   4.862   3.411   4.658
  417SOL     OW 2149   3.657   2.368   6.497
  417SOL    HW1 2150   3.566   2.331   6.477
  417SOL    HW2 2151   3.725   2.318   6.443
  418SOL     OW 2152   4.102   6.427   4.593
  418SOL    HW1 2153   4.014   6.449   4.636
  418SOL    HW2 2154   4.169   6.497   4.617
  419SOL     OW 2155   0.861   0.019   1.827
  419SOL    HW1 2156   0.850   6.978   1.907
  419SOL    HW2 2157   0.854   0.115   1.856
  420SOL     OW 2158   5.848   1.100   6.118
  420SOL    HW1 2159   5.761   1.148   6.119
  420SOL    HW2 2160   5.857   1.048   6.034
  421SOL     OW 2161   5.350   3.821   2.868
  421SOL    HW1 2162   5.280   3.768   2.820
  421SOL    HW2 2163   5.306   3.892   2.922
  422SOL     OW 2164   4.998   3.264   1.449
  422SOL    HW1 2165   4.988   3.363   1.441
  422SOL    HW2 2166   4.935   3.229   1.518
  423SOL     OW 2167   3.396   1.288   5.949
  423SOL    HW1 2168   3.342   1.370   5.930
  423SOL    HW2 2169   3.346   1.227   6.010
  424SOL     OW 2170   1.092   4.131   2.965
  424SOL    HW1 2171   1.180   4.088   2.946
  424SOL    HW2 2172   1.019   4.069   2.939
  425SOL     OW 2173   2.448   0.347   5.358
  425SOL    HW1 2174   2.481   0.254   5.377
  425SOL    HW2 2175   2.504   0.388   5.285
  426SOL     OW 2176   2.229   2.688   4.176
  426SOL    HW1 2177   2.199   2.712   4.084
  426SOL    HW2 2178   2.250   2.772   4.227
  427SOL     OW 2179   3.707   2.103   3.298
  427SOL    HW1 2180   3.788   2.154   3.267
  427SOL    HW2 2181   3.662   2.062   3.220
  428SOL     OW 2182   2.936   1.437   6.084
  428SOL    HW1 2183   2.943   1.495   6.165
  428SOL    HW2 2184   2.879   1.358   6.104
  429SOL     OW 2185   1.061   6.137   4.036
  429SOL    HW1 2186   1.113   6.216   4.003
  429SOL    HW2 2187   0.986   6.169   4.094
  430SOL     OW 2188   1.219   7.003   3.543
  430SOL    HW1 2189   1.219   6.911   3.502
  430SOL    HW2 2190   1.313   0.017   3.552
  431SOL     OW 2191   2.853   1.682   1.964
  431SOL    HW1 2192   2.786   1.710   1.894
  431SOL    HW2 2193   2.870   1.759   2.025
  432SOL     OW 2194   4.294   2.008   1.775
  432SOL    HW1 2195   4.376   2.050   1.815
  432SOL    HW2 2196   4.319   1.958   1.693
  433SOL     OW 2197   2.251   6.168   0.203
  433SOL    HW1 2198   2.322   6.104   0.172
  433SOL    HW2 2199   2.292   6.258   0.216
  434SOL     OW 2200   3.916   5.946   3.569
  434SOL    HW1 2201   3.877   5.956   3.477
  434SOL    HW2 2202   4.000   5.999   3.575
  435SOL     OW 2203   3.241   1.448   6.231
  435SOL    HW1 2204   3.290   1.434   6.316
  435SOL    HW2 2205   3.262   1.539   6.194
  436SOL     OW 2206   4.992   6.954   2.887
  436SOL    HW1 2207   5.063   6.997   2.943
  436SOL    HW2 2208   4.956   0.003   2.822
  437SOL     OW 2209   6.463   0.365   4.962
  437SOL    HW1 2210   6.492   0.315   4.880
  437SOL    HW2 2211   6.512   0.452   4.966
  438SOL     OW 2212   0.455   4.047   2.858
  438SOL    HW1 2213   0.413   4.093   2.780
  438SOL    HW2 2214   0.397   3.972   2.888
  439SOL     OW 2215   5.858   0.683   3.478
  439SOL    HW1 2216   5.789   0.707   3.410
  439SOL    HW2 2217   5.829   0.601   3.528
  440SOL     OW 2218   4.539   1.091   0.434
  440SOL    HW1 2219   4.611   1.105   0.366
  440SOL    HW2 2220   4.455   1.060   0.388
  441SOL     OW 2221   0.031   4.063   3.115
  441SOL    HW1 2222   0.077   4.149   3.091
  441SOL    HW2 2223   7.001   4.028   3.035
  442SOL     OW 2224   5.747   3.243   6.275
  442SOL    HW1 2225   5.744   3.294   6.361
  442SOL    HW2 2226   5.826   3.272   6.221
  443SOL     OW 2227   4.937   3.402   2.521
  443SOL    HW1 2228   4.960   3.470   2.452
  443SOL    HW2 2229   4.887   3.327   2.479
  444SOL     OW 2230   4.236   0.939   1.317
  444SOL    HW1 2231   4.181   0.908   1.239
  444SOL    HW2 2232   4.282   1.025   1.293
  445SOL     OW 2233   1.303   5.536   2.618
  445SOL    HW1 2234   1.214   5.581   2.626
  445SOL    HW2 2235   1.314   5.472   2.693
  446SOL     OW 2236   5.744   0.112   1.448
  446SOL    HW1 2237   5.744   0.067   1.358
  446SOL    HW2 2238   5.784   0.204   1.439
  447SOL     OW 2239   6.666   4.424   0.696
  447SOL    HW1 2240   6.721   4.353   0.738
  447SOL    HW2 2241   6.575   4.388   0.676
  448SOL     OW 2242   2.543   6.401   3.098
  448SOL    HW1 2243   2.456   6.420   3.054
  448SOL    HW2 2244   2.548   6.451   3.185
  449SOL     OW 2245   1.974   3.735   4.734
  449SOL    HW1 2246   1.878   3.760   4.746
  449SOL    HW2 2247   2.033   3.813   4.755
  450SOL     OW 2248   1.020   4.962   3.350
  450SOL    HW1 2249   1.056   4.890   3.410
  450SOL    HW2 2250   0.940   4.926   3.301
  451SOL     OW 2251   0.655   2.290   2.583
  451SOL    HW1 2252   0.732   2.331   2.535
  451SOL    HW2 2253   0.602   2.234   2.519
  452SOL     OW 2254   5.102   6.025   2.414
  452SOL    HW1 2255   5.117   6.124   2.408
  452SOL    HW2 2256   5.066   5.991   2.327
  453SOL     OW 2257   3.640   0.664   6.851
  453SOL    HW1 2258   3.636   0.643   6.754
  453SOL    HW2 2259   3.729   0.637   6.888
  454SOL     OW 2260   6.794   3.637   6.671
  454SOL    HW1 2261   6.865   3.693   6.713
  454SOL    HW2 2262   6.834   3.550   6.639
  455SOL     OW 2263   5.842   4.756   6.325
  455SOL    HW1 2264   5.873   4.814   6.400
  455SOL    HW2 2265   5.921   4.717   6.278
  456SOL     OW 2266   3.089   0.278   2.311
  456SOL    HW1 2267   3.180   0.318   2.319
  456SOL    HW2 2268   3.028   0.342   2.265
  457SOL     OW 2269   2.678   0.604   0.036
  457SOL    HW1 2270   2.680   0.670   0.111
  457SOL    HW2 2271   2.594   0.615   7.002
  458SOL     OW 2272   2.891   1.236   3.374
  458SOL    HW1 2273   2.871   1.152   3.425
  458SOL    HW2 2274   2.981   1.270   3.399
  459SOL     OW 2275   2.947   0.478   3.663
  459SOL    HW1 2276   3.034   0.475   3.615
  459SOL    HW2 2277   2.955   0.537   3.743
  460SOL     OW 2278   1.124   1.699   5.385
  460SOL    HW1 2279   1.180   1.782   5.391
  460SOL    HW2 2280   1.171   1.624   5.431
  461SOL     OW 2281   0.773   5.057   6.081
  461SOL    HW1 2282   0.752   5.134   6.020
  461SOL    HW2 2283   0.730   4.974   6.045
  462SOL     OW 2284   2.977   3.893   4.374
  462SOL    HW1 2285   2.887   3.935   4.362
  462SOL    HW2 2286   3.020   3.929   4.456
  463SOL     OW 2287   5.643   6.949   2.501
  463SOL    HW1 2288   5.565   6.903   2.542
  463SOL    HW2 2289   5.714   6.962   2.570
  464SOL     OW 2290   3.824   5.505   5.816
  464SOL    HW1 2291   3.833   5.476   5.721
  464SOL    HW2 2292   3.758   5.446   5.863
  465SOL     OW 2293   1.013   3.333   0.345
  465SOL    HW1 2294   1.025   3.328   0.444
  465SOL    HW2 2295   1.038   3.424   0.312
  466SOL     OW 2296   3.984   5.782   4.735
  466SOL    HW1 2297   4.004   5.841   4.657
  466SOL    HW2 2298   4.010   5.688   4.714
  467SOL     OW 2299   6.486   0.155   1.467
  467SOL    HW1 2300   6.473   0.180   1.371
  467SOL    HW2 2301   6.423   0.081   1.491
  468SOL     OW 2302   3.710   0.361   6.912
  468SOL    HW1 2303   3.623   0.350   6.863
  468SOL    HW2 2304   3.786   0.334   6.853
  469SOL     OW 2305   2.942   5.105   6.008
  469SOL    HW1 2306   2.900   5.183   5.963
  469SOL    HW2 2307   2.871   5.048   6.050
  470SOL     OW 2308   2.063   5.028   2.751
  470SOL    HW1 2309   2.036   5.119   2.782
  470SOL    HW2 2310   2.163   5.020   2.752
  471SOL     OW 2311   2.135   2.500   4.406
  471SOL    HW1 2312   2.151   2.513   4.308
  471SOL    HW2 2313   2.214   2.532   4.457
  472SOL     OW 2314   5.697   3.713   6.249
  472SOL    HW1 2315   5.732   3.786   6.307
  472SOL    HW2 2316   5.762   3.694   6.176
  473SOL     OW 2317   0.098   2.956   1.994
  473SOL    HW1 2318   0.018   2.911   2.033
  473SOL    HW2 2319   0.180   2.903   2.013
  474SOL     OW 2320   5.056   6.275   3.471
  474SOL    HW1 2321   5.048   6.374   3.462
  474SOL    HW2 2322   4.988   6.241   3.536
  475SOL     OW 2323   6.285   1.756   0.785
  475SOL    HW1 2324   6.378   1.720   0.786
  475SOL    HW2 2325   6.221   1.681   0.770
  476SOL     OW 2326   1.005   4.654   1.489
  476SOL    HW1 2327   0.907   4.672   1.503
  476SOL    HW2 2328   1.030   4.678   1.395
  477SOL     OW 2329   1.403   4.619   3.752
  477SOL    HW1 2330   1.404   4.527   3.712
  477SOL    HW2 2331   1.343   4.619   3.832
  478SOL     OW 2332   4.816   6.201   1.712
  478SOL    HW1 2333   4.787   6.106   1.722
  478SOL    HW2 2334   4.739   6.261   1.734
  479SOL     OW 2335   3.513   3.755   3.553
  479SOL    HW1 2336   3.428   3.716   3.588
  479SOL    HW2 2337   3.568   3.682   3.511
  480SOL     OW 2338   1.764   0.110   3.082
  480SOL    HW1 2339   1.840   0.046   3.066
  480SOL    HW2 2340   1.677   0.063   3.065
  481SOL     OW 2341   0.230   0.051   0.904
  481SOL    HW1 2342   0.215   6.977   0.938
  481SOL    HW2 2343   0.238   0.114   0.982
  482SOL     OW 2344   4.220   5.304   1.514
  482SOL    HW1 2345   4.279   5.251   1.453
  482SOL    HW2 2346   4.258   5.396   1.525
  483SOL     OW 2347   5.129   1.956   3.613
  483SOL    HW1 2348   5.175   2.043   3.594
  483SOL    HW2 2349   5.045   1.951   3.560
  484SOL     OW 2350   2.183   4.500   4.530
  484SOL    HW1 2351   2.185   4.546   4.441
  484SOL    HW2 2352   2.276   4.475   4.558
  485SOL     OW 2353   5.216   3.225   1.788
  485SOL    HW1 2354   5.304   3.178   1.793
  485SOL    HW2 2355   5.147   3.162   1.752
  486SOL     OW 2356   5.852   6.098   6.519
  486SOL    HW1 2357   5.915   6.161   6.471
  486SOL    HW2 2358   5.894   6.007   6.523
  487SOL     OW 2359   6.764   6.843   5.394
  487SOL    HW1 2360   6.803   6.751   5.392
  487SOL    HW2 2361   6.828   6.907   5.352
  488SOL     OW 2362   1.341   6.227   2.967
  488SOL    HW1 2363   1.397   6.162   3.018
  488SOL    HW2 2364   1.350   6.318   3.007
  489SOL     OW 2365   1.265   6.184   5.902
  489SOL    HW1 2366   1.182   6.131   5.884
  489SOL    HW2 2367   1.240   6.279   5.923
  490SOL     OW 2368   1.161   3.914   5.270
  490SOL    HW1 2369   1.223   3.992   5.264
  490SOL    HW2 2370   1.190   3.843   5.206
  491SOL     OW 2371   0.796   2.521   0.550
  491SOL    HW1 2372   0.895   2.527   0.562
  491SOL    HW2 2373   0.764   2.431   0.581
  492SOL     OW 2374   1.913   2.371   5.803
  492SOL    HW1 2375   1.823   2.396   5.766
  492SOL    HW2 2376   1.974   2.450   5.796
  493SOL     OW 2377   2.227   5.610   4.716
  493SOL    HW1 2378   2.227   5.545   4.640
  493SOL    HW2 2379   2.147   5.670   4.709
  494SOL     OW 2380   2.654   6.261   5.069
  494SOL    HW1 2381   2.612   6.327   5.007
  494SOL    HW2 2382   2.748   6.287   5.088
  495SOL     OW 2383   3.489   4.585   6.048
  495SOL    HW1 2384   3.536   4.502   6.018
  495SOL    HW2 2385   3.485   4.650   5.972
  496SOL     OW 2386   4.974   1.701   3.026
  496SOL    HW1 2387   4.910   1.625   3.032
  496SOL    HW2 2388   5.005   1.712   2.932
  497SOL     OW 2389   3.566   1.844   0.213
  497SOL    HW1 2390   3.635   1.906   0.250
  497SOL    HW2 2391   3.598   1.749   0.223
  498SOL     OW 2392   0.824   6.557   1.630
  498SOL    HW1 2393   0.874   6.470   1.624
  498SOL    HW2 2394   0.820   6.587   1.725
  499SOL     OW 2395   2.717   6.019   6.324
  499SOL    HW1 2396   2.789   6.087   6.337
  499SOL    HW2 2397   2.758   5.928   6.310
  500SOL     OW 2398   6.181   2.346   0.355
  500SOL    HW1 2399   6.152   2.435   0.391
  500SOL    HW2 2400   6.281   2.341   0.354
  501SOL     OW 2401   1.038   0.479   4.111
  501SOL    HW1 2402   1.092   0.481   4.196
  501SOL    HW2 2403   1.082   0.536   4.042
  502SOL     OW 2404   2.182   5.024   6.670
  502SOL    HW1 2405   2.127   4.942   6.653
  502SOL    HW2 2406   2.248   5.005   6.742
  503SOL     OW 2407   3.811   4.622   6.864
  503SOL    HW1 2408   3.779   4.551   6.801
  503SOL    HW2 2409   3.737   4.687   6.881
  504SOL     OW 2410   5.994   6.292   2.210
  504SOL    HW1 2411   5.998   6.354   2.289
  504SOL    HW2 2412   5.990   6.198   2.243
  505SOL     OW 2413   4.947   6.705   4.989
  505SOL    HW1 2414   5.019   6.769   5.016
  505SOL    HW2 2415   4.894   6.677   5.069
  506SOL     OW 2416   4.244   5.017   3.050
  506SOL    HW1 2417   4.149   5.044   3.033
  506SOL    HW2 2418   4.283   4.979   2.966
  507SOL     OW 2419   3.234   0.860   0.574
  507SOL    HW1 2420   3.165   0.812   0.520
  507SOL    HW2 2421   3.191   0.901   0.653
  508SOL     OW 2422   0.041   4.620   3.456
  508SOL    HW1 2423   0.081   4.623   3.548
  508SOL    HW2 2424   0.100   4.566   3.396
  509SOL     OW 2425   4.856   6.931   5.781
  509SOL    HW1 2426   4.768   6.979   5.780
  509SOL    HW2 2427   4.904   6.950   5.866
  510SOL     OW 2428   6.839   3.729   0.244
  510SOL    HW1 2429   6.752   3.778   0.236
  510SOL    HW2 2430   6.821   3.631   0.250
  511SOL     OW 2431   0.928   2.062   0.530
  511SOL    HW1 2432   1.007   2.057   0.469
  511SOL    HW2 2433   0.875   1.978   0.522
  512SOL     OW 2434   6.824   2.576   5.855
  512SOL    HW1 2435   6.773   2.643   5.801
  512SOL    HW2 2436   6.893   2.624   5.910
  513SOL     OW 2437   5.562   0.642   2.710
  513SOL    HW1 2438   5.475   0.688   2.696
  513SOL    HW2 2439   5.611   0.686   2.785
  514SOL     OW 2440   6.310   6.534   4.207
  514SOL    HW1 2441   6.246   6.468   4.169
  514SOL    HW2 2442   6.388   6.544   4.145
  515SOL     OW 2443   3.756   0.181   5.862
  515SOL    HW1 2444   3.793   0.231   5.940
  515SOL    HW2 2445   3.708   0.099   5.894
  516SOL     OW 2446   2.242   5.860   1.614
  516SOL    HW1 2447   2.174   5.932   1.598
  516SOL    HW2 2448   2.333   5.900   1.612
  517SOL     OW 2449   3.394   5.675   1.696
  517SOL    HW1 2450   3.388   5.634   1.787
  517SOL    HW2 2451   3.395   5.604   1.626
  518SOL     OW 2452   2.126   3.430   3.767
  518SOL    HW1 2453   2.177   3.398   3.687
  518SOL    HW2 2454   2.151   3.374   3.846
  519SOL     OW 2455   0.359   0.045   2.849
  519SOL    HW1 2456   0.274   0.082   2.810
  519SOL    HW2 2457   0.337   6.997   2.920
  520SOL     OW 2458   1.015   3.105   0.205
  520SOL    HW1 2459   1.092   3.096   0.141
  520SOL    HW2 2460   1.012   3.198   0.242
  521SOL     OW 2461   6.226   5.750   4.688
  521SOL    HW1 2462   6.169   5.832   4.680
  521SOL    HW2 2463   6.299   5.766   4.755
  522SOL     OW 2464   3.916   3.592   1.456
  522SOL    HW1 2465   3.982   3.562   1.387
  522SOL    HW2 2466   3.843   3.644   1.412
  523SOL     OW 2467   0.604   6.565   1.469
  523SOL    HW1 2468   0.693   6.570   1.516
  523SOL    HW2 2469   0.570   6.471   1.473
  524SOL     OW 2470   0.006   2.086   1.643
  524SOL    HW1 2471   0.024   2.080   1.741
  524SOL    HW2 2472   6.933   2.051   1.624
  525SOL     OW 2473   1.650   3.393   5.923
  525SOL    HW1 2474   1.750   3.399   5.920
  525SOL    HW2 2475   1.617   3.430   6.010
  526SOL     OW 2476   2.631   6.612   4.270
  526SOL    HW1 2477   2.654   6.708   4.254
  526SOL    HW2 2478   2.714   6.556   4.263
  527SOL     OW 2479   0.751   1.631   0.229
  527SOL    HW1 2480   0.678   1.648   0.164
  527SOL    HW2 2481   0.714   1.593   0.313
  528SOL     OW 2482   6.894   3.391   4.175
  528SOL    HW1 2483   6.848   3.302   4.179
  528SOL    HW2 2484   6.893   3.426   4.082
  529SOL     OW 2485   1.762   0.548   6.421
  529SOL    HW1 2486   1.763   0.563   6.322
  529SOL    HW2 2487   1.831   0.606   6.464
  530SOL     OW 2488   4.227   3.904   0.641
  530SOL    HW1 2489   4.153   3.839   0.659
  530SOL    HW2 2490   4.291   3.905   0.718
  531SOL     OW 2491   1.484   0.591   1.376
  531SOL    HW1 2492   1.437   0.533   1.309
  531SOL    HW2 2493   1.557   0.540   1.420
  532SOL     OW 2494   2.595   2.343   0.668
  532SOL    HW1 2495   2.577   2.265   0.609
  532SOL    HW2 2496   2.662   2.319   0.737
  533SOL     OW 2497   3.756   0.628   3.992
  533SOL    HW1 2498   3.794   0.678   3.913
  533SOL    HW2 2499   3.812   0.547   4.009
  534SOL     OW 2500   1.242   5.230   1.399
  534SOL    HW1 2501   1.258   5.218   1.497
  534SOL    HW2 2502   1.256   5.326   1.374
  535SOL     OW 2503   5.311   3.577   3.793
  535SOL    HW1 2504   5.256   3.494   3.801
  535SOL    HW2 2505   5.251   3.655   3.777
  536SOL     OW 2506   6.665   6.247   2.436
  536SOL    HW1 2507   6.748   6.192   2.430
  536SOL    HW2 2508   6.606   6.226   2.358
  537SOL     OW 2509   3.200   1.474   4.342
  537SOL    HW1 2510   3.133   1.514   4.405
  537SOL    HW2 2511   3.181   1.376   4.333
  538SOL     OW 2512   2.777   4.512   5.602
  538SOL    HW1 2513   2.732   4.601   5.613
  538SOL    HW2 2514   2.832   4.512   5.518
  539SOL     OW 2515   1.119   0.222   0.168
  539SOL    HW1 2516   1.037   0.279   0.162
  539SOL    HW2 2517   1.140   0.203   0.264
  540SOL     OW 2518   0.459   0.496   4.320
  540SOL    HW1 2519   0.548   0.513   4.361
  540SOL    HW2 2520   0.404   0.439   4.382
  541SOL     OW 2521   4.534   6.030   4.351
  541SOL    HW1 2522   4.474   6.105   4.324
  541SOL    HW2 2523   4.481   5.961   4.401
  542SOL     OW 2524   3.230   0.254   6.477
  542SOL    HW1 2525   3.314   0.307   6.466
  542SOL    HW2 2526   3.153   0.305   6.438
  543SOL     OW 2527   5.813   1.991   4.070
  543SOL    HW1 2528   5.734   2.019   4.124
  543SOL    HW2 2529   5.891   2.051   4.092
  544SOL     OW 2530   1.354   4.297   1.106
  544SOL    HW1 2531   1.452   4.320   1.108
  544SOL    HW2 2532   1.304   4.369   1.058
  545SOL     OW 2533   6.125   1.838   1.276
  545SOL    HW1 2534   6.113   1.741   1.297
  545SOL    HW2 2535   6.075   1.860   1.192
  546SOL     OW 2536   0.700   3.787   2.606
  546SOL    HW1 2537   0.705   3.886   2.619
  546SOL    HW2 2538   0.628   3.749   2.663
  547SOL     OW 2539   3.824   0.990   6.140
  547SOL    HW1 2540   3.763   0.958   6.213
  547SOL    HW2 2541   3.885   0.915   6.113
  548SOL     OW 2542   3.075   2.846   6.801
  548SOL    HW1 2543   3.024   2.884   6.724
  548SOL    HW2 2544   3.146   2.910   6.829
  549SOL     OW 2545   6.237   2.129   1.212
  549SOL    HW1 2546   6.155   2.136   1.155
  549SOL    HW2 2547   6.259   2.032   1.226
  550SOL     OW 2548   0.173   5.529   3.408
  550SOL    HW1 2549   0.160   5.554   3.312
  550SOL    HW2 2550   0.160   5.610   3.466
  551SOL     OW 2551   6.246   1.063   0.675
  551SOL    HW1 2552   6.167   1.122   0.696
  551SOL    HW2 2553   6.261   1.062   0.576
  552SOL     OW 2554   6.109   5.211   5.409
  552SOL    HW1 2555   6.038   5.249   5.350
  552SOL    HW2 2556   6.158   5.286   5.455
  553SOL     OW 2557   3.286   0.542   5.526
  553SOL    HW1 2558   3.296   0.622   5.586
  553SOL    HW2 2559   3.193   0.508   5.532
  554SOL     OW 2560   5.862   5.925   0.948
  554SOL    HW1 2561   5.785   5.919   0.883
  554SOL    HW2 2562   5.891   6.021   0.956
  555SOL     OW 2563   1.838   4.587   5.953
  555SOL    HW1 2564   1.796   4.636   5.876
  555SOL    HW2 2565   1.793   4.499   5.964
  556SOL     OW 2566   5.074   1.119   3.611
  556SOL    HW1 2567   5.133   1.199   3.613
  556SOL    HW2 2568   5.106   1.051   3.677
  557SOL     OW 2569   6.637   4.583   6.566
  557SOL    HW1 2570   6.702   4.602   6.492
  557SOL    HW2 2571   6.682   4.527   6.636
  558SOL     OW 2572   3.285   3.768   2.352
  558SOL    HW1 2573   3.191   3.759   2.386
  558SOL    HW2 2574   3.315   3.863   2.363
  559SOL     OW 2575   6.220   6.408   5.579
  559SOL    HW1 2576   6.300   6.418   5.638
  559SOL    HW2 2577   6.234   6.462   5.496
  560SOL     OW 2578   6.259   3.351   2.471
  560SOL    HW1 2579   6.210   3.436   2.495
  560SOL    HW2 2580   6.262   3.341   2.372
  561SOL     OW 2581   1.050   3.055   6.598
  561SOL    HW1 2582   0.983   3.025   6.530
  561SOL    HW2 2583   1.142   3.047   6.560
  562SOL     OW 2584   4.011   0.721   5.489
  562SOL    HW1 2585   4.003   0.626   5.461
  562SOL    HW2 2586   4.031   0.778   5.410
  563SOL     OW 2587   1.788   1.815   4.312
  563SOL    HW1 2588   1.715   1.750   4.288
  563SOL    HW2 2589   1.873   1.765   4.326
  564SOL     OW 2590   0.086   2.035   4.998
  564SOL    HW1 2591   0.038   2.113   5.040
  564SOL    HW2 2592   0.044   1.950   5.029
  565SOL     OW 2593   3.608   3.179   3.561
  565SOL    HW1 2594   3.611   3.080   3.550
  565SOL    HW2 2595   3.549   3.218   3.490
  566SOL     OW 2596   3.073   6.473   3.058
  566SOL    HW1 2597   3.090   6.375   3.048
  566SOL    HW2 2598   2.976   6.489   3.076
  567SOL     OW 2599   2.429   3.218   6.576
  567SOL    HW1 2600   2.504   3.281   6.559
  567SOL    HW2 2601   2.461   3.141   6.631
  568SOL     OW 2602   6.947   6.714   0.380
  568SOL    HW1 2603   6.959   6.781   0.454
  568SOL    HW2 2604   0.003   6.725   0.314
  569SOL     OW 2605   6.727   1.954   0.271
  569SOL    HW1 2606   6.791   1.878   0.288
  569SOL    HW2 2607   6.719   2.010   0.353
  570SOL     OW 2608   2.775   0.337   5.811
  570SOL    HW1 2609   2.831   0.378   5.883
  570SOL    HW2 2610   2.746   0.408   5.747
  571SOL     OW 2611   2.781   5.000   2.213
  571SOL    HW1 2612   2.705   4.998   2.148
  571SOL    HW2 2613   2.849   5.067   2.184
  572SOL     OW 2614   2.183   6.699   3.934
  572SOL    HW1 2615   2.147   6.743   4.016
  572SOL    HW2 2616   2.283   6.697   3.939
  573SOL     OW 2617   6.902   1.363   5.615
  573SOL    HW1 2618   6.908   1.266   5.592
  573SOL    HW2 2619   6.989   1.393   5.654
  574SOL     OW 2620   2.879   1.914   5.833
  574SOL    HW1 2621   2.780   1.906   5.841
  574SOL    HW2 2622   2.904   2.010   5.821
  575SOL     OW 2623   2.958   3.892   0.964
  575SOL    HW1 2624   2.931   3.987   0.954
  575SOL    HW2 2625   3.028   3.884   1.035
  576SOL     OW 2626   2.108   3.080   3.132
  576SOL    HW1 2627   2.194   3.041   3.099
  576SOL    HW2 2628   2.084   3.160   3.076
  577SOL     OW 2629   0.811   1.418   2.020
  577SOL    HW1 2630   0.857   1.329   2.020
  577SOL    HW2 2631   0.712   1.405   2.021
  578SOL     OW 2632   2.134   6.013   6.404
  578SOL    HW1 2633   2.177   6.022   6.315
  578SOL    HW2 2634   2.104   6.103   6.436
  579SOL     OW 2635   2.139   4.934   1.873
  579SOL    HW1 2636   2.163   4.885   1.789
  579SOL    HW2 2637   2.190   5.020   1.878
  580SOL     OW 2638   4.306   5.251   5.106
  580SOL    HW1 2639   4.368   5.173   5.100
  580SOL    HW2 2640   4.347   5.329   5.058
  581SOL     OW 2641   1.577   2.977   3.863
  581SOL    HW1 2642   1.527   3.043   3.806
  581SOL    HW2 2643   1.528   2.889   3.862
  582SOL     OW 2644   5.687   5.108   3.569
  582SOL    HW1 2645   5.774   5.157   3.579
  582SOL    HW2 2646   5.619   5.148   3.630
  583SOL     OW 2647   3.508   5.198   5.746
  583SOL    HW1 2648   3.442   5.123   5.734
  583SOL    HW2 2649   3.502   5.231   5.841
  584SOL     OW 2650   4.308   0.829   6.658
  584SOL    HW1 2651   4.277   0.749   6.606
  584SOL    HW2 2652   4.322   0.803   6.754
  585SOL     OW 2653   2.344   6.495   1.316
  585SOL    HW1 2654   2.298   6.428   1.374
  585SOL    HW2 2655   2.424   6.532   1.363
  586SOL     OW 2656   4.285   6.853   1.066
  586SOL    HW1 2657   4.383   6.866   1.056
  586SOL    HW2 2658   4.241   6.939   1.089
  587SOL     OW 2659   5.421   2.285   2.165
  587SOL    HW1 2660   5.365   2.243   2.093
  587SOL    HW2 2661   5.362   2.341   2.224
  588SOL     OW 2662   0.850   5.520   2.194
  588SOL    HW1 2663   0.885   5.612   2.207
  588SOL    HW2 2664   0.925   5.459   2.167
  589SOL     OW 2665   3.572   6.055   1.542
  589SOL    HW1 2666   3.500   6.073   1.609
  589SOL    HW2 2667   3.587   5.956   1.534
  590SOL     OW 2668   4.761   1.690   0.090
  590SOL    HW1 2669   4.797   1.599   0.072
  590SOL    HW2 2670   4.806   1.729   0.170
  591SOL     OW 2671   4.139   6.159   4.592
  591SOL    HW1 2672   4.178   6.139   4.502
  591SOL    HW2 2673   4.115   6.255   4.597
  592SOL     OW 2674   4.531   2.575   4.503
  592SOL    HW1 2675   4.533   2.658   4.558
  592SOL    HW2 2676   4.550   2.597   4.407
  593SOL     OW 2677   3.382   1.461   5.571
  593SOL    HW1 2678   3.348   1.436   5.481
  593SOL    HW2 2679   3.460   1.523   5.561
  594SOL     OW 2680   6.182   0.980   1.797
  594SOL    HW1 2681   6.173   0.914   1.722
  594SOL    HW2 2682   6.169   1.072   1.761
  595SOL     OW 2683   5.180   5.902   2.911
  595SOL    HW1 2684   5.245   5.856   2.971
  595SOL    HW2 2685   5.229   5.966   2.852
  596SOL     OW 2686   6.739   4.169   3.925
  596SOL    HW1 2687   6.822   4.171   3.869
  596SOL    HW2 2688   6.752   4.107   4.002
  597SOL     OW 2689   2.876   0.109   6.595
  597SOL    HW1 2690   2.806   0.168   6.554
  597SOL    HW2 2691   2.835   0.055   6.668
  598SOL     OW 2692   3.206   3.032   4.279
  598SOL    HW1 2693   3.199   3.082   4.365
  598SOL    HW2 2694   3.130   3.057   4.219
  599SOL     OW 2695   0.979   5.773   1.965
  599SOL    HW1 2696   1.000   5.767   1.867
  599SOL    HW2 2697   0.892   5.819   1.978
  600SOL     OW 2698   6.951   3.966   4.903
  600SOL    HW1 2699   0.014   3.949   4.848
  600SOL    HW2 2700   6.926   3.882   4.952
  601SOL     OW 2701   1.261   0.753   5.172
  601SOL    HW1 2702   1.173   0.708   5.160
  601SOL    HW2 2703   1.309   0.712   5.249
  602SOL     OW 2704   2.874   6.066   4.242
  602SOL    HW1 2705   2.939   6.000   4.206
  602SOL    HW2 2706   2.788   6.060   4.190
  603SOL     OW 2707   2.045   0.958   5.427
  603SOL    HW1 2708   1.995   1.042   5.449
  603SOL    HW2 2709   1.996   0.879   5.464
  604SOL     OW 2710   6.466   2.687   1.858
  604SOL    HW1 2711   6.434   2.604   1.814
  604SOL    HW2 2712   6.554   2.714   1.819
  605SOL     OW 2713   0.006   5.139   2.614
  605SOL    HW1 2714   6.955   5.071   2.636
  605SOL    HW2 2715   0.040   5.123   2.522
  606SOL     OW 2716   3.591   0.131   4.869
  606SOL    HW1 2717   3.493   0.120   4.885
  606SOL    HW2 2718   3.614   0.229   4.866
  607SOL     OW 2719   1.251   4.587   6.393
  607SOL    HW1 2720   1.280   4.644   6.317
  607SOL    HW2 2721   1.153   4.598   6.409
  608SOL     OW 2722   3.405   0.742   5.356
  608SOL    HW1 2723   3.351   0.673   5.404
  608SOL    HW2 2724   3.494   0.703   5.332
  609SOL     OW 2725   3.884   2.672   1.640
  609SOL    HW1 2726   3.889   2.749   1.704
  609SOL    HW2 2727   3.969   2.620   1.644
  610SOL     OW 2728   4.686   3.363   0.745
  610SOL    HW1 2729   4.677   3.294   0.817
  610SOL    HW2 2730   4.780   3.364   0.711
  611SOL     OW 2731   4.166   0.123   2.237
  611SOL    HW1 2732   4.119   0.209   2.219
  611SOL    HW2 2733   4.141   0.056   2.168
  612SOL     OW 2734   4.129   4.414   6.097
  612SOL    HW1 2735   4.069   4.334   6.094
  612SOL    HW2 2736   4.119   4.467   6.013
  613SOL     OW 2737   4.350   5.567   5.391
  613SOL    HW1 2738   4.390   5.477   5.412
  613SOL    HW2 2739   4.251   5.558   5.381
  614SOL     OW 2740   5.159   5.769   5.869
  614SOL    HW1 2741   5.190   5.698   5.806
  614SOL    HW2 2742   5.239   5.810   5.914
  615SOL     OW 2743   0.336   5.130   1.195
  615SOL    HW1 2744   0.270   5.193   1.153
  615SOL    HW2 2745   0.303   5.102   1.285
  616SOL     OW 2746   5.939   3.119   3.247
  616SOL    HW1 2747   5.867   3.063   3.206
  616SOL    HW2 2748   5.906   3.158   3.333
  617SOL     OW 2749   2.240   4.878   6.158
  617SOL    HW1 2750   2.155   4.832   6.132
  617SOL    HW2 2751   2.242   4.890   6.258
  618SOL     OW 2752   1.222   1.204   2.286
  618SOL    HW1 2753   1.158   1.258   2.232
  618SOL    HW2 2754   1.290   1.264   2.329
  619SOL     OW 2755   1.019   1.625   6.344
  619SOL    HW1 2756   1.009   1.547   6.406
  619SOL    HW2 2757   1.104   1.614   6.292
  620SOL     OW 2758   4.996   3.356   0.308
  620SOL    HW1 2759   4.918   3.404   0.348
  620SOL    HW2 2760   5.058   3.326   0.381
  621SOL     OW 2761   0.438   4.773   1.080
  621SOL    HW1 2762   0.427   4.763   1.179
  621SOL    HW2 2763   0.524   4.729   1.052
  622SOL     OW 2764   1.922   1.457   0.553
  622SOL    HW1 2765   1.913   1.553   0.528
  622SOL    HW2 2766   1.833   1.412   0.546
  623SOL     OW 2767   0.726   4.644   6.405
  623SOL    HW1 2768   0.678   4.721   6.364
  623SOL    HW2 2769   0.664   4.596   6.468
  624SOL     OW 2770   0.728   2.708   2.759
  624SOL    HW1 2771   0.740   2.713   2.858
  624SOL    HW2 2772   0.814   2.728   2.713
  625SOL     OW 2773   2.763   1.314   2.443
  625SOL    HW1 2774   2.843   1.254   2.445
  625SOL    HW2 2775   2.778   1.387   2.377
  626SOL     OW 2776   2.293   6.526   4.424
  626SOL    HW1 2777   2.311   6.428   4.413
  626SOL    HW2 2778   2.226   6.556   4.356
  627SOL     OW 2779   5.177   0.651   0.277
  627SOL    HW1 2780   5.244   0.694   0.217
  627SOL    HW2 2781   5.130   0.721   0.330
  628SOL     OW 2782   4.891   3.992   3.912
  628SOL    HW1 2783   4.875   4.002   4.011
  628SOL    HW2 2784   4.980   4.029   3.889
  629SOL     OW 2785   0.616   6.995   1.092
  629SOL    HW1 2786   0.564   6.977   1.175
  629SOL    HW2 2787   0.698   0.029   1.114
  630SOL     OW 2788   4.429   1.508   1.022
  630SOL    HW1 2789   4.473   1.419   1.041
  630SOL    HW2 2790   4.491   1.564   0.968
  631SOL     OW 2791   2.282   0.053   5.559
  631SOL    HW1 2792   2.350   0.077   5.489
  631SOL    HW2 2793   2.305   0.098   5.645
  632SOL     OW 2794   2.319   1.129   1.032
  632SOL    HW1 2795   2.248   1.159   1.095
  632SOL    HW2 2796   2.313   1.030   1.019
  633SOL     OW 2797   2.855   6.906   6.041
  633SOL    HW1 2798   2.892   6.944   6.126
  633SOL    HW2 2799   2.919   6.924   5.966
  634SOL     OW 2800   3.890   5.956   1.009
  634SOL    HW1 2801   3.827   6.028   0.981
  634SOL    HW2 2802   3.914   5.900   0.929
  635SOL     OW 2803   2.743   6.723   2.720
  635SOL    HW1 2804   2.827   6.765   2.685
  635SOL    HW2 2805   2.746   6.718   2.819
  636SOL     OW 2806   4.902   5.158   6.734
  636SOL    HW1 2807   4.965   5.116   6.800
  636SOL    HW2 2808   4.891   5.098   6.655
  637SOL     OW 2809   4.884   4.660   1.257
  637SOL    HW1 2810   4.802   4.640   1.205
  637SOL    HW2 2811   4.947   4.582   1.253
  638SOL     OW 2812   4.913   1.157   1.857
  638SOL    HW1 2813   5.000   1.156   1.808
  638SOL    HW2 2814   4.925   1.200   1.946
  639SOL     OW 2815   4.095   4.756   2.211
  639SOL    HW1 2816   4.149   4.689   2.160
  639SOL    HW2 2817   4.001   4.724   2.219
  640SOL     OW 2818   3.269   4.146   5.207
  640SOL    HW1 2819   3.313   4.131   5.296
  640SOL    HW2 2820   3.194   4.212   5.218
  641SOL     OW 2821   6.878   6.032   5.008
  641SOL    HW1 2822   6.886   5.947   4.956
  641SOL    HW2 2823   6.922   6.107   4.958
  642SOL     OW 2824   0.261   4.810   4.907
  642SOL    HW1 2825   0.354   4.774   4.898
  642SOL    HW2 2826   0.239   4.825   5.003
  643SOL     OW 2827   6.278   5.339   5.935
  643SOL    HW1 2828   6.317   5.340   6.027
  643SOL    HW2 2829   6.185   5.304   5.938
  644SOL     OW 2830   0.470   6.892   2.418
  644SOL    HW1 2831   0.408   6.884   2.496
  644SOL    HW2 2832   0.564   6.896   2.451
  645SOL     OW 2833   5.714   2.538   3.970
  645SOL    HW1 2834   5.654   2.611   4.002
  645SOL    HW2 2835   5.809   2.560   3.993
  646SOL     OW 2836   1.437   1.316   4.814
  646SOL    HW1 2837   1.399   1.224   4.804
  646SOL    HW2 2838   1.380   1.381   4.764
  647SOL     OW 2839   5.990   3.050   0.357
  647SOL    HW1 2840   6.048   2.998   0.419
  647SOL    HW2 2841   5.894   3.024   0.370
  648SOL     OW 2842   5.930   4.230   2.074
  648SOL    HW1 2843   5.916   4.224   2.173
  648SOL    HW2 2844   5.848   4.200   2.027
  649SOL     OW 2845   3.989   4.803   0.780
  649SOL    HW1 2846   4.039   4.753   0.851
  649SOL    HW2 2847   3.903   4.836   0.817
  650SOL     OW 2848   4.957   4.246   0.462
  650SOL    HW1 2849   4.864   4.281   0.455
  650SOL    HW2 2850   4.956   4.152   0.497
  651SOL     OW 2851   0.885   6.181   0.417
  651SOL    HW1 2852   0.828   6.139   0.487
  651SOL    HW2 2853   0.975   6.202   0.456
  652SOL     OW 2854   4.570   1.205   2.357
  652SOL    HW1 2855   4.590   1.288   2.410
  652SOL    HW2 2856   4.480   1.214   2.314
  653SOL     OW 2857   3.739   4.906   4.210
  653SOL    HW1 2858   3.812   4.939   4.151
  653SOL    HW2 2859   3.663   4.970   4.209
  654SOL     OW 2860   0.121   5.121   6.894
  654SOL    HW1 2861   0.199   5.074   6.937
  654SOL    HW2 2862   0.100   5.076   6.807
  655SOL     OW 2863   0.807   0.572   0.820
  655SOL    HW1 2864   0.817   0.559   0.721
  655SOL    HW2 2865   0.883   0.527   0.867
  656SOL     OW 2866   2.164   6.419   2.423
  656SOL    HW1 2867   2.162   6.403   2.522
  656SOL    HW2 2868   2.169   6.518   2.405
  657SOL     OW 2869   3.475   1.320   0.626
  657SOL    HW1 2870   3.461   1.313   0.527
  657SOL    HW2 2871   3.559   1.370   0.645
  658SOL     OW 2872   3.040   3.667   6.581
  658SOL    HW1 2873   3.053   3.697   6.676
  658SOL    HW2 2874   3.080   3.576   6.569
  659SOL     OW 2875   3.280   6.902   6.987
  659SOL    HW1 2876   3.201   6.961   6.995
  659SOL    HW2 2877   3.258   6.824   6.928
  660SOL     OW 2878   3.579   5.513   2.678
  660SOL    HW1 2879   3.636   5.590   2.709
  660SOL    HW2 2880   3.632   5.453   2.619
  661SOL     OW 2881   4.598   5.514   2.834
  661SOL    HW1 2882   4.630   5.603   2.804
  661SOL    HW2 2883   4.511   5.524   2.883
  662SOL     OW 2884   3.561   1.362   6.171
  662SOL    HW1 2885   3.544   1.442   6.228
  662SOL    HW2 2886   3.514   1.372   6.084
  663SOL     OW 2887   2.446   4.998   5.307
  663SOL    HW1 2888   2.423   4.901   5.307
  663SOL    HW2 2889   2.531   5.012   5.256
  664SOL     OW 2890   6.929   0.635   6.805
  664SOL    HW1 2891   6.940   0.673   6.713
  664SOL    HW2 2892   6.841   0.588   6.811
  665SOL     OW 2893   2.531   5.278   3.443
  665SOL    HW1 2894   2.471   5.263   3.365
  665SOL    HW2 2895   2.626   5.284   3.412
  666SOL     OW 2896   3.740   0.707   1.691
  666SOL    HW1 2897   3.745   0.607   1.694
  666SOL    HW2 2898   3.787   0.745   1.770
  667SOL     OW 2899   1.157   6.090   2.106
  667SOL    HW1 2900   1.067   6.060   2.139
  667SOL    HW2 2901   1.158   6.087   2.006
  668SOL     OW 2902   5.528   4.066   6.266
  668SOL    HW1 2903   5.602   4.040   6.204
  668SOL    HW2 2904   5.480   3.984   6.297
  669SOL     OW 2905   5.294   1.018   2.739
  669SOL    HW1 2906   5.230   1.082   2.697
  669SOL    HW2 2907   5.339   1.063   2.816
  670SOL     OW 2908   1.258   2.200   3.774
  670SOL    HW1 2909   1.239   2.298   3.771
  670SOL    HW2 2910   1.343   2.184   3.824
  671SOL     OW 2911   2.280   6.237   1.444
  671SOL    HW1 2912   2.378   6.241   1.423
  671SOL    HW2 2913   2.245   6.146   1.422
  672SOL     OW 2914   0.793   6.788   2.113
  672SOL    HW1 2915   0.721   6.850   2.081
  672SOL    HW2 2916   0.754   6.696   2.124
  673SOL     OW 2917   5.414   6.778   0.827
  673SOL    HW1 2918   5.370   6.703   0.877
  673SOL    HW2 2919   5.345   6.827   0.774
  674SOL     OW 2920   0.126   0.521   5.008
  674SOL    HW1 2921   0.116   0.455   4.933
  674SOL    HW2 2922   0.169   0.476   5.086
  675SOL     OW 2923   6.313   2.649   2.567
  675SOL    HW1 2924   6.322   2.597   2.653
  675SOL    HW2 2925   6.239   2.609   2.512
  676SOL     OW 2926   2.253   4.601   5.536
  676SOL    HW1 2927   2.245   4.673   5.605
  676SOL    HW2 2928   2.184   4.531   5.553
  677SOL     OW 2929   4.672   1.055   1.154
  677SOL    HW1 2930   4.738   1.108   1.101
  677SOL    HW2 2931   4.718   0.977   1.196
  678SOL     OW 2932   2.227   4.187   5.548
  678SOL    HW1 2933   2.294   4.184   5.474
  678SOL    HW2 2934   2.142   4.227   5.514
  679SOL     OW 2935   4.769   1.835   5.229
  679SOL    HW1 2936   4.837   1.782   5.177
  679SOL    HW2 2937   4.693   1.859   5.169
  680SOL     OW 2938   5.202   6.727   4.400
  680SOL    HW1 2939   5.264   6.667   4.450
  680SOL    HW2 2940   5.120   6.675   4.373
  681SOL     OW 2941   4.906   5.651   1.889
  681SOL    HW1 2942   4.977   5.630   1.956
  681SOL    HW2 2943   4.943   5.715   1.821
  682SOL     OW 2944   0.985   0.694   2.890
  682SOL    HW1 2945   1.035   0.689   2.976
  682SOL    HW2 2946   1.050   0.685   2.814
  683SOL     OW 2947   4.120   3.548   1.278
  683SOL    HW1 2948   4.147   3.463   1.233
  683SOL    HW2 2949   4.200   3.606   1.292
  684SOL     OW 2950   6.337   6.895   6.090
  684SOL    HW1 2951   6.240   6.884   6.073
  684SOL    HW2 2952   6.370   6.978   6.043
  685SOL     OW 2953   3.669   0.601   3.338
  685SOL    HW1 2954   3.722   0.654   3.271
  685SOL    HW2 2955   3.576   0.587   3.303
  686SOL     OW 2956   4.208   1.337   4.350
  686SOL    HW1 2957   4.124   1.341   4.296
  686SOL    HW2 2958   4.204   1.259   4.412
  687SOL     OW 2959   1.200   2.071   4.548
  687SOL    HW1 2960   1.300   2.078   4.545
  687SOL    HW2 2961   1.166   2.043   4.458
  688SOL     OW 2962   6.779   1.692   6.835
  688SOL    HW1 2963   6.730   1.622   6.888
  688SOL    HW2 2964   6.724   1.775   6.830
  689SOL     OW 2965   1.716   5.188   5.679
  689SOL    HW1 2966   1.703   5.114   5.745
  689SOL    HW2 2967   1.727   5.274   5.728
  690SOL     OW 2968   6.167   3.628   2.614
  690SOL    HW1 2969   6.121   3.653   2.699
  690SOL    HW2 2970   6.107   3.647   2.537
  691SOL     OW 2971   4.050   1.778   6.534
  691SOL    HW1 2972   4.106   1.820   6.606
  691SOL    HW2 2973   4.005   1.696   6.571
  692SOL     OW 2974   3.064   1.611   5.125
  692SOL    HW1 2975   3.056   1.711   5.118
  692SOL    HW2 2976   3.137   1.579   5.065
  693SOL     OW 2977   5.060   6.101   3.268
  693SOL    HW1 2978   5.149   6.055   3.271
  693SOL    HW2 2979   5.055   6.168   3.341
  694SOL     OW 2980   4.356   5.732   4.782
  694SOL    HW1 2981   4.314   5.822   4.796
  694SOL    HW2 2982   4.408   5.707   4.863
  695SOL     OW 2983   3.165   6.630   4.011
  695SOL    HW1 2984   3.231   6.582   4.069
  695SOL    HW2 2985   3.074   6.590   4.025
  696SOL     OW 2986   5.170   4.033   2.922
  696SOL    HW1 2987   5.136   4.075   3.006
  696SOL    HW2 2988   5.101   4.042   2.850
  697SOL     OW 2989   0.712   5.011   2.439
  697SOL    HW1 2990   0.661   4.962   2.511
  697SOL    HW2 2991   0.650   5.072   2.390
  698SOL     OW 2992   5.335   6.877   1.302
  698SOL    HW1 2993   5.358   6.935   1.381
  698SOL    HW2 2994   5.288   6.932   1.233
  699SOL     OW 2995   3.085   1.935   0.535
  699SOL    HW1 2996   2.986   1.927   0.523
  699SOL    HW2 2997   3.128   1.846   0.523
  700SOL     OW 2998   3.467   0.053   2.803
  700SOL    HW1 2999   3.486   6.996   2.866
  700SOL    HW2 3000   3.545   0.116   2.803
  701SOL     OW 3001   6.177   5.056   1.561
  701SOL    HW1 3002   6.170   4.958   1.575
  701SOL    HW2 3003   6.207   5.074   1.467
  702SOL     OW 3004   2.830   1.088   4.414
  702SOL    HW1 3005   2.752   1.147   4.431
  702SOL    HW2 3006   2.915   1.138   4.430
  703SOL     OW 3007   3.275   2.646   5.990
  703SOL    HW1 3008   3.297   2.741   6.010
  703SOL    HW2 3009   3.244   2.637   5.896
  704SOL     OW 3010   1.782   3.098   6.163
  704SOL    HW1 3011   1.854   3.137   6.106
  704SOL    HW2 3012   1.693   3.125   6.127
  705SOL     OW 3013   6.902   6.015   4.368
  705SOL    HW1 3014   6.809   6.006   4.403
  705SOL    HW2 3015   6.931   5.928   4.327
  706SOL     OW 3016   4.535   1.190   5.071
  706SOL    HW1 3017   4.552   1.216   4.976
  706SOL    HW2 3018   4.454   1.130   5.075
  707SOL     OW 3019   3.418   4.937   3.289
  707SOL    HW1 3020   3.341   4.923   3.226
  707SOL    HW2 3021   3.470   4.852   3.298
  708SOL     OW 3022   3.162   1.012   3.655
  708SOL    HW1 3023   3.079   1.057   3.622
  708SOL    HW2 3024   3.212   0.973   3.577
  709SOL     OW 3025   2.347   0.110   1.583
  709SOL    HW1 3026   2.252   0.140   1.576
  709SOL    HW2 3027   2.384   0.138   1.672
  710SOL     OW 3028   4.468   2.937   1.680
  710SOL    HW1 3029   4.517   2.951   1.766
  710SOL    HW2 3030   4.530   2.950   1.603
  711SOL     OW 3031   0.354   2.179   6.043
  711SOL    HW1 3032   0.289   2.104   6.051
  711SOL    HW2 3033   0.388   2.204   6.134
  712SOL     OW 3034   4.713   2.944   0.696
  712SOL    HW1 3035   4.787   2.913   0.756
  712SOL    HW2 3036   4.681   2.867   0.640
  713SOL     OW 3037   4.147   2.772   5.356
  713SOL    HW1 3038   4.169   2.701   5.290
  713SOL    HW2 3039   4.053   2.805   5.340
  714SOL     OW 3040   6.093   4.520   3.330
  714SOL    HW1 3041   6.176   4.543   3.280
  714SOL    HW2 3042   6.049   4.604   3.362
  715SOL     OW 3043   6.516   5.217   5.796
  715SOL    HW1 3044   6.485   5.184   5.707
  715SOL    HW2 3045   6.441   5.261   5.844
  716SOL     OW 3046   1.902   0.876   2.549
  716SOL    HW1 3047   1.892   0.974   2.532
  716SOL    HW2 3048   1.829   0.845   2.609
  717SOL     OW 3049   5.535   4.695   3.969
  717SOL    HW1 3050   5.566   4.646   3.887
  717SOL    HW2 3051   5.601   4.767   3.991
  718SOL     OW 3052   4.913   1.710   4.089
  718SOL    HW1 3053   4.870   1.686   4.175
  718SOL    HW2 3054   4.878   1.799   4.057
  719SOL     OW 3055   6.056   0.507   2.824
  719SOL    HW1 3056   6.009   0.553   2.899
  719SOL    HW2 3057   6.043   0.408   2.832
  720SOL     OW 3058   1.733   1.135   0.206
  720SOL    HW1 3059   1.720   1.116   0.304
  720SOL    HW2 3060   1.701   1.057   0.153
  721SOL     OW 3061   6.861   2.487   2.843
  721SOL    HW1 3062   6.887   2.513   2.750
  721SOL    HW2 3063   6.937   2.439   2.887
  722SOL     OW 3064   4.247   6.956   6.967
  722SOL    HW1 3065   4.300   0.001   6.911
  722SOL    HW2 3066   4.151   6.987   6.970
  723SOL     OW 3067   2.499   6.112   3.854
  723SOL    HW1 3068   2.569   6.181   3.871
  723SOL    HW2 3069   2.541   6.023   3.841
  724SOL     OW 3070   0.999   0.938   3.944
  724SOL    HW1 3071   0.971   0.867   3.879
  724SOL    HW2 3072   1.015   0.896   4.034
  725SOL     OW 3073   1.989   4.523   2.111
  725SOL    HW1 3074   1.979   4.454   2.039
  725SOL    HW2 3075   2.016   4.479   2.197
  726SOL     OW 3076   2.324   5.171   0.787
  726SOL    HW1 3077   2.277   5.254   0.759
  726SOL    HW2 3078   2.306   5.154   0.884
  727SOL     OW 3079   4.701   5.114   5.700
  727SOL    HW1 3080   4.627   5.060   5.737
  727SOL    HW2 3081   4.668   5.205   5.677
  728SOL     OW 3082   0.018   3.174   5.030
  728SOL    HW1 3083   0.071   3.092   5.049
  728SOL    HW2 3084   6.991   3.204   5.114
  729SOL     OW 3085   0.260   3.495   1.306
  729SOL    HW1 3086   0.204   3.570   1.271
  729SOL    HW2 3087   0.228   3.409   1.267
  730SOL     OW 3088   4.884   0.859   2.607
  730SOL    HW1 3089   4.938   0.775   2.601
  730SOL    HW2 3090   4.880   0.890   2.702
  731SOL     OW 3091   4.447   4.613   6.943
  731SOL    HW1 3092   4.535   4.571   6.919
  731SOL    HW2 3093   4.435   4.698   6.891
  732SOL     OW 3094   4.820   1.480   3.025
  732SOL    HW1 3095   4.733   1.456   3.069
  732SOL    HW2 3096   4.863   1.396   2.992
  733SOL     OW 3097   6.272   6.285   3.355
  733SOL    HW1 3098   6.317   6.338   3.427
  733SOL    HW2 3099   6.294   6.188   3.366
  734SOL     OW 3100   6.103   5.612   2.761
  734SOL    HW1 3101   6.082   5.622   2.663
  734SOL    HW2 3102   6.046   5.676   2.813
  735SOL     OW 3103   5.274   0.542   1.941
  735SOL    HW1 3104   5.235   0.634   1.948
  735SOL    HW2 3105   5.287   0.518   1.845
  736SOL     OW 3106   1.502   1.618   4.286
  736SOL    HW1 3107   1.426   1.656   4.235
  736SOL    HW2 3108   1.468   1.564   4.363
  737SOL     OW 3109   5.235   1.412   6.256
  737SOL    HW1 3110   5.221   1.318   6.285
  737SOL    HW2 3111   5.185   1.428   6.171
  738SOL     OW 3112   2.669   4.327   1.406
  738SOL    HW1 3113   2.675   4.419   1.367
  738SOL    HW2 3114   2.761   4.293   1.425
  739SOL     OW 3115   2.959   6.831   4.585
  739SOL    HW1 3116   2.967   6.807   4.682
  739SOL    HW2 3117   2.907   6.760   4.537
  740SOL     OW 3118   5.672   2.220   3.055
  740SOL    HW1 3119   5.719   2.142   3.014
  740SOL    HW2 3120   5.588   2.188   3.099
  741SOL     OW 3121   2.536   0.628   3.650
  741SOL    HW1 3122   2.599   0.704   3.668
  741SOL    HW2 3123   2.587   0.542   3.653
  742SOL     OW 3124   1.676   6.872   1.324
  742SOL    HW1 3125   1.733   6.928   1.264
  742SOL    HW2 3126   1.617   6.931   1.379
  743SOL     OW 3127   1.027   6.196   3.658
  743SOL    HW1 3128   0.959   6.123   3.666
  743SOL    HW2 3129   1.108   6.172   3.712
  744SOL     OW 3130   5.450   1.237   0.531
  744SOL    HW1 3131   5.380   1.203   0.468
  744SOL    HW2 3132   5.407   1.300   0.597
  745SOL     OW 3133   2.241   5.545   4.996
  745SOL    HW1 3134   2.231   5.531   4.897
  745SOL    HW2 3135   2.193   5.472   5.045
  746SOL     OW 3136   5.611   4.764   5.867
  746SOL    HW1 3137   5.655   4.679   5.839
  746SOL    HW2 3138   5.662   4.805   5.943
  747SOL     OW 3139   5.695   5.468   3.278
  747SOL    HW1 3140   5.621   5.410   3.311
  747SOL    HW2 3141   5.781   5.416   3.278
  748SOL     OW 3142   5.400   5.628   2.546
  748SOL    HW1 3143   5.318   5.658   2.594
  748SOL    HW2 3144   5.374   5.582   2.461
  749SOL     OW 3145   5.383   4.120   3.602
  749SOL    HW1 3146   5.325   4.194   3.567
  749SOL    HW2 3147   5.421   4.070   3.525
  750SOL     OW 3148   2.518   1.813   1.909
  750SOL    HW1 3149   2.493   1.717   1.901
  750SOL    HW2 3150   2.599   1.831   1.853
  751SOL     OW 3151   4.700   1.109   0.226
  751SOL    HW1 3152   4.751   1.024   0.217
  751SOL    HW2 3153   4.657   1.132   0.139
  752SOL     OW 3154   3.252   2.626   5.327
  752SOL    HW1 3155   3.158   2.645   5.357
  752SOL    HW2 3156   3.253   2.539   5.277
  753SOL     OW 3157   3.932   4.102   4.969
  753SOL    HW1 3158   3.960   4.063   4.881
  753SOL    HW2 3159   3.906   4.197   4.957
  754SOL     OW 3160   5.225   0.834   6.346
  754SOL    HW1 3161   5.134   0.823   6.384
  754SOL    HW2 3162   5.284   0.761   6.380
  755SOL     OW 3163   3.553   4.481   5.618
  755SOL    HW1 3164   3.486   4.539   5.573
  755SOL    HW2 3165   3.579   4.406   5.558
  756SOL     OW 3166   2.535   5.198   6.431
  756SOL    HW1 3167   2.588   5.244   6.360
  756SOL    HW2 3168   2.444   5.240   6.438
  757SOL     OW 3169   1.919   7.007   2.741
  757SOL    HW1 3170   1.896   0.075   2.696
  757SOL    HW2 3171   1.851   6.938   2.718
  758SOL     OW 3172   3.445   1.556   3.995
  758SOL    HW1 3173   3.446   1.498   4.076
  758SOL    HW2 3174   3.384   1.634   4.010
  759SOL     OW 3175   0.498   3.041   4.470
  759SOL    HW1 3176   0.482   2.948   4.439
  759SOL    HW2 3177   0.521   3.100   4.392
  760SOL     OW 3178   6.609   6.749   4.061
  760SOL    HW1 3179   6.630   6.652   4.069
  760SOL    HW2 3180   6.513   6.764   4.082
  761SOL     OW 3181   4.559   4.263   5.628
  761SOL    HW1 3182   4.515   4.174   5.647
  761SOL    HW2 3183   4.555   4.282   5.530
  762SOL     OW 3184   2.512   5.896   4.546
  762SOL    HW1 3185   2.436   5.900   4.610
  762SOL    HW2 3186   2.575   5.824   4.574
  763SOL     OW 3187   5.870   0.864   6.601
  763SOL    HW1 3188   5.897   0.849   6.506
  763SOL    HW2 3189   5.816   0.949   6.607
  764SOL     OW 3190   5.172   6.811   5.094
  764SOL    HW1 3191   5.155   6.907   5.117
  764SOL    HW2 3192   5.228   6.769   5.166
  765SOL     OW 3193   0.671   6.572   0.728
  765SOL    HW1 3194   0.629   6.651   0.774
  765SOL    HW2 3195   0.758   6.600   0.687
  766SOL     OW 3196   1.741   2.465   5.329
  766SOL    HW1 3197   1.828   2.460   5.279
  766SOL    HW2 3198   1.679   2.394   5.295
  767SOL     OW 3199   0.165   6.643   4.229
  767SOL    HW1 3200   0.114   6.726   4.254
  767SOL    HW2 3201   0.166   6.634   4.129
  768SOL     OW 3202   2.553   6.165   2.297
  768SOL    HW1 3203   2.503   6.111   2.365
  768SOL    HW2 3204   2.604   6.103   2.237
  769SOL     OW 3205   2.936   2.069   5.039
  769SOL    HW1 3206   2.972   1.999   5.101
  769SOL    HW2 3207   3.001   2.145   5.033
  770SOL     OW 3208   1.864   4.616   4.649
  770SOL    HW1 3209   1.796   4.666   4.703
  770SOL    HW2 3210   1.868   4.655   4.557
  771SOL     OW 3211   0.937   5.630   2.909
  771SOL    HW1 3212   1.024   5.643   2.956
  771SOL    HW2 3213   0.904   5.537   2.926
  772SOL     OW 3214   5.044   4.860   6.706
  772SOL    HW1 3215   4.975   4.875   6.776
  772SOL    HW2 3216   5.135   4.878   6.744
  773SOL     OW 3217   0.999   3.441   3.600
  773SOL    HW1 3218   1.047   3.408   3.519
  773SOL    HW2 3219   0.992   3.367   3.667
  774SOL     OW 3220   2.401   0.893   3.365
  774SOL    HW1 3221   2.349   0.963   3.317
  774SOL    HW2 3222   2.494   0.889   3.329
  775SOL     OW 3223   2.103   3.820   4.338
  775SOL    HW1 3224   2.133   3.802   4.244
  775SOL    HW2 3225   2.126   3.742   4.396
  776SOL     OW 3226   2.352   6.292   6.284
  776SOL    HW1 3227   2.342   6.360   6.213
  776SOL    HW2 3228   2.267   6.285   6.337
  777SOL     OW 3229   2.174   3.979   6.896
  777SOL    HW1 3230   2.227   4.064   6.898
  777SOL    HW2 3231   2.235   3.903   6.877
  778SOL     OW 3232   3.091   6.783   1.616
  778SOL    HW1 3233   2.998   6.817   1.600
  778SOL    HW2 3234   3.116   6.799   1.711
  779SOL     OW 3235   0.481   2.042   2.319
  779SOL    HW1 3236   0.573   2.044   2.360
  779SOL    HW2 3237   0.433   2.127   2.342
  780SOL     OW 3238   1.241   1.642   5.666
  780SOL    HW1 3239   1.215   1.600   5.752
  780SOL    HW2 3240   1.283   1.573   5.606
  781SOL     OW 3241   0.626   3.977   0.954
  781SOL    HW1 3242   0.708   3.966   0.898
  781SOL    HW2 3243   0.631   4.064   1.004
  782SOL     OW 3244   1.635   3.717   6.165
  782SOL    HW1 3245   1.621   3.793   6.228
  782SOL    HW2 3246   1.649   3.633   6.218
  783SOL     OW 3247   5.581   4.321   6.914
  783SOL    HW1 3248   5.502   4.377   6.938
  783SOL    HW2 3249   5.644   4.375   6.857
  784SOL     OW 3250   3.353   6.305   0.883
  784SOL    HW1 3251   3.275   6.277   0.939
  784SOL    HW2 3252   3.386   6.394   0.914
  785SOL     OW 3253   0.451   0.309   4.535
  785SOL    HW1 3254   0.430   0.213   4.521
  785SOL    HW2 3255   0.408   0.341   4.619
  786SOL     OW 3256   6.768   0.946   3.181
  786SOL    HW1 3257   6.835   1.019   3.197
  786SOL    HW2 3258   6.752   0.896   3.266
  787SOL     OW 3259   2.727   0.010   0.453
  787SOL    HW1 3260   2.755   6.945   0.407
  787SOL    HW2 3261   2.639   0.041   0.417
  788SOL     OW 3262   3.788   3.323   0.820
  788SOL    HW1 3263   3.737   3.360   0.898
  788SOL    HW2 3264   3.743   3.240   0.787
  789SOL     OW 3265   4.724   5.424   1.501
  789SOL    HW1 3266   4.643   5.454   1.551
  789SOL    HW2 3267   4.733   5.325   1.508
  790SOL     OW 3268   0.706   2.968   2.333
  790SOL    HW1 3269   0.659   2.943   2.418
  790SOL    HW2 3270   0.648   2.943   2.255
  791SOL     OW 3271   3.090   5.195   5.063
  791SOL    HW1 3272   3.072   5.139   4.982
  791SOL    HW2 3273   3.188   5.205   5.076
  792SOL     OW 3274   1.049   1.263   1.113
  792SOL    HW1 3275   0.970   1.321   1.092
  792SOL    HW2 3276   1.074   1.212   1.031
  793SOL     OW 3277   3.513   5.874   3.950
  793SOL    HW1 3278   3.510   5.949   3.883
  793SOL    HW2 3279   3.503   5.787   3.902
  794SOL     OW 3280   3.446   3.303   3.344
  794SOL    HW1 3281   3.499   3.375   3.299
  794SOL    HW2 3282   3.467   3.215   3.301
  795SOL     OW 3283   3.993   0.401   6.334
  795SOL    HW1 3284   3.915   0.461   6.355
  795SOL    HW2 3285   4.060   0.407   6.408
  796SOL     OW 3286   1.617   3.363   6.850
  796SOL    HW1 3287   1.697   3.338   6.795
  796SOL    HW2 3288   1.536   3.319   6.811
  797SOL     OW 3289   4.928   6.913   0.866
  797SOL    HW1 3290   4.904   6.990   0.925
  797SOL    HW2 3291   4.853   6.895   0.802
  798SOL     OW 3292   4.032   6.769   0.221
  798SOL    HW1 3293   4.129   6.786   0.239
  798SOL    HW2 3294   3.983   6.856   0.224
  799SOL     OW 3295   1.269   1.961   6.675
  799SOL    HW1 3296   1.355   1.971   6.626
  799SOL    HW2 3297   1.206   1.905   6.621
  800SOL     OW 3298   6.280   2.309   1.434
  800SOL    HW1 3299   6.295   2.263   1.522
  800SOL    HW2 3300   6.236   2.246   1.370
  801SOL     OW 3301   1.866   5.445   5.543
  801SOL    HW1 3302   1.855   5.467   5.640
  801SOL    HW2 3303   1.961   5.421   5.525
  802SOL     OW 3304   5.645   2.314   7.014
  802SOL    HW1 3305   5.572   2.333   6.948
  802SOL    HW2 3306   5.708   2.392   7.017
  803SOL     OW 3307   2.609   1.018   5.439
  803SOL    HW1 3308   2.528   0.983   5.487
  803SOL    HW2 3309   2.611   1.118   5.445
  804SOL     OW 3310   6.494   0.381   1.612
  804SOL    HW1 3311   6.520   0.365   1.707
  804SOL    HW2 3312   6.471   0.293   1.569
  805SOL     OW 3313   3.386   0.593   3.650
  805SOL    HW1 3314   3.374   0.579   3.748
  805SOL    HW2 3315   3.474   0.637   3.632
  806SOL     OW 3316   1.532   6.414   5.196
  806SOL    HW1 3317   1.541   6.404   5.295
  806SOL    HW2 3318   1.435   6.423   5.173
  807SOL     OW 3319   0.600   6.524   5.633
  807SOL    HW1 3320   0.535   6.598   5.651
  807SOL    HW2 3321   0.627   6.481   5.719
  808SOL     OW 3322   5.428   2.996   0.150
  808SOL    HW1 3323   5.516   2.949   0.159
  808SOL    HW2 3324   5.385   3.003   0.240
  809SOL     OW 3325   1.301   5.205   0.240
  809SOL    HW1 3326   1.358   5.130   0.207
  809SOL    HW2 3327   1.208   5.172   0.256
  810SOL     OW 3328   2.891   3.529   0.400
  810SOL    HW1 3329   2.857   3.620   0.377
  810SOL    HW2 3330   2.868   3.466   0.326
  811SOL     OW 3331   5.572   4.660   4.594
  811SOL    HW1 3332   5.585   4.739   4.535
  811SOL    HW2 3333   5.474   4.638   4.599
  812SOL     OW 3334   0.688   2.546   2.081
  812SOL    HW1 3335   0.725   2.454   2.087
  812SOL    HW2 3336   0.590   2.542   2.063
  813SOL     OW 3337   1.594   1.782   5.196
  813SOL    HW1 3338   1.602   1.829   5.107
  813SOL    HW2 3339   1.546   1.695   5.183
  814SOL     OW 3340   1.152   5.478   3.266
  814SOL    HW1 3341   1.071   5.487   3.323
  814SOL    HW2 3342   1.161   5.383   3.236
  815SOL     OW 3343   4.845   2.399   3.967
  815SOL    HW1 3344   4.930   2.351   3.945
  815SOL    HW2 3345   4.799   2.352   4.042
  816SOL     OW 3346   5.290   3.685   0.227
  816SOL    HW1 3347   5.214   3.744   0.254
  816SOL    HW2 3348   5.369   3.741   0.204
  817SOL     OW 3349   1.084   4.814   6.953
  817SOL    HW1 3350   1.015   4.743   6.968
  817SOL    HW2 3351   1.173   4.781   6.985
  818SOL     OW 3352   5.946   2.594   4.092
  818SOL    HW1 3353   5.925   2.688   4.120
  818SOL    HW2 3354   6.041   2.589   4.060
  819SOL     OW 3355   5.116   2.746   2.096
  819SOL    HW1 3356   5.161   2.687   2.030
  819SOL    HW2 3357   5.138   2.841   2.076
  820SOL     OW 3358   2.407   1.891   5.196
  820SOL    HW1 3359   2.505   1.906   5.208
  820SOL    HW2 3360   2.381   1.804   5.236
  821SOL     OW 3361   5.328   3.954   5.179
  821SOL    HW1 3362   5.265   3.955   5.102
  821SOL    HW2 3363   5.336   3.861   5.216
  822SOL     OW 3364   0.589   4.315   3.487
  822SOL    HW1 3365   0.563   4.247   3.555
  822SOL    HW2 3366   0.572   4.279   3.395
  823SOL     OW 3367   0.758   3.386   5.763
  823SOL    HW1 3368   0.795   3.312   5.820
  823SOL    HW2 3369   0.829   3.454   5.747
  824SOL     OW 3370   5.409   1.122   5.193
  824SOL    HW1 3371   5.343   1.195   5.172
  824SOL    HW2 3372   5.492   1.162   5.232
  825SOL     OW 3373   6.896   5.848   1.027
  825SOL    HW1 3374   6.942   5.898   0.953
  825SOL    HW2 3375   6.933   5.756   1.034
  826SOL     OW 3376   3.661   1.267   5.459
  826SOL    HW1 3377   3.599   1.306   5.391
  826SOL    HW2 3378   3.617   1.267   5.549
  827SOL     OW 3379   3.326   3.846   4.186
  827SOL    HW1 3380   3.413   3.825   4.141
  827SOL    HW2 3381   3.304   3.943   4.172
  828SOL     OW 3382   6.074   5.635   4.923
  828SOL    HW1 3383   6.080   5.672   4.830
  828SOL    HW2 3384   6.016   5.695   4.978
  829SOL     OW 3385   3.367   2.862   2.821
  829SOL    HW1 3386   3.279   2.856   2.774
  829SOL    HW2 3387   3.429   2.919   2.768
  830SOL     OW 3388   6.615   4.506   6.998
  830SOL    HW1 3389   6.556   4.563   0.037
  830SOL    HW2 3390   6.565   4.479   6.915
  831SOL     OW 3391   5.714   6.205   0.995
  831SOL    HW1 3392   5.749   6.177   1.084
  831SOL    HW2 3393   5.719   6.304   0.987
  832SOL     OW 3394   3.298   2.119   4.870
  832SOL    HW1 3395   3.268   2.028   4.842
  832SOL    HW2 3396   3.230   2.159   4.931
  833SOL     OW 3397   1.983   3.144   6.331
  833SOL    HW1 3398   1.897   3.139   6.280
  833SOL    HW2 3399   1.971   3.099   6.420
  834SOL     OW 3400   4.855   3.566   6.643
  834SOL    HW1 3401   4.907   3.604   6.721
  834SOL    HW2 3402   4.871   3.468   6.638
  835SOL     OW 3403   1.124   0.096   4.474
  835SOL    HW1 3404   1.173   0.059   4.396
  835SOL    HW2 3405   1.173   0.073   4.558
  836SOL     OW 3406   3.076   1.224   5.029
  836SOL    HW1 3407   3.115   1.309   4.994
  836SOL    HW2 3408   3.130   1.147   4.996
  837SOL     OW 3409   1.742   0.602   0.807
  837SOL    HW1 3410   1.642   0.599   0.818
  837SOL    HW2 3411   1.772   0.697   0.807
  838SOL     OW 3412   2.077   5.772   3.665
  838SOL    HW1 3413   2.108   5.809   3.577
  838SOL    HW2 3414   2.130   5.814   3.739
  839SOL     OW 3415   1.489   1.512   0.914
  839SOL    HW1 3416   1.445   1.547   0.831
  839SOL    HW2 3417   1.466   1.572   0.991
  840SOL     OW 3418   5.126   5.778   0.242
  840SOL    HW1 3419   5.205   5.774   0.180
  840SOL    HW2 3420   5.042   5.780   0.188
  841SOL     OW 3421   3.693   4.921   5.800
  841SOL    HW1 3422   3.692   4.887   5.706
  841SOL    HW2 3423   3.762   4.993   5.808
  842SOL     OW 3424   3.184   0.557   0.229
  842SOL    HW1 3425   3.203   0.642   0.180
  842SOL    HW2 3426   3.249   0.487   0.199
  843SOL     OW 3427   1.282   1.693   2.048
  843SOL    HW1 3428   1.304   1.731   2.137
  843SOL    HW2 3429   1.309   1.596   2.045
  844SOL     OW 3430   6.445   6.860   0.955
  844SOL    HW1 3431   6.450   6.949   1.000
  844SOL    HW2 3432   6.367   6.859   0.892
  845SOL     OW 3433   3.650   1.757   2.628
  845SOL    HW1 3434   3.642   1.763   2.727
  845SOL    HW2 3435   3.609   1.671   2.596
  846SOL     OW 3436   2.672   1.787   0.169
  846SOL    HW1 3437   2.690   1.749   0.260
  846SOL    HW2 3438   2.578   1.822   0.166
  847SOL     OW 3439   2.427   4.260   1.462
  847SOL    HW1 3440   2.390   4.167   1.466
  847SOL    HW2 3441   2.526   4.256   1.450
  848SOL     OW 3442   6.671   6.366   6.366
  848SOL    HW1 3443   6.665   6.319   6.454
  848SOL    HW2 3444   6.753   6.335   6.317
  849SOL     OW 3445   5.978   4.209   0.600
  849SOL    HW1 3446   6.045   4.142   0.567
  849SOL    HW2 3447   5.939   4.258   0.521
  850SOL     OW 3448   0.001   0.613   5.627
  850SOL    HW1 3449   0.046   0.621   5.538
  850SOL    HW2 3450   6.944   0.548   5.621
  851SOL     OW 3451   6.467   3.202   6.011
  851SOL    HW1 3452   6.460   3.295   5.975
  851SOL    HW2 3453   6.429   3.198   6.103
  852SOL     OW 3454   6.974   3.696   2.180
  852SOL    HW1 3455   6.881   3.690   2.144
  852SOL    HW2 3456   0.021   3.676   2.106
  853SOL     OW 3457   2.128   3.820   0.108
  853SOL    HW1 3458   2.164   3.731   0.082
  853SOL    HW2 3459   2.133   3.882   0.029
  854SOL     OW 3460   5.973   6.516   6.966
  854SOL    HW1 3461   6.071   6.535   6.974
  854SOL    HW2 3462   5.944   6.457   0.023
  855SOL     OW 3463   6.325   1.040   0.382
  855SOL    HW1 3464   6.368   1.112   0.328
  855SOL    HW2 3465   6.241   1.010   0.337
  856SOL     OW 3466   2.238   6.594   7.000
  856SOL    HW1 3467   2.140   6.573   6.991
  856SOL    HW2 3468   2.248   6.683   0.024
  857SOL     OW 3469   6.563   5.282   4.202
  857SOL    HW1 3470   6.475   5.236   4.188
  857SOL    HW2 3471   6.558   5.340   4.283
  858SOL     OW 3472   3.580   3.520   0.152
  858SOL    HW1 3473   3.657   3.468   0.191
  858SOL    HW2 3474   3.505   3.521   0.217
  859SOL     OW 3475   4.030   0.022   5.117
  859SOL    HW1 3476   4.021   6.963   5.053
  859SOL    HW2 3477   4.092   7.016   5.191
  860SOL     OW 3478   5.540   2.883   5.537
  860SOL    HW1 3479   5.570   2.975   5.512
  860SOL    HW2 3480   5.602   2.846   5.606
  861SOL     OW 3481   2.146   6.115   2.506
  861SOL    HW1 3482   2.078   6.073   2.567
  861SOL    HW2 3483   2.115   6.206   2.478
  862SOL     OW 3484   1.990   4.420   3.738
  862SOL    HW1 3485   1.934   4.406   3.820
  862SOL    HW2 3486   2.034   4.334   3.713
  863SOL     OW 3487   0.381   0.755   6.601
  863SOL    HW1 3488   0.352   0.806   6.682
  863SOL    HW2 3489   0.468   0.709   6.621
  864SOL     OW 3490   4.869   0.349   5.215
  864SOL    HW1 3491   4.898   0.403   5.137
  864SOL    HW2 3492   4.856   0.254   5.187
  865SOL     OW 3493   1.667   5.827   4.512
  865SOL    HW1 3494   1.764   5.813   4.532
  865SOL    HW2 3495   1.630   5.745   4.468
  866SOL     OW 3496   2.110   6.651   2.096
  866SOL    HW1 3497   2.093   6.554   2.115
  866SOL    HW2 3498   2.208   6.666   2.083
  867SOL     OW 3499   5.736   2.123   0.174
  867SOL    HW1 3500   5.662   2.172   0.130
  867SOL    HW2 3501   5.817   2.124   0.116
  868SOL     OW 3502   6.508   2.178   1.890
  868SOL    HW1 3503   6.458   2.105   1.937
  868SOL    HW2 3504   6.573   2.220   1.952
  869SOL     OW 3505   0.149   3.955   3.684
  869SOL    HW1 3506   0.218   3.979   3.617
  869SOL    HW2 3507   0.186   3.886   3.746
  870SOL     OW 3508   3.329   5.172   1.503
  870SOL    HW1 3509   3.231   5.155   1.513
  870SOL    HW2 3510   3.378   5.134   1.581
  871SOL     OW 3511   4.752   1.697   3.369
  871SOL    HW1 3512   4.681   1.678   3.437
  871SOL    HW2 3513   4.816   1.620   3.365
  872SOL     OW 3514   6.666   2.667   4.312
  872SOL    HW1 3515   6.575   2.649   4.347
  872SOL    HW2 3516   6.690   2.598   4.244
  873SOL     OW 3517   4.421   6.741   5.834
  873SOL    HW1 3518   4.368   6.709   5.913
  873SOL    HW2 3519   4.484   6.669   5.804
  874SOL     OW 3520   5.698   3.850   0.745
  874SOL    HW1 3521   5.748   3.765   0.759
  874SOL    HW2 3522   5.729   3.894   0.661
  875SOL     OW 3523   5.081   5.526   1.107
  875SOL    HW1 3524   5.046   5.502   1.197
  875SOL    HW2 3525   5.058   5.454   1.041
  876SOL     OW 3526   0.403   5.842   2.172
  876SOL    HW1 3527   0.344   5.768   2.138
  876SOL    HW2 3528   0.380   5.926   2.124
  877SOL     OW 3529   3.102   4.369   6.906
  877SOL    HW1 3530   3.102   4.375   7.006
  877SOL    HW2 3531   3.144   4.283   6.877
  878SOL     OW 3532   3.689   6.930   4.014
  878SOL    HW1 3533   3.715   6.892   4.102
  878SOL    HW2 3534   3.594   6.907   3.995
  879SOL     OW 3535   4.571   0.462   0.177
  879SOL    HW1 3536   4.490   0.490   0.229
  879SOL    HW2 3537   4.645   0.439   0.241
  880SOL     OW 3538   2.959   3.371   3.289
  880SOL    HW1 3539   2.899   3.449   3.308
  880SOL    HW2 3540   3.049   3.404   3.261
  881SOL     OW 3541   4.822   2.398   5.371
  881SOL    HW1 3542   4.735   2.433   5.336
  881SOL    HW2 3543   4.846   2.314   5.323
  882SOL     OW 3544   1.193   3.245   5.079
  882SOL    HW1 3545   1.279   3.201   5.052
  882SOL    HW2 3546   1.187   3.248   5.178
  883SOL     OW 3547   3.105   0.231   2.612
  883SOL    HW1 3548   3.103   0.185   2.524
  883SOL    HW2 3549   3.119   0.329   2.599
  884SOL     OW 3550   4.828   2.952   4.961
  884SOL    HW1 3551   4.850   3.039   4.917
  884SOL    HW2 3552   4.771   2.969   5.041
  885SOL     OW 3553   3.028   1.303   5.870
  885SOL    HW1 3554   3.103   1.344   5.818
  885SOL    HW2 3555   3.001   1.364   5.944
  886SOL     OW 3556   3.546   0.842   0.111
  886SOL    HW1 3557   3.479   0.915   0.125
  886SOL    HW2 3558   3.508   0.774   0.048
  887SOL     OW 3559   4.000   0.560   3.637
  887SOL    HW1 3560   4.051   0.580   3.554
  887SOL    HW2 3561   4.021   0.466   3.667
  888SOL     OW 3562   0.792   1.009   2.938
  888SOL    HW1 3563   0.884   1.033   2.907
  888SOL    HW2 3564   0.754   0.939   2.878
  889SOL     OW 3565   0.875   3.890   6.858
  889SOL    HW1 3566   0.871   3.918   6.762
  889SOL    HW2 3567   0.895   3.792   6.863
  890SOL     OW 3568   2.042   5.635   3.982
  890SOL    HW1 3569   2.123   5.682   3.946
  890SOL    HW2 3570   1.969   5.702   3.997
  891SOL     OW 3571   5.108   5.049   0.837
  891SOL    HW1 3572   5.048   4.969   0.847
  891SOL    HW2 3573   5.199   5.027   0.873
  892SOL     OW 3574   2.395   3.943   5.656
  892SOL    HW1 3575   2.350   4.028   5.628
  892SOL    HW2 3576   2.376   3.871   5.590
  893SOL     OW 3577   2.103   6.254   3.004
  893SOL    HW1 3578   2.174   6.311   3.047
  893SOL    HW2 3579   2.140   6.211   2.922
  894SOL     OW 3580   1.285   3.608   1.650
  894SOL    HW1 3581   1.318   3.529   1.599
  894SOL    HW2 3582   1.341   3.688   1.627
  895SOL     OW 3583   0.560   5.312   3.233
  895SOL    HW1 3584   0.503   5.341   3.310
  895SOL    HW2 3585   0.635   5.377   3.221
  896SOL     OW 3586   6.597   5.464   0.309
  896SOL    HW1 3587   6.542   5.439   0.389
  896SOL    HW2 3588   6.638   5.382   0.270
  897SOL     OW 3589   4.993   0.878   0.368
  897SOL    HW1 3590   5.002   0.834   0.457
  897SOL    HW2 3591   4.908   0.848   0.324
  898SOL     OW 3592   3.356   5.523   2.828
  898SOL    HW1 3593   3.275   5.499   2.775
  898SOL    HW2 3594   3.436   5.526   2.768
  899SOL     OW 3595   1.130   5.259   6.241
  899SOL    HW1 3596   1.136   5.256   6.341
  899SOL    HW2 3597   1.099   5.170   6.207
  900SOL     OW 3598   5.899   6.850   6.815
  900SOL    HW1 3599   5.998   6.841   6.806
  900SOL    HW2 3600   5.869   6.804   6.899
  901SOL     OW 3601   1.951   0.486   2.721
  901SOL    HW1 3602   1.906   0.511   2.635
  901SOL    HW2 3603   2.043   0.526   2.723
  902SOL     OW 3604   6.387   3.434   0.362
  902SOL    HW1 3605   6.289   3.422   0.351
  902SOL    HW2 3606   6.411   3.428   0.459
  903SOL     OW 3607   0.177   2.504   6.731
  903SOL    HW1 3608   0.141   2.421   6.688
  903SOL    HW2 3609   0.187   2.488   6.829
  904SOL     OW 3610   2.934   2.240   3.566
  904SOL    HW1 3611   2.926   2.147   3.601
  904SOL    HW2 3612   2.843   2.282   3.561
  905SOL     OW 3613   5.691   2.471   0.321
  905SOL    HW1 3614   5.612   2.502   0.269
  905SOL    HW2 3615   5.719   2.544   0.384
  906SOL     OW 3616   0.596   1.912   5.927
  906SOL    HW1 3617   0.666   1.855   5.885
  906SOL    HW2 3618   0.505   1.877   5.902
  907SOL     OW 3619   4.932   3.745   6.929
  907SOL    HW1 3620   4.910   3.735   0.008
  907SOL    HW2 3621   5.031   3.739   6.916
  908SOL     OW 3622   2.876   4.725   2.232
  908SOL    HW1 3623   2.846   4.666   2.157
  908SOL    HW2 3624   2.843   4.818   2.217
  909SOL     OW 3625   4.319   5.018   6.659
  909SOL    HW1 3626   4.272   4.988   6.576
  909SOL    HW2 3627   4.399   5.072   6.634
  910SOL     OW 3628   2.491   2.967   1.311
  910SOL    HW1 3629   2.451   3.042   1.259
  910SOL    HW2 3630   2.589   2.962   1.292
  911SOL     OW 3631   1.584   5.847   6.042
  911SOL    HW1 3632   1.611   5.803   5.956
  911SOL    HW2 3633   1.665   5.888   6.084
  912SOL     OW 3634   5.265   3.154   3.475
  912SOL    HW1 3635   5.211   3.237   3.463
  912SOL    HW2 3636   5.224   3.080   3.421
  913SOL     OW 3637   5.437   6.504   3.347
  913SOL    HW1 3638   5.487   6.499   3.260
  913SOL    HW2 3639   5.380   6.586   3.347
  914SOL     OW 3640   2.605   0.284   6.844
  914SOL    HW1 3641   2.691   0.325   6.875
  914SOL    HW2 3642   2.535   0.299   6.914
  915SOL     OW 3643   5.918   5.236   0.317
  915SOL    HW1 3644   5.994   5.189   0.360
  915SOL    HW2 3645   5.907   5.327   0.358
  916SOL     OW 3646   1.010   2.613   2.462
  916SOL    HW1 3647   1.087   2.551   2.478
  916SOL    HW2 3648   1.041   2.693   2.411
  917SOL     OW 3649   0.353   6.864   0.529
  917SOL    HW1 3650   0.397   6.775   0.520
  917SOL    HW2 3651   0.388   6.926   0.459
  918SOL     OW 3652   2.461   6.345   1.099
  918SOL    HW1 3653   2.387   6.368   1.162
  918SOL    HW2 3654   2.478   6.422   1.038
  919SOL     OW 3655   5.775   1.714   3.423
  919SOL    HW1 3656   5.762   1.802   3.468
  919SOL    HW2 3657   5.871   1.686   3.430
  920SOL     OW 3658   2.657   4.735   1.537
  920SOL    HW1 3659   2.652   4.831   1.564
  920SOL    HW2 3660   2.612   4.678   1.606
  921SOL     OW 3661   5.088   5.547   4.595
  921SOL    HW1 3662   5.039   5.516   4.514
  921SOL    HW2 3663   5.178   5.580   4.569
  922SOL     OW 3664   3.706   3.627   4.302
  922SOL    HW1 3665   3.667   3.699   4.360
  922SOL    HW2 3666   3.638   3.599   4.234
  923SOL     OW 3667   2.270   2.817   5.386
  923SOL    HW1 3668   2.333   2.883   5.344
  923SOL    HW2 3669   2.322   2.738   5.419
  924SOL     OW 3670   6.790   4.070   2.062
  924SOL    HW1 3671   6.865   4.112   2.011
  924SOL    HW2 3672   6.814   4.062   2.158
  925SOL     OW 3673   6.360   1.848   0.284
  925SOL    HW1 3674   6.335   1.944   0.274
  925SOL    HW2 3675   6.356   1.823   0.381
  926SOL     OW 3676   0.482   2.009   2.038
  926SOL    HW1 3677   0.496   2.015   2.137
  926SOL    HW2 3678   0.447   2.095   2.004
  927SOL     OW 3679   5.646   3.987   3.898
  927SOL    HW1 3680   5.587   3.991   3.978
  927SOL    HW2 3681   5.607   3.924   3.831
  928SOL     OW 3682   3.276   6.013   6.668
  928SOL    HW1 3683   3.262   5.927   6.716
  928SOL    HW2 3684   3.331   5.997   6.586
  929SOL     OW 3685   6.447   1.417   6.300
  929SOL    HW1 3686   6.432   1.328   6.258
  929SOL    HW2 3687   6.379   1.482   6.267
  930SOL     OW 3688   4.636   4.991   6.077
  930SOL    HW1 3689   4.616   4.900   6.111
  930SOL    HW2 3690   4.733   5.010   6.086
  931SOL     OW 3691   6.347   2.345   3.202
  931SOL    HW1 3692   6.424   2.387   3.154
  931SOL    HW2 3693   6.378   2.312   3.291
  932SOL     OW 3694   3.879   0.404   3.331
  932SOL    HW1 3695   3.823   0.321   3.338
  932SOL    HW2 3696   3.825   0.483   3.360
  933SOL     OW 3697   1.746   4.930   2.904
  933SOL    HW1 3698   1.726   4.982   2.821
  933SOL    HW2 3699   1.783   4.991   2.974
  934SOL     OW 3700   2.040   5.330   6.347
  934SOL    HW1 3701   2.004   5.249   6.301
  934SOL    HW2 3702   2.074   5.394   6.278
  935SOL     OW 3703   5.609   3.601   3.366
  935SOL    HW1 3704   5.576   3.667   3.434
  935SOL    HW2 3705   5.554   3.611   3.282
  936SOL     OW 3706   1.866   0.572   6.139
  936SOL    HW1 3707   1.876   0.654   6.084
  936SOL    HW2 3708   1.946   0.514   6.127
  937SOL     OW 3709   4.550   0.705   5.357
  937SOL    HW1 3710   4.515   0.612   5.366
  937SOL    HW2 3711   4.641   0.711   5.398
  938SOL     OW 3712   6.789   5.556   3.986
  938SOL    HW1 3713   6.868   5.505   4.021
  938SOL    HW2 3714   6.782   5.542   3.887
  939SOL     OW 3715   0.257   6.966   5.240
  939SOL    HW1 3716   0.212   6.884   5.206
  939SOL    HW2 3717   0.279   0.008   5.163
  940SOL     OW 3718   2.251   4.971   0.615
  940SOL    HW1 3719   2.185   4.909   0.658
  940SOL    HW2 3720   2.288   5.033   0.683
  941SOL     OW 3721   3.886   0.119   6.482
  941SOL    HW1 3722   3.979   0.123   6.518
  941SOL    HW2 3723   3.886   0.073   6.393
  942SOL     OW 3724   0.067   5.724   0.566
  942SOL    HW1 3725   0.081   5.627   0.585
  942SOL    HW2 3726   0.114   5.779   0.635
  943SOL     OW 3727   3.001   4.913   2.489
  943SOL    HW1 3728   3.010   4.938   2.585
  943SOL    HW2 3729   2.947   4.829   2.481
  944SOL     OW 3730   0.573   6.491   4.365
  944SOL    HW1 3731   0.662   6.490   4.319
  944SOL    HW2 3732   0.542   6.397   4.379
  945SOL     OW 3733   0.893   5.830   5.813
  945SOL    HW1 3734   0.841   5.818   5.729
  945SOL    HW2 3735   0.921   5.741   5.849
  946SOL     OW 3736   4.844   4.372   3.866
  946SOL    HW1 3737   4.812   4.376   3.961
  946SOL    HW2 3738   4.942   4.356   3.864
  947SOL     OW 3739   3.783   4.065   4.050
  947SOL    HW1 3740   3.784   4.078   4.149
  947SOL    HW2 3741   3.799   3.968   4.029
  948SOL     OW 3742   4.873   1.532   2.501
  948SOL    HW1 3743   4.897   1.494   2.590
  948SOL    HW2 3744   4.783   1.497   2.473
  949SOL     OW 3745   3.228   6.693   6.808
  949SOL    HW1 3746   3.159   6.707   6.736
  949SOL    HW2 3747   3.209   6.607   6.856
  950SOL     OW 3748   6.870   6.057   2.378
  950SOL    HW1 3749   6.856   6.021   2.470
  950SOL    HW2 3750   6.950   6.013   2.337
  951SOL     OW 3751   1.491   0.334   3.441
  951SOL    HW1 3752   1.474   0.236   3.429
  951SOL    HW2 3753   1.530   0.371   3.358
  952SOL     OW 3754   4.140   1.804   1.968
  952SOL    HW1 3755   4.072   1.840   1.904
  952SOL    HW2 3756   4.192   1.732   1.924
  953SOL     OW 3757   0.218   5.333   4.766
  953SOL    HW1 3758   0.133   5.282   4.768
  953SOL    HW2 3759   0.271   5.315   4.849
  954SOL     OW 3760   5.087   5.572   2.580
  954SOL    HW1 3761   5.093   5.476   2.553
  954SOL    HW2 3762   5.020   5.619   2.522
  955SOL     OW 3763   1.017   4.441   6.713
  955SOL    HW1 3764   1.004   4.349   6.676
  955SOL    HW2 3765   1.114   4.463   6.715
  956SOL     OW 3766   6.171   0.422   0.978
  956SOL    HW1 3767   6.158   0.401   0.881
  956SOL    HW2 3768   6.204   0.516   0.987
  957SOL     OW 3769   6.449   2.434   3.678
  957SOL    HW1 3770   6.450   2.337   3.699
  957SOL    HW2 3771   6.357   2.462   3.652
  958SOL     OW 3772   5.614   6.846   2.140
  958SOL    HW1 3773   5.601   6.873   2.236
  958SOL    HW2 3774   5.595   6.749   2.130
  959SOL     OW 3775   3.429   6.859   3.963
  959SOL    HW1 3776   3.344   6.897   3.999
  959SOL    HW2 3777   3.426   6.759   3.968
  960SOL     OW 3778   0.910   0.384   0.172
  960SOL    HW1 3779   0.842   0.359   0.103
  960SOL    HW2 3780   0.912   0.483   0.183
  961SOL     OW 3781   3.340   6.544   3.330
  961SOL    HW1 3782   3.359   6.567   3.426
  961SOL    HW2 3783   3.343   6.627   3.275
  962SOL     OW 3784   6.490   6.915   5.466
  962SOL    HW1 3785   6.579   6.872   5.451
  962SOL    HW2 3786   6.501   6.991   5.530
  963SOL     OW 3787   4.533   2.602   1.189
  963SOL    HW1 3788   4.438   2.635   1.189
  963SOL    HW2 3789   4.588   2.660   1.128
  964SOL     OW 3790   4.994   4.133   5.330
  964SOL    HW1 3791   4.954   4.125   5.238
  964SOL    HW2 3792   4.989   4.228   5.360
  965SOL     OW 3793   5.440   2.158   3.207
  965SOL    HW1 3794   5.394   2.230   3.155
  965SOL    HW2 3795   5.387   2.074   3.202
  966SOL     OW 3796   5.110   2.023   3.937
  966SOL    HW1 3797   5.024   1.989   3.975
  966SOL    HW2 3798   5.166   1.946   3.908
  967SOL     OW 3799   4.655   4.348   6.210
  967SOL    HW1 3800   4.573   4.405   6.205
  967SOL    HW2 3801   4.646   4.272   6.146
  968SOL     OW 3802   3.894   0.172   1.566
  968SOL    HW1 3803   3.959   0.245   1.547
  968SOL    HW2 3804   3.850   0.188   1.654
  969SOL     OW 3805   3.357   4.662   5.543
  969SOL    HW1 3806   3.414   4.736   5.580
  969SOL    HW2 3807   3.268   4.663   5.589
  970SOL     OW 3808   5.898   0.493   6.000
  970SOL    HW1 3809   5.838   0.417   5.976
  970SOL    HW2 3810   5.846   0.566   6.043
  971SOL     OW 3811   6.217   4.151   3.005
  971SOL    HW1 3812   6.256   4.203   3.081
  971SOL    HW2 3813   6.122   4.126   3.025
  972SOL     OW 3814   0.085   2.560   1.208
  972SOL    HW1 3815   7.019   2.509   1.195
  972SOL    HW2 3816   0.163   2.503   1.183
  973SOL     OW 3817   6.696   4.015   6.084
  973SOL    HW1 3818   6.675   4.032   6.181
  973SOL    HW2 3819   6.795   4.009   6.073
  974SOL     OW 3820   0.070   4.808   4.521
  974SOL    HW1 3821   0.048   4.871   4.446
  974SOL    HW2 3822   0.123   4.856   4.591
  975SOL     OW 3823   2.155   0.191   2.106
  975SOL    HW1 3824   2.180   0.098   2.131
  975SOL    HW2 3825   2.056   0.202   2.116
  976SOL     OW 3826   6.475   4.305   1.882
  976SOL    HW1 3827   6.502   4.286   1.977
  976SOL    HW2 3828   6.551   4.285   1.821
  977SOL     OW 3829   0.539   1.287   2.711
  977SOL    HW1 3830   0.504   1.376   2.679
  977SOL    HW2 3831   0.631   1.272   2.674
  978SOL     OW 3832   5.491   2.597   2.182
  978SOL    HW1 3833   5.482   2.695   2.202
  978SOL    HW2 3834   5.531   2.550   2.260
  979SOL     OW 3835   6.798   3.450   0.277
  979SOL    HW1 3836   6.843   3.364   0.250
  979SOL    HW2 3837   6.765   3.442   0.371
  980SOL     OW 3838   3.613   1.403   5.055
  980SOL    HW1 3839   3.601   1.319   5.003
  980SOL    HW2 3840   3.625   1.480   4.991
  981SOL     OW 3841   6.607   6.877   5.089
  981SOL    HW1 3842   6.684   6.889   5.027
  981SOL    HW2 3843   6.597   6.959   5.145
  982SOL     OW 3844   0.170   1.446   5.289
  982SOL    HW1 3845   0.248   1.385   5.279
  982SOL    HW2 3846   0.167   1.509   5.212
  983SOL     OW 3847   0.815   3.619   3.686
  983SOL    HW1 3848   0.720   3.589   3.696
  983SOL    HW2 3849   0.868   3.547   3.641
  984SOL     OW 3850   1.805   1.786   2.749
  984SOL    HW1 3851   1.747   1.761   2.827
  984SOL    HW2 3852   1.811   1.885   2.742
  985SOL     OW 3853   5.905   3.303   4.151
  985SOL    HW1 3854   5.897   3.320   4.250
  985SOL    HW2 3855   5.925   3.389   4.105
  986SOL     OW 3856   5.266   4.419   1.364
  986SOL    HW1 3857   5.322   4.409   1.281
  986SOL    HW2 3858   5.325   4.431   1.443
  987SOL     OW 3859   5.975   4.947   3.600
  987SOL    HW1 3860   6.070   4.916   3.607
  987SOL    HW2 3861   5.971   5.036   3.555
  988SOL     OW 3862   3.331   3.989   1.546
  988SOL    HW1 3863   3.373   4.058   1.603
  988SOL    HW2 3864   3.233   4.008   1.537
  989SOL     OW 3865   0.252   1.877   1.268
  989SOL    HW1 3866   0.236   1.797   1.211
  989SOL    HW2 3867   0.228   1.856   1.363
  990SOL     OW 3868   3.625   0.285   3.348
  990SOL    HW1 3869   3.594   0.361   3.404
  990SOL    HW2 3870   3.681   0.223   3.404
  991SOL     OW 3871   0.271   4.387   4.049
  991SOL    HW1 3872   0.297   4.426   4.137
  991SOL    HW2 3873   0.180   4.347   4.055
  992SOL     OW 3874   0.626   2.914   1.346
  992SOL    HW1 3875   0.672   2.960   1.269
  992SOL    HW2 3876   0.543   2.869   1.312
  993SOL     OW 3877   2.087   5.321   0.972
  993SOL    HW1 3878   2.145   5.248   1.008
  993SOL    HW2 3879   2.002   5.325   1.024
  994SOL     OW 3880   3.150   6.659   0.855
  994SOL    HW1 3881   3.153   6.742   0.911
  994SOL    HW2 3882   3.243   6.632   0.830
  995SOL     OW 3883   4.902   3.905   5.513
  995SOL    HW1 3884   4.931   3.958   5.432
  995SOL    HW2 3885   4.872   3.815   5.483
  996SOL     OW 3886   3.754   6.162   5.631
  996SOL    HW1 3887   3.658   6.135   5.620
  996SOL    HW2 3888   3.770   6.189   5.726
  997SOL     OW 3889   1.465   6.163   4.246
  997SOL    HW1 3890   1.548   6.119   4.279
  997SOL    HW2 3891   1.476   6.188   4.150
  998SOL     OW 3892   5.641   0.330   6.240
  998SOL    HW1 3893   5.711   0.314   6.170
  998SOL    HW2 3894   5.637   0.427   6.263
  999SOL     OW 3895   4.895   3.459   1.856
  999SOL    HW1 3896   4.909   3.360   1.852
  999SOL    HW2 3897   4.815   3.483   1.802
 1000SOL     OW 3898   3.887   1.631   1.440
 1000SOL    HW1 3899   3.797   1.672   1.424
 1000SOL    HW2 3900   3.945   1.698   1.485
 1001SOL     OW 3901   2.812   6.937   2.511
 1001SOL    HW1 3902   2.772   6.853   2.549
 1001SOL    HW2 3903   2.908   6.920   2.490
 1002SOL     OW 3904   5.448   2.937   1.195
 1002SOL    HW1 3905   5.500   3.006   1.245
 1002SOL    HW2 3906   5.465   2.847   1.236
 1003SOL     OW 3907   1.156   5.716   2.166
 1003SOL    HW1 3908   1.095   5.737   2.090
 1003SOL    HW2 3909   1.133   5.627   2.205
 1004SOL     OW 3910   5.369   1.858   3.504
 1004SOL    HW1 3911   5.433   1.842   3.579
 1004SOL    HW2 3912   5.275   1.861   3.539
 1005SOL     OW 3913   1.517   4.914   4.405
 1005SOL    HW1 3914   1.435   4.955   4.444
 1005SOL    HW2 3915   1.551   4.971   4.330
 1006SOL     OW 3916   2.379   3.731   0.421
 1006SOL    HW1 3917   2.376   3.746   0.520
 1006SOL    HW2 3918   2.452   3.665   0.400
 1007SOL     OW 3919   4.699   2.074   6.568
 1007SOL    HW1 3920   4.755   2.145   6.525
 1007SOL    HW2 3921   4.669   2.008   6.498
 1008SOL     OW 3922   0.520   4.600   5.149
 1008SOL    HW1 3923   0.455   4.530   5.178
 1008SOL    HW2 3924   0.498   4.630   5.056
 1009SOL     OW 3925   6.312   5.093   5.536
 1009SOL    HW1 3926   6.397   5.144   5.524
 1009SOL    HW2 3927   6.243   5.128   5.473
 1010SOL     OW 3928   2.049   3.212   1.473
 1010SOL    HW1 3929   2.038   3.233   1.375
 1010SOL    HW2 3930   2.028   3.294   1.527
 1011SOL     OW 3931   0.922   4.757   2.703
 1011SOL    HW1 3932   0.954   4.740   2.610
 1011SOL    HW2 3933   0.995   4.799   2.756
 1012SOL     OW 3934   5.821   0.398   2.622
 1012SOL    HW1 3935   5.826   0.497   2.626
 1012SOL    HW2 3936   5.748   0.370   2.560
 1013SOL     OW 3937   6.935   0.999   6.333
 1013SOL    HW1 3938   6.884   0.929   6.283
 1013SOL    HW2 3939   6.911   1.090   6.299
 1014SOL     OW 3940   1.185   5.085   4.204
 1014SOL    HW1 3941   1.210   4.998   4.246
 1014SOL    HW2 3942   1.202   5.160   4.267
 1015SOL     OW 3943   3.690   0.243   6.338
 1015SOL    HW1 3944   3.766   0.211   6.395
 1015SOL    HW2 3945   3.644   0.164   6.296
 1016SOL     OW 3946   5.115   4.252   1.831
 1016SOL    HW1 3947   5.196   4.249   1.889
 1016SOL    HW2 3948   5.124   4.326   1.765
 1017SOL     OW 3949   2.244   1.477   2.522
 1017SOL    HW1 3950   2.162   1.507   2.571
 1017SOL    HW2 3951   2.285   1.399   2.570
 1018SOL     OW 3952   0.427   5.022   3.699
 1018SOL    HW1 3953   0.522   5.022   3.667
 1018SOL    HW2 3954   0.421   4.972   3.785
 1019SOL     OW 3955   0.212   4.960   0.554
 1019SOL    HW1 3956   0.129   4.926   0.510
 1019SOL    HW2 3957   0.263   4.884   0.592
 1020SOL     OW 3958   6.840   0.142   0.968
 1020SOL    HW1 3959   6.861   0.210   1.038
 1020SOL    HW2 3960   6.740   0.132   0.960
 1021SOL     OW 3961   6.106   5.910   1.621
 1021SOL    HW1 3962   6.012   5.885   1.599
 1021SOL    HW2 3963   6.162   5.902   1.539
 1022SOL     OW 3964   2.582   6.299   6.430
 1022SOL    HW1 3965   2.582   6.256   6.521
 1022SOL    HW2 3966   2.494   6.282   6.386
 1023SOL     OW 3967   0.108   1.805   3.529
 1023SOL    HW1 3968   0.030   1.849   3.484
 1023SOL    HW2 3969   0.079   1.719   3.569
 1024SOL     OW 3970   1.435   1.918   4.855
 1024SOL    HW1 3971   1.523   1.931   4.902
 1024SOL    HW2 3972   1.448   1.927   4.757
 1025SOL     OW 3973   4.905   3.670   0.193
 1025SOL    HW1 3974   4.961   3.589   0.212
 1025SOL    HW2 3975   4.956   3.753   0.217
 1026SOL     OW 3976   3.231   2.633   1.211
 1026SOL    HW1 3977   3.273   2.553   1.253
 1026SOL    HW2 3978   3.185   2.688   1.281
 1027SOL     OW 3979   1.346   6.588   1.435
 1027SOL    HW1 3980   1.278   6.519   1.460
 1027SOL    HW2 3981   1.422   6.585   1.499
 1028SOL     OW 3982   0.849   5.966   3.011
 1028SOL    HW1 3983   0.885   5.987   3.102
 1028SOL    HW2 3984   0.755   5.997   3.004
 1029SOL     OW 3985   1.365   1.925   5.702
 1029SOL    HW1 3986   1.426   1.855   5.738
 1029SOL    HW2 3987   1.290   1.941   5.766
 1030SOL     OW 3988   3.157   3.537   1.493
 1030SOL    HW1 3989   3.205   3.614   1.450
 1030SOL    HW2 3990   3.078   3.572   1.543
 1031SOL     OW 3991   3.403   3.340   1.586
 1031SOL    HW1 3992   3.397   3.437   1.609
 1031SOL    HW2 3993   3.383   3.328   1.489
 1032SOL     OW 3994   1.988   1.853   6.043
 1032SOL    HW1 3995   1.924   1.835   5.968
 1032SOL    HW2 3996   2.081   1.856   6.008
 1033SOL     OW 3997   0.900   5.996   2.177
 1033SOL    HW1 3998   0.814   6.028   2.138
 1033SOL    HW2 3999   0.895   5.897   2.191
 1034SOL     OW 4000   3.440   6.828   4.699
 1034SOL    HW1 4001   3.350   6.862   4.672
 1034SOL    HW2 4002   3.430   6.739   4.743
 1035SOL     OW 4003   0.413   1.416   5.722
 1035SOL    HW1 4004   0.462   1.349   5.667
 1035SOL    HW2 4005   0.438   1.508   5.692
 1036SOL     OW 4006   5.225   1.751   0.972
 1036SOL    HW1 4007   5.310   1.730   0.923
 1036SOL    HW2 4008   5.182   1.832   0.932
 1037SOL     OW 4009   1.698   2.522   2.826
 1037SOL    HW1 4010   1.660   2.485   2.911
 1037SOL    HW2 4011   1.797   2.512   2.827
 1038SOL     OW 4012   2.911   0.334   6.900
 1038SOL    HW1 4013   2.987   0.353   6.837
 1038SOL    HW2 4014   2.945   0.280   6.977
 1039SOL     OW 4015   3.734   3.413   3.644
 1039SOL    HW1 4016   3.708   3.474   3.568
 1039SOL    HW2 4017   3.687   3.326   3.634
 1040SOL     OW 4018   3.808   0.738   2.676
 1040SOL    HW1 4019   3.733   0.675   2.698
 1040SOL    HW2 4020   3.895   0.697   2.703
 1041SOL     OW 4021   6.363   6.222   5.363
 1041SOL    HW1 4022   6.286   6.247   5.422
 1041SOL    HW2 4023   6.406   6.305   5.327
 1042SOL     OW 4024   4.777   4.541   2.123
 1042SOL    HW1 4025   4.682   4.514   2.108
 1042SOL    HW2 4026   4.797   4.541   2.221
 1043SOL     OW 4027   3.129   1.416   3.430
 1043SOL    HW1 4028   3.222   1.452   3.437
 1043SOL    HW2 4029   3.087   1.412   3.520
 1044SOL     OW 4030   5.855   5.067   1.517
 1044SOL    HW1 4031   5.944   5.085   1.559
 1044SOL    HW2 4032   5.814   4.987   1.561
 1045SOL     OW 4033   2.412   0.660   3.907
 1045SOL    HW1 4034   2.441   0.701   3.821
 1045SOL    HW2 4035   2.490   0.612   3.949
 1046SOL     OW 4036   3.429   1.251   1.084
 1046SOL    HW1 4037   3.420   1.151   1.085
 1046SOL    HW2 4038   3.380   1.289   1.162
 1047SOL     OW 4039   3.551   6.906   3.233
 1047SOL    HW1 4040   3.479   6.889   3.299
 1047SOL    HW2 4041   3.532   6.990   3.183
 1048SOL     OW 4042   1.716   5.862   2.103
 1048SOL    HW1 4043   1.811   5.847   2.074
 1048SOL    HW2 4044   1.674   5.933   2.045
 1049SOL     OW 4045   3.755   0.099   5.123
 1049SOL    HW1 4046   3.673   0.115   5.067
 1049SOL    HW2 4047   3.828   0.064   5.064
 1050SOL     OW 4048   3.349   5.041   3.530
 1050SOL    HW1 4049   3.334   5.031   3.432
 1050SOL    HW2 4050   3.447   5.036   3.550
 1051SOL     OW 4051   0.207   0.152   0.289
 1051SOL    HW1 4052   0.288   0.094   0.290
 1051SOL    HW2 4053   0.219   0.226   0.223
 1052SOL     OW 4054   3.880   0.347   6.672
 1052SOL    HW1 4055   3.965   0.396   6.651
 1052SOL    HW2 4056   3.884   0.256   6.631
 1053SOL     OW 4057   6.050   3.569   2.271
 1053SOL    HW1 4058   6.037   3.607   2.179
 1053SOL    HW2 4059   6.037   3.641   2.339
 1054SOL     OW 4060   3.440   4.399   0.538
 1054SOL    HW1 4061   3.405   4.491   0.519
 1054SOL    HW2 4062   3.374   4.331   0.507
 1055SOL     OW 4063   4.406   5.959   6.745
 1055SOL    HW1 4064   4.346   6.004   6.810
 1055SOL    HW2 4065   4.455   5.884   6.790
 1056SOL     OW 4066   2.383   4.477   0.412
 1056SOL    HW1 4067   2.371   4.381   0.438
 1056SOL    HW2 4068   2.435   4.483   0.327
 1057SOL     OW 4069   3.590   1.955   1.603
 1057SOL    HW1 4070   3.540   2.042   1.605
 1057SOL    HW2 4071   3.653   1.951   1.681
 1058SOL     OW 4072   3.374   2.109   2.828
 1058SOL    HW1 4073   3.310   2.033   2.818
 1058SOL    HW2 4074   3.468   2.074   2.833
 1059SOL     OW 4075   2.469   6.026   1.630
 1059SOL    HW1 4076   2.393   6.076   1.671
 1059SOL    HW2 4077   2.483   6.057   1.536
 1060SOL     OW 4078   6.983   5.803   5.445
 1060SOL    HW1 4079   6.970   5.892   5.488
 1060SOL    HW2 4080   6.964   5.809   5.347
 1061SOL     OW 4081   0.216   4.307   0.737
 1061SOL    HW1 4082   0.291   4.299   0.671
 1061SOL    HW2 4083   0.182   4.215   0.759
 1062SOL     OW 4084   3.507   6.507   5.269
 1062SOL    HW1 4085   3.449   6.431   5.241
 1062SOL    HW2 4086   3.586   6.472   5.321
 1063SOL     OW 4087   1.529   6.760   5.792
 1063SOL    HW1 4088   1.482   6.673   5.804
 1063SOL    HW2 4089   1.612   6.745   5.738
 1064SOL     OW 4090   0.633   4.422   0.986
 1064SOL    HW1 4091   0.554   4.417   0.925
 1064SOL    HW2 4092   0.645   4.516   1.017
 1065SOL     OW 4093   3.710   0.368   4.408
 1065SOL    HW1 4094   3.725   0.304   4.484
 1065SOL    HW2 4095   3.705   0.461   4.444
 1066SOL     OW 4096   4.553   0.589   2.319
 1066SOL    HW1 4097   4.631   0.613   2.261
 1066SOL    HW2 4098   4.491   0.529   2.268
 1067SOL     OW 4099   2.593   1.272   0.114
 1067SOL    HW1 4100   2.672   1.325   0.082
 1067SOL    HW2 4101   2.535   1.330   0.172
 1068SOL     OW 4102   5.825   3.535   1.385
 1068SOL    HW1 4103   5.829   3.487   1.297
 1068SOL    HW2 4104   5.803   3.469   1.457
 1069SOL     OW 4105   6.647   4.427   1.134
 1069SOL    HW1 4106   6.564   4.380   1.104
 1069SOL    HW2 4107   6.658   4.511   1.082
 1070SOL     OW 4108   1.663   0.655   2.274
 1070SOL    HW1 4109   1.566   0.633   2.263
 1070SOL    HW2 4110   1.695   0.705   2.193
 1071SOL     OW 4111   6.881   2.598   4.729
 1071SOL    HW1 4112   6.903   2.622   4.824
 1071SOL    HW2 4113   6.951   2.536   4.694
 1072SOL     OW 4114   2.945   1.064   2.402
 1072SOL    HW1 4115   3.006   1.142   2.409
 1072SOL    HW2 4116   2.972   0.995   2.470
 1073SOL     OW 4117   5.185   2.035   3.241
 1073SOL    HW1 4118   5.216   2.123   3.279
 1073SOL    HW2 4119   5.086   2.037   3.228
 1074SOL     OW 4120   3.324   5.171   1.959
 1074SOL    HW1 4121   3.228   5.185   1.936
 1074SOL    HW2 4122   3.335   5.084   2.007
 1075SOL     OW 4123   5.894   2.393   5.167
 1075SOL    HW1 4124   5.794   2.396   5.160
 1075SOL    HW2 4125   5.927   2.311   5.120
 1076SOL     OW 4126   2.139   3.952   4.784
 1076SOL    HW1 4127   2.206   3.994   4.845
 1076SOL    HW2 4128   2.149   3.988   4.692
 1077SOL     OW 4129   6.597   0.368   0.054
 1077SOL    HW1 4130   6.633   0.352   6.981
 1077SOL    HW2 4131   6.664   0.339   0.123
 1078SOL     OW 4132   6.705   6.259   4.120
 1078SOL    HW1 4133   6.787   6.281   4.173
 1078SOL    HW2 4134   6.714   6.166   4.083
 1079SOL     OW 4135   1.023   5.579   2.654
 1079SOL    HW1 4136   0.993   5.612   2.743
 1079SOL    HW2 4137   1.018   5.653   2.587
 1080SOL     OW 4138   2.202   5.130   5.360
 1080SOL    HW1 4139   2.296   5.106   5.336
 1080SOL    HW2 4140   2.140   5.093   5.292
 1081SOL     OW 4141   6.051   5.813   4.295
 1081SOL    HW1 4142   6.032   5.898   4.344
 1081SOL    HW2 4143   5.966   5.762   4.283
 1082SOL     OW 4144   5.354   6.753   6.216
 1082SOL    HW1 4145   5.439   6.726   6.262
 1082SOL    HW2 4146   5.338   6.694   6.137
 1083SOL     OW 4147   5.271   4.216   1.057
 1083SOL    HW1 4148   5.179   4.245   1.033
 1083SOL    HW2 4149   5.313   4.170   0.979
 1084SOL     OW 4150   0.161   6.992   6.742
 1084SOL    HW1 4151   0.081   6.937   6.717
 1084SOL    HW2 4152   0.142   0.024   6.825
 1085SOL     OW 4153   2.150   3.788   4.053
 1085SOL    HW1 4154   2.051   3.796   4.059
 1085SOL    HW2 4155   2.177   3.786   3.957
 1086SOL     OW 4156   6.403   4.465   6.825
 1086SOL    HW1 4157   6.368   4.375   6.851
 1086SOL    HW2 4158   6.395   4.477   6.726
 1087SOL     OW 4159   1.893   0.778   5.541
 1087SOL    HW1 4160   1.972   0.741   5.590
 1087SOL    HW2 4161   1.809   0.745   5.584
 1088SOL     OW 4162   0.122   4.628   3.719
 1088SOL    HW1 4163   0.196   4.563   3.741
 1088SOL    HW2 4164   0.162   4.716   3.693
 1089SOL     OW 4165   6.381   4.985   4.906
 1089SOL    HW1 4166   6.315   5.027   4.843
 1089SOL    HW2 4167   6.453   5.052   4.928
 1090SOL     OW 4168   5.437   1.513   4.768
 1090SOL    HW1 4169   5.439   1.528   4.867
 1090SOL    HW2 4170   5.370   1.574   4.726
 1091SOL     OW 4171   2.129   3.089   3.400
 1091SOL    HW1 4172   2.166   3.005   3.438
 1091SOL    HW2 4173   2.108   3.076   3.303
 1092SOL     OW 4174   0.668   4.699   0.960
 1092SOL    HW1 4175   0.750   4.748   0.987
 1092SOL    HW2 4176   0.654   4.709   0.861
 1093SOL     OW 4177   2.237   6.528   1.022
 1093SOL    HW1 4178   2.196   6.438   1.009
 1093SOL    HW2 4179   2.244   6.547   1.120
 1094SOL     OW 4180   1.293   0.416   3.190
 1094SOL    HW1 4181   1.249   0.409   3.101
 1094SOL    HW2 4182   1.255   0.346   3.251
 1095SOL     OW 4183   6.919   2.956   7.016
 1095SOL    HW1 4184   6.954   3.039   0.041
 1095SOL    HW2 4185   6.826   2.973   6.984
 1096SOL     OW 4186   3.102   5.392   1.206
 1096SOL    HW1 4187   3.074   5.297   1.215
 1096SOL    HW2 4188   3.058   5.433   1.126
 1097SOL     OW 4189   2.283   5.179   3.869
 1097SOL    HW1 4190   2.333   5.096   3.893
 1097SOL    HW2 4191   2.339   5.260   3.889
 1098SOL     OW 4192   5.935   4.863   0.056
 1098SOL    HW1 4193   6.029   4.888   0.080
 1098SOL    HW2 4194   5.887   4.833   0.138
 1099SOL     OW 4195   4.596   1.434   6.283
 1099SOL    HW1 4196   4.690   1.468   6.288
 1099SOL    HW2 4197   4.538   1.503   6.241
 1100SOL     OW 4198   3.661   1.388   3.726
 1100SOL    HW1 4199   3.598   1.328   3.775
 1100SOL    HW2 4200   3.662   1.478   3.770
 1101SOL     OW 4201   5.911   3.233   5.457
 1101SOL    HW1 4202   5.906   3.134   5.445
 1101SOL    HW2 4203   5.853   3.278   5.389
 1102SOL     OW 4204   2.243   1.271   4.451
 1102SOL    HW1 4205   2.212   1.270   4.546
 1102SOL    HW2 4206   2.342   1.282   4.449
 1103SOL     OW 4207   3.103   0.611   6.641
 1103SOL    HW1 4208   3.168   0.664   6.588
 1103SOL    HW2 4209   3.141   0.592   6.732
 1104SOL     OW 4210   0.726   3.943   2.931
 1104SOL    HW1 4211   0.659   3.869   2.939
 1104SOL    HW2 4212   0.698   4.019   2.989
 1105SOL     OW 4213   5.163   1.528   4.986
 1105SOL    HW1 4214   5.256   1.564   5.000
 1105SOL    HW2 4215   5.162   1.431   5.009
 1106SOL     OW 4216   0.680   1.430   0.427
 1106SOL    HW1 4217   0.724   1.407   0.513
 1106SOL    HW2 4218   0.657   1.345   0.378
 1107SOL     OW 4219   0.971   1.052   6.855
 1107SOL    HW1 4220   0.988   1.010   6.766
 1107SOL    HW2 4221   0.922   1.138   6.843
 1108SOL     OW 4222   3.296   6.352   4.106
 1108SOL    HW1 4223   3.357   6.274   4.123
 1108SOL    HW2 4224   3.203   6.318   4.087
 1109SOL     OW 4225   5.257   1.602   4.321
 1109SOL    HW1 4226   5.188   1.560   4.262
 1109SOL    HW2 4227   5.254   1.701   4.309
 1110SOL     OW 4228   3.562   0.552   2.687
 1110SOL    HW1 4229   3.535   0.460   2.717
 1110SOL    HW2 4230   3.528   0.568   2.594
 1111SOL     OW 4231   4.746   3.829   6.234
 1111SOL    HW1 4232   4.668   3.882   6.200
 1111SOL    HW2 4233   4.741   3.824   6.334
 1112SOL     OW 4234   5.633   0.820   2.419
 1112SOL    HW1 4235   5.660   0.776   2.505
 1112SOL    HW2 4236   5.690   0.901   2.405
 1113SOL     OW 4237   6.371   4.460   2.506
 1113SOL    HW1 4238   6.339   4.536   2.562
 1113SOL    HW2 4239   6.314   4.380   2.523
 1114SOL     OW 4240   4.563   2.672   5.801
 1114SOL    HW1 4241   4.493   2.737   5.832
 1114SOL    HW2 4242   4.523   2.581   5.792
 1115SOL     OW 4243   2.960   3.986   5.891
 1115SOL    HW1 4244   2.870   3.965   5.852
 1115SOL    HW2 4245   3.031   3.955   5.828
 1116SOL     OW 4246   4.774   0.969   6.474
 1116SOL    HW1 4247   4.814   1.054   6.510
 1116SOL    HW2 4248   4.675   0.980   6.465
 1117SOL     OW 4249   1.227   2.532   1.543
 1117SOL    HW1 4250   1.212   2.627   1.572
 1117SOL    HW2 4251   1.288   2.530   1.464
 1118SOL     OW 4252   3.246   5.068   0.082
 1118SOL    HW1 4253   3.282   5.079   0.174
 1118SOL    HW2 4254   3.152   5.035   0.085
 1119SOL     OW 4255   4.117   4.740   3.800
 1119SOL    HW1 4256   4.176   4.704   3.727
 1119SOL    HW2 4257   4.094   4.835   3.780
 1120SOL     OW 4258   6.658   5.404   0.876
 1120SOL    HW1 4259   6.625   5.420   0.970
 1120SOL    HW2 4260   6.652   5.489   0.824
 1121SOL     OW 4261   0.728   4.480   4.252
 1121SOL    HW1 4262   0.672   4.439   4.180
 1121SOL    HW2 4263   0.780   4.408   4.298
 1122SOL     OW 4264   5.731   2.632   1.966
 1122SOL    HW1 4265   5.696   2.725   1.951
 1122SOL    HW2 4266   5.689   2.594   2.048
 1123SOL     OW 4267   4.294   2.193   3.035
 1123SOL    HW1 4268   4.357   2.177   3.112
 1123SOL    HW2 4269   4.200   2.179   3.066
 1124SOL     OW 4270   1.967   2.845   4.758
 1124SOL    HW1 4271   2.066   2.861   4.767
 1124SOL    HW2 4272   1.917   2.922   4.797
 1125SOL     OW 4273   1.422   3.780   4.165
 1125SOL    HW1 4274   1.508   3.772   4.116
 1125SOL    HW2 4275   1.403   3.694   4.213
 1126SOL     OW 4276   4.349   5.807   5.290
 1126SOL    HW1 4277   4.374   5.881   5.353
 1126SOL    HW2 4278   4.341   5.722   5.341
 1127SOL     OW 4279   5.402   5.589   3.354
 1127SOL    HW1 4280   5.373   5.555   3.265
 1127SOL    HW2 4281   5.441   5.514   3.407
 1128SOL     OW 4282   6.242   1.233   3.672
 1128SOL    HW1 4283   6.279   1.316   3.631
 1128SOL    HW2 4284   6.243   1.159   3.604
 1129SOL     OW 4285   1.909   0.290   1.119
 1129SOL    HW1 4286   1.847   0.308   1.043
 1129SOL    HW2 4287   1.983   0.229   1.088
 1130SOL     OW 4288   2.286   4.926   3.098
 1130SOL    HW1 4289   2.187   4.939   3.112
 1130SOL    HW2 4290   2.336   4.977   3.168
 1131SOL     OW 4291   1.136   6.780   4.014
 1131SOL    HW1 4292   1.179   6.704   4.063
 1131SOL    HW2 4293   1.202   6.823   3.953
 1132SOL     OW 4294   4.054   1.277   3.065
 1132SOL    HW1 4295   4.077   1.199   3.007
 1132SOL    HW2 4296   4.049   1.247   3.160
 1133SOL     OW 4297   1.141   6.727   5.059
 1133SOL    HW1 4298   1.155   6.651   5.122
 1133SOL    HW2 4299   1.050   6.720   5.018
 1134SOL     OW 4300   4.610   0.049   1.392
 1134SOL    HW1 4301   4.588   0.009   1.481
 1134SOL    HW2 4302   4.658   0.136   1.405
 1135SOL     OW 4303   2.042   6.275   3.487
 1135SOL    HW1 4304   2.043   6.372   3.513
 1135SOL    HW2 4305   2.031   6.267   3.388
 1136SOL     OW 4306   3.010   5.775   2.185
 1136SOL    HW1 4307   3.071   5.853   2.168
 1136SOL    HW2 4308   3.058   5.707   2.239
 1137SOL     OW 4309   0.354   5.826   6.309
 1137SOL    HW1 4310   0.358   5.747   6.370
 1137SOL    HW2 4311   0.435   5.827   6.250
 1138SOL     OW 4312   2.161   2.766   5.113
 1138SOL    HW1 4313   2.231   2.836   5.101
 1138SOL    HW2 4314   2.148   2.747   5.210
 1139SOL     OW 4315   2.943   4.775   4.264
 1139SOL    HW1 4316   3.031   4.809   4.232
 1139SOL    HW2 4317   2.949   4.754   4.362
 1140SOL     OW 4318   2.097   1.237   2.145
 1140SOL    HW1 4319   2.020   1.228   2.208
 1140SOL    HW2 4320   2.169   1.172   2.171
 1141SOL     OW 4321   6.054   4.834   5.946
 1141SOL    HW1 4322   6.054   4.766   6.019
 1141SOL    HW2 4323   6.116   4.805   5.873
 1142SOL     OW 4324   2.418   7.013   3.145
 1142SOL    HW1 4325   2.396   0.092   3.144
 1142SOL    HW2 4326   2.464   6.991   3.231
 1143SOL     OW 4327   0.792   3.954   1.689
 1143SOL    HW1 4328   0.802   3.862   1.650
 1143SOL    HW2 4329   0.721   4.004   1.639
 1144SOL     OW 4330   5.227   4.662   2.054
 1144SOL    HW1 4331   5.299   4.618   2.107
 1144SOL    HW2 4332   5.268   4.721   1.984
 1145SOL     OW 4333   0.931   1.819   0.419
 1145SOL    HW1 4334   0.886   1.786   0.336
 1145SOL    HW2 4335   1.029   1.830   0.401
 1146SOL     OW 4336   0.771   1.168   1.649
 1146SOL    HW1 4337   0.734   1.121   1.729
 1146SOL    HW2 4338   0.864   1.198   1.668
 1147SOL     OW 4339   3.233   6.164   1.159
 1147SOL    HW1 4340   3.148   6.199   1.119
 1147SOL    HW2 4341   3.243   6.067   1.135
 1148SOL     OW 4342   3.861   6.467   2.243
 1148SOL    HW1 4343   3.834   6.523   2.321
 1148SOL    HW2 4344   3.895   6.525   2.169
 1149SOL     OW 4345   5.592   2.293   1.573
 1149SOL    HW1 4346   5.684   2.280   1.610
 1149SOL    HW2 4347   5.556   2.382   1.600
 1150SOL     OW 4348   1.281   4.212   6.799
 1150SOL    HW1 4349   1.207   4.158   6.759
 1150SOL    HW2 4350   1.352   4.151   6.834
 1151SOL     OW 4351   6.672   4.976   3.927
 1151SOL    HW1 4352   6.661   4.886   3.884
 1151SOL    HW2 4353   6.599   4.991   3.993
 1152SOL     OW 4354   4.730   1.019   6.794
 1152SOL    HW1 4355   4.778   1.084   6.735
 1152SOL    HW2 4356   4.666   1.068   6.852
 1153SOL     OW 4357   6.570   6.813   1.369
 1153SOL    HW1 4358   6.566   6.715   1.390
 1153SOL    HW2 4359   6.571   6.865   1.454
 1154SOL     OW 4360   1.433   3.239   2.228
 1154SOL    HW1 4361   1.466   3.305   2.160
 1154SOL    HW2 4362   1.500   3.165   2.236
 1155SOL     OW 4363   2.456   6.700   4.689
 1155SOL    HW1 4364   2.435   6.721   4.593
 1155SOL    HW2 4365   2.377   6.721   4.746
 1156SOL     OW 4366   3.843   1.797   4.982
 1156SOL    HW1 4367   3.909   1.722   4.980
 1156SOL    HW2 4368   3.856   1.851   5.065
 1157SOL     OW 4369   4.159   0.352   5.782
 1157SOL    HW1 4370   4.218   0.299   5.721
 1157SOL    HW2 4371   4.130   0.294   5.858
 1158SOL     OW 4372   5.920   5.620   3.115
 1158SOL    HW1 4373   5.845   5.682   3.139
 1158SOL    HW2 4374   5.887   5.551   3.051
 1159SOL     OW 4375   6.829   5.977   2.668
 1159SOL    HW1 4376   6.833   6.064   2.717
 1159SOL    HW2 4377   6.798   5.904   2.730
 1160SOL     OW 4378   4.300   0.228   0.724
 1160SOL    HW1 4379   4.227   0.289   0.754
 1160SOL    HW2 4380   4.268   0.174   0.646
 1161SOL     OW 4381   6.728   5.965   0.183
 1161SOL    HW1 4382   6.689   5.874   0.188
 1161SOL    HW2 4383   6.806   5.964   0.119
 1162SOL     OW 4384   2.009   2.902   5.423
 1162SOL    HW1 4385   2.106   2.883   5.405
 1162SOL    HW2 4386   1.999   2.939   5.516
 1163SOL     OW 4387   6.316   4.511   1.810
 1163SOL    HW1 4388   6.228   4.487   1.851
 1163SOL    HW2 4389   6.387   4.453   1.849
 1164SOL     OW 4390   4.821   2.018   4.301
 1164SOL    HW1 4391   4.834   2.104   4.251
 1164SOL    HW2 4392   4.776   2.037   4.388
 1165SOL     OW 4393   4.132   6.437   3.414
 1165SOL    HW1 4394   4.119   6.345   3.375
 1165SOL    HW2 4395   4.046   6.488   3.409
 1166SOL     OW 4396   2.466   6.461   6.897
 1166SOL    HW1 4397   2.391   6.514   6.937
 1166SOL    HW2 4398   2.543   6.459   6.960
 1167SOL     OW 4399   5.488   4.102   2.316
 1167SOL    HW1 4400   5.440   4.017   2.339
 1167SOL    HW2 4401   5.432   4.180   2.342
 1168SOL     OW 4402   5.795   2.611   2.572
 1168SOL    HW1 4403   5.823   2.663   2.492
 1168SOL    HW2 4404   5.869   2.609   2.639
 1169SOL     OW 4405   5.362   0.822   5.569
 1169SOL    HW1 4406   5.272   0.779   5.560
 1169SOL    HW2 4407   5.426   0.778   5.507
 1170SOL     OW 4408   5.104   6.945   3.218
 1170SOL    HW1 4409   5.032   6.952   3.287
 1170SOL    HW2 4410   5.103   6.853   3.179
 1171SOL     OW 4411   1.441   0.555   0.897
 1171SOL    HW1 4412   1.458   0.465   0.858
 1171SOL    HW2 4413   1.346   0.581   0.879
 1172SOL     OW 4414   6.455   3.786   0.474
 1172SOL    HW1 4415   6.384   3.762   0.540
 1172SOL    HW2 4416   6.452   3.723   0.397
 1173SOL     OW 4417   3.056   1.308   1.342
 1173SOL    HW1 4418   3.024   1.393   1.384
 1173SOL    HW2 4419   3.156   1.308   1.340
 1174SOL     OW 4420   3.588   3.705   1.255
 1174SOL    HW1 4421   3.562   3.725   1.350
 1174SOL    HW2 4422   3.507   3.675   1.205
 1175SOL     OW 4423   4.058   3.154   5.636
 1175SOL    HW1 4424   4.036   3.250   5.652
 1175SOL    HW2 4425   4.048   3.133   5.538
 1176SOL     OW 4426   5.055   3.580   5.865
 1176SOL    HW1 4427   5.143   3.615   5.834
 1176SOL    HW2 4428   5.060   3.558   5.962
 1177SOL     OW 4429   6.334   2.123   4.966
 1177SOL    HW1 4430   6.277   2.151   4.889
 1177SOL    HW2 4431   6.429   2.147   4.949
 1178SOL     OW 4432   3.067   4.761   0.428
 1178SOL    HW1 4433   3.046   4.766   0.330
 1178SOL    HW2 4434   3.098   4.850   0.460
 1179SOL     OW 4435   2.335   5.765   0.267
 1179SOL    HW1 4436   2.358   5.826   0.343
 1179SOL    HW2 4437   2.381   5.677   0.280
 1180SOL     OW 4438   3.281   5.850   1.140
 1180SOL    HW1 4439   3.360   5.852   1.201
 1180SOL    HW2 4440   3.299   5.785   1.065
 1181SOL     OW 4441   0.507   5.566   6.717
 1181SOL    HW1 4442   0.541   5.648   6.671
 1181SOL    HW2 4443   0.408   5.558   6.704
 1182SOL     OW 4444   3.768   5.702   2.843
 1182SOL    HW1 4445   3.683   5.749   2.865
 1182SOL    HW2 4446   3.784   5.706   2.744
 1183SOL     OW 4447   1.502   4.339   6.983
 1183SOL    HW1 4448   1.495   4.240   6.976
 1183SOL    HW2 4449   1.417   4.377   0.001
 1184SOL     OW 4450   1.111   0.372   4.790
 1184SOL    HW1 4451   1.097   0.451   4.729
 1184SOL    HW2 4452   1.196   0.326   4.764
 1185SOL     OW 4453   0.092   1.127   6.528
 1185SOL    HW1 4454   0.019   1.097   6.466
 1185SOL    HW2 4455   0.163   1.174   6.475
 1186SOL     OW 4456   4.888   5.728   4.266
 1186SOL    HW1 4457   4.920   5.822   4.259
 1186SOL    HW2 4458   4.822   5.709   4.193
 1187SOL     OW 4459   6.787   0.022   6.540
 1187SOL    HW1 4460   6.808   0.110   6.585
 1187SOL    HW2 4461   6.726   0.038   6.463
 1188SOL     OW 4462   2.742   6.270   4.753
 1188SOL    HW1 4463   2.832   6.309   4.737
 1188SOL    HW2 4464   2.742   6.173   4.727
 1189SOL     OW 4465   6.412   3.307   2.927
 1189SOL    HW1 4466   6.313   3.320   2.926
 1189SOL    HW2 4467   6.445   3.287   2.835
 1190SOL     OW 4468   1.996   5.692   3.247
 1190SOL    HW1 4469   1.996   5.613   3.308
 1190SOL    HW2 4470   2.064   5.758   3.279
 1191SOL     OW 4471   3.987   5.106   3.258
 1191SOL    HW1 4472   3.981   5.080   3.162
 1191SOL    HW2 4473   4.046   5.041   3.306
 1192SOL     OW 4474   3.542   5.829   3.307
 1192SOL    HW1 4475   3.608   5.761   3.277
 1192SOL    HW2 4476   3.464   5.829   3.245
 1193SOL     OW 4477   5.964   4.452   4.506
 1193SOL    HW1 4478   5.909   4.445   4.589
 1193SOL    HW2 4479   6.039   4.517   4.520
 1194SOL     OW 4480   5.411   0.370   1.368
 1194SOL    HW1 4481   5.366   0.452   1.333
 1194SOL    HW2 4482   5.352   0.291   1.353
 1195SOL     OW 4483   6.199   5.076   1.954
 1195SOL    HW1 4484   6.165   4.996   1.903
 1195SOL    HW2 4485   6.293   5.059   1.982
 1196SOL     OW 4486   6.974   6.083   3.396
 1196SOL    HW1 4487   6.958   6.018   3.470
 1196SOL    HW2 4488   6.904   6.154   3.397
 1197SOL     OW 4489   3.439   1.117   6.965
 1197SOL    HW1 4490   3.509   1.055   6.929
 1197SOL    HW2 4491   3.376   1.065   0.004
 1198SOL     OW 4492   1.151   2.557   1.099
 1198SOL    HW1 4493   1.205   2.482   1.138
 1198SOL    HW2 4494   1.065   2.566   1.149
 1199SOL     OW 4495   4.778   5.166   1.489
 1199SOL    HW1 4496   4.809   5.138   1.580
 1199SOL    HW2 4497   4.793   5.091   1.424
 1200SOL     OW 4498   3.313   3.252   2.739
 1200SOL    HW1 4499   3.305   3.309   2.657
 1200SOL    HW2 4500   3.271   3.163   2.721
 1201SOL     OW 4501   1.357   1.069   4.830
 1201SOL    HW1 4502   1.266   1.077   4.869
 1201SOL    HW2 4503   1.414   1.012   4.889
 1202SOL     OW 4504   1.232   5.624   6.653
 1202SOL    HW1 4505   1.330   5.606   6.660
 1202SOL    HW2 4506   1.215   5.690   6.581
 1203SOL     OW 4507   4.820   5.820   6.210
 1203SOL    HW1 4508   4.829   5.919   6.210
 1203SOL    HW2 4509   4.866   5.782   6.129
 1204SOL     OW 4510   2.473   0.362   1.472
 1204SOL    HW1 4511   2.433   0.271   1.485
 1204SOL    HW2 4512   2.475   0.410   1.560
 1205SOL     OW 4513   4.987   4.135   1.623
 1205SOL    HW1 4514   4.888   4.129   1.633
 1205SOL    HW2 4515   5.028   4.163   1.710
 1206SOL     OW 4516   3.412   2.965   4.725
 1206SOL    HW1 4517   3.359   2.939   4.806
 1206SOL    HW2 4518   3.510   2.958   4.746
 1207SOL     OW 4519   2.821   6.863   1.577
 1207SOL    HW1 4520   2.805   6.931   1.648
 1207SOL    HW2 4521   2.763   6.881   1.498
 1208SOL     OW 4522   3.303   3.852   0.094
 1208SOL    HW1 4523   3.280   3.885   0.003
 1208SOL    HW2 4524   3.367   3.916   0.138
 1209SOL     OW 4525   3.755   0.414   5.525
 1209SOL    HW1 4526   3.800   0.494   5.484
 1209SOL    HW2 4527   3.762   0.419   5.625
 1210SOL     OW 4528   2.715   6.688   3.800
 1210SOL    HW1 4529   2.781   6.634   3.748
 1210SOL    HW2 4530   2.764   6.754   3.857
 1211SOL     OW 4531   1.244   3.681   0.855
 1211SOL    HW1 4532   1.294   3.637   0.780
 1211SOL    HW2 4533   1.254   3.780   0.848
 1212SOL     OW 4534   0.458   0.164   6.443
 1212SOL    HW1 4535   0.507   0.084   6.411
 1212SOL    HW2 4536   0.360   0.148   6.437
 1213SOL     OW 4537   5.908   2.787   0.193
 1213SOL    HW1 4538   5.981   2.760   0.256
 1213SOL    HW2 4539   5.890   2.713   0.129
 1214SOL     OW 4540   6.959   2.043   1.038
 1214SOL    HW1 4541   7.004   2.007   0.956
 1214SOL    HW2 4542   0.009   2.074   1.103
 1215SOL     OW 4543   1.627   4.580   4.276
 1215SOL    HW1 4544   1.547   4.568   4.333
 1215SOL    HW2 4545   1.687   4.650   4.316
 1216SOL     OW 4546   4.152   0.508   0.049
 1216SOL    HW1 4547   4.090   0.555   0.112
 1216SOL    HW2 4548   4.126   0.411   0.044
 1217SOL     OW 4549   1.973   4.534   0.650
 1217SOL    HW1 4550   1.978   4.510   0.747
 1217SOL    HW2 4551   1.889   4.585   0.633
 1218SOL     OW 4552   1.204   5.114   3.936
 1218SOL    HW1 4553   1.295   5.110   3.896
 1218SOL    HW2 4554   1.208   5.085   4.032
 1219SOL     OW 4555   4.750   6.018   2.041
 1219SOL    HW1 4556   4.693   6.044   2.119
 1219SOL    HW2 4557   4.693   5.980   1.969
 1220SOL     OW 4558   1.402   5.186   3.179
 1220SOL    HW1 4559   1.409   5.273   3.130
 1220SOL    HW2 4560   1.470   5.122   3.144
 1221SOL     OW 4561   5.226   3.138   5.674
 1221SOL    HW1 4562   5.228   3.173   5.767
 1221SOL    HW2 4563   5.131   3.132   5.642
 1222SOL     OW 4564   6.159   6.854   6.644
 1222SOL    HW1 4565   6.256   6.834   6.656
 1222SOL    HW2 4566   6.147   6.948   6.613
 1223SOL     OW 4567   3.931   0.432   0.373
 1223SOL    HW1 4568   3.934   0.504   0.441
 1223SOL    HW2 4569   4.024   0.410   0.343
 1224SOL     OW 4570   2.494   0.039   1.117
 1224SOL    HW1 4571   2.479   0.063   1.021
 1224SOL    HW2 4572   2.591   0.024   1.134
 1225SOL     OW 4573   3.264   4.188   5.882
 1225SOL    HW1 4574   3.358   4.174   5.853
 1225SOL    HW2 4575   3.202   4.179   5.804
 1226SOL     OW 4576   2.304   4.668   1.425
 1226SOL    HW1 4577   2.284   4.743   1.489
 1226SOL    HW2 4578   2.341   4.707   1.341
 1227SOL     OW 4579   6.941   3.379   6.712
 1227SOL    HW1 4580   6.972   3.307   6.649
 1227SOL    HW2 4581   7.001   3.380   6.792
 1228SOL     OW 4582   3.747   2.861   6.291
 1228SOL    HW1 4583   3.839   2.860   6.251
 1228SOL    HW2 4584   3.753   2.860   6.391
 1229SOL     OW 4585   4.785   4.668   6.759
 1229SOL    HW1 4586   4.792   4.752   6.813
 1229SOL    HW2 4587   4.722   4.683   6.682
 1230SOL     OW 4588   4.156   0.689   3.958
 1230SOL    HW1 4589   4.079   0.712   4.018
 1230SOL    HW2 4590   4.201   0.606   3.992
 1231SOL     OW 4591   2.182   3.681   5.048
 1231SOL    HW1 4592   2.201   3.722   4.959
 1231SOL    HW2 4593   2.196   3.749   5.120
 1232SOL     OW 4594   1.040   2.731   5.470
 1232SOL    HW1 4595   0.981   2.683   5.405
 1232SOL    HW2 4596   1.098   2.795   5.422
 1233SOL     OW 4597   1.365   2.855   5.755
 1233SOL    HW1 4598   1.367   2.944   5.710
 1233SOL    HW2 4599   1.427   2.793   5.708
 1234SOL     OW 4600   6.856   4.207   4.470
 1234SOL    HW1 4601   6.895   4.140   4.407
 1234SOL    HW2 4602   6.830   4.162   4.555
 1235SOL     OW 4603   6.453   5.448   2.835
 1235SOL    HW1 4604   6.541   5.413   2.802
 1235SOL    HW2 4605   6.469   5.510   2.911
 1236SOL     OW 4606   5.209   1.149   6.340
 1236SOL    HW1 4607   5.232   1.058   6.305
 1236SOL    HW2 4608   5.251   1.162   6.430
 1237SOL     OW 4609   2.512   4.603   6.164
 1237SOL    HW1 4610   2.509   4.634   6.259
 1237SOL    HW2 4611   2.478   4.675   6.104
 1238SOL     OW 4612   2.116   0.871   1.333
 1238SOL    HW1 4613   2.056   0.876   1.414
 1238SOL    HW2 4614   2.110   0.779   1.293
 1239SOL     OW 4615   6.926   6.171   6.475
 1239SOL    HW1 4616   6.849   6.138   6.530
 1239SOL    HW2 4617   6.899   6.175   6.379
 1240SOL     OW 4618   5.378   6.086   1.609
 1240SOL    HW1 4619   5.459   6.081   1.550
 1240SOL    HW2 4620   5.349   6.181   1.619
 1241SOL     OW 4621   6.488   3.272   4.480
 1241SOL    HW1 4622   6.584   3.294   4.464
 1241SOL    HW2 4623   6.465   3.187   4.432
 1242SOL     OW 4624   1.512   3.426   0.186
 1242SOL    HW1 4625   1.413   3.439   0.177
 1242SOL    HW2 4626   1.558   3.510   0.158
 1243SOL     OW 4627   2.088   5.371   5.120
 1243SOL    HW1 4628   2.117   5.278   5.100
 1243SOL    HW2 4629   1.999   5.389   5.077
 1244SOL     OW 4630   0.389   0.817   3.321
 1244SOL    HW1 4631   0.333   0.816   3.238
 1244SOL    HW2 4632   0.457   0.890   3.316
 1245SOL     OW 4633   3.174   3.364   6.661
 1245SOL    HW1 4634   3.246   3.376   6.729
 1245SOL    HW2 4635   3.180   3.272   6.621
 1246SOL     OW 4636   2.540   6.989   2.018
 1246SOL    HW1 4637   2.530   6.902   2.065
 1246SOL    HW2 4638   2.537   0.045   2.085
 1247SOL     OW 4639   3.155   6.852   6.492
 1247SOL    HW1 4640   3.214   6.923   6.452
 1247SOL    HW2 4641   3.098   6.894   6.564
 1248SOL     OW 4642   1.711   6.109   3.289
 1248SOL    HW1 4643   1.733   6.202   3.320
 1248SOL    HW2 4644   1.796   6.059   3.273
 1249SOL     OW 4645   5.988   3.527   3.335
 1249SOL    HW1 4646   5.931   3.445   3.348
 1249SOL    HW2 4647   6.019   3.531   3.240
 1250SOL     OW 4648   1.343   4.756   4.064
 1250SOL    HW1 4649   1.360   4.658   4.078
 1250SOL    HW2 4650   1.314   4.797   4.151
 1251SOL     OW 4651   4.082   0.831   4.608
 1251SOL    HW1 4652   4.004   0.770   4.622
 1251SOL    HW2 4653   4.163   0.777   4.586
 1252SOL     OW 4654   3.287   3.465   5.979
 1252SOL    HW1 4655   3.226   3.512   6.044
 1252SOL    HW2 4656   3.279   3.507   5.889
 1253SOL     OW 4657   3.556   5.288   2.271
 1253SOL    HW1 4658   3.604   5.295   2.358
 1253SOL    HW2 4659   3.531   5.193   2.254
 1254SOL     OW 4660   6.251   2.146   3.058
 1254SOL    HW1 4661   6.164   2.112   3.095
 1254SOL    HW2 4662   6.291   2.210   3.123
 1255SOL     OW 4663   0.287   0.140   5.640
 1255SOL    HW1 4664   0.370   0.195   5.628
 1255SOL    HW2 4665   0.207   0.197   5.625
 1256SOL     OW 4666   6.314   0.129   2.753
 1256SOL    HW1 4667   6.341   0.222   2.732
 1256SOL    HW2 4668   6.366   0.096   2.832
 1257SOL     OW 4669   6.936   0.536   3.402
 1257SOL    HW1 4670   6.850   0.539   3.350
 1257SOL    HW2 4671   6.920   0.575   3.493
 1258SOL     OW 4672   0.720   6.719   3.237
 1258SOL    HW1 4673   0.647   6.744   3.174
 1258SOL    HW2 4674   0.759   6.801   3.278
 1259SOL     OW 4675   4.031   1.657   5.289
 1259SOL    HW1 4676   4.120   1.654   5.335
 1259SOL    HW2 4677   4.038   1.610   5.201
 1260SOL     OW 4678   1.028   1.044   0.103
 1260SOL    HW1 4679   0.992   1.019   0.013
 1260SOL    HW2 4680   1.060   0.962   0.150
 1261SOL     OW 4681   0.525   4.981   0.304
 1261SOL    HW1 4682   0.436   5.009   0.341
 1261SOL    HW2 4683   0.551   4.892   0.344
 1262SOL     OW 4684   5.133   5.662   2.040
 1262SOL    HW1 4685   5.197   5.702   1.975
 1262SOL    HW2 4686   5.180   5.645   2.126
 1263SOL     OW 4687   1.008   2.313   3.040
 1263SOL    HW1 4688   1.068   2.391   3.020
 1263SOL    HW2 4689   1.045   2.231   2.998
 1264SOL     OW 4690   1.084   3.021   5.576
 1264SOL    HW1 4691   1.179   3.002   5.552
 1264SOL    HW2 4692   1.073   3.018   5.675
 1265SOL     OW 4693   5.955   5.790   5.425
 1265SOL    HW1 4694   5.915   5.851   5.493
 1265SOL    HW2 4695   6.041   5.828   5.392
 1266SOL     OW 4696   1.447   0.569   4.998
 1266SOL    HW1 4697   1.539   0.530   5.002
 1266SOL    HW2 4698   1.438   0.639   5.070
 1267SOL     OW 4699   4.779   0.648   2.205
 1267SOL    HW1 4700   4.841   0.595   2.262
 1267SOL    HW2 4701   4.831   0.706   2.142
 1268SOL     OW 4702   4.069   2.413   5.366
 1268SOL    HW1 4703   4.136   2.454   5.429
 1268SOL    HW2 4704   4.073   2.462   5.278
 1269SOL     OW 4705   6.018   2.298   3.615
 1269SOL    HW1 4706   6.054   2.382   3.574
 1269SOL    HW2 4707   5.919   2.305   3.623
 1270SOL     OW 4708   1.478   4.369   2.337
 1270SOL    HW1 4709   1.446   4.445   2.394
 1270SOL    HW2 4710   1.524   4.404   2.256
 1271SOL     OW 4711   1.790   1.455   1.673
 1271SOL    HW1 4712   1.699   1.420   1.653
 1271SOL    HW2 4713   1.796   1.551   1.646
 1272SOL     OW 4714   6.728   4.008   0.141
 1272SOL    HW1 4715   6.687   4.099   0.137
 1272SOL    HW2 4716   6.734   3.970   0.049
 1273SOL     OW 4717   1.168   4.400   4.994
 1273SOL    HW1 4718   1.266   4.393   4.980
 1273SOL    HW2 4719   1.144   4.494   5.019
 1274SOL     OW 4720   0.873   4.811   2.232
 1274SOL    HW1 4721   0.793   4.851   2.277
 1274SOL    HW2 4722   0.945   4.880   2.223
 1275SOL     OW 4723   3.252   0.647   3.054
 1275SOL    HW1 4724   3.289   0.667   3.145
 1275SOL    HW2 4725   3.166   0.596   3.064
 1276SOL     OW 4726   5.293   4.665   4.525
 1276SOL    HW1 4727   5.303   4.764   4.532
 1276SOL    HW2 4728   5.231   4.642   4.451
 1277SOL     OW 4729   0.075   5.831   6.653
 1277SOL    HW1 4730   0.148   5.890   6.687
 1277SOL    HW2 4731   0.067   5.842   6.554
 1278SOL     OW 4732   1.152   5.914   2.849
 1278SOL    HW1 4733   1.059   5.889   2.877
 1278SOL    HW2 4734   1.147   5.980   2.775
 1279SOL     OW 4735   3.203   2.448   6.563
 1279SOL    HW1 4736   3.297   2.482   6.556
 1279SOL    HW2 4737   3.153   2.500   6.632
 1280SOL     OW 4738   3.202   1.622   3.210
 1280SOL    HW1 4739   3.105   1.632   3.189
 1280SOL    HW2 4740   3.218   1.533   3.253
 1281SOL     OW 4741   3.548   6.181   4.049
 1281SOL    HW1 4742   3.505   6.175   3.959
 1281SOL    HW2 4743   3.565   6.088   4.083
 1282SOL     OW 4744   6.891   2.751   0.611
 1282SOL    HW1 4745   6.936   2.686   0.550
 1282SOL    HW2 4746   6.952   2.827   0.631
 1283SOL     OW 4747   5.907   3.400   5.107
 1283SOL    HW1 4748   5.844   3.404   5.185
 1283SOL    HW2 4749   5.876   3.329   5.043
 1284SOL     OW 4750   3.976   1.544   1.161
 1284SOL    HW1 4751   3.983   1.626   1.104
 1284SOL    HW2 4752   3.946   1.569   1.253
 1285SOL     OW 4753   3.328   1.612   4.641
 1285SOL    HW1 4754   3.384   1.632   4.722
 1285SOL    HW2 4755   3.373   1.540   4.587
 1286SOL     OW 4756   5.009   2.226   1.899
 1286SOL    HW1 4757   4.923   2.232   1.949
 1286SOL    HW2 4758   4.991   2.228   1.800
 1287SOL     OW 4759   6.810   4.369   4.753
 1287SOL    HW1 4760   6.829   4.455   4.706
 1287SOL    HW2 4761   6.896   4.320   4.769
 1288SOL     OW 4762   4.350   3.860   6.724
 1288SOL    HW1 4763   4.406   3.779   6.710
 1288SOL    HW2 4764   4.407   3.935   6.756
 1289SOL     OW 4765   0.015   0.645   1.719
 1289SOL    HW1 4766   0.095   0.586   1.706
 1289SOL    HW2 4767   6.950   0.594   1.700
 1290SOL     OW 4768   1.286   0.239   6.966
 1290SOL    HW1 4769   1.235   0.302   6.907
 1290SOL    HW2 4770   1.227   0.209   0.022
 1291SOL     OW 4771   6.208   4.946   3.015
 1291SOL    HW1 4772   6.199   4.879   2.942
 1291SOL    HW2 4773   6.305   4.969   3.027
 1292SOL     OW 4774   1.037   6.137   1.837
 1292SOL    HW1 4775   1.050   6.048   1.794
 1292SOL    HW2 4776   0.956   6.134   1.895
 1293SOL     OW 4777   2.705   1.335   6.703
 1293SOL    HW1 4778   2.694   1.339   6.604
 1293SOL    HW2 4779   2.655   1.410   6.745
 1294SOL     OW 4780   2.003   4.319   5.518
 1294SOL    HW1 4781   1.914   4.275   5.522
 1294SOL    HW2 4782   2.014   4.380   5.597
 1295SOL     OW 4783   0.171   3.228   1.234
 1295SOL    HW1 4784   0.092   3.169   1.250
 1295SOL    HW2 4785   0.252   3.188   1.276
 1296SOL     OW 4786   5.425   6.652   5.954
 1296SOL    HW1 4787   5.473   6.606   5.879
 1296SOL    HW2 4788   5.390   6.740   5.921
 1297SOL     OW 4789   0.230   0.774   2.502
 1297SOL    HW1 4790   0.235   0.825   2.415
 1297SOL    HW2 4791   0.207   0.837   2.576
 1298SOL     OW 4792   5.814   5.442   2.556
 1298SOL    HW1 4793   5.851   5.535   2.549
 1298SOL    HW2 4794   5.737   5.442   2.620
 1299SOL     OW 4795   2.143   3.327   4.277
 1299SOL    HW1 4796   2.191   3.241   4.259
 1299SOL    HW2 4797   2.166   3.360   4.368
 1300SOL     OW 4798   2.146   4.461   1.342
 1300SOL    HW1 4799   2.085   4.420   1.409
 1300SOL    HW2 4800   2.203   4.530   1.387
 1301SOL     OW 4801   0.972   0.841   1.774
 1301SOL    HW1 4802   0.897   0.883   1.824
 1301SOL    HW2 4803   0.937   0.771   1.712
 1302SOL     OW 4804   5.246   6.263   6.228
 1302SOL    HW1 4805   5.196   6.325   6.288
 1302SOL    HW2 4806   5.253   6.304   6.137
 1303SOL     OW 4807   4.626   6.873   1.622
 1303SOL    HW1 4808   4.665   6.785   1.598
 1303SOL    HW2 4809   4.539   6.860   1.668
 1304SOL     OW 4810   0.608   0.855   1.163
 1304SOL    HW1 4811   0.659   0.927   1.115
 1304SOL    HW2 4812   0.569   0.892   1.247
 1305SOL     OW 4813   5.638   4.216   0.129
 1305SOL    HW1 4814   5.643   4.249   0.035
 1305SOL    HW2 4815   5.545   4.183   0.148
 1306SOL     OW 4816   1.622   5.142   4.693
 1306SOL    HW1 4817   1.609   5.181   4.602
 1306SOL    HW2 4818   1.535   5.144   4.742
 1307SOL     OW 4819   1.852   2.742   3.934
 1307SOL    HW1 4820   1.876   2.706   4.024
 1307SOL    HW2 4821   1.787   2.680   3.890
 1308SOL     OW 4822   6.713   5.434   6.126
 1308SOL    HW1 4823   6.776   5.465   6.198
 1308SOL    HW2 4824   6.660   5.512   6.092
 1309SOL     OW 4825   5.321   4.262   6.430
 1309SOL    HW1 4826   5.325   4.170   6.391
 1309SOL    HW2 4827   5.279   4.258   6.520
 1310SOL     OW 4828   1.246   3.655   3.992
 1310SOL    HW1 4829   1.291   3.605   3.917
 1310SOL    HW2 4830   1.315   3.698   4.050
 1311SOL     OW 4831   6.837   5.656   0.403
 1311SOL    HW1 4832   6.912   5.716   0.432
 1311SOL    HW2 4833   6.779   5.704   0.338
 1312SOL     OW 4834   1.677   0.644   5.678
 1312SOL    HW1 4835   1.664   0.547   5.701
 1312SOL    HW2 4836   1.592   0.693   5.690
 1313SOL     OW 4837   6.609   4.780   3.148
 1313SOL    HW1 4838   6.665   4.719   3.091
 1313SOL    HW2 4839   6.558   4.842   3.088
 1314SOL     OW 4840   2.911   1.806   4.762
 1314SOL    HW1 4841   2.968   1.724   4.753
 1314SOL    HW2 4842   2.831   1.784   4.818
 1315SOL     OW 4843   5.810   0.376   4.302
 1315SOL    HW1 4844   5.832   0.295   4.248
 1315SOL    HW2 4845   5.841   0.458   4.254
 1316SOL     OW 4846   4.158   0.687   4.866
 1316SOL    HW1 4847   4.094   0.719   4.937
 1316SOL    HW2 4848   4.206   0.766   4.827
 1317SOL     OW 4849   3.043   3.275   5.439
 1317SOL    HW1 4850   3.012   3.274   5.344
 1317SOL    HW2 4851   3.116   3.207   5.451
 1318SOL     OW 4852   2.212   2.760   6.938
 1318SOL    HW1 4853   2.127   2.779   6.889
 1318SOL    HW2 4854   2.203   2.673   6.987
 1319SOL     OW 4855   6.937   6.253   0.590
 1319SOL    HW1 4856   6.919   6.240   0.493
 1319SOL    HW2 4857   6.974   6.345   0.605
 1320SOL     OW 4858   3.584   3.048   6.159
 1320SOL    HW1 4859   3.614   2.966   6.207
 1320SOL    HW2 4860   3.561   3.025   6.065
 1321SOL     OW 4861   5.561   1.968   6.314
 1321SOL    HW1 4862   5.640   2.027   6.294
 1321SOL    HW2 4863   5.482   2.000   6.261
 1322SOL     OW 4864   3.041   1.301   6.555
 1322SOL    HW1 4865   2.991   1.384   6.577
 1322SOL    HW2 4866   3.059   1.249   6.639
 1323SOL     OW 4867   3.414   0.396   0.359
 1323SOL    HW1 4868   3.472   0.318   0.381
 1323SOL    HW2 4869   3.469   0.479   0.355
 1324SOL     OW 4870   1.554   3.627   6.880
 1324SOL    HW1 4871   1.596   3.650   6.968
 1324SOL    HW2 4872   1.573   3.531   6.859
 1325SOL     OW 4873   2.189   6.005   6.139
 1325SOL    HW1 4874   2.133   6.056   6.073
 1325SOL    HW2 4875   2.282   6.041   6.138
 1326SOL     OW 4876   4.834   4.003   4.199
 1326SOL    HW1 4877   4.806   4.052   4.281
 1326SOL    HW2 4878   4.809   3.907   4.207
 1327SOL     OW 4879   0.247   6.427   0.835
 1327SOL    HW1 4880   0.212   6.487   0.764
 1327SOL    HW2 4881   0.304   6.480   0.899
 1328SOL     OW 4882   0.968   3.557   5.704
 1328SOL    HW1 4883   0.997   3.626   5.770
 1328SOL    HW2 4884   1.022   3.565   5.620
 1329SOL     OW 4885   0.236   2.480   3.590
 1329SOL    HW1 4886   0.281   2.392   3.608
 1329SOL    HW2 4887   0.140   2.474   3.614
 1330SOL     OW 4888   6.440   2.375   0.928
 1330SOL    HW1 4889   6.374   2.319   0.878
 1330SOL    HW2 4890   6.462   2.331   1.015
 1331SOL     OW 4891   4.147   2.114   2.490
 1331SOL    HW1 4892   4.089   2.106   2.571
 1331SOL    HW2 4893   4.191   2.026   2.473
 1332SOL     OW 4894   2.026   0.545   0.765
 1332SOL    HW1 4895   1.927   0.540   0.751
 1332SOL    HW2 4896   2.046   0.582   0.855
 1333SOL     OW 4897   3.492   4.159   3.037
 1333SOL    HW1 4898   3.420   4.127   3.098
 1333SOL    HW2 4899   3.460   4.155   2.942
 1334SOL     OW 4900   6.797   1.591   2.835
 1334SOL    HW1 4901   6.888   1.588   2.877
 1334SOL    HW2 4902   6.775   1.686   2.812
 1335SOL     OW 4903   1.878   4.285   1.927
 1335SOL    HW1 4904   1.924   4.250   1.845
 1335SOL    HW2 4905   1.818   4.215   1.965
 1336SOL     OW 4906   3.674   0.572   5.238
 1336SOL    HW1 4907   3.675   0.630   5.320
 1336SOL    HW2 4908   3.681   0.629   5.157
 1337SOL     OW 4909   6.040   1.713   3.490
 1337SOL    HW1 4910   6.068   1.739   3.398
 1337SOL    HW2 4911   6.106   1.749   3.556
 1338SOL     OW 4912   6.142   4.062   4.526
 1338SOL    HW1 4913   6.048   4.096   4.528
 1338SOL    HW2 4914   6.195   4.112   4.458
 1339SOL     OW 4915   0.482   0.254   6.695
 1339SOL    HW1 4916   0.465   0.232   6.599
 1339SOL    HW2 4917   0.444   0.183   6.753
 1340SOL     OW 4918   5.157   1.422   1.675
 1340SOL    HW1 4919   5.196   1.424   1.583
 1340SOL    HW2 4920   5.134   1.328   1.699
 1341SOL     OW 4921   4.378   0.026   6.604
 1341SOL    HW1 4922   4.411   0.055   6.693
 1341SOL    HW2 4923   4.443   0.052   6.533
 1342SOL     OW 4924   3.388   5.701   0.881
 1342SOL    HW1 4925   3.447   5.773   0.919
 1342SOL    HW2 4926   3.304   5.742   0.844
 1343SOL     OW 4927   5.396   5.078   3.032
 1343SOL    HW1 4928   5.468   5.037   3.088
 1343SOL    HW2 4929   5.416   5.061   2.935
 1344SOL     OW 4930   6.888   0.233   4.459
 1344SOL    HW1 4931   6.842   0.162   4.405
 1344SOL    HW2 4932   6.986   0.215   4.459
 1345SOL     OW 4933   0.376   5.418   1.832
 1345SOL    HW1 4934   0.406   5.494   1.890
 1345SOL    HW2 4935   0.443   5.404   1.759
 1346SOL     OW 4936   2.235   4.803   5.764
 1346SOL    HW1 4937   2.274   4.736   5.828
 1346SOL    HW2 4938   2.306   4.868   5.738
 1347SOL     OW 4939   1.528   0.390   0.001
 1347SOL    HW1 4940   1.431   0.376   6.998
 1347SOL    HW2 4941   1.581   0.315   6.981
 1348SOL     OW 4942   0.274   5.980   5.259
 1348SOL    HW1 4943   0.317   5.962   5.347
 1348SOL    HW2 4944   0.177   5.999   5.272
 1349SOL     OW 4945   5.430   3.839   4.074
 1349SOL    HW1 4946   5.330   3.845   4.068
 1349SOL    HW2 4947   5.456   3.801   4.162
 1350SOL     OW 4948   3.176   3.801   0.332
 1350SOL    HW1 4949   3.221   3.820   0.245
 1350SOL    HW2 4950   3.215   3.859   0.404
 1351SOL     OW 4951   6.461   2.611   4.506
 1351SOL    HW1 4952   6.379   2.569   4.466
 1351SOL    HW2 4953   6.525   2.539   4.532
 1352SOL     OW 4954   7.007   0.112   2.595
 1352SOL    HW1 4955   6.982   0.016   2.608
 1352SOL    HW2 4956   0.082   0.117   2.561
 1353SOL     OW 4957   0.623   1.701   1.319
 1353SOL    HW1 4958   0.604   1.682   1.415
 1353SOL    HW2 4959   0.685   1.778   1.311
 1354SOL     OW 4960   6.014   4.247   2.399
 1354SOL    HW1 4961   6.091   4.311   2.406
 1354SOL    HW2 4962   6.039   4.173   2.336
 1355SOL     OW 4963   6.183   3.142   4.541
 1355SOL    HW1 4964   6.179   3.238   4.571
 1355SOL    HW2 4965   6.091   3.112   4.515
 1356SOL     OW 4966   3.607   2.815   2.144
 1356SOL    HW1 4967   3.593   2.730   2.092
 1356SOL    HW2 4968   3.704   2.838   2.144
 1357SOL     OW 4969   6.737   3.257   5.420
 1357SOL    HW1 4970   6.672   3.315   5.370
 1357SOL    HW2 4971   6.693   3.171   5.444
 1358SOL     OW 4972   1.160   6.703   0.051
 1358SOL    HW1 4973   1.252   6.673   0.024
 1358SOL    HW2 4974   1.118   6.632   0.108
 1359SOL     OW 4975   6.502   4.323   1.483
 1359SOL    HW1 4976   6.440   4.281   1.417
 1359SOL    HW2 4977   6.557   4.251   1.526
 1360SOL     OW 4978   3.235   2.781   6.288
 1360SOL    HW1 4979   3.258   2.846   6.216
 1360SOL    HW2 4980   3.289   2.698   6.276
 1361SOL     OW 4981   6.941   3.958   4.415
 1361SOL    HW1 4982   0.002   4.018   4.425
 1361SOL    HW2 4983   6.944   3.886   4.484
 1362SOL     OW 4984   3.565   2.855   2.432
 1362SOL    HW1 4985   3.572   2.868   2.333
 1362SOL    HW2 4986   3.475   2.884   2.463
 1363SOL     OW 4987   0.408   5.510   5.490
 1363SOL    HW1 4988   0.461   5.531   5.572
 1363SOL    HW2 4989   0.321   5.468   5.517
 1364SOL     OW 4990   4.282   4.599   0.401
 1364SOL    HW1 4991   4.375   4.566   0.382
 1364SOL    HW2 4992   4.237   4.623   0.315
 1365SOL     OW 4993   0.690   3.559   6.391
 1365SOL    HW1 4994   0.751   3.612   6.450
 1365SOL    HW2 4995   0.673   3.470   6.433
 1366SOL     OW 4996   2.133   0.384   4.982
 1366SOL    HW1 4997   2.071   0.360   4.907
 1366SOL    HW2 4998   2.201   0.312   4.994
 1367SOL     OW 4999   2.162   0.848   2.422
 1367SOL    HW1 5000   2.073   0.865   2.465
 1367SOL    HW2 5001   2.208   0.774   2.470
 1368SOL     OW 5002   6.164   6.803   4.615
 1368SOL    HW1 5003   6.253   6.791   4.570
 1368SOL    HW2 5004   6.175   6.862   4.695
 1369SOL     OW 5005   0.845   0.848   3.180
 1369SOL    HW1 5006   0.821   0.891   3.093
 1369SOL    HW2 5007   0.781   0.877   3.251
 1370SOL     OW 5008   3.159   1.068   1.780
 1370SOL    HW1 5009   3.119   1.058   1.871
 1370SOL    HW2 5010   3.250   1.026   1.779
 1371SOL     OW 5011   3.332   0.469   6.147
 1371SOL    HW1 5012   3.246   0.486   6.196
 1371SOL    HW2 5013   3.335   0.373   6.118
 1372SOL     OW 5014   2.649   1.915   2.157
 1372SOL    HW1 5015   2.591   1.882   2.083
 1372SOL    HW2 5016   2.623   1.869   2.242
 1373SOL     OW 5017   0.809   5.943   1.203
 1373SOL    HW1 5018   0.734   5.877   1.215
 1373SOL    HW2 5019   0.889   5.896   1.166
 1374SOL     OW 5020   4.327   2.324   0.345
 1374SOL    HW1 5021   4.420   2.319   0.307
 1374SOL    HW2 5022   4.308   2.418   0.372
 1375SOL     OW 5023   6.864   4.269   5.978
 1375SOL    HW1 5024   6.772   4.258   5.939
 1375SOL    HW2 5025   6.904   4.354   5.944
 1376SOL     OW 5026   4.814   3.032   2.733
 1376SOL    HW1 5027   4.836   2.982   2.816
 1376SOL    HW2 5028   4.835   2.975   2.653
 1377SOL     OW 5029   0.018   5.600   4.976
 1377SOL    HW1 5030   0.000   5.595   5.075
 1377SOL    HW2 5031   0.056   5.512   4.945
 1378SOL     OW 5032   1.539   2.606   6.976
 1378SOL    HW1 5033   1.547   2.581   0.053
 1378SOL    HW2 5034   1.613   2.562   6.924
 1379SOL     OW 5035   4.052   6.195   2.915
 1379SOL    HW1 5036   3.978   6.135   2.883
 1379SOL    HW2 5037   4.015   6.260   2.981
 1380SOL     OW 5038   6.623   6.766   2.734
 1380SOL    HW1 5039   6.676   6.729   2.810
 1380SOL    HW2 5040   6.647   6.862   2.720
 1381SOL     OW 5041   6.828   1.627   0.808
 1381SOL    HW1 5042   6.907   1.672   0.765
 1381SOL    HW2 5043   6.764   1.697   0.840
 1382SOL     OW 5044   5.350   4.493   6.198
 1382SOL    HW1 5045   5.366   4.445   6.285
 1382SOL    HW2 5046   5.253   4.492   6.177
 1383SOL     OW 5047   2.653   6.966   0.725
 1383SOL    HW1 5048   2.593   0.021   0.758
 1383SOL    HW2 5049   2.689   6.991   0.635
 1384SOL     OW 5050   2.962   2.015   2.462
 1384SOL    HW1 5051   3.050   1.995   2.419
 1384SOL    HW2 5052   2.910   2.078   2.404
 1385SOL     OW 5053   6.826   3.305   3.327
 1385SOL    HW1 5054   6.755   3.305   3.257
 1385SOL    HW2 5055   6.862   3.212   3.338
 1386SOL     OW 5056   2.242   2.247   4.359
 1386SOL    HW1 5057   2.198   2.165   4.394
 1386SOL    HW2 5058   2.180   2.325   4.367
 1387SOL     OW 5059   2.634   0.063   4.914
 1387SOL    HW1 5060   2.644   0.162   4.927
 1387SOL    HW2 5061   2.536   0.041   4.908
 1388SOL     OW 5062   6.188   0.914   4.290
 1388SOL    HW1 5063   6.097   0.953   4.278
 1388SOL    HW2 5064   6.191   0.822   4.249
 1389SOL     OW 5065   5.921   0.054   4.435
 1389SOL    HW1 5066   5.864   7.000   4.473
 1389SOL    HW2 5067   5.876   0.143   4.451
 1390SOL     OW 5068   4.916   2.113   2.441
 1390SOL    HW1 5069   4.833   2.159   2.472
 1390SOL    HW2 5070   4.992   2.177   2.443
 1391SOL     OW 5071   4.963   0.862   4.367
 1391SOL    HW1 5072   4.935   0.938   4.425
 1391SOL    HW2 5073   4.924   0.874   4.276
 1392SOL     OW 5074   4.738   5.626   6.822
 1392SOL    HW1 5075   4.744   5.548   6.759
 1392SOL    HW2 5076   4.822   5.679   6.817
 1393SOL     OW 5077   6.073   0.934   6.765
 1393SOL    HW1 5078   5.989   0.893   6.728
 1393SOL    HW2 5079   6.113   0.873   6.832
 1394SOL     OW 5080   4.546   6.906   4.081
 1394SOL    HW1 5081   4.617   6.932   4.146
 1394SOL    HW2 5082   4.492   6.986   4.056
 1395SOL     OW 5083   1.426   4.952   2.073
 1395SOL    HW1 5084   1.434   4.938   2.172
 1395SOL    HW2 5085   1.357   4.890   2.036
 1396SOL     OW 5086   2.007   1.467   3.963
 1396SOL    HW1 5087   2.073   1.424   4.025
 1396SOL    HW2 5088   2.012   1.566   3.972
 1397SOL     OW 5089   0.131   5.207   4.237
 1397SOL    HW1 5090   0.145   5.110   4.255
 1397SOL    HW2 5091   0.215   5.247   4.201
 1398SOL     OW 5092   0.380   0.836   0.835
 1398SOL    HW1 5093   0.451   0.783   0.790
 1398SOL    HW2 5094   0.353   0.912   0.775
 1399SOL     OW 5095   4.321   0.516   0.264
 1399SOL    HW1 5096   4.263   0.524   0.345
 1399SOL    HW2 5097   4.264   0.522   0.182
 1400SOL     OW 5098   6.069   6.748   5.434
 1400SOL    HW1 5099   6.060   6.739   5.335
 1400SOL    HW2 5100   6.164   6.734   5.460
 1401SOL     OW 5101   5.212   0.309   3.361
 1401SOL    HW1 5102   5.149   0.292   3.286
 1401SOL    HW2 5103   5.302   0.272   3.338
 1402SOL     OW 5104   6.975   4.740   2.049
 1402SOL    HW1 5105   6.975   4.640   2.048
 1402SOL    HW2 5106   0.050   4.773   2.049
 1403SOL     OW 5107   3.363   2.940   6.467
 1403SOL    HW1 5108   3.419   2.900   6.539
 1403SOL    HW2 5109   3.312   2.867   6.420
 1404SOL     OW 5110   4.498   6.711   0.195
 1404SOL    HW1 5111   4.428   6.719   0.265
 1404SOL    HW2 5112   4.456   6.684   0.108
 1405SOL     OW 5113   1.355   3.625   1.107
 1405SOL    HW1 5114   1.311   3.641   1.195
 1405SOL    HW2 5115   1.292   3.650   1.034
 1406SOL     OW 5116   2.319   2.892   1.065
 1406SOL    HW1 5117   2.403   2.927   1.022
 1406SOL    HW2 5118   2.342   2.849   1.152
 1407SOL     OW 5119   0.365   3.079   0.837
 1407SOL    HW1 5120   0.392   3.020   0.762
 1407SOL    HW2 5121   0.282   3.043   0.880
 1408SOL     OW 5122   6.069   6.212   0.845
 1408SOL    HW1 5123   5.987   6.260   0.813
 1408SOL    HW2 5124   6.120   6.270   0.908
 1409SOL     OW 5125   6.184   1.755   5.745
 1409SOL    HW1 5126   6.247   1.681   5.768
 1409SOL    HW2 5127   6.152   1.744   5.651
 1410SOL     OW 5128   4.097   1.524   5.901
 1410SOL    HW1 5129   4.086   1.540   5.999
 1410SOL    HW2 5130   4.092   1.426   5.883
 1411SOL     OW 5131   3.735   5.000   0.219
 1411SOL    HW1 5132   3.675   5.047   0.284
 1411SOL    HW2 5133   3.684   4.928   0.172
 1412SOL     OW 5134   2.069   3.437   0.554
 1412SOL    HW1 5135   2.077   3.500   0.477
 1412SOL    HW2 5136   2.113   3.350   0.531
 1413SOL     OW 5137   1.491   1.556   5.467
 1413SOL    HW1 5138   1.522   1.634   5.520
 1413SOL    HW2 5139   1.569   1.499   5.442
 1414SOL     OW 5140   1.411   4.109   2.578
 1414SOL    HW1 5141   1.420   4.116   2.479
 1414SOL    HW2 5142   1.411   4.201   2.618
 1415SOL     OW 5143   2.089   1.917   4.563
 1415SOL    HW1 5144   2.169   1.912   4.622
 1415SOL    HW2 5145   2.073   1.827   4.521
 1416SOL     OW 5146   3.987   0.261   4.731
 1416SOL    HW1 5147   4.019   0.249   4.825
 1416SOL    HW2 5148   3.934   0.181   4.703
 1417SOL     OW 5149   3.268   2.928   6.060
 1417SOL    HW1 5150   3.315   3.008   6.023
 1417SOL    HW2 5151   3.179   2.955   6.097
 1418SOL     OW 5152   3.347   4.385   6.243
 1418SOL    HW1 5153   3.379   4.462   6.188
 1418SOL    HW2 5154   3.283   4.330   6.190
 1419SOL     OW 5155   2.558   4.733   2.463
 1419SOL    HW1 5156   2.559   4.831   2.444
 1419SOL    HW2 5157   2.477   4.710   2.517
 1420SOL     OW 5158   2.787   6.520   3.001
 1420SOL    HW1 5159   2.751   6.494   3.091
 1420SOL    HW2 5160   2.724   6.489   2.930
 1421SOL     OW 5161   1.151   4.881   5.954
 1421SOL    HW1 5162   1.178   4.953   5.891
 1421SOL    HW2 5163   1.155   4.793   5.907
 1422SOL     OW 5164   1.953   3.885   6.211
 1422SOL    HW1 5165   1.988   3.838   6.130
 1422SOL    HW2 5166   1.895   3.822   6.263
 1423SOL     OW 5167   4.561   0.558   4.850
 1423SOL    HW1 5168   4.643   0.510   4.820
 1423SOL    HW2 5169   4.489   0.492   4.870
 1424SOL     OW 5170   6.681   3.017   6.895
 1424SOL    HW1 5171   6.585   3.035   6.875
 1424SOL    HW2 5172   6.737   3.044   6.816
 1425SOL     OW 5173   4.721   6.357   3.229
 1425SOL    HW1 5174   4.722   6.263   3.266
 1425SOL    HW2 5175   4.763   6.419   3.295
 1426SOL     OW 5176   3.685   2.324   0.343
 1426SOL    HW1 5177   3.642   2.412   0.323
 1426SOL    HW2 5178   3.617   2.262   0.382
 1427SOL     OW 5179   1.429   1.203   4.181
 1427SOL    HW1 5180   1.514   1.219   4.131
 1427SOL    HW2 5181   1.359   1.171   4.118
 1428SOL     OW 5182   1.076   3.390   3.916
 1428SOL    HW1 5183   1.131   3.452   3.972
 1428SOL    HW2 5184   1.087   3.296   3.948
 1429SOL     OW 5185   5.978   1.116   1.247
 1429SOL    HW1 5186   5.980   1.080   1.154
 1429SOL    HW2 5187   5.924   1.056   1.306
 1430SOL     OW 5188   1.874   3.542   3.984
 1430SOL    HW1 5189   1.908   3.530   4.077
 1430SOL    HW2 5190   1.949   3.533   3.919
 1431SOL     OW 5191   2.181   1.153   6.171
 1431SOL    HW1 5192   2.172   1.158   6.270
 1431SOL    HW2 5193   2.155   1.061   6.140
 1432SOL     OW 5194   2.857   0.685   2.517
 1432SOL    HW1 5195   2.903   0.720   2.599
 1432SOL    HW2 5196   2.820   0.762   2.464
 1433SOL     OW 5197   2.464   6.971   3.730
 1433SOL    HW1 5198   2.455   6.948   3.827
 1433SOL    HW2 5199   2.373   6.980   3.690
 1434SOL     OW 5200   0.346   3.368   0.836
 1434SOL    HW1 5201   0.387   3.277   0.844
 1434SOL    HW2 5202   0.246   3.360   0.844
 1435SOL     OW 5203   1.312   6.963   3.887
 1435SOL    HW1 5204   1.306   6.991   3.792
 1435SOL    HW2 5205   1.400   6.920   3.904
 1436SOL     OW 5206   5.381   1.904   6.951
 1436SOL    HW1 5207   5.299   1.869   6.998
 1436SOL    HW2 5208   5.391   2.001   6.971
 1437SOL     OW 5209   3.669   0.449   5.796
 1437SOL    HW1 5210   3.709   0.367   5.835
 1437SOL    HW2 5211   3.587   0.475   5.848
 1438SOL     OW 5212   2.781   0.268   2.044
 1438SOL    HW1 5213   2.783   0.221   2.132
 1438SOL    HW2 5214   2.819   0.208   1.973
 1439SOL     OW 5215   0.264   4.934   0.014
 1439SOL    HW1 5216   0.262   4.835   7.018
 1439SOL    HW2 5217   0.193   4.960   0.079
 1440SOL     OW 5218   3.816   3.342   2.991
 1440SOL    HW1 5219   3.812   3.441   3.004
 1440SOL    HW2 5220   3.731   3.312   2.947
 1441SOL     OW 5221   6.272   2.753   3.747
 1441SOL    HW1 5222   6.219   2.764   3.663
 1441SOL    HW2 5223   6.298   2.843   3.782
 1442SOL     OW 5224   5.537   5.175   0.756
 1442SOL    HW1 5225   5.554   5.268   0.788
 1442SOL    HW2 5226   5.619   5.140   0.710
 1443SOL     OW 5227   0.405   2.925   3.217
 1443SOL    HW1 5228   0.353   2.919   3.303
 1443SOL    HW2 5229   0.483   2.862   3.221
 1444SOL     OW 5230   4.563   1.168   3.780
 1444SOL    HW1 5231   4.649   1.191   3.734
 1444SOL    HW2 5232   4.539   1.073   3.759
 1445SOL     OW 5233   6.529   2.001   0.753
 1445SOL    HW1 5234   6.571   1.950   0.828
 1445SOL    HW2 5235   6.439   2.035   0.782
 1446SOL     OW 5236   4.445   0.736   1.314
 1446SOL    HW1 5237   4.483   0.695   1.231
 1446SOL    HW2 5238   4.372   0.800   1.288
 1447SOL     OW 5239   6.025   0.737   5.612
 1447SOL    HW1 5240   5.933   0.701   5.628
 1447SOL    HW2 5241   6.093   0.669   5.641
 1448SOL     OW 5242   5.412   0.755   6.814
 1448SOL    HW1 5243   5.463   0.733   6.897
 1448SOL    HW2 5244   5.448   0.839   6.774
 1449SOL     OW 5245   4.354   5.750   1.055
 1449SOL    HW1 5246   4.335   5.848   1.050
 1449SOL    HW2 5247   4.374   5.725   1.150
 1450SOL     OW 5248   5.576   2.857   3.373
 1450SOL    HW1 5249   5.625   2.804   3.443
 1450SOL    HW2 5250   5.553   2.947   3.410
 1451SOL     OW 5251   1.587   6.612   3.038
 1451SOL    HW1 5252   1.536   6.572   2.962
 1451SOL    HW2 5253   1.555   6.706   3.053
 1452SOL     OW 5254   4.298   1.028   5.085
 1452SOL    HW1 5255   4.286   0.934   5.119
 1452SOL    HW2 5256   4.236   1.089   5.134
 1453SOL     OW 5257   5.456   4.684   5.295
 1453SOL    HW1 5258   5.530   4.648   5.238
 1453SOL    HW2 5259   5.464   4.646   5.388
 1454SOL     OW 5260   4.068   3.759   0.943
 1454SOL    HW1 5261   4.097   3.718   0.857
 1454SOL    HW2 5262   4.076   3.692   1.017
 1455SOL     OW 5263   2.034   2.677   1.635
 1455SOL    HW1 5264   2.065   2.668   1.540
 1455SOL    HW2 5265   2.032   2.587   1.678
 1456SOL     OW 5266   6.386   6.098   3.920
 1456SOL    HW1 5267   6.319   6.032   3.885
 1456SOL    HW2 5268   6.459   6.049   3.968
 1457SOL     OW 5269   1.439   0.594   2.980
 1457SOL    HW1 5270   1.444   0.549   3.069
 1457SOL    HW2 5271   1.352   0.571   2.936
 1458SOL     OW 5272   5.983   5.433   6.940
 1458SOL    HW1 5273   5.964   5.335   6.926
 1458SOL    HW2 5274   6.046   5.444   7.016
 1459SOL     OW 5275   2.242   0.193   0.524
 1459SOL    HW1 5276   2.201   0.166   0.611
 1459SOL    HW2 5277   2.178   0.175   0.450
 1460SOL     OW 5278   1.057   7.013   7.019
 1460SOL    HW1 5279   1.129   6.956   0.039
 1460SOL    HW2 5280   1.056   0.083   0.046
 1461SOL     OW 5281   5.427   5.134   1.780
 1461SOL    HW1 5282   5.471   5.090   1.702
 1461SOL    HW2 5283   5.330   5.108   1.783
 1462SOL     OW 5284   5.527   0.864   6.077
 1462SOL    HW1 5285   5.493   0.824   5.992
 1462SOL    HW2 5286   5.490   0.956   6.088
 1463SOL     OW 5287   0.415   1.423   4.898
 1463SOL    HW1 5288   0.408   1.326   4.921
 1463SOL    HW2 5289   0.469   1.469   4.969
 1464SOL     OW 5290   0.612   6.412   0.968
 1464SOL    HW1 5291   0.594   6.496   1.019
 1464SOL    HW2 5292   0.705   6.413   0.933
 1465SOL     OW 5293   0.424   6.802   4.782
 1465SOL    HW1 5294   0.473   6.742   4.846
 1465SOL    HW2 5295   0.445   6.774   4.688
 1466SOL     OW 5296   5.620   5.157   4.069
 1466SOL    HW1 5297   5.545   5.119   4.015
 1466SOL    HW2 5298   5.700   5.171   4.011
 1467SOL     OW 5299   0.267   2.684   3.411
 1467SOL    HW1 5300   0.272   2.783   3.423
 1467SOL    HW2 5301   0.249   2.641   3.500
 1468SOL     OW 5302   5.765   5.634   3.487
 1468SOL    HW1 5303   5.714   5.719   3.502
 1468SOL    HW2 5304   5.792   5.628   3.391
 1469SOL     OW 5305   0.427   1.388   3.113
 1469SOL    HW1 5306   0.331   1.392   3.086
 1469SOL    HW2 5307   0.474   1.320   3.056
 1470SOL     OW 5308   7.014   1.084   3.432
 1470SOL    HW1 5309   0.021   1.034   3.349
 1470SOL    HW2 5310   0.078   1.105   3.484
 1471SOL     OW 5311   0.406   0.111   6.921
 1471SOL    HW1 5312   0.308   0.093   6.909
 1471SOL    HW2 5313   0.444   0.045   6.986
 1472SOL     OW 5314   4.488   0.440   5.418
 1472SOL    HW1 5315   4.407   0.383   5.404
 1472SOL    HW2 5316   4.558   0.388   5.466
 1473SOL     OW 5317   6.182   4.175   4.084
 1473SOL    HW1 5318   6.096   4.219   4.111
 1473SOL    HW2 5319   6.251   4.190   4.155
 1474SOL     OW 5320   4.452   5.694   3.561
 1474SOL    HW1 5321   4.362   5.670   3.596
 1474SOL    HW2 5322   4.498   5.612   3.528
 1475SOL     OW 5323   0.451   1.051   2.819
 1475SOL    HW1 5324   0.359   1.029   2.786
 1475SOL    HW2 5325   0.486   1.131   2.770
 1476SOL     OW 5326   6.597   1.869   1.682
 1476SOL    HW1 5327   6.643   1.817   1.754
 1476SOL    HW2 5328   6.517   1.915   1.721
 1477SOL     OW 5329   2.634   6.038   3.548
 1477SOL    HW1 5330   2.653   6.134   3.570
 1477SOL    HW2 5331   2.586   5.996   3.625
 1478SOL     OW 5332   6.647   4.538   1.362
 1478SOL    HW1 5333   6.659   4.497   1.271
 1478SOL    HW2 5334   6.597   4.475   1.421
 1479SOL     OW 5335   1.716   5.451   0.789
 1479SOL    HW1 5336   1.753   5.360   0.808
 1479SOL    HW2 5337   1.773   5.520   0.834
 1480SOL     OW 5338   2.782   1.092   7.018
 1480SOL    HW1 5339   2.795   1.122   6.924
 1480SOL    HW2 5340   2.705   1.142   0.040
 1481SOL     OW 5341   6.311   2.247   6.262
 1481SOL    HW1 5342   6.215   2.257   6.237
 1481SOL    HW2 5343   6.351   2.171   6.211
 1482SOL     OW 5344   5.709   0.591   6.348
 1482SOL    HW1 5345   5.713   0.661   6.278
 1482SOL    HW2 5346   5.632   0.609   6.410
 1483SOL     OW 5347   5.997   1.956   6.456
 1483SOL    HW1 5348   6.068   2.015   6.493
 1483SOL    HW2 5349   6.010   1.947   6.357
 1484SOL     OW 5350   6.252   5.981   2.969
 1484SOL    HW1 5351   6.184   5.982   2.895
 1484SOL    HW2 5352   6.205   5.972   3.057
 1485SOL     OW 5353   5.249   2.994   3.683
 1485SOL    HW1 5354   5.150   2.978   3.687
 1485SOL    HW2 5355   5.270   3.048   3.601
 1486SOL     OW 5356   4.911   2.007   2.189
 1486SOL    HW1 5357   4.933   2.033   2.283
 1486SOL    HW2 5358   4.912   1.908   2.180
 1487SOL     OW 5359   6.292   1.466   5.230
 1487SOL    HW1 5360   6.246   1.379   5.217
 1487SOL    HW2 5361   6.391   1.453   5.225
 1488SOL     OW 5362   4.034   2.169   3.166
 1488SOL    HW1 5363   3.997   2.140   3.078
 1488SOL    HW2 5364   4.051   2.089   3.223
 1489SOL     OW 5365   3.938   6.156   4.775
 1489SOL    HW1 5366   3.889   6.073   4.801
 1489SOL    HW2 5367   4.013   6.132   4.714
 1490SOL     OW 5368   2.063   2.757   0.671
 1490SOL    HW1 5369   2.114   2.746   0.757
 1490SOL    HW2 5370   1.968   2.730   0.686
 1491SOL     OW 5371   0.552   2.873   4.907
 1491SOL    HW1 5372   0.514   2.789   4.868
 1491SOL    HW2 5373   0.509   2.891   4.995
 1492SOL     OW 5374   5.227   2.458   2.329
 1492SOL    HW1 5375   5.132   2.450   2.358
 1492SOL    HW2 5376   5.248   2.554   2.311
 1493SOL     OW 5377   4.802   0.948   4.895
 1493SOL    HW1 5378   4.863   0.906   4.828
 1493SOL    HW2 5379   4.801   0.892   4.978
 1494SOL     OW 5380   4.955   3.043   5.888
 1494SOL    HW1 5381   4.863   3.012   5.865
 1494SOL    HW2 5382   5.020   2.968   5.871
 1495SOL     OW 5383   1.901   3.133   2.726
 1495SOL    HW1 5384   1.916   3.056   2.664
 1495SOL    HW2 5385   1.984   3.148   2.781
 1496SOL     OW 5386   0.860   0.866   2.248
 1496SOL    HW1 5387   0.929   0.838   2.182
 1496SOL    HW2 5388   0.775   0.889   2.201
 1497SOL     OW 5389   5.634   5.217   5.375
 1497SOL    HW1 5390   5.565   5.287   5.357
 1497SOL    HW2 5391   5.617   5.138   5.317
 1498SOL     OW 5392   2.452   6.344   0.609
 1498SOL    HW1 5393   2.505   6.429   0.604
 1498SOL    HW2 5394   2.361   6.359   0.570
 1499SOL     OW 5395   0.255   4.226   5.477
 1499SOL    HW1 5396   0.195   4.277   5.415
 1499SOL    HW2 5397   0.202   4.160   5.529
 1500SOL     OW 5398   4.701   0.196   6.107
 1500SOL    HW1 5399   4.746   0.215   6.019
 1500SOL    HW2 5400   4.746   0.249   6.179
 1501SOL     OW 5401   3.880   6.985   6.221
 1501SOL    HW1 5402   3.939   6.940   6.289
 1501SOL    HW2 5403   3.804   6.925   6.198
 1502SOL     OW 5404   6.607   6.238   0.119
 1502SOL    HW1 5405   6.538   6.284   0.064
 1502SOL    HW2 5406   6.625   6.147   0.082
 1503SOL     OW 5407   3.183   3.305   5.724
 1503SOL    HW1 5408   3.183   3.207   5.746
 1503SOL    HW2 5409   3.133   3.354   5.796
 1504SOL     OW 5410   2.160   5.927   4.470
 1504SOL    HW1 5411   2.123   5.855   4.410
 1504SOL    HW2 5412   2.172   6.011   4.418
 1505SOL     OW 5413   4.976   5.418   0.538
 1505SOL    HW1 5414   4.989   5.341   0.600
 1505SOL    HW2 5415   5.059   5.431   0.484
 1506SOL     OW 5416   0.493   5.980   4.006
 1506SOL    HW1 5417   0.484   5.884   3.978
 1506SOL    HW2 5418   0.581   6.015   3.976
 1507SOL     OW 5419   1.850   1.824   6.714
 1507SOL    HW1 5420   1.945   1.815   6.681
 1507SOL    HW2 5421   1.791   1.764   6.659
 1508SOL     OW 5422   5.255   0.147   0.408
 1508SOL    HW1 5423   5.170   0.093   0.414
 1508SOL    HW2 5424   5.316   0.104   0.342
 1509SOL     OW 5425   5.027   2.096   0.579
 1509SOL    HW1 5426   5.023   2.040   0.496
 1509SOL    HW2 5427   5.064   2.186   0.556
 1510SOL     OW 5428   6.764   1.558   3.913
 1510SOL    HW1 5429   6.812   1.614   3.845
 1510SOL    HW2 5430   6.788   1.589   4.005
 1511SOL     OW 5431   1.966   2.494   0.550
 1511SOL    HW1 5432   2.066   2.489   0.560
 1511SOL    HW2 5433   1.926   2.532   0.633
 1512SOL     OW 5434   6.517   0.494   2.226
 1512SOL    HW1 5435   6.568   0.456   2.303
 1512SOL    HW2 5436   6.554   0.456   2.141
 1513SOL     OW 5437   3.635   1.057   2.133
 1513SOL    HW1 5438   3.679   1.049   2.043
 1513SOL    HW2 5439   3.706   1.060   2.204
 1514SOL     OW 5440   4.610   1.636   4.891
 1514SOL    HW1 5441   4.672   1.587   4.952
 1514SOL    HW2 5442   4.625   1.606   4.797
 1515SOL     OW 5443   0.221   4.346   4.428
 1515SOL    HW1 5444   0.129   4.367   4.460
 1515SOL    HW2 5445   0.260   4.426   4.382
 1516SOL     OW 5446   0.724   1.642   1.056
 1516SOL    HW1 5447   0.705   1.624   1.153
 1516SOL    HW2 5448   0.638   1.650   1.006
 1517SOL     OW 5449   3.918   5.758   3.226
 1517SOL    HW1 5450   3.953   5.689   3.289
 1517SOL    HW2 5451   3.827   5.730   3.193
 1518SOL     OW 5452   0.782   4.537   1.190
 1518SOL    HW1 5453   0.834   4.622   1.188
 1518SOL    HW2 5454   0.837   4.465   1.232
 1519SOL     OW 5455   6.561   4.828   0.662
 1519SOL    HW1 5456   6.497   4.903   0.645
 1519SOL    HW2 5457   6.650   4.865   0.687
 1520SOL     OW 5458   1.360   3.205   2.887
 1520SOL    HW1 5459   1.276   3.250   2.858
 1520SOL    HW2 5460   1.416   3.183   2.807
 1521SOL     OW 5461   2.607   3.846   6.568
 1521SOL    HW1 5462   2.694   3.861   6.520
 1521SOL    HW2 5463   2.545   3.795   6.508
 1522SOL     OW 5464   6.093   2.713   6.694
 1522SOL    HW1 5465   6.116   2.620   6.664
 1522SOL    HW2 5466   6.145   2.735   6.776
 1523SOL     OW 5467   0.396   2.007   0.853
 1523SOL    HW1 5468   0.413   1.978   0.947
 1523SOL    HW2 5469   0.388   1.926   0.794
 1524SOL     OW 5470   6.776   0.962   2.574
 1524SOL    HW1 5471   6.827   1.029   2.521
 1524SOL    HW2 5472   6.797   0.973   2.671
 1525SOL     OW 5473   4.592   2.071   6.060
 1525SOL    HW1 5474   4.589   1.972   6.074
 1525SOL    HW2 5475   4.566   2.117   6.145
 1526SOL     OW 5476   6.871   2.503   1.614
 1526SOL    HW1 5477   6.799   2.445   1.578
 1526SOL    HW2 5478   6.908   2.463   1.698
 1527SOL     OW 5479   2.913   1.639   5.592
 1527SOL    HW1 5480   2.960   1.660   5.678
 1527SOL    HW2 5481   2.821   1.678   5.593
 1528SOL     OW 5482   5.319   6.209   3.517
 1528SOL    HW1 5483   5.223   6.235   3.519
 1528SOL    HW2 5484   5.376   6.287   3.542
 1529SOL     OW 5485   2.937   0.451   6.005
 1529SOL    HW1 5486   2.898   0.543   6.004
 1529SOL    HW2 5487   3.019   0.449   5.948
 1530SOL     OW 5488   4.044   6.654   1.812
 1530SOL    HW1 5489   3.989   6.656   1.895
 1530SOL    HW2 5490   4.018   6.575   1.757
 1531SOL     OW 5491   6.862   6.853   4.961
 1531SOL    HW1 5492   6.930   6.807   5.018
 1531SOL    HW2 5493   6.879   6.831   4.865
 1532SOL     OW 5494   3.094   1.908   5.178
 1532SOL    HW1 5495   3.069   1.869   5.266
 1532SOL    HW2 5496   3.193   1.926   5.176
 1533SOL     OW 5497   5.915   2.683   6.950
 1533SOL    HW1 5498   6.014   2.694   6.944
 1533SOL    HW2 5499   5.872   2.774   6.947
 1534SOL     OW 5500   0.243   6.487   1.578
 1534SOL    HW1 5501   0.226   6.390   1.594
 1534SOL    HW2 5502   0.270   6.501   1.483
 1535SOL     OW 5503   4.745   5.217   4.419
 1535SOL    HW1 5504   4.687   5.256   4.347
 1535SOL    HW2 5505   4.817   5.162   4.378
 1536SOL     OW 5506   2.589   5.995   4.276
 1536SOL    HW1 5507   2.555   6.085   4.248
 1536SOL    HW2 5508   2.571   5.982   4.373
 1537SOL     OW 5509   1.573   5.278   4.472
 1537SOL    HW1 5510   1.538   5.286   4.379
 1537SOL    HW2 5511   1.510   5.323   4.536
 1538SOL     OW 5512   2.381   5.489   6.631
 1538SOL    HW1 5513   2.327   5.572   6.612
 1538SOL    HW2 5514   2.341   5.412   6.582
 1539SOL     OW 5515   3.327   4.772   1.771
 1539SOL    HW1 5516   3.304   4.785   1.867
 1539SOL    HW2 5517   3.411   4.719   1.763
 1540SOL     OW 5518   0.784   6.246   4.496
 1540SOL    HW1 5519   0.684   6.249   4.499
 1540SOL    HW2 5520   0.820   6.339   4.505
 1541SOL     OW 5521   5.126   2.346   1.272
 1541SOL    HW1 5522   5.161   2.399   1.194
 1541SOL    HW2 5523   5.159   2.252   1.266
 1542SOL     OW 5524   1.070   6.410   0.827
 1542SOL    HW1 5525   1.126   6.493   0.817
 1542SOL    HW2 5526   0.975   6.437   0.847
 1543SOL     OW 5527   3.026   3.822   4.100
 1543SOL    HW1 5528   3.002   3.848   4.193
 1543SOL    HW2 5529   3.114   3.862   4.075
 1544SOL     OW 5530   3.641   4.112   2.530
 1544SOL    HW1 5531   3.621   4.210   2.535
 1544SOL    HW2 5532   3.701   4.087   2.606
 1545SOL     OW 5533   5.612   0.338   4.731
 1545SOL    HW1 5534   5.571   0.251   4.755
 1545SOL    HW2 5535   5.694   0.322   4.675
 1546SOL     OW 5536   1.054   6.680   6.050
 1546SOL    HW1 5537   1.085   6.772   6.027
 1546SOL    HW2 5538   0.970   6.684   6.103
 1547SOL     OW 5539   3.580   6.002   6.917
 1547SOL    HW1 5540   3.522   5.987   6.997
 1547SOL    HW2 5541   3.547   5.946   6.841
 1548SOL     OW 5542   5.583   3.824   4.973
 1548SOL    HW1 5543   5.670   3.783   5.001
 1548SOL    HW2 5544   5.513   3.805   5.042
 1549SOL     OW 5545   6.921   1.600   1.205
 1549SOL    HW1 5546   6.891   1.509   1.176
 1549SOL    HW2 5547   6.875   1.624   1.291
 1550SOL     OW 5548   2.295   5.877   4.711
 1550SOL    HW1 5549   2.241   5.933   4.649
 1550SOL    HW2 5550   2.276   5.780   4.693
 1551SOL     OW 5551   1.945   2.626   0.290
 1551SOL    HW1 5552   1.891   2.548   0.257
 1551SOL    HW2 5553   1.970   2.612   0.385
 1552SOL     OW 5554   0.737   0.883   0.469
 1552SOL    HW1 5555   0.656   0.881   0.526
 1552SOL    HW2 5556   0.739   0.802   0.411
 1553SOL     OW 5557   5.947   1.215   6.376
 1553SOL    HW1 5558   5.984   1.170   6.457
 1553SOL    HW2 5559   5.894   1.150   6.323
 1554SOL     OW 5560   3.330   1.872   1.528
 1554SOL    HW1 5561   3.317   1.779   1.563
 1554SOL    HW2 5562   3.407   1.915   1.576
 1555SOL     OW 5563   3.914   1.349   5.558
 1555SOL    HW1 5564   3.839   1.292   5.526
 1555SOL    HW2 5565   3.929   1.334   5.655
 1556SOL     OW 5566   3.688   1.580   0.937
 1556SOL    HW1 5567   3.683   1.517   0.859
 1556SOL    HW2 5568   3.771   1.561   0.989
 1557SOL     OW 5569   1.780   2.303   0.539
 1557SOL    HW1 5570   1.825   2.214   0.534
 1557SOL    HW2 5571   1.848   2.376   0.534
 1558SOL     OW 5572   6.024   3.002   6.214
 1558SOL    HW1 5573   6.061   3.031   6.302
 1558SOL    HW2 5574   6.071   3.051   6.141
 1559SOL     OW 5575   2.075   4.487   3.489
 1559SOL    HW1 5576   2.041   4.485   3.584
 1559SOL    HW2 5577   2.096   4.581   3.463
 1560SOL     OW 5578   4.296   1.607   1.233
 1560SOL    HW1 5579   4.284   1.521   1.283
 1560SOL    HW2 5580   4.363   1.593   1.160
 1561SOL     OW 5581   6.292   6.013   1.029
 1561SOL    HW1 5582   6.207   6.013   1.081
 1561SOL    HW2 5583   6.370   6.007   1.091
 1562SOL     OW 5584   3.971   6.665   2.094
 1562SOL    HW1 5585   4.040   6.699   2.158
 1562SOL    HW2 5586   3.910   6.740   2.068
 1563SOL     OW 5587   4.026   2.193   3.865
 1563SOL    HW1 5588   4.067   2.200   3.956
 1563SOL    HW2 5589   4.064   2.264   3.805
 1564SOL     OW 5590   1.707   2.161   3.106
 1564SOL    HW1 5591   1.620   2.156   3.057
 1564SOL    HW2 5592   1.772   2.216   3.054
 1565SOL     OW 5593   3.880   1.084   4.410
 1565SOL    HW1 5594   3.958   1.113   4.467
 1565SOL    HW2 5595   3.900   1.102   4.314
 1566SOL     OW 5596   4.343   4.545   3.093
 1566SOL    HW1 5597   4.275   4.617   3.081
 1566SOL    HW2 5598   4.376   4.546   3.187
 1567SOL     OW 5599   4.856   0.083   5.150
 1567SOL    HW1 5600   4.759   0.077   5.176
 1567SOL    HW2 5601   4.866   0.060   5.054
 1568SOL     OW 5602   2.287   5.594   2.394
 1568SOL    HW1 5603   2.379   5.612   2.360
 1568SOL    HW2 5604   2.274   5.641   2.481
 1569SOL     OW 5605   3.203   0.319   3.281
 1569SOL    HW1 5606   3.208   0.297   3.379
 1569SOL    HW2 5607   3.129   0.266   3.239
 1570SOL     OW 5608   3.524   6.691   6.840
 1570SOL    HW1 5609   3.517   6.591   6.836
 1570SOL    HW2 5610   3.432   6.731   6.839
 1571SOL     OW 5611   0.978   2.178   4.822
 1571SOL    HW1 5612   0.992   2.086   4.785
 1571SOL    HW2 5613   0.949   2.240   4.749
 1572SOL     OW 5614   2.009   5.323   1.840
 1572SOL    HW1 5615   1.941   5.297   1.908
 1572SOL    HW2 5616   1.988   5.414   1.804
 1573SOL     OW 5617   5.134   5.433   0.835
 1573SOL    HW1 5618   5.220   5.425   0.886
 1573SOL    HW2 5619   5.125   5.526   0.800
 1574SOL     OW 5620   6.871   3.436   3.562
 1574SOL    HW1 5621   6.844   3.385   3.479
 1574SOL    HW2 5622   6.829   3.527   3.560
 1575SOL     OW 5623   0.004   1.382   0.393
 1575SOL    HW1 5624   6.965   1.459   0.363
 1575SOL    HW2 5625   0.097   1.414   0.408
 1576SOL     OW 5626   0.475   0.306   2.127
 1576SOL    HW1 5627   0.545   0.363   2.170
 1576SOL    HW2 5628   0.452   0.231   2.189
 1577SOL     OW 5629   4.256   6.172   5.351
 1577SOL    HW1 5630   4.169   6.166   5.399
 1577SOL    HW2 5631   4.240   6.190   5.254
 1578SOL     OW 5632   4.787   1.350   0.734
 1578SOL    HW1 5633   4.880   1.319   0.712
 1578SOL    HW2 5634   4.791   1.425   0.799
 1579SOL     OW 5635   1.666   2.637   1.345
 1579SOL    HW1 5636   1.698   2.608   1.255
 1579SOL    HW2 5637   1.716   2.587   1.416
 1580SOL     OW 5638   3.156   3.619   2.604
 1580SOL    HW1 5639   3.123   3.681   2.676
 1580SOL    HW2 5640   3.083   3.603   2.538
 1581SOL     OW 5641   6.205   4.204   5.902
 1581SOL    HW1 5642   6.285   4.197   5.961
 1581SOL    HW2 5643   6.166   4.296   5.910
 1582SOL     OW 5644   4.215   6.480   5.154
 1582SOL    HW1 5645   4.218   6.579   5.172
 1582SOL    HW2 5646   4.195   6.464   5.058
 1583SOL     OW 5647   1.229   6.465   5.181
 1583SOL    HW1 5648   1.173   6.435   5.258
 1583SOL    HW2 5649   1.231   6.394   5.110
 1584SOL     OW 5650   0.353   5.281   6.900
 1584SOL    HW1 5651   0.408   5.286   6.816
 1584SOL    HW2 5652   0.266   5.236   6.880
 1585SOL     OW 5653   4.117   6.465   3.097
 1585SOL    HW1 5654   4.154   6.398   3.161
 1585SOL    HW2 5655   4.033   6.504   3.134
 1586SOL     OW 5656   2.911   4.750   3.762
 1586SOL    HW1 5657   2.925   4.777   3.667
 1586SOL    HW2 5658   2.993   4.773   3.815
 1587SOL     OW 5659   2.005   6.104   5.902
 1587SOL    HW1 5660   1.917   6.094   5.856
 1587SOL    HW2 5661   2.079   6.100   5.835
 1588SOL     OW 5662   5.685   0.745   2.941
 1588SOL    HW1 5663   5.761   0.712   2.996
 1588SOL    HW2 5664   5.599   0.731   2.990
 1589SOL     OW 5665   6.029   4.607   4.020
 1589SOL    HW1 5666   6.071   4.698   4.026
 1589SOL    HW2 5667   5.980   4.587   4.105
 1590SOL     OW 5668   6.134   2.532   3.843
 1590SOL    HW1 5669   6.201   2.606   3.843
 1590SOL    HW2 5670   6.044   2.569   3.821
 1591SOL     OW 5671   0.900   6.686   1.870
 1591SOL    HW1 5672   0.912   6.589   1.894
 1591SOL    HW2 5673   0.894   6.740   1.953
 1592SOL     OW 5674   0.277   4.150   6.573
 1592SOL    HW1 5675   0.204   4.155   6.505
 1592SOL    HW2 5676   0.291   4.055   6.601
 1593SOL     OW 5677   2.960   0.411   0.334
 1593SOL    HW1 5678   3.003   0.361   0.409
 1593SOL    HW2 5679   3.028   0.471   0.291
 1594SOL     OW 5680   6.005   0.498   2.335
 1594SOL    HW1 5681   5.995   0.427   2.265
 1594SOL    HW2 5682   5.917   0.546   2.346
 1595SOL     OW 5683   0.244   3.916   6.755
 1595SOL    HW1 5684   0.197   3.992   6.799
 1595SOL    HW2 5685   0.282   3.855   6.824
 1596SOL     OW 5686   4.972   4.591   2.655
 1596SOL    HW1 5687   4.973   4.531   2.735
 1596SOL    HW2 5688   4.890   4.648   2.658
 1597SOL     OW 5689   4.030   6.434   6.685
 1597SOL    HW1 5690   4.116   6.481   6.664
 1597SOL    HW2 5691   4.029   6.409   6.782
 1598SOL     OW 5692   2.034   5.355   0.324
 1598SOL    HW1 5693   1.991   5.291   0.260
 1598SOL    HW2 5694   1.971   5.375   0.398
 1599SOL     OW 5695   4.909   4.897   3.682
 1599SOL    HW1 5696   4.858   4.981   3.664
 1599SOL    HW2 5697   5.006   4.919   3.689
 1600SOL     OW 5698   4.352   0.437   2.571
 1600SOL    HW1 5699   4.405   0.510   2.614
 1600SOL    HW2 5700   4.408   0.355   2.563
 1601SOL     OW 5701   6.446   6.829   4.559
 1601SOL    HW1 5702   6.484   6.872   4.641
 1601SOL    HW2 5703   6.503   6.851   4.480
 1602SOL     OW 5704   3.594   4.935   3.808
 1602SOL    HW1 5705   3.541   4.874   3.867
 1602SOL    HW2 5706   3.691   4.927   3.831
 1603SOL     OW 5707   3.082   5.767   2.933
 1603SOL    HW1 5708   3.053   5.845   2.989
 1603SOL    HW2 5709   3.104   5.689   2.992
 1604SOL     OW 5710   3.977   5.321   2.467
 1604SOL    HW1 5711   3.959   5.259   2.390
 1604SOL    HW2 5712   4.068   5.361   2.458
 1605SOL     OW 5713   4.801   5.630   1.054
 1605SOL    HW1 5714   4.894   5.594   1.059
 1605SOL    HW2 5715   4.789   5.702   1.122
 1606SOL     OW 5716   3.837   6.491   4.575
 1606SOL    HW1 5717   3.758   6.433   4.557
 1606SOL    HW2 5718   3.815   6.585   4.548
 1607SOL     OW 5719   4.423   5.854   2.687
 1607SOL    HW1 5720   4.473   5.825   2.769
 1607SOL    HW2 5721   4.432   5.953   2.676
 1608SOL     OW 5722   6.271   0.922   3.394
 1608SOL    HW1 5723   6.202   0.967   3.336
 1608SOL    HW2 5724   6.293   0.832   3.356
 1609SOL     OW 5725   3.793   6.345   0.143
 1609SOL    HW1 5726   3.766   6.249   0.135
 1609SOL    HW2 5727   3.798   6.386   0.051
 1610SOL     OW 5728   4.982   0.203   0.523
 1610SOL    HW1 5729   5.027   0.246   0.444
 1610SOL    HW2 5730   4.995   0.104   0.518
 1611SOL     OW 5731   1.038   3.879   1.311
 1611SOL    HW1 5732   1.125   3.927   1.297
 1611SOL    HW2 5733   0.989   3.921   1.387
 1612SOL     OW 5734   3.777   6.853   1.976
 1612SOL    HW1 5735   3.808   6.946   1.957
 1612SOL    HW2 5736   3.745   6.810   1.892
 1613SOL     OW 5737   6.938   5.498   2.260
 1613SOL    HW1 5738   6.864   5.506   2.326
 1613SOL    HW2 5739   6.905   5.523   2.170
 1614SOL     OW 5740   6.632   2.319   6.130
 1614SOL    HW1 5741   6.611   2.247   6.195
 1614SOL    HW2 5742   6.691   2.283   6.057
 1615SOL     OW 5743   1.449   4.988   6.559
 1615SOL    HW1 5744   1.452   5.009   6.461
 1615SOL    HW2 5745   1.358   4.954   6.582
 1616SOL     OW 5746   1.931   1.494   4.616
 1616SOL    HW1 5747   1.968   1.539   4.535
 1616SOL    HW2 5748   1.839   1.528   4.635
 1617SOL     OW 5749   5.693   6.074   3.389
 1617SOL    HW1 5750   5.703   5.999   3.454
 1617SOL    HW2 5751   5.596   6.096   3.378
 1618SOL     OW 5752   2.977   5.307   2.990
 1618SOL    HW1 5753   2.879   5.327   2.998
 1618SOL    HW2 5754   3.025   5.389   2.958
 1619SOL     OW 5755   1.253   5.182   6.726
 1619SOL    HW1 5756   1.351   5.165   6.737
 1619SOL    HW2 5757   1.227   5.262   6.781
 1620SOL     OW 5758   3.727   5.484   6.257
 1620SOL    HW1 5759   3.783   5.437   6.324
 1620SOL    HW2 5760   3.631   5.459   6.270
 1621SOL     OW 5761   5.075   6.472   0.812
 1621SOL    HW1 5762   5.017   6.461   0.893
 1621SOL    HW2 5763   5.080   6.386   0.762
 1622SOL     OW 5764   0.128   4.100   4.354
 1622SOL    HW1 5765   0.168   4.091   4.263
 1622SOL    HW2 5766   0.147   4.191   4.391
 1623SOL     OW 5767   0.767   1.661   3.804
 1623SOL    HW1 5768   0.793   1.700   3.715
 1623SOL    HW2 5769   0.706   1.725   3.851
 1624SOL     OW 5770   4.187   1.371   1.093
 1624SOL    HW1 5771   4.251   1.433   1.047
 1624SOL    HW2 5772   4.118   1.425   1.142
 1625SOL     OW 5773   1.150   5.668   0.934
 1625SOL    HW1 5774   1.078   5.667   0.865
 1625SOL    HW2 5775   1.232   5.710   0.897
 1626SOL     OW 5776   3.033   1.824   1.091
 1626SOL    HW1 5777   2.941   1.844   1.125
 1626SOL    HW2 5778   3.039   1.848   0.994
 1627SOL     OW 5779   4.325   1.572   4.230
 1627SOL    HW1 5780   4.397   1.555   4.162
 1627SOL    HW2 5781   4.296   1.485   4.270
 1628SOL     OW 5782   5.396   6.802   0.152
 1628SOL    HW1 5783   5.432   6.712   0.131
 1628SOL    HW2 5784   5.348   6.839   0.073
 1629SOL     OW 5785   2.123   0.911   3.679
 1629SOL    HW1 5786   2.132   0.827   3.626
 1629SOL    HW2 5787   2.103   0.988   3.617
 1630SOL     OW 5788   0.229   3.272   0.119
 1630SOL    HW1 5789   0.203   3.306   0.209
 1630SOL    HW2 5790   0.320   3.306   0.096
 1631SOL     OW 5791   6.973   3.236   0.448
 1631SOL    HW1 5792   6.896   3.283   0.491
 1631SOL    HW2 5793   6.974   3.140   0.477
 1632SOL     OW 5794   6.598   4.713   2.795
 1632SOL    HW1 5795   6.590   4.795   2.739
 1632SOL    HW2 5796   6.579   4.632   2.739
 1633SOL     OW 5797   5.184   3.057   3.969
 1633SOL    HW1 5798   5.153   2.981   4.027
 1633SOL    HW2 5799   5.209   3.023   3.879
 1634SOL     OW 5800   5.280   0.954   4.153
 1634SOL    HW1 5801   5.230   0.994   4.229
 1634SOL    HW2 5802   5.216   0.921   4.083
 1635SOL     OW 5803   3.380   5.969   4.173
 1635SOL    HW1 5804   3.437   5.984   4.254
 1635SOL    HW2 5805   3.435   5.927   4.101
 1636SOL     OW 5806   5.805   6.546   1.348
 1636SOL    HW1 5807   5.795   6.450   1.372
 1636SOL    HW2 5808   5.857   6.553   1.262
 1637SOL     OW 5809   0.219   0.465   2.247
 1637SOL    HW1 5810   0.294   0.481   2.184
 1637SOL    HW2 5811   0.246   0.492   2.340
 1638SOL     OW 5812   6.887   2.878   2.147
 1638SOL    HW1 5813   6.845   2.842   2.230
 1638SOL    HW2 5814   6.848   2.968   2.127
 1639SOL     OW 5815   4.768   2.659   2.708
 1639SOL    HW1 5816   4.853   2.605   2.706
 1639SOL    HW2 5817   4.690   2.597   2.714
 1640SOL     OW 5818   6.370   0.336   0.206
 1640SOL    HW1 5819   6.333   0.244   0.219
 1640SOL    HW2 5820   6.454   0.331   0.152
 1641SOL     OW 5821   6.309   2.493   2.800
 1641SOL    HW1 5822   6.322   2.582   2.844
 1641SOL    HW2 5823   6.216   2.461   2.818
 1642SOL     OW 5824   5.626   2.178   5.614
 1642SOL    HW1 5825   5.528   2.166   5.599
 1642SOL    HW2 5826   5.654   2.130   5.697
 1643SOL     OW 5827   2.774   5.574   4.108
 1643SOL    HW1 5828   2.684   5.606   4.141
 1643SOL    HW2 5829   2.821   5.526   4.182
 1644SOL     OW 5830   5.935   3.095   1.109
 1644SOL    HW1 5831   5.931   3.109   1.208
 1644SOL    HW2 5832   5.990   3.167   1.067
 1645SOL     OW 5833   1.923   0.763   5.909
 1645SOL    HW1 5834   1.828   0.744   5.886
 1645SOL    HW2 5835   1.982   0.702   5.855
 1646SOL     OW 5836   1.316   5.491   1.091
 1646SOL    HW1 5837   1.263   5.558   1.040
 1646SOL    HW2 5838   1.322   5.519   1.187
 1647SOL     OW 5839   6.076   2.820   4.220
 1647SOL    HW1 5840   6.119   2.852   4.135
 1647SOL    HW2 5841   5.982   2.854   4.224
 1648SOL     OW 5842   5.435   6.289   1.255
 1648SOL    HW1 5843   5.360   6.349   1.284
 1648SOL    HW2 5844   5.518   6.314   1.303
 1649SOL     OW 5845   3.106   6.816   3.473
 1649SOL    HW1 5846   3.029   6.879   3.485
 1649SOL    HW2 5847   3.088   6.731   3.523
 1650SOL     OW 5848   2.886   4.795   6.496
 1650SOL    HW1 5849   2.937   4.836   6.571
 1650SOL    HW2 5850   2.793   4.832   6.494
 1651SOL     OW 5851   1.284   2.970   3.846
 1651SOL    HW1 5852   1.231   2.889   3.820
 1651SOL    HW2 5853   1.346   2.995   3.772
 1652SOL     OW 5854   0.322   2.454   1.114
 1652SOL    HW1 5855   0.356   2.473   1.022
 1652SOL    HW2 5856   0.368   2.514   1.180
 1653SOL     OW 5857   6.966   4.652   3.940
 1653SOL    HW1 5858   0.023   4.639   3.876
 1653SOL    HW2 5859   6.932   4.563   3.970
 1654SOL     OW 5860   0.650   3.199   2.066
 1654SOL    HW1 5861   0.729   3.139   2.050
 1654SOL    HW2 5862   0.582   3.151   2.122
 1655SOL     OW 5863   6.964   6.721   4.730
 1655SOL    HW1 5864   6.909   6.706   4.648
 1655SOL    HW2 5865   6.951   6.645   4.793
 1656SOL     OW 5866   1.538   4.665   4.531
 1656SOL    HW1 5867   1.537   4.749   4.476
 1656SOL    HW2 5868   1.603   4.675   4.606
 1657SOL     OW 5869   1.285   0.325   5.060
 1657SOL    HW1 5870   1.195   0.329   5.104
 1657SOL    HW2 5871   1.346   0.389   5.105
 1658SOL     OW 5872   6.542   0.169   6.667
 1658SOL    HW1 5873   6.489   0.108   6.726
 1658SOL    HW2 5874   6.530   0.263   6.697
 1659SOL     OW 5875   4.957   6.859   6.338
 1659SOL    HW1 5876   4.934   6.919   6.261
 1659SOL    HW2 5877   4.886   6.865   6.408
 1660SOL     OW 5878   1.919   0.243   2.183
 1660SOL    HW1 5879   1.882   0.169   2.127
 1660SOL    HW2 5880   1.875   0.329   2.157
 1661SOL     OW 5881   3.976   4.791   2.917
 1661SOL    HW1 5882   3.898   4.832   2.965
 1661SOL    HW2 5883   3.967   4.806   2.819
 1662SOL     OW 5884   0.229   0.774   4.984
 1662SOL    HW1 5885   0.241   0.675   4.979
 1662SOL    HW2 5886   0.298   0.813   5.045
 1663SOL     OW 5887   4.424   4.996   0.983
 1663SOL    HW1 5888   4.394   4.946   0.901
 1663SOL    HW2 5889   4.426   5.094   0.963
 1664SOL     OW 5890   1.423   0.116   5.653
 1664SOL    HW1 5891   1.358   0.190   5.674
 1664SOL    HW2 5892   1.388   0.061   5.578
 1665SOL     OW 5893   2.249   3.970   0.368
 1665SOL    HW1 5894   2.301   3.893   0.404
 1665SOL    HW2 5895   2.229   3.954   0.271
 1666SOL     OW 5896   5.555   6.669   6.409
 1666SOL    HW1 5897   5.635   6.627   6.366
 1666SOL    HW2 5898   5.545   6.633   6.502
 1667SOL     OW 5899   0.710   6.556   1.215
 1667SOL    HW1 5900   0.652   6.593   1.287
 1667SOL    HW2 5901   0.780   6.497   1.256
 1668SOL     OW 5902   5.840   4.354   3.567
 1668SOL    HW1 5903   5.881   4.320   3.482
 1668SOL    HW2 5904   5.878   4.443   3.590
 1669SOL     OW 5905   6.364   3.552   5.288
 1669SOL    HW1 5906   6.322   3.552   5.378
 1669SOL    HW2 5907   6.365   3.645   5.251
 1670SOL     OW 5908   1.895   4.948   5.502
 1670SOL    HW1 5909   1.820   5.014   5.505
 1670SOL    HW2 5910   1.858   4.855   5.506
 1671SOL     OW 5911   5.953   1.938   1.070
 1671SOL    HW1 5912   6.049   1.951   1.041
 1671SOL    HW2 5913   5.893   1.980   1.002
 1672SOL     OW 5914   1.093   3.361   6.937
 1672SOL    HW1 5915   1.042   3.356   6.851
 1672SOL    HW2 5916   1.029   3.379   7.012
 1673SOL     OW 5917   2.593   1.549   4.707
 1673SOL    HW1 5918   2.537   1.631   4.705
 1673SOL    HW2 5919   2.594   1.511   4.799
 1674SOL     OW 5920   4.670   2.124   3.266
 1674SOL    HW1 5921   4.734   2.143   3.340
 1674SOL    HW2 5922   4.665   2.203   3.205
 1675SOL     OW 5923   5.217   0.778   1.072
 1675SOL    HW1 5924   5.120   0.804   1.073
 1675SOL    HW2 5925   5.272   0.858   1.049
 1676SOL     OW 5926   1.701   1.427   2.840
 1676SOL    HW1 5927   1.636   1.427   2.917
 1676SOL    HW2 5928   1.664   1.371   2.766
 1677SOL     OW 5929   3.688   4.105   3.541
 1677SOL    HW1 5930   3.662   4.154   3.624
 1677SOL    HW2 5931   3.742   4.025   3.564
 1678SOL     OW 5932   0.928   0.030   0.679
 1678SOL    HW1 5933   0.965   6.991   0.752
 1678SOL    HW2 5934   0.868   0.100   0.719
 1679SOL     OW 5935   1.506   2.143   5.578
 1679SOL    HW1 5936   1.453   2.069   5.620
 1679SOL    HW2 5937   1.601   2.113   5.565
 1680SOL     OW 5938   4.994   2.552   3.578
 1680SOL    HW1 5939   5.089   2.582   3.590
 1680SOL    HW2 5940   4.938   2.588   3.652
 1681SOL     OW 5941   2.000   6.177   3.728
 1681SOL    HW1 5942   1.913   6.182   3.777
 1681SOL    HW2 5943   1.990   6.221   3.638
 1682SOL     OW 5944   2.943   6.912   5.356
 1682SOL    HW1 5945   2.897   6.830   5.390
 1682SOL    HW2 5946   3.014   6.940   5.422
 1683SOL     OW 5947   6.339   4.979   2.540
 1683SOL    HW1 5948   6.287   4.950   2.459
 1683SOL    HW2 5949   6.287   5.050   2.588
 1684SOL     OW 5950   2.624   4.588   1.769
 1684SOL    HW1 5951   2.591   4.495   1.780
 1684SOL    HW2 5952   2.711   4.599   1.817
 1685SOL     OW 5953   0.325   0.727   5.330
 1685SOL    HW1 5954   0.416   0.696   5.354
 1685SOL    HW2 5955   0.288   0.783   5.405
 1686SOL     OW 5956   4.827   5.804   2.890
 1686SOL    HW1 5957   4.873   5.889   2.916
 1686SOL    HW2 5958   4.887   5.726   2.909
 1687SOL     OW 5959   6.166   3.981   2.791
 1687SOL    HW1 5960   6.220   4.032   2.858
 1687SOL    HW2 5961   6.174   3.883   2.810
 1688SOL     OW 5962   2.126   1.778   3.628
 1688SOL    HW1 5963   2.211   1.783   3.576
 1688SOL    HW2 5964   2.142   1.727   3.713
 1689SOL     OW 5965   5.216   0.578   1.578
 1689SOL    HW1 5966   5.237   0.509   1.647
 1689SOL    HW2 5967   5.132   0.627   1.604
 1690SOL     OW 5968   0.589   3.852   4.507
 1690SOL    HW1 5969   0.591   3.776   4.572
 1690SOL    HW2 5970   0.677   3.859   4.461
 1691SOL     OW 5971   5.008   2.843   5.289
 1691SOL    HW1 5972   5.017   2.746   5.269
 1691SOL    HW2 5973   5.097   2.882   5.311
 1692SOL     OW 5974   5.889   5.403   1.278
 1692SOL    HW1 5975   5.849   5.423   1.189
 1692SOL    HW2 5976   5.821   5.358   1.336
 1693SOL     OW 5977   5.420   7.011   5.031
 1693SOL    HW1 5978   5.471   0.063   5.081
 1693SOL    HW2 5979   5.323   0.002   5.049
 1694SOL     OW 5980   4.779   0.658   5.485
 1694SOL    HW1 5981   4.855   0.659   5.420
 1694SOL    HW2 5982   4.798   0.723   5.559
 1695SOL     OW 5983   3.504   0.792   6.156
 1695SOL    HW1 5984   3.421   0.833   6.117
 1695SOL    HW2 5985   3.566   0.768   6.081
 1696SOL     OW 5986   4.392   6.359   0.390
 1696SOL    HW1 5987   4.361   6.381   0.482
 1696SOL    HW2 5988   4.323   6.386   0.324
 1697SOL     OW 5989   5.871   2.400   1.289
 1697SOL    HW1 5990   5.778   2.422   1.259
 1697SOL    HW2 5991   5.916   2.483   1.322
 1698SOL     OW 5992   4.077   1.057   1.738
 1698SOL    HW1 5993   4.092   1.082   1.642
 1698SOL    HW2 5994   4.066   1.139   1.793
 1699SOL     OW 5995   2.451   0.255   0.158
 1699SOL    HW1 5996   2.543   0.293   0.148
 1699SOL    HW2 5997   2.385   0.311   0.108
 1700SOL     OW 5998   6.114   3.284   2.927
 1700SOL    HW1 5999   6.066   3.353   2.980
 1700SOL    HW2 6000   6.070   3.274   2.837
 1701SOL     OW 6001   0.116   5.694   4.602
 1701SOL    HW1 6002   0.193   5.656   4.653
 1701SOL    HW2 6003   0.076   5.624   4.544
 1702SOL     OW 6004   2.120   2.604   5.796
 1702SOL    HW1 6005   2.208   2.644   5.824
 1702SOL    HW2 6006   2.117   2.597   5.696
 1703SOL     OW 6007   3.474   2.181   0.497
 1703SOL    HW1 6008   3.530   2.115   0.547
 1703SOL    HW2 6009   3.423   2.238   0.561
 1704SOL     OW 6010   2.396   2.070   1.273
 1704SOL    HW1 6011   2.353   2.149   1.229
 1704SOL    HW2 6012   2.341   1.988   1.257
 1705SOL     OW 6013   4.289   1.877   0.614
 1705SOL    HW1 6014   4.223   1.849   0.543
 1705SOL    HW2 6015   4.334   1.795   0.650
 1706SOL     OW 6016   4.347   2.625   0.360
 1706SOL    HW1 6017   4.427   2.602   0.304
 1706SOL    HW2 6018   4.270   2.648   0.300
 1707SOL     OW 6019   4.515   2.132   2.360
 1707SOL    HW1 6020   4.416   2.121   2.369
 1707SOL    HW2 6021   4.555   2.046   2.330
 1708SOL     OW 6022   3.508   5.098   1.707
 1708SOL    HW1 6023   3.439   5.141   1.766
 1708SOL    HW2 6024   3.586   5.069   1.763
 1709SOL     OW 6025   4.575   6.018   0.841
 1709SOL    HW1 6026   4.497   6.027   0.903
 1709SOL    HW2 6027   4.622   6.107   0.833
 1710SOL     OW 6028   3.748   5.209   2.998
 1710SOL    HW1 6029   3.716   5.186   3.090
 1710SOL    HW2 6030   3.763   5.308   2.992
 1711SOL     OW 6031   3.635   4.883   6.369
 1711SOL    HW1 6032   3.611   4.797   6.414
 1711SOL    HW2 6033   3.708   4.929   6.419
 1712SOL     OW 6034   6.906   1.974   3.480
 1712SOL    HW1 6035   6.830   1.909   3.478
 1712SOL    HW2 6036   6.955   1.971   3.393
 1713SOL     OW 6037   3.950   0.977   2.712
 1713SOL    HW1 6038   4.043   0.961   2.678
 1713SOL    HW2 6039   3.895   0.895   2.698
 1714SOL     OW 6040   3.469   3.241   0.171
 1714SOL    HW1 6041   3.481   3.340   0.170
 1714SOL    HW2 6042   3.547   3.199   0.218
 1715SOL     OW 6043   1.406   6.583   2.805
 1715SOL    HW1 6044   1.386   6.590   2.707
 1715SOL    HW2 6045   1.333   6.627   2.857
 1716SOL     OW 6046   4.523   0.339   3.210
 1716SOL    HW1 6047   4.472   0.344   3.296
 1716SOL    HW2 6048   4.544   0.432   3.179
 1717SOL     OW 6049   3.690   6.330   5.412
 1717SOL    HW1 6050   3.706   6.280   5.497
 1717SOL    HW2 6051   3.761   6.306   5.346
 1718SOL     OW 6052   1.534   2.973   1.187
 1718SOL    HW1 6053   1.445   2.970   1.142
 1718SOL    HW2 6054   1.521   2.971   1.286
 1719SOL     OW 6055   0.911   5.208   2.128
 1719SOL    HW1 6056   0.994   5.265   2.131
 1719SOL    HW2 6057   0.895   5.168   2.218
 1720SOL     OW 6058   6.692   2.579   5.584
 1720SOL    HW1 6059   6.696   2.610   5.490
 1720SOL    HW2 6060   6.665   2.655   5.644
 1721SOL     OW 6061   2.175   1.763   1.023
 1721SOL    HW1 6062   2.256   1.704   1.018
 1721SOL    HW2 6063   2.097   1.716   0.981
 1722SOL     OW 6064   2.778   2.253   2.756
 1722SOL    HW1 6065   2.738   2.164   2.777
 1722SOL    HW2 6066   2.866   2.240   2.710
 1723SOL     OW 6067   5.202   2.803   0.110
 1723SOL    HW1 6068   5.183   2.850   0.196
 1723SOL    HW2 6069   5.249   2.864   0.047
 1724SOL     OW 6070   6.844   2.431   1.225
 1724SOL    HW1 6071   6.871   2.388   1.311
 1724SOL    HW2 6072   6.745   2.444   1.223
 1725SOL     OW 6073   1.608   5.798   0.016
 1725SOL    HW1 6074   1.526   5.805   6.978
 1725SOL    HW2 6075   1.615   5.705   0.054
 1726SOL     OW 6076   5.595   4.281   3.693
 1726SOL    HW1 6077   5.681   4.272   3.643
 1726SOL    HW2 6078   5.539   4.200   3.677
 1727SOL     OW 6079   3.336   2.901   3.154
 1727SOL    HW1 6080   3.322   2.995   3.123
 1727SOL    HW2 6081   3.345   2.840   3.075
 1728SOL     OW 6082   4.641   2.327   4.343
 1728SOL    HW1 6083   4.683   2.387   4.412
 1728SOL    HW2 6084   4.542   2.324   4.359
 1729SOL     OW 6085   1.947   3.772   2.286
 1729SOL    HW1 6086   2.013   3.716   2.338
 1729SOL    HW2 6087   1.865   3.718   2.268
 1730SOL     OW 6088   2.669   4.789   5.653
 1730SOL    HW1 6089   2.594   4.852   5.631
 1730SOL    HW2 6090   2.750   4.842   5.677
 1731SOL     OW 6091   5.972   4.224   4.375
 1731SOL    HW1 6092   5.988   4.312   4.420
 1731SOL    HW2 6093   5.939   4.241   4.282
 1732SOL     OW 6094   1.790   4.311   6.176
 1732SOL    HW1 6095   1.828   4.327   6.267
 1732SOL    HW2 6096   1.829   4.226   6.139
 1733SOL     OW 6097   2.567   4.140   0.159
 1733SOL    HW1 6098   2.661   4.132   0.126
 1733SOL    HW2 6099   2.564   4.128   0.258
 1734SOL     OW 6100   7.016   2.811   1.134
 1734SOL    HW1 6101   6.935   2.802   1.075
 1734SOL    HW2 6102   0.022   2.722   1.170
 1735SOL     OW 6103   3.807   5.197   5.774
 1735SOL    HW1 6104   3.710   5.213   5.760
 1735SOL    HW2 6105   3.856   5.214   5.689
 1736SOL     OW 6106   4.688   2.786   1.029
 1736SOL    HW1 6107   4.760   2.849   1.001
 1736SOL    HW2 6108   4.599   2.827   1.008
 1737SOL     OW 6109   4.492   1.519   5.314
 1737SOL    HW1 6110   4.583   1.513   5.356
 1737SOL    HW2 6111   4.433   1.576   5.370
 1738SOL     OW 6112   1.605   3.230   4.638
 1738SOL    HW1 6113   1.515   3.245   4.679
 1738SOL    HW2 6114   1.623   3.300   4.569
 1739SOL     OW 6115   5.520   0.250   4.397
 1739SOL    HW1 6116   5.496   0.341   4.431
 1739SOL    HW2 6117   5.607   0.254   4.349
 1740SOL     OW 6118   6.161   2.937   3.987
 1740SOL    HW1 6119   6.260   2.942   3.977
 1740SOL    HW2 6120   6.119   3.016   3.944
 1741SOL     OW 6121   0.943   2.207   4.535
 1741SOL    HW1 6122   1.002   2.130   4.512
 1741SOL    HW2 6123   0.998   2.289   4.550
 1742SOL     OW 6124   6.042   6.331   6.466
 1742SOL    HW1 6125   6.138   6.303   6.455
 1742SOL    HW2 6126   6.038   6.425   6.500
 1743SOL     OW 6127   1.452   0.883   3.070
 1743SOL    HW1 6128   1.455   0.785   3.052
 1743SOL    HW2 6129   1.402   0.900   3.154
 1744SOL     OW 6130   3.788   1.838   4.433
 1744SOL    HW1 6131   3.800   1.810   4.338
 1744SOL    HW2 6132   3.764   1.935   4.436
 1745SOL     OW 6133   6.776   6.487   1.686
 1745SOL    HW1 6134   6.806   6.397   1.654
 1745SOL    HW2 6135   6.725   6.533   1.614
 1746SOL     OW 6136   1.724   4.442   4.061
 1746SOL    HW1 6137   1.811   4.399   4.085
 1746SOL    HW2 6138   1.706   4.518   4.124
 1747SOL     OW 6139   3.890   0.017   2.705
 1747SOL    HW1 6140   3.956   6.973   2.746
 1747SOL    HW2 6141   3.891   0.006   2.605
 1748SOL     OW 6142   6.756   2.355   4.500
 1748SOL    HW1 6143   6.732   2.420   4.572
 1748SOL    HW2 6144   6.754   2.262   4.537
 1749SOL     OW 6145   1.728   4.897   0.928
 1749SOL    HW1 6146   1.770   4.817   0.971
 1749SOL    HW2 6147   1.671   4.945   0.995
 1750SOL     OW 6148   3.984   6.957   5.518
 1750SOL    HW1 6149   3.905   6.907   5.482
 1750SOL    HW2 6150   3.953   0.026   5.556
 1751SOL     OW 6151   5.400   2.966   5.222
 1751SOL    HW1 6152   5.378   2.912   5.303
 1751SOL    HW2 6153   5.315   2.988   5.174
 1752SOL     OW 6154   6.720   0.824   1.603
 1752SOL    HW1 6155   6.807   0.867   1.626
 1752SOL    HW2 6156   6.736   0.744   1.545
 1753SOL     OW 6157   6.394   1.666   1.541
 1753SOL    HW1 6158   6.429   1.745   1.591
 1753SOL    HW2 6159   6.432   1.667   1.448
 1754SOL     OW 6160   3.240   5.747   4.655
 1754SOL    HW1 6161   3.199   5.656   4.653
 1754SOL    HW2 6162   3.322   5.747   4.597
 1755SOL     OW 6163   6.606   6.615   4.920
 1755SOL    HW1 6164   6.606   6.619   5.020
 1755SOL    HW2 6165   6.696   6.587   4.888
 1756SOL     OW 6166   5.118   6.812   5.624
 1756SOL    HW1 6167   5.047   6.855   5.679
 1756SOL    HW2 6168   5.180   6.760   5.683
 1757SOL     OW 6169   2.311   4.735   5.293
 1757SOL    HW1 6170   2.300   4.676   5.373
 1757SOL    HW2 6171   2.261   4.695   5.216
 1758SOL     OW 6172   1.687   6.353   4.702
 1758SOL    HW1 6173   1.730   6.420   4.641
 1758SOL    HW2 6174   1.641   6.402   4.776
 1759SOL     OW 6175   1.734   6.794   0.072
 1759SOL    HW1 6176   1.789   6.809   0.154
 1759SOL    HW2 6177   1.691   6.879   0.044
 1760SOL     OW 6178   6.165   0.892   4.670
 1760SOL    HW1 6179   6.124   0.823   4.730
 1760SOL    HW2 6180   6.122   0.981   4.687
 1761SOL     OW 6181   6.068   1.847   2.080
 1761SOL    HW1 6182   6.082   1.882   2.173
 1761SOL    HW2 6183   5.970   1.843   2.060
 1762SOL     OW 6184   0.246   1.576   5.929
 1762SOL    HW1 6185   0.169   1.528   5.970
 1762SOL    HW2 6186   0.331   1.526   5.947
 1763SOL     OW 6187   0.995   3.615   4.090
 1763SOL    HW1 6188   1.085   3.651   4.063
 1763SOL    HW2 6189   0.940   3.601   4.008
 1764SOL     OW 6190   0.752   5.413   2.916
 1764SOL    HW1 6191   0.742   5.367   2.828
 1764SOL    HW2 6192   0.664   5.450   2.944
 1765SOL     OW 6193   5.299   3.180   2.488
 1765SOL    HW1 6194   5.243   3.117   2.435
 1765SOL    HW2 6195   5.299   3.270   2.443
 1766SOL     OW 6196   4.877   4.734   4.528
 1766SOL    HW1 6197   4.790   4.784   4.528
 1766SOL    HW2 6198   4.932   4.764   4.450
 1767SOL     OW 6199   0.999   4.715   2.443
 1767SOL    HW1 6200   0.966   4.746   2.354
 1767SOL    HW2 6201   0.997   4.615   2.446
 1768SOL     OW 6202   5.471   6.013   2.181
 1768SOL    HW1 6203   5.394   6.072   2.155
 1768SOL    HW2 6204   5.489   5.948   2.107
 1769SOL     OW 6205   4.848   0.430   6.932
 1769SOL    HW1 6206   4.851   0.348   6.876
 1769SOL    HW2 6207   4.941   0.458   6.956
 1770SOL     OW 6208   1.942   5.570   6.496
 1770SOL    HW1 6209   1.960   5.597   6.591
 1770SOL    HW2 6210   2.005   5.496   6.470
 1771SOL     OW 6211   1.054   3.694   5.958
 1771SOL    HW1 6212   1.142   3.719   5.998
 1771SOL    HW2 6213   0.993   3.774   5.960
 1772SOL     OW 6214   2.503   4.497   3.498
 1772SOL    HW1 6215   2.596   4.533   3.491
 1772SOL    HW2 6216   2.438   4.566   3.466
 1773SOL     OW 6217   0.880   6.649   5.268
 1773SOL    HW1 6218   0.866   6.727   5.206
 1773SOL    HW2 6219   0.915   6.682   5.355
 1774SOL     OW 6220   4.916   5.850   0.832
 1774SOL    HW1 6221   4.897   5.909   0.753
 1774SOL    HW2 6222   4.873   5.761   0.818
 1775SOL     OW 6223   2.387   5.345   6.166
 1775SOL    HW1 6224   2.322   5.273   6.141
 1775SOL    HW2 6225   2.478   5.306   6.175
 1776SOL     OW 6226   4.710   1.620   5.864
 1776SOL    HW1 6227   4.688   1.711   5.830
 1776SOL    HW2 6228   4.780   1.627   5.936
 1777SOL     OW 6229   4.935   6.427   6.630
 1777SOL    HW1 6230   4.877   6.407   6.708
 1777SOL    HW2 6231   5.025   6.457   6.662
 1778SOL     OW 6232   6.105   6.787   4.051
 1778SOL    HW1 6233   6.103   6.852   4.127
 1778SOL    HW2 6234   6.193   6.795   4.003
 1779SOL     OW 6235   5.774   6.083   3.898
 1779SOL    HW1 6236   5.849   6.038   3.850
 1779SOL    HW2 6237   5.801   6.101   3.993
 1780SOL     OW 6238   1.632   5.847   4.868
 1780SOL    HW1 6239   1.599   5.936   4.900
 1780SOL    HW2 6240   1.721   5.858   4.824
 1781SOL     OW 6241   4.293   0.882   4.187
 1781SOL    HW1 6242   4.272   0.935   4.105
 1781SOL    HW2 6243   4.217   0.819   4.206
 1782SOL     OW 6244   1.298   1.685   2.393
 1782SOL    HW1 6245   1.211   1.706   2.348
 1782SOL    HW2 6246   1.287   1.695   2.492
 1783SOL     OW 6247   2.229   4.239   6.772
 1783SOL    HW1 6248   2.254   4.166   6.708
 1783SOL    HW2 6249   2.286   4.233   6.854
 1784SOL     OW 6250   3.038   0.126   1.361
 1784SOL    HW1 6251   3.035   0.030   1.333
 1784SOL    HW2 6252   3.038   0.184   1.279
 1785SOL     OW 6253   1.460   6.768   4.117
 1785SOL    HW1 6254   1.385   6.705   4.139
 1785SOL    HW2 6255   1.447   6.854   4.166
 1786SOL     OW 6256   1.112   6.177   0.659
 1786SOL    HW1 6257   1.145   6.188   0.565
 1786SOL    HW2 6258   1.149   6.251   0.716
 1787SOL     OW 6259   2.527   3.914   6.039
 1787SOL    HW1 6260   2.591   3.932   5.964
 1787SOL    HW2 6261   2.445   3.870   6.002
 1788SOL     OW 6262   4.576   3.783   0.692
 1788SOL    HW1 6263   4.639   3.719   0.736
 1788SOL    HW2 6264   4.526   3.834   0.762
 1789SOL     OW 6265   6.363   4.402   2.260
 1789SOL    HW1 6266   6.394   4.308   2.247
 1789SOL    HW2 6267   6.386   4.432   2.353
 1790SOL     OW 6268   2.296   2.680   4.575
 1790SOL    HW1 6269   2.282   2.727   4.663
 1790SOL    HW2 6270   2.371   2.615   4.583
 1791SOL     OW 6271   5.077   6.674   3.174
 1791SOL    HW1 6272   5.154   6.645   3.118
 1791SOL    HW2 6273   5.057   6.603   3.242
 1792SOL     OW 6274   0.347   1.157   5.363
 1792SOL    HW1 6275   0.396   1.097   5.426
 1792SOL    HW2 6276   0.404   1.235   5.339
 1793SOL     OW 6277   0.035   1.399   6.178
 1793SOL    HW1 6278   6.971   1.364   6.222
 1793SOL    HW2 6279   0.092   1.445   6.245
 1794SOL     OW 6280   1.328   6.995   6.508
 1794SOL    HW1 6281   1.305   6.976   6.604
 1794SOL    HW2 6282   1.250   6.971   6.450
 1795SOL     OW 6283   6.311   4.178   1.347
 1795SOL    HW1 6284   6.317   4.097   1.290
 1795SOL    HW2 6285   6.245   4.163   1.420
 1796SOL     OW 6286   1.222   0.386   6.538
 1796SOL    HW1 6287   1.201   0.480   6.509
 1796SOL    HW2 6288   1.156   0.323   6.498
 1797SOL     OW 6289   2.432   4.955   5.617
 1797SOL    HW1 6290   2.377   4.962   5.534
 1797SOL    HW2 6291   2.511   5.017   5.609
 1798SOL     OW 6292   3.327   3.719   4.441
 1798SOL    HW1 6293   3.264   3.645   4.465
 1798SOL    HW2 6294   3.285   3.778   4.371
 1799SOL     OW 6295   3.316   1.584   0.217
 1799SOL    HW1 6296   3.333   1.590   0.315
 1799SOL    HW2 6297   3.367   1.507   0.179
 1800SOL     OW 6298   5.618   3.562   4.822
 1800SOL    HW1 6299   5.531   3.564   4.772
 1800SOL    HW2 6300   5.658   3.470   4.816
 1801SOL     OW 6301   1.353   1.395   2.082
 1801SOL    HW1 6302   1.406   1.350   2.011
 1801SOL    HW2 6303   1.414   1.432   2.152
 1802SOL     OW 6304   6.926   4.902   4.053
 1802SOL    HW1 6305   6.935   4.803   4.042
 1802SOL    HW2 6306   6.841   4.932   4.010
 1803SOL     OW 6307   0.860   6.731   3.577
 1803SOL    HW1 6308   0.931   6.768   3.637
 1803SOL    HW2 6309   0.860   6.632   3.582
 1804SOL     OW 6310   2.416   3.193   5.910
 1804SOL    HW1 6311   2.339   3.133   5.933
 1804SOL    HW2 6312   2.413   3.275   5.967
 1805SOL     OW 6313   0.018   5.810   6.379
 1805SOL    HW1 6314   0.072   5.768   6.307
 1805SOL    HW2 6315   6.942   5.822   6.348
 1806SOL     OW 6316   0.102   1.595   2.111
 1806SOL    HW1 6317   0.007   1.597   2.079
 1806SOL    HW2 6318   0.163   1.588   2.032
 1807SOL     OW 6319   0.259   2.997   2.418
 1807SOL    HW1 6320   0.187   3.048   2.371
 1807SOL    HW2 6321   0.317   3.060   2.470
 1808SOL     OW 6322   4.791   2.346   5.777
 1808SOL    HW1 6323   4.854   2.352   5.855
 1808SOL    HW2 6324   4.776   2.438   5.739
 1809SOL     OW 6325   4.123   0.647   5.734
 1809SOL    HW1 6326   4.078   0.663   5.647
 1809SOL    HW2 6327   4.127   0.548   5.752
 1810SOL     OW 6328   0.177   0.240   4.169
 1810SOL    HW1 6329   0.109   0.259   4.099
 1810SOL    HW2 6330   0.268   0.239   4.128
 1811SOL     OW 6331   4.074   5.606   1.692
 1811SOL    HW1 6332   4.151   5.607   1.628
 1811SOL    HW2 6333   4.075   5.690   1.747
 1812SOL     OW 6334   4.618   6.552   5.749
 1812SOL    HW1 6335   4.641   6.458   5.723
 1812SOL    HW2 6336   4.668   6.616   5.691
 1813SOL     OW 6337   4.483   4.455   2.735
 1813SOL    HW1 6338   4.553   4.525   2.725
 1813SOL    HW2 6339   4.465   4.412   2.647
 1814SOL     OW 6340   0.220   6.356   0.074
 1814SOL    HW1 6341   0.225   6.402   7.004
 1814SOL    HW2 6342   0.131   6.310   0.083
 1815SOL     OW 6343   5.647   6.320   1.442
 1815SOL    HW1 6344   5.665   6.379   1.520
 1815SOL    HW2 6345   5.668   6.225   1.466
 1816SOL     OW 6346   4.107   5.352   5.552
 1816SOL    HW1 6347   4.148   5.430   5.599
 1816SOL    HW2 6348   4.172   5.316   5.485
 1817SOL     OW 6349   0.784   1.774   3.564
 1817SOL    HW1 6350   0.692   1.811   3.568
 1817SOL    HW2 6351   0.850   1.849   3.553
 1818SOL     OW 6352   2.210   0.360   0.858
 1818SOL    HW1 6353   2.296   0.381   0.811
 1818SOL    HW2 6354   2.135   0.407   0.812
 1819SOL     OW 6355   2.060   4.837   3.447
 1819SOL    HW1 6356   2.151   4.870   3.472
 1819SOL    HW2 6357   2.013   4.804   3.529
 1820SOL     OW 6358   3.353   6.835   5.189
 1820SOL    HW1 6359   3.303   6.850   5.104
 1820SOL    HW2 6360   3.308   6.762   5.242
 1821SOL     OW 6361   3.013   2.208   2.640
 1821SOL    HW1 6362   2.973   2.129   2.593
 1821SOL    HW2 6363   3.107   2.220   2.610
 1822SOL     OW 6364   6.803   2.787   2.374
 1822SOL    HW1 6365   6.901   2.779   2.393
 1822SOL    HW2 6366   6.755   2.809   2.459
 1823SOL     OW 6367   3.903   6.064   2.201
 1823SOL    HW1 6368   3.901   5.968   2.173
 1823SOL    HW2 6369   3.996   6.091   2.224
 1824SOL     OW 6370   4.262   3.117   1.722
 1824SOL    HW1 6371   4.184   3.098   1.662
 1824SOL    HW2 6372   4.321   3.036   1.726
 1825SOL     OW 6373   1.996   1.403   5.185
 1825SOL    HW1 6374   1.904   1.376   5.210
 1825SOL    HW2 6375   1.992   1.488   5.131
 1826SOL     OW 6376   3.539   2.231   1.621
 1826SOL    HW1 6377   3.585   2.279   1.696
 1826SOL    HW2 6378   3.540   2.288   1.539
 1827SOL     OW 6379   5.872   4.631   1.015
 1827SOL    HW1 6380   5.894   4.642   0.919
 1827SOL    HW2 6381   5.951   4.656   1.071
 1828SOL     OW 6382   1.598   2.960   4.902
 1828SOL    HW1 6383   1.685   3.007   4.888
 1828SOL    HW2 6384   1.592   2.882   4.841
 1829SOL     OW 6385   3.837   0.377   3.000
 1829SOL    HW1 6386   3.910   0.444   3.014
 1829SOL    HW2 6387   3.749   0.425   2.993
 1830SOL     OW 6388   4.856   0.107   4.893
 1830SOL    HW1 6389   4.770   0.110   4.842
 1830SOL    HW2 6390   4.929   0.075   4.833
 1831SOL     OW 6391   3.992   5.274   1.302
 1831SOL    HW1 6392   4.054   5.244   1.374
 1831SOL    HW2 6393   3.975   5.197   1.240
 1832SOL     OW 6394   2.368   3.165   0.347
 1832SOL    HW1 6395   2.400   3.129   0.435
 1832SOL    HW2 6396   2.326   3.091   0.295
 1833SOL     OW 6397   5.434   0.532   0.673
 1833SOL    HW1 6398   5.342   0.537   0.634
 1833SOL    HW2 6399   5.428   0.500   0.768
 1834SOL     OW 6400   1.581   2.857   6.058
 1834SOL    HW1 6401   1.572   2.952   6.027
 1834SOL    HW2 6402   1.545   2.849   6.151
 1835SOL     OW 6403   6.979   6.334   1.454
 1835SOL    HW1 6404   6.942   6.276   1.380
 1835SOL    HW2 6405   7.000   6.425   1.418
 1836SOL     OW 6406   4.890   2.473   1.683
 1836SOL    HW1 6407   4.841   2.548   1.637
 1836SOL    HW2 6408   4.988   2.489   1.679
 1837SOL     OW 6409   3.377   2.497   6.233
 1837SOL    HW1 6410   3.470   2.531   6.250
 1837SOL    HW2 6411   3.336   2.549   6.158
 1838SOL     OW 6412   6.203   0.704   0.942
 1838SOL    HW1 6413   6.117   0.738   0.903
 1838SOL    HW2 6414   6.274   0.704   0.871
 1839SOL     OW 6415   7.017   0.964   6.757
 1839SOL    HW1 6416   7.006   0.871   6.723
 1839SOL    HW2 6417   0.046   1.019   6.688
 1840SOL     OW 6418   4.427   6.542   3.486
 1840SOL    HW1 6419   4.327   6.533   3.494
 1840SOL    HW2 6420   4.453   6.540   3.390
 1841SOL     OW 6421   2.082   0.472   2.131
 1841SOL    HW1 6422   2.109   0.379   2.154
 1841SOL    HW2 6423   2.157   0.535   2.155
 1842SOL     OW 6424   1.380   5.482   0.118
 1842SOL    HW1 6425   1.314   5.413   0.145
 1842SOL    HW2 6426   1.464   5.471   0.171
 1843SOL     OW 6427   2.586   1.501   4.978
 1843SOL    HW1 6428   2.644   1.582   4.970
 1843SOL    HW2 6429   2.626   1.438   5.044
 1844SOL     OW 6430   5.936   2.229   6.114
 1844SOL    HW1 6431   5.911   2.265   6.024
 1844SOL    HW2 6432   6.000   2.293   6.158
 1845SOL     OW 6433   1.448   1.480   3.112
 1845SOL    HW1 6434   1.504   1.562   3.119
 1845SOL    HW2 6435   1.352   1.506   3.107
 1846SOL     OW 6436   4.380   1.957   2.038
 1846SOL    HW1 6437   4.283   1.931   2.035
 1846SOL    HW2 6438   4.432   1.885   2.085
 1847SOL     OW 6439   1.877   5.647   5.336
 1847SOL    HW1 6440   1.868   5.560   5.385
 1847SOL    HW2 6441   1.973   5.663   5.315
 1848SOL     OW 6442   2.880   5.988   3.399
 1848SOL    HW1 6443   2.783   6.003   3.417
 1848SOL    HW2 6444   2.900   5.890   3.410
 1849SOL     OW 6445   4.816   2.866   1.822
 1849SOL    HW1 6446   4.798   2.789   1.883
 1849SOL    HW2 6447   4.762   2.945   1.852
 1850SOL     OW 6448   5.013   1.534   1.367
 1850SOL    HW1 6449   5.072   1.579   1.299
 1850SOL    HW2 6450   4.937   1.596   1.390
 1851SOL     OW 6451   0.108   4.359   5.259
 1851SOL    HW1 6452   0.065   4.271   5.240
 1851SOL    HW2 6453   0.185   4.373   5.197
 1852SOL     OW 6454   0.077   0.087   2.849
 1852SOL    HW1 6455   0.089   7.006   2.843
 1852SOL    HW2 6456   0.050   0.122   2.759
 1853SOL     OW 6457   0.140   2.351   5.008
 1853SOL    HW1 6458   0.186   2.438   4.993
 1853SOL    HW2 6459   0.109   2.313   4.921
 1854SOL     OW 6460   0.585   7.014   3.303
 1854SOL    HW1 6461   0.654   0.014   3.373
 1854SOL    HW2 6462   0.543   0.081   3.273
 1855SOL     OW 6463   4.747   2.783   4.289
 1855SOL    HW1 6464   4.695   2.711   4.242
 1855SOL    HW2 6465   4.783   2.747   4.375
 1856SOL     OW 6466   3.793   2.853   0.808
 1856SOL    HW1 6467   3.857   2.792   0.855
 1856SOL    HW2 6468   3.842   2.932   0.772
 1857SOL     OW 6469   4.103   1.612   0.836
 1857SOL    HW1 6470   4.117   1.520   0.873
 1857SOL    HW2 6471   4.094   1.607   0.737
 1858SOL     OW 6472   4.552   2.634   3.936
 1858SOL    HW1 6473   4.538   2.614   3.839
 1858SOL    HW2 6474   4.607   2.717   3.946
 1859SOL     OW 6475   6.225   2.011   4.375
 1859SOL    HW1 6476   6.284   2.078   4.421
 1859SOL    HW2 6477   6.262   1.989   4.285
 1860SOL     OW 6478   1.699   1.608   4.923
 1860SOL    HW1 6479   1.710   1.581   4.828
 1860SOL    HW2 6480   1.638   1.543   4.969
 1861SOL     OW 6481   6.335   6.849   3.902
 1861SOL    HW1 6482   6.305   6.927   3.956
 1861SOL    HW2 6483   6.348   6.877   3.807
 1862SOL     OW 6484   2.948   5.574   5.952
 1862SOL    HW1 6485   3.027   5.591   6.011
 1862SOL    HW2 6486   2.938   5.649   5.887
 1863SOL     OW 6487   7.007   2.944   0.372
 1863SOL    HW1 6488   0.024   2.866   0.321
 1863SOL    HW2 6489   0.035   2.951   0.460
 1864SOL     OW 6490   4.044   5.586   2.656
 1864SOL    HW1 6491   3.964   5.601   2.598
 1864SOL    HW2 6492   4.047   5.491   2.686
 1865SOL     OW 6493   5.686   1.161   5.301
 1865SOL    HW1 6494   5.689   1.090   5.371
 1865SOL    HW2 6495   5.735   1.241   5.333
 1866SOL     OW 6496   1.095   5.026   3.667
 1866SOL    HW1 6497   1.129   5.058   3.755
 1866SOL    HW2 6498   1.122   5.090   3.595
 1867SOL     OW 6499   1.725   2.449   1.518
 1867SOL    HW1 6500   1.712   2.476   1.614
 1867SOL    HW2 6501   1.812   2.400   1.508
 1868SOL     OW 6502   5.714   3.724   5.855
 1868SOL    HW1 6503   5.746   3.674   5.774
 1868SOL    HW2 6504   5.640   3.673   5.899
 1869SOL     OW 6505   3.922   1.380   3.775
 1869SOL    HW1 6506   3.824   1.375   3.758
 1869SOL    HW2 6507   3.954   1.474   3.759
 1870SOL     OW 6508   0.094   5.981   4.627
 1870SOL    HW1 6509   0.082   5.882   4.617
 1870SOL    HW2 6510   0.020   6.028   4.579
 1871SOL     OW 6511   0.736   6.447   0.192
 1871SOL    HW1 6512   0.813   6.405   0.145
 1871SOL    HW2 6513   0.738   6.546   0.177
 1872SOL     OW 6514   2.815   2.630   1.494
 1872SOL    HW1 6515   2.883   2.595   1.558
 1872SOL    HW2 6516   2.724   2.601   1.523
 1873SOL     OW 6517   0.175   1.620   0.505
 1873SOL    HW1 6518   0.233   1.543   0.479
 1873SOL    HW2 6519   0.153   1.675   0.425
 1874SOL     OW 6520   0.616   6.080   0.117
 1874SOL    HW1 6521   0.642   6.092   0.213
 1874SOL    HW2 6522   0.530   6.029   0.113
 1875SOL     OW 6523   6.667   5.201   0.113
 1875SOL    HW1 6524   6.625   5.119   0.074
 1875SOL    HW2 6525   6.758   5.214   0.073
 1876SOL     OW 6526   0.304   6.212   0.309
 1876SOL    HW1 6527   0.401   6.210   0.331
 1876SOL    HW2 6528   0.291   6.250   0.217
 1877SOL     OW 6529   1.207   1.576   3.104
 1877SOL    HW1 6530   1.141   1.533   3.044
 1877SOL    HW2 6531   1.160   1.609   3.187
 1878SOL     OW 6532   6.344   3.665   3.950
 1878SOL    HW1 6533   6.314   3.760   3.959
 1878SOL    HW2 6534   6.423   3.649   4.009
 1879SOL     OW 6535   4.511   6.180   4.769
 1879SOL    HW1 6536   4.502   6.248   4.696
 1879SOL    HW2 6537   4.540   6.225   4.853
 1880SOL     OW 6538   0.341   1.891   4.119
 1880SOL    HW1 6539   0.373   1.980   4.151
 1880SOL    HW2 6540   0.328   1.831   4.197
 1881SOL     OW 6541   1.246   1.366   4.264
 1881SOL    HW1 6542   1.205   1.371   4.173
 1881SOL    HW2 6543   1.315   1.294   4.266
 1882SOL     OW 6544   1.832   5.953   6.972
 1882SOL    HW1 6545   1.768   5.887   7.012
 1882SOL    HW2 6546   1.891   5.989   0.026
 1883SOL     OW 6547   1.830   3.247   2.371
 1883SOL    HW1 6548   1.924   3.226   2.342
 1883SOL    HW2 6549   1.833   3.298   2.457
 1884SOL     OW 6550   3.035   1.473   0.183
 1884SOL    HW1 6551   3.013   1.521   0.268
 1884SOL    HW2 6552   3.122   1.426   0.192
 1885SOL     OW 6553   0.128   2.136   1.232
 1885SOL    HW1 6554   0.197   2.198   1.194
 1885SOL    HW2 6555   0.168   2.045   1.244
 1886SOL     OW 6556   2.797   2.468   6.345
 1886SOL    HW1 6557   2.894   2.493   6.348
 1886SOL    HW2 6558   2.787   2.375   6.309
 1887SOL     OW 6559   0.117   6.917   5.689
 1887SOL    HW1 6560   0.033   6.932   5.741
 1887SOL    HW2 6561   0.166   7.004   5.679
 1888SOL     OW 6562   2.367   1.867   5.693
 1888SOL    HW1 6563   2.374   1.932   5.617
 1888SOL    HW2 6564   2.360   1.774   5.657
 1889SOL     OW 6565   3.339   2.768   0.708
 1889SOL    HW1 6566   3.413   2.782   0.774
 1889SOL    HW2 6567   3.314   2.855   0.667
 1890SOL     OW 6568   6.471   5.808   6.234
 1890SOL    HW1 6569   6.459   5.796   6.332
 1890SOL    HW2 6570   6.441   5.900   6.208
 1891SOL     OW 6571   5.999   4.582   5.676
 1891SOL    HW1 6572   5.982   4.522   5.754
 1891SOL    HW2 6573   5.949   4.548   5.596
 1892SOL     OW 6574   4.037   6.131   1.743
 1892SOL    HW1 6575   4.018   6.155   1.648
 1892SOL    HW2 6576   4.108   6.191   1.779
 1893SOL     OW 6577   3.308   1.693   4.952
 1893SOL    HW1 6578   3.253   1.764   4.908
 1893SOL    HW2 6579   3.402   1.727   4.964
 1894SOL     OW 6580   3.615   3.940   0.864
 1894SOL    HW1 6581   3.634   3.903   0.773
 1894SOL    HW2 6582   3.685   3.908   0.927
 1895SOL     OW 6583   5.224   0.380   2.994
 1895SOL    HW1 6584   5.303   0.426   2.954
 1895SOL    HW2 6585   5.237   0.281   2.990
 1896SOL     OW 6586   6.334   1.101   5.684
 1896SOL    HW1 6587   6.411   1.154   5.649
 1896SOL    HW2 6588   6.367   1.035   5.752
 1897SOL     OW 6589   5.909   4.979   3.865
 1897SOL    HW1 6590   5.899   4.953   3.769
 1897SOL    HW2 6591   6.006   4.989   3.886
 1898SOL     OW 6592   5.908   5.769   0.215
 1898SOL    HW1 6593   5.826   5.751   0.160
 1898SOL    HW2 6594   5.880   5.791   0.308
 1899SOL     OW 6595   0.688   3.156   3.297
 1899SOL    HW1 6596   0.705   3.167   3.199
 1899SOL    HW2 6597   0.723   3.236   3.346
 1900SOL     OW 6598   2.491   6.208   0.854
 1900SOL    HW1 6599   2.448   6.266   0.923
 1900SOL    HW2 6600   2.485   6.254   0.765
 1901SOL     OW 6601   1.438   1.716   6.855
 1901SOL    HW1 6602   1.401   1.807   6.877
 1901SOL    HW2 6603   1.449   1.708   6.756
 1902SOL     OW 6604   1.545   2.834   5.232
 1902SOL    HW1 6605   1.620   2.803   5.174
 1902SOL    HW2 6606   1.496   2.755   5.269
 1903SOL     OW 6607   6.226   3.475   3.782
 1903SOL    HW1 6608   6.230   3.539   3.706
 1903SOL    HW2 6609   6.256   3.521   3.866
 1904SOL     OW 6610   6.984   6.940   4.367
 1904SOL    HW1 6611   6.974   6.850   4.410
 1904SOL    HW2 6612   6.920   6.947   4.290
 1905SOL     OW 6613   6.397   2.585   4.074
 1905SOL    HW1 6614   6.494   2.603   4.056
 1905SOL    HW2 6615   6.351   2.560   3.989
 1906SOL     OW 6616   2.517   6.836   0.390
 1906SOL    HW1 6617   2.605   6.823   0.345
 1906SOL    HW2 6618   2.483   6.929   0.372
 1907SOL     OW 6619   3.423   6.330   3.135
 1907SOL    HW1 6620   3.475   6.265   3.190
 1907SOL    HW2 6621   3.407   6.413   3.187
 1908SOL     OW 6622   4.883   1.448   6.963
 1908SOL    HW1 6623   4.953   1.394   6.916
 1908SOL    HW2 6624   4.893   1.437   0.043
 1909SOL     OW 6625   3.783   5.232   4.440
 1909SOL    HW1 6626   3.872   5.272   4.415
 1909SOL    HW2 6627   3.788   5.133   4.430
 1910SOL     OW 6628   5.165   2.306   5.299
 1910SOL    HW1 6629   5.218   2.308   5.215
 1910SOL    HW2 6630   5.111   2.221   5.302
 1911SOL     OW 6631   6.375   3.748   6.013
 1911SOL    HW1 6632   6.359   3.750   6.112
 1911SOL    HW2 6633   6.358   3.839   5.975
 1912SOL     OW 6634   3.655   6.564   3.823
 1912SOL    HW1 6635   3.576   6.570   3.885
 1912SOL    HW2 6636   3.716   6.492   3.855
 1913SOL     OW 6637   1.357   4.183   5.287
 1913SOL    HW1 6638   1.332   4.237   5.367
 1913SOL    HW2 6639   1.300   4.211   5.209
 1914SOL     OW 6640   4.111   1.718   5.694
 1914SOL    HW1 6641   4.128   1.663   5.777
 1914SOL    HW2 6642   4.025   1.690   5.653
 1915SOL     OW 6643   3.287   0.012   5.440
 1915SOL    HW1 6644   3.352   0.057   5.502
 1915SOL    HW2 6645   3.312   6.934   5.431
 1916SOL     OW 6646   3.930   6.609   1.395
 1916SOL    HW1 6647   3.842   6.655   1.404
 1916SOL    HW2 6648   3.959   6.574   1.484
 1917SOL     OW 6649   3.190   2.972   3.595
 1917SOL    HW1 6650   3.251   2.929   3.661
 1917SOL    HW2 6651   3.122   3.028   3.644
 1918SOL     OW 6652   5.798   6.892   3.846
 1918SOL    HW1 6653   5.876   6.877   3.907
 1918SOL    HW2 6654   5.732   6.818   3.857
 1919SOL     OW 6655   6.537   6.648   1.854
 1919SOL    HW1 6656   6.567   6.576   1.916
 1919SOL    HW2 6657   6.488   6.608   1.777
 1920SOL     OW 6658   6.947   5.770   4.299
 1920SOL    HW1 6659   6.860   5.738   4.336
 1920SOL    HW2 6660   7.013   5.694   4.298
 1921SOL     OW 6661   0.901   6.748   6.892
 1921SOL    HW1 6662   0.984   6.717   6.937
 1921SOL    HW2 6663   0.894   6.848   6.897
 1922SOL     OW 6664   3.372   4.477   0.852
 1922SOL    HW1 6665   3.365   4.573   0.823
 1922SOL    HW2 6666   3.441   4.468   0.923
 1923SOL     OW 6667   1.514   1.854   0.573
 1923SOL    HW1 6668   1.588   1.895   0.520
 1923SOL    HW2 6669   1.518   1.888   0.667
 1924SOL     OW 6670   0.776   4.851   1.735
 1924SOL    HW1 6671   0.802   4.873   1.641
 1924SOL    HW2 6672   0.837   4.900   1.798
 1925SOL     OW 6673   3.053   4.606   0.792
 1925SOL    HW1 6674   2.999   4.547   0.852
 1925SOL    HW2 6675   2.994   4.647   0.724
 1926SOL     OW 6676   0.763   0.141   3.450
 1926SOL    HW1 6677   0.808   0.229   3.431
 1926SOL    HW2 6678   0.723   0.144   3.542
 1927SOL     OW 6679   4.225   3.295   6.948
 1927SOL    HW1 6680   4.244   3.392   6.958
 1927SOL    HW2 6681   4.143   3.283   6.892
 1928SOL     OW 6682   6.413   4.853   5.648
 1928SOL    HW1 6683   6.400   4.941   5.603
 1928SOL    HW2 6684   6.491   4.859   5.711
 1929SOL     OW 6685   1.293   6.695   2.446
 1929SOL    HW1 6686   1.268   6.609   2.490
 1929SOL    HW2 6687   1.234   6.768   2.479
 1930SOL     OW 6688   5.466   3.963   6.600
 1930SOL    HW1 6689   5.560   3.997   6.587
 1930SOL    HW2 6690   5.433   3.926   6.513
 1931SOL     OW 6691   0.952   2.374   5.289
 1931SOL    HW1 6692   0.933   2.327   5.375
 1931SOL    HW2 6693   0.949   2.309   5.214
 1932SOL     OW 6694   5.808   3.261   1.606
 1932SOL    HW1 6695   5.888   3.283   1.662
 1932SOL    HW2 6696   5.725   3.284   1.657
 1933SOL     OW 6697   2.899   4.159   1.360
 1933SOL    HW1 6698   2.843   4.091   1.312
 1933SOL    HW2 6699   2.947   4.115   1.436
 1934SOL     OW 6700   0.800   5.857   4.933
 1934SOL    HW1 6701   0.860   5.854   5.014
 1934SOL    HW2 6702   0.712   5.815   4.955
 1935SOL     OW 6703   2.410   1.045   3.622
 1935SOL    HW1 6704   2.330   1.022   3.677
 1935SOL    HW2 6705   2.415   0.984   3.543
 1936SOL     OW 6706   6.390   5.598   5.388
 1936SOL    HW1 6707   6.476   5.650   5.390
 1936SOL    HW2 6708   6.361   5.587   5.293
 1937SOL     OW 6709   4.297   0.235   1.972
 1937SOL    HW1 6710   4.228   0.164   1.988
 1937SOL    HW2 6711   4.387   0.192   1.966
 1938SOL     OW 6712   4.944   0.595   3.297
 1938SOL    HW1 6713   4.897   0.634   3.218
 1938SOL    HW2 6714   4.957   0.497   3.283
 1939SOL     OW 6715   2.066   0.668   3.407
 1939SOL    HW1 6716   2.159   0.654   3.442
 1939SOL    HW2 6717   2.068   0.662   3.307
 1940SOL     OW 6718   6.912   5.517   6.691
 1940SOL    HW1 6719   6.949   5.594   6.742
 1940SOL    HW2 6720   6.962   5.506   6.605
 1941SOL     OW 6721   5.329   4.169   2.673
 1941SOL    HW1 6722   5.234   4.157   2.646
 1941SOL    HW2 6723   5.340   4.146   2.770
 1942SOL     OW 6724   6.185   5.358   2.830
 1942SOL    HW1 6725   6.142   5.447   2.809
 1942SOL    HW2 6726   6.284   5.370   2.838
 1943SOL     OW 6727   2.575   5.013   2.405
 1943SOL    HW1 6728   2.505   5.068   2.359
 1943SOL    HW2 6729   2.654   5.002   2.344
 1944SOL     OW 6730   6.635   1.280   1.505
 1944SOL    HW1 6731   6.728   1.281   1.467
 1944SOL    HW2 6732   6.620   1.363   1.559
 1945SOL     OW 6733   3.582   5.124   4.259
 1945SOL    HW1 6734   3.517   5.145   4.186
 1945SOL    HW2 6735   3.630   5.208   4.286
 1946SOL     OW 6736   1.615   0.727   0.443
 1946SOL    HW1 6737   1.545   0.696   0.507
 1946SOL    HW2 6738   1.693   0.765   0.493
 1947SOL     OW 6739   5.575   5.466   4.148
 1947SOL    HW1 6740   5.614   5.375   4.162
 1947SOL    HW2 6741   5.487   5.473   4.195
 1948SOL     OW 6742   5.997   4.777   4.800
 1948SOL    HW1 6743   6.053   4.720   4.740
 1948SOL    HW2 6744   6.001   4.872   4.769
 1949SOL     OW 6745   4.514   4.069   6.812
 1949SOL    HW1 6746   4.568   4.128   6.752
 1949SOL    HW2 6747   4.479   4.123   6.889
 1950SOL     OW 6748   3.234   3.658   6.371
 1950SOL    HW1 6749   3.184   3.710   6.441
 1950SOL    HW2 6750   3.169   3.619   6.306
 1951SOL     OW 6751   6.116   2.278   6.841
 1951SOL    HW1 6752   6.026   2.318   6.854
 1951SOL    HW2 6753   6.150   2.241   6.928
 1952SOL     OW 6754   3.610   2.128   6.100
 1952SOL    HW1 6755   3.532   2.094   6.153
 1952SOL    HW2 6756   3.638   2.217   6.137
 1953SOL     OW 6757   0.228   2.952   6.208
 1953SOL    HW1 6758   0.242   2.986   6.301
 1953SOL    HW2 6759   0.133   2.968   6.180
 1954SOL     OW 6760   3.556   2.120   3.934
 1954SOL    HW1 6761   3.608   2.131   4.019
 1954SOL    HW2 6762   3.557   2.206   3.883
 1955SOL     OW 6763   0.074   6.909   3.242
 1955SOL    HW1 6764   0.053   6.811   3.244
 1955SOL    HW2 6765   7.016   6.961   3.280
 1956SOL     OW 6766   5.503   5.835   2.741
 1956SOL    HW1 6767   5.448   5.878   2.670
 1956SOL    HW2 6768   5.497   5.735   2.732
 1957SOL     OW 6769   0.769   6.788   5.707
 1957SOL    HW1 6770   0.833   6.735   5.763
 1957SOL    HW2 6771   0.678   6.747   5.714
 1958SOL     OW 6772   5.360   3.503   5.788
 1958SOL    HW1 6773   5.311   3.419   5.815
 1958SOL    HW2 6774   5.304   3.554   5.723
 1959SOL     OW 6775   1.518   1.926   6.541
 1959SOL    HW1 6776   1.582   1.995   6.508
 1959SOL    HW2 6777   1.559   1.836   6.533
 1960SOL     OW 6778   5.487   5.665   1.106
 1960SOL    HW1 6779   5.442   5.720   1.177
 1960SOL    HW2 6780   5.489   5.716   1.021
 1961SOL     OW 6781   5.704   4.337   3.933
 1961SOL    HW1 6782   5.626   4.367   3.987
 1961SOL    HW2 6783   5.672   4.292   3.849
 1962SOL     OW 6784   0.445   6.235   3.501
 1962SOL    HW1 6785   0.392   6.220   3.418
 1962SOL    HW2 6786   0.383   6.251   3.578
 1963SOL     OW 6787   1.152   0.617   3.457
 1963SOL    HW1 6788   1.166   0.527   3.499
 1963SOL    HW2 6789   1.218   0.630   3.383
 1964SOL     OW 6790   5.602   3.687   2.676
 1964SOL    HW1 6791   5.619   3.589   2.680
 1964SOL    HW2 6792   5.578   3.721   2.767
 1965SOL     OW 6793   1.266   3.984   3.620
 1965SOL    HW1 6794   1.290   4.004   3.525
 1965SOL    HW2 6795   1.211   3.900   3.624
 1966SOL     OW 6796   6.461   5.301   5.477
 1966SOL    HW1 6797   6.560   5.287   5.478
 1966SOL    HW2 6798   6.439   5.376   5.415
 1967SOL     OW 6799   4.623   2.770   5.218
 1967SOL    HW1 6800   4.562   2.714   5.162
 1967SOL    HW2 6801   4.617   2.740   5.313
 1968SOL     OW 6802   3.238   5.888   6.218
 1968SOL    HW1 6803   3.302   5.920   6.289
 1968SOL    HW2 6804   3.268   5.799   6.184
 1969SOL     OW 6805   6.957   2.576   0.831
 1969SOL    HW1 6806   6.987   2.632   0.754
 1969SOL    HW2 6807   6.873   2.615   0.870
 1970SOL     OW 6808   1.655   0.806   3.988
 1970SOL    HW1 6809   1.670   0.760   3.901
 1970SOL    HW2 6810   1.585   0.877   3.976
 1971SOL     OW 6811   0.326   6.442   6.607
 1971SOL    HW1 6812   0.348   6.350   6.576
 1971SOL    HW2 6813   0.400   6.504   6.582
 1972SOL     OW 6814   0.648   4.659   3.834
 1972SOL    HW1 6815   0.566   4.713   3.853
 1972SOL    HW2 6816   0.723   4.690   3.893
 1973SOL     OW 6817   3.098   3.316   1.347
 1973SOL    HW1 6818   3.089   3.234   1.404
 1973SOL    HW2 6819   3.130   3.392   1.403
 1974SOL     OW 6820   5.224   0.924   3.792
 1974SOL    HW1 6821   5.198   0.835   3.756
 1974SOL    HW2 6822   5.323   0.927   3.806
 1975SOL     OW 6823   3.102   6.976   3.829
 1975SOL    HW1 6824   3.099   6.886   3.785
 1975SOL    HW2 6825   3.169   0.015   3.782
 1976SOL     OW 6826   0.849   5.684   0.652
 1976SOL    HW1 6827   0.775   5.744   0.621
 1976SOL    HW2 6828   0.930   5.698   0.595
 1977SOL     OW 6829   0.892   2.632   5.263
 1977SOL    HW1 6830   0.908   2.535   5.282
 1977SOL    HW2 6831   0.827   2.641   5.188
 1978SOL     OW 6832   6.642   2.102   4.589
 1978SOL    HW1 6833   6.548   2.136   4.581
 1978SOL    HW2 6834   6.644   2.022   4.649
 1979SOL     OW 6835   6.267   4.471   3.918
 1979SOL    HW1 6836   6.234   4.395   3.861
 1979SOL    HW2 6837   6.191   4.507   3.973
 1980SOL     OW 6838   4.354   0.477   1.434
 1980SOL    HW1 6839   4.401   0.461   1.521
 1980SOL    HW2 6840   4.373   0.569   1.402
 1981SOL     OW 6841   4.888   3.189   1.813
 1981SOL    HW1 6842   4.837   3.157   1.733
 1981SOL    HW2 6843   4.848   3.149   1.896
 1982SOL     OW 6844   5.560   6.326   4.563
 1982SOL    HW1 6845   5.627   6.318   4.637
 1982SOL    HW2 6846   5.595   6.388   4.493
 1983SOL     OW 6847   1.152   3.391   3.374
 1983SOL    HW1 6848   1.081   3.352   3.315
 1983SOL    HW2 6849   1.233   3.413   3.319
 1984SOL     OW 6850   3.994   0.734   6.140
 1984SOL    HW1 6851   4.072   0.705   6.085
 1984SOL    HW2 6852   3.910   0.691   6.105
 1985SOL     OW 6853   1.086   1.038   1.620
 1985SOL    HW1 6854   1.032   0.972   1.672
 1985SOL    HW2 6855   1.080   1.128   1.664
 1986SOL     OW 6856   1.959   1.599   6.451
 1986SOL    HW1 6857   1.917   1.689   6.446
 1986SOL    HW2 6858   2.037   1.601   6.514
 1987SOL     OW 6859   2.329   3.447   0.255
 1987SOL    HW1 6860   2.332   3.352   0.287
 1987SOL    HW2 6861   2.405   3.498   0.295
 1988SOL     OW 6862   4.330   4.048   0.302
 1988SOL    HW1 6863   4.383   3.967   0.326
 1988SOL    HW2 6864   4.374   4.129   0.342
 1989SOL     OW 6865   2.252   0.263   4.223
 1989SOL    HW1 6866   2.227   0.359   4.207
 1989SOL    HW2 6867   2.181   0.204   4.184
 1990SOL     OW 6868   3.110   0.831   1.428
 1990SOL    HW1 6869   3.181   0.805   1.494
 1990SOL    HW2 6870   3.047   0.895   1.471
 1991SOL     OW 6871   2.967   5.817   4.133
 1991SOL    HW1 6872   3.054   5.809   4.084
 1991SOL    HW2 6873   2.960   5.743   4.200
 1992SOL     OW 6874   2.164   6.520   5.571
 1992SOL    HW1 6875   2.134   6.497   5.663
 1992SOL    HW2 6876   2.188   6.617   5.566
 1993SOL     OW 6877   4.131   3.475   5.629
 1993SOL    HW1 6878   4.040   3.517   5.628
 1993SOL    HW2 6879   4.157   3.455   5.723
 1994SOL     OW 6880   6.571   2.444   2.079
 1994SOL    HW1 6881   6.522   2.427   1.994
 1994SOL    HW2 6882   6.579   2.543   2.093
 1995SOL     OW 6883   5.864   2.283   1.729
 1995SOL    HW1 6884   5.837   2.338   1.808
 1995SOL    HW2 6885   5.919   2.205   1.761
 1996SOL     OW 6886   3.153   4.455   0.432
 1996SOL    HW1 6887   3.122   4.549   0.448
 1996SOL    HW2 6888   3.102   4.393   0.492
 1997SOL     OW 6889   5.169   0.549   3.502
 1997SOL    HW1 6890   5.085   0.586   3.463
 1997SOL    HW2 6891   5.193   0.464   3.454
 1998SOL     OW 6892   3.056   4.299   5.278
 1998SOL    HW1 6893   3.094   4.347   5.357
 1998SOL    HW2 6894   2.996   4.361   5.228
 1999SOL     OW 6895   2.299   0.335   2.347
 1999SOL    HW1 6896   2.296   0.266   2.275
 1999SOL    HW2 6897   2.383   0.389   2.338
 2000SOL     OW 6898   3.826   1.640   4.632
 2000SOL    HW1 6899   3.911   1.587   4.619
 2000SOL    HW2 6900   3.813   1.701   4.554
 2001SOL     OW 6901   2.922   1.389   1.058
 2001SOL    HW1 6902   2.946   1.350   1.146
 2001SOL    HW2 6903   2.979   1.470   1.041
 2002SOL     OW 6904   1.847   5.453   5.824
 2002SOL    HW1 6905   1.825   5.469   5.920
 2002SOL    HW2 6906   1.929   5.396   5.818
 2003SOL     OW 6907   5.984   5.967   3.708
 2003SOL    HW1 6908   6.059   5.903   3.725
 2003SOL    HW2 6909   6.021   6.059   3.693
 2004SOL     OW 6910   2.784   0.795   5.728
 2004SOL    HW1 6911   2.685   0.801   5.717
 2004SOL    HW2 6912   2.829   0.821   5.643
 2005SOL     OW 6913   1.956   5.862   5.572
 2005SOL    HW1 6914   1.863   5.825   5.577
 2005SOL    HW2 6915   2.018   5.804   5.625
 2006SOL     OW 6916   4.173   5.047   4.163
 2006SOL    HW1 6917   4.259   5.077   4.121
 2006SOL    HW2 6918   4.189   5.022   4.258
 2007SOL     OW 6919   5.690   5.686   0.752
 2007SOL    HW1 6920   5.641   5.655   0.670
 2007SOL    HW2 6921   5.675   5.784   0.764
 2008SOL     OW 6922   6.840   6.008   4.090
 2008SOL    HW1 6923   6.857   6.009   4.189
 2008SOL    HW2 6924   6.917   5.966   4.043
 2009SOL     OW 6925   0.069   0.251   2.174
 2009SOL    HW1 6926   0.103   0.344   2.178
 2009SOL    HW2 6927   0.127   0.191   2.230
 2010SOL     OW 6928   0.739   0.488   0.526
 2010SOL    HW1 6929   0.819   0.439   0.493
 2010SOL    HW2 6930   0.658   0.462   0.473
 2011SOL     OW 6931   0.342   1.865   4.945
 2011SOL    HW1 6932   0.413   1.927   4.913
 2011SOL    HW2 6933   0.253   1.911   4.942
 2012SOL     OW 6934   1.209   3.959   0.461
 2012SOL    HW1 6935   1.154   4.042   0.456
 2012SOL    HW2 6936   1.267   3.962   0.542
 2013SOL     OW 6937   5.681   1.555   1.998
 2013SOL    HW1 6938   5.705   1.468   2.041
 2013SOL    HW2 6939   5.582   1.560   1.986
 2014SOL     OW 6940   2.369   5.158   3.236
 2014SOL    HW1 6941   2.382   5.187   3.141
 2014SOL    HW2 6942   2.283   5.194   3.271
 2015SOL     OW 6943   3.446   0.567   0.037
 2015SOL    HW1 6944   3.518   0.591   6.992
 2015SOL    HW2 6945   3.486   0.545   0.126
 2016SOL     OW 6946   0.875   5.118   4.326
 2016SOL    HW1 6947   0.790   5.065   4.328
 2016SOL    HW2 6948   0.879   5.172   4.243
 2017SOL     OW 6949   2.800   5.918   2.872
 2017SOL    HW1 6950   2.894   5.940   2.897
 2017SOL    HW2 6951   2.741   5.997   2.889
 2018SOL     OW 6952   0.389   5.389   6.266
 2018SOL    HW1 6953   0.359   5.456   6.334
 2018SOL    HW2 6954   0.435   5.313   6.312
 2019SOL     OW 6955   6.343   1.921   1.845
 2019SOL    HW1 6956   6.330   1.957   1.937
 2019SOL    HW2 6957   6.269   1.858   1.823
 2020SOL     OW 6958   2.525   5.586   3.095
 2020SOL    HW1 6959   2.569   5.653   3.155
 2020SOL    HW2 6960   2.441   5.553   3.137
 2021SOL     OW 6961   1.401   1.015   2.841
 2021SOL    HW1 6962   1.431   0.965   2.922
 2021SOL    HW2 6963   1.361   0.951   2.775
 2022SOL     OW 6964   2.171   4.167   1.759
 2022SOL    HW1 6965   2.142   4.177   1.664
 2022SOL    HW2 6966   2.113   4.100   1.805
 2023SOL     OW 6967   6.505   0.976   5.873
 2023SOL    HW1 6968   6.456   0.950   5.957
 2023SOL    HW2 6969   6.561   0.899   5.842
 2024SOL     OW 6970   5.617   0.943   3.510
 2024SOL    HW1 6971   5.696   0.924   3.569
 2024SOL    HW2 6972   5.628   1.032   3.466
 2025SOL     OW 6973   0.441   1.405   1.918
 2025SOL    HW1 6974   0.446   1.390   1.819
 2025SOL    HW2 6975   0.378   1.339   1.959
 2026SOL     OW 6976   2.209   1.209   5.152
 2026SOL    HW1 6977   2.230   1.203   5.054
 2026SOL    HW2 6978   2.146   1.285   5.167
 2027SOL     OW 6979   1.178   1.648   2.689
 2027SOL    HW1 6980   1.222   1.738   2.692
 2027SOL    HW2 6981   1.149   1.622   2.782
 2028SOL     OW 6982   3.996   3.041   0.024
 2028SOL    HW1 6983   4.047   3.011   0.104
 2028SOL    HW2 6984   4.038   3.125   7.006
 2029SOL     OW 6985   0.905   1.116   6.503
 2029SOL    HW1 6986   0.965   1.096   6.425
 2029SOL    HW2 6987   0.886   1.031   6.553
 2030SOL     OW 6988   1.438   1.790   3.359
 2030SOL    HW1 6989   1.446   1.698   3.398
 2030SOL    HW2 6990   1.507   1.850   3.400
 2031SOL     OW 6991   5.797   6.793   1.697
 2031SOL    HW1 6992   5.833   6.725   1.634
 2031SOL    HW2 6993   5.855   6.874   1.696
 2032SOL     OW 6994   4.769   6.802   1.302
 2032SOL    HW1 6995   4.859   6.842   1.322
 2032SOL    HW2 6996   4.729   6.766   1.387
 2033SOL     OW 6997   5.268   4.820   6.880
 2033SOL    HW1 6998   5.286   4.858   6.970
 2033SOL    HW2 6999   5.202   4.745   6.887
 2034SOL     OW 7000   2.017   6.998   3.032
 2034SOL    HW1 7001   2.051   0.067   2.999
 2034SOL    HW2 7002   1.985   6.944   2.954
 2035SOL     OW 7003   0.641   2.453   2.790
 2035SOL    HW1 7004   0.658   2.551   2.778
 2035SOL    HW2 7005   0.627   2.410   2.701
 2036SOL     OW 7006   1.093   5.070   0.427
 2036SOL    HW1 7007   1.024   5.116   0.483
 2036SOL    HW2 7008   1.051   4.992   0.380
 2037SOL     OW 7009   0.070   1.713   5.711
 2037SOL    HW1 7010   0.090   1.648   5.785
 2037SOL    HW2 7011   0.150   1.723   5.653
 2038SOL     OW 7012   0.204   1.356   4.560
 2038SOL    HW1 7013   0.275   1.290   4.583
 2038SOL    HW2 7014   0.175   1.404   4.643
 2039SOL     OW 7015   0.144   5.553   3.126
 2039SOL    HW1 7016   0.190   5.640   3.110
 2039SOL    HW2 7017   0.187   5.481   3.072
 2040SOL     OW 7018   4.134   3.417   4.805
 2040SOL    HW1 7019   4.144   3.390   4.901
 2040SOL    HW2 7020   4.209   3.478   4.779
 2041SOL     OW 7021   5.850   4.516   5.425
 2041SOL    HW1 7022   5.903   4.497   5.343
 2041SOL    HW2 7023   5.770   4.571   5.401
 2042SOL     OW 7024   4.764   5.633   0.491
 2042SOL    HW1 7025   4.670   5.623   0.523
 2042SOL    HW2 7026   4.821   5.560   0.530
 2043SOL     OW 7027   5.773   4.527   2.199
 2043SOL    HW1 7028   5.761   4.491   2.107
 2043SOL    HW2 7029   5.731   4.618   2.206
 2044SOL     OW 7030   6.240   6.954   1.475
 2044SOL    HW1 7031   6.244   6.904   1.388
 2044SOL    HW2 7032   6.219   0.031   1.458
 2045SOL     OW 7033   2.070   5.001   5.690
 2045SOL    HW1 7034   2.130   4.926   5.716
 2045SOL    HW2 7035   2.032   4.984   5.599
 2046SOL     OW 7036   6.063   7.016   4.804
 2046SOL    HW1 7037   5.975   0.015   4.760
 2046SOL    HW2 7038   6.073   0.057   4.884
 2047SOL     OW 7039   5.031   2.588   0.620
 2047SOL    HW1 7040   4.996   2.613   0.530
 2047SOL    HW2 7041   5.008   2.659   0.686
 2048SOL     OW 7042   4.718   0.630   6.160
 2048SOL    HW1 7043   4.667   0.715   6.168
 2048SOL    HW2 7044   4.716   0.582   6.247
 2049SOL     OW 7045   4.302   1.188   0.203
 2049SOL    HW1 7046   4.327   1.256   0.272
 2049SOL    HW2 7047   4.308   1.096   0.243
 2050SOL     OW 7048   5.757   3.162   3.954
 2050SOL    HW1 7049   5.714   3.073   3.938
 2050SOL    HW2 7050   5.782   3.169   4.051
 2051SOL     OW 7051   1.418   5.852   0.646
 2051SOL    HW1 7052   1.499   5.846   0.588
 2051SOL    HW2 7053   1.340   5.812   0.598
 2052SOL     OW 7054   1.409   2.473   6.703
 2052SOL    HW1 7055   1.362   2.558   6.729
 2052SOL    HW2 7056   1.442   2.427   6.786
 2053SOL     OW 7057   6.205   0.490   0.077
 2053SOL    HW1 7058   6.144   0.427   0.028
 2053SOL    HW2 7059   6.264   0.437   0.139
 2054SOL     OW 7060   5.802   2.686   0.468
 2054SOL    HW1 7061   5.831   2.722   0.556
 2054SOL    HW2 7062   5.881   2.677   0.408
 2055SOL     OW 7063   5.455   2.894   3.826
 2055SOL    HW1 7064   5.371   2.924   3.780
 2055SOL    HW2 7065   5.534   2.928   3.776
 2056SOL     OW 7066   2.426   1.122   3.104
 2056SOL    HW1 7067   2.346   1.064   3.121
 2056SOL    HW2 7068   2.450   1.171   3.188
 2057SOL     OW 7069   6.967   2.746   4.407
 2057SOL    HW1 7070   6.983   2.795   4.493
 2057SOL    HW2 7071   6.869   2.733   4.394
 2058SOL     OW 7072   0.072   2.272   2.573
 2058SOL    HW1 7073   0.089   2.202   2.643
 2058SOL    HW2 7074   0.003   2.239   2.509
 2059SOL     OW 7075   1.997   1.219   0.116
 2059SOL    HW1 7076   1.909   1.185   0.150
 2059SOL    HW2 7077   2.015   1.309   0.156
 2060SOL     OW 7078   0.515   4.486   2.022
 2060SOL    HW1 7079   0.527   4.525   1.930
 2060SOL    HW2 7080   0.604   4.471   2.064
 2061SOL     OW 7081   6.734   1.572   2.363
 2061SOL    HW1 7082   6.669   1.498   2.381
 2061SOL    HW2 7083   6.805   1.571   2.433
 2062SOL     OW 7084   4.924   0.389   2.566
 2062SOL    HW1 7085   4.924   0.485   2.592
 2062SOL    HW2 7086   4.863   0.375   2.488
 2063SOL     OW 7087   1.655   2.985   6.487
 2063SOL    HW1 7088   1.750   2.952   6.488
 2063SOL    HW2 7089   1.601   2.928   6.426
 2064SOL     OW 7090   1.041   2.276   6.498
 2064SOL    HW1 7091   1.052   2.294   6.596
 2064SOL    HW2 7092   1.072   2.356   6.447
 2065SOL     OW 7093   6.159   3.710   2.027
 2065SOL    HW1 7094   6.188   3.711   1.931
 2065SOL    HW2 7095   6.202   3.787   2.075
 2066SOL     OW 7096   7.003   0.186   4.889
 2066SOL    HW1 7097   6.949   0.268   4.867
 2066SOL    HW2 7098   6.959   0.136   4.963
 2067SOL     OW 7099   6.653   6.320   1.300
 2067SOL    HW1 7100   6.566   6.307   1.252
 2067SOL    HW2 7101   6.727   6.277   1.248
 2068SOL     OW 7102   1.952   1.416   5.471
 2068SOL    HW1 7103   1.989   1.441   5.381
 2068SOL    HW2 7104   2.010   1.455   5.542
 2069SOL     OW 7105   1.389   2.429   2.184
 2069SOL    HW1 7106   1.353   2.414   2.276
 2069SOL    HW2 7107   1.429   2.344   2.150
 2070SOL     OW 7108   1.497   1.732   2.806
 2070SOL    HW1 7109   1.440   1.789   2.748
 2070SOL    HW2 7110   1.496   1.767   2.900
 2071SOL     OW 7111   0.652   0.105   4.296
 2071SOL    HW1 7112   0.590   0.029   4.317
 2071SOL    HW2 7113   0.733   0.100   4.356
 2072SOL     OW 7114   4.770   5.906   1.677
 2072SOL    HW1 7115   4.839   5.833   1.670
 2072SOL    HW2 7116   4.693   5.885   1.616
 2073SOL     OW 7117   2.993   6.612   5.773
 2073SOL    HW1 7118   3.034   6.703   5.783
 2073SOL    HW2 7119   2.927   6.597   5.847
 2074SOL     OW 7120   6.547   1.651   1.299
 2074SOL    HW1 7121   6.638   1.657   1.341
 2074SOL    HW2 7122   6.547   1.581   1.228
 2075SOL     OW 7123   4.452   3.321   0.239
 2075SOL    HW1 7124   4.503   3.396   0.280
 2075SOL    HW2 7125   4.446   3.334   0.140
 2076SOL     OW 7126   4.978   6.462   1.071
 2076SOL    HW1 7127   5.049   6.528   1.096
 2076SOL    HW2 7128   4.890   6.509   1.064
 2077SOL     OW 7129   5.365   1.480   2.378
 2077SOL    HW1 7130   5.406   1.558   2.331
 2077SOL    HW2 7131   5.274   1.461   2.339
 2078SOL     OW 7132   3.283   4.801   6.455
 2078SOL    HW1 7133   3.257   4.795   6.359
 2078SOL    HW2 7134   3.210   4.763   6.512
 2079SOL     OW 7135   5.644   1.277   3.663
 2079SOL    HW1 7136   5.736   1.303   3.634
 2079SOL    HW2 7137   5.644   1.183   3.695
 2080SOL     OW 7138   2.763   2.327   5.073
 2080SOL    HW1 7139   2.688   2.356   5.013
 2080SOL    HW2 7140   2.848   2.323   5.020
 2081SOL     OW 7141   0.923   6.129   5.129
 2081SOL    HW1 7142   0.996   6.140   5.196
 2081SOL    HW2 7143   0.961   6.130   5.037
 2082SOL     OW 7144   5.642   0.912   0.850
 2082SOL    HW1 7145   5.575   0.894   0.778
 2082SOL    HW2 7146   5.621   1.000   0.893
 2083SOL     OW 7147   3.648   4.660   6.503
 2083SOL    HW1 7148   3.726   4.639   6.561
 2083SOL    HW2 7149   3.662   4.618   6.413
 2084SOL     OW 7150   0.023   2.845   3.259
 2084SOL    HW1 7151   6.983   2.799   3.193
 2084SOL    HW2 7152   0.113   2.802   3.260
 2085SOL     OW 7153   4.498   0.320   5.727
 2085SOL    HW1 7154   4.555   0.279   5.656
 2085SOL    HW2 7155   4.543   0.400   5.766
 2086SOL     OW 7156   2.645   4.886   0.214
 2086SOL    HW1 7157   2.565   4.945   0.222
 2086SOL    HW2 7158   2.701   4.917   0.137
 2087SOL     OW 7159   5.868   6.966   2.675
 2087SOL    HW1 7160   5.933   6.970   2.599
 2087SOL    HW2 7161   5.861   0.038   2.718
 2088SOL     OW 7162   3.407   6.601   0.884
 2088SOL    HW1 7163   3.493   6.581   0.932
 2088SOL    HW2 7164   3.423   6.605   0.786
 2089SOL     OW 7165   5.297   1.453   0.114
 2089SOL    HW1 7166   5.309   1.356   0.095
 2089SOL    HW2 7167   5.334   1.506   0.037
 2090SOL     OW 7168   3.829   3.717   4.903
 2090SOL    HW1 7169   3.812   3.669   4.817
 2090SOL    HW2 7170   3.920   3.758   4.902
 2091SOL     OW 7171   1.143   5.752   0.620
 2091SOL    HW1 7172   1.145   5.652   0.630
 2091SOL    HW2 7173   1.103   5.776   0.532
 2092SOL     OW 7174   6.494   6.003   1.226
 2092SOL    HW1 7175   6.548   5.979   1.306
 2092SOL    HW2 7176   6.455   6.094   1.237
 2093SOL     OW 7177   1.191   3.126   1.556
 2093SOL    HW1 7178   1.133   3.188   1.609
 2093SOL    HW2 7179   1.238   3.178   1.484
 2094SOL     OW 7180   5.786   0.001   1.973
 2094SOL    HW1 7181   5.869   0.034   2.017
 2094SOL    HW2 7182   5.738   6.957   2.035
 2095SOL     OW 7183   5.791   5.762   4.594
 2095SOL    HW1 7184   5.786   5.692   4.666
 2095SOL    HW2 7185   5.813   5.718   4.507
 2096SOL     OW 7186   4.662   4.333   2.519
 2096SOL    HW1 7187   4.597   4.404   2.493
 2096SOL    HW2 7188   4.732   4.325   2.448
 2097SOL     OW 7189   0.063   2.746   6.664
 2097SOL    HW1 7190   0.042   2.761   6.567
 2097SOL    HW2 7191   0.124   2.668   6.674
 2098SOL     OW 7192   4.161   0.415   3.893
 2098SOL    HW1 7193   4.084   0.359   3.862
 2098SOL    HW2 7194   4.169   0.495   3.833
 2099SOL     OW 7195   2.866   0.828   4.455
 2099SOL    HW1 7196   2.860   0.835   4.554
 2099SOL    HW2 7197   2.854   0.918   4.414
 2100SOL     OW 7198   4.272   4.527   6.711
 2100SOL    HW1 7199   4.291   4.482   6.623
 2100SOL    HW2 7200   4.339   4.496   6.779
 2101SOL     OW 7201   0.482   0.229   3.245
 2101SOL    HW1 7202   0.393   0.188   3.223
 2101SOL    HW2 7203   0.470   0.327   3.262
 2102SOL     OW 7204   6.946   5.286   3.018
 2102SOL    HW1 7205   6.961   5.384   3.005
 2102SOL    HW2 7206   0.003   5.248   3.072
 2103SOL     OW 7207   3.446   2.979   6.956
 2103SOL    HW1 7208   3.482   2.988   0.030
 2103SOL    HW2 7209   3.378   3.050   6.940
 2104SOL     OW 7210   1.498   3.519   5.461
 2104SOL    HW1 7211   1.470   3.463   5.539
 2104SOL    HW2 7212   1.475   3.614   5.477
 2105SOL     OW 7213   5.395   5.187   2.652
 2105SOL    HW1 7214   5.457   5.131   2.708
 2105SOL    HW2 7215   5.415   5.170   2.555
 2106SOL     OW 7216   4.722   5.424   6.425
 2106SOL    HW1 7217   4.767   5.441   6.513
 2106SOL    HW2 7218   4.689   5.511   6.387
 2107SOL     OW 7219   3.819   4.317   5.287
 2107SOL    HW1 7220   3.757   4.248   5.250
 2107SOL    HW2 7221   3.871   4.278   5.363
 2108SOL     OW 7222   6.017   5.285   5.936
 2108SOL    HW1 7223   6.024   5.239   5.847
 2108SOL    HW2 7224   5.928   5.330   5.943
 2109SOL     OW 7225   5.311   6.138   2.861
 2109SOL    HW1 7226   5.376   6.162   2.933
 2109SOL    HW2 7227   5.282   6.221   2.813
 2110SOL     OW 7228   2.687   4.222   6.343
 2110SOL    HW1 7229   2.695   4.132   6.300
 2110SOL    HW2 7230   2.609   4.271   6.305
 2111SOL     OW 7231   1.239   2.472   6.105
 2111SOL    HW1 7232   1.307   2.500   6.037
 2111SOL    HW2 7233   1.284   2.456   6.193
 2112SOL     OW 7234   4.459   2.530   1.538
 2112SOL    HW1 7235   4.412   2.452   1.580
 2112SOL    HW2 7236   4.396   2.577   1.477
 2113SOL     OW 7237   1.609   1.014   2.668
 2113SOL    HW1 7238   1.659   0.931   2.692
 2113SOL    HW2 7239   1.522   1.016   2.716
 2114SOL     OW 7240   1.050   4.400   0.176
 2114SOL    HW1 7241   0.987   4.323   0.173
 2114SOL    HW2 7242   1.017   4.468   0.241
 2115SOL     OW 7243   1.759   4.641   2.241
 2115SOL    HW1 7244   1.756   4.737   2.215
 2115SOL    HW2 7245   1.830   4.595   2.188
 2116SOL     OW 7246   0.260   3.570   3.410
 2116SOL    HW1 7247   0.184   3.594   3.349
 2116SOL    HW2 7248   0.329   3.642   3.408
 2117SOL     OW 7249   0.753   4.847   1.450
 2117SOL    HW1 7250   0.785   4.850   1.355
 2117SOL    HW2 7251   0.659   4.881   1.455
 2118SOL     OW 7252   0.068   3.703   2.747
 2118SOL    HW1 7253   0.109   3.616   2.718
 2118SOL    HW2 7254   6.995   3.687   2.783
 2119SOL     OW 7255   2.544   5.874   1.243
 2119SOL    HW1 7256   2.473   5.810   1.274
 2119SOL    HW2 7257   2.632   5.827   1.240
 2120SOL     OW 7258   6.416   4.854   1.739
 2120SOL    HW1 7259   6.349   4.827   1.670
 2120SOL    HW2 7260   6.451   4.772   1.785
 2121SOL     OW 7261   0.255   4.814   5.185
 2121SOL    HW1 7262   0.228   4.907   5.208
 2121SOL    HW2 7263   0.355   4.808   5.179
 2122SOL     OW 7264   5.039   4.285   4.686
 2122SOL    HW1 7265   5.128   4.329   4.684
 2122SOL    HW2 7266   4.980   4.326   4.616
 2123SOL     OW 7267   6.999   4.756   2.506
 2123SOL    HW1 7268   0.076   4.785   2.515
 2123SOL    HW2 7269   6.944   4.804   2.575
 2124SOL     OW 7270   2.415   2.200   1.606
 2124SOL    HW1 7271   2.499   2.189   1.554
 2124SOL    HW2 7272   2.384   2.111   1.639
 2125SOL     OW 7273   2.695   0.746   0.544
 2125SOL    HW1 7274   2.680   0.782   0.636
 2125SOL    HW2 7275   2.716   0.648   0.550
 2126SOL     OW 7276   3.133   0.965   6.687
 2126SOL    HW1 7277   3.097   0.877   6.716
 2126SOL    HW2 7278   3.071   1.038   6.716
 2127SOL     OW 7279   5.651   2.904   4.596
 2127SOL    HW1 7280   5.710   2.859   4.662
 2127SOL    HW2 7281   5.694   2.988   4.563
 2128SOL     OW 7282   0.802   4.461   4.900
 2128SOL    HW1 7283   0.824   4.518   4.979
 2128SOL    HW2 7284   0.863   4.382   4.898
 2129SOL     OW 7285   4.794   2.988   5.250
 2129SOL    HW1 7286   4.878   2.935   5.256
 2129SOL    HW2 7287   4.715   2.927   5.259
 2130SOL     OW 7288   4.774   6.989   2.577
 2130SOL    HW1 7289   4.766   0.058   2.528
 2130SOL    HW2 7290   4.744   7.002   2.671
 2131SOL     OW 7291   0.048   0.702   0.642
 2131SOL    HW1 7292   6.980   0.694   0.592
 2131SOL    HW2 7293   0.063   0.798   0.666
 2132SOL     OW 7294   2.773   2.920   0.750
 2132SOL    HW1 7295   2.835   2.875   0.685
 2132SOL    HW2 7296   2.803   3.014   0.765
 2133SOL     OW 7297   3.124   2.220   6.149
 2133SOL    HW1 7298   3.131   2.127   6.187
 2133SOL    HW2 7299   3.214   2.252   6.122
 2134SOL     OW 7300   0.282   1.144   1.110
 2134SOL    HW1 7301   0.237   1.162   1.023
 2134SOL    HW2 7302   0.232   1.073   1.160
 2135SOL     OW 7303   0.921   3.720   4.612
 2135SOL    HW1 7304   0.926   3.713   4.512
 2135SOL    HW2 7305   0.996   3.778   4.645
 2136SOL     OW 7306   2.195   5.523   2.040
 2136SOL    HW1 7307   2.185   5.569   1.952
 2136SOL    HW2 7308   2.177   5.588   2.114
 2137SOL     OW 7309   3.147   5.529   4.915
 2137SOL    HW1 7310   3.115   5.617   4.950
 2137SOL    HW2 7311   3.069   5.472   4.890
 2138SOL     OW 7312   5.566   1.309   2.484
 2138SOL    HW1 7313   5.598   1.402   2.504
 2138SOL    HW2 7314   5.470   1.313   2.454
 2139SOL     OW 7315   3.172   0.836   5.218
 2139SOL    HW1 7316   3.240   0.899   5.258
 2139SOL    HW2 7317   3.219   0.771   5.159
 2140SOL     OW 7318   2.610   1.254   4.759
 2140SOL    HW1 7319   2.545   1.315   4.806
 2140SOL    HW2 7320   2.703   1.277   4.788
 2141SOL     OW 7321   6.015   4.627   2.301
 2141SOL    HW1 7322   5.955   4.581   2.236
 2141SOL    HW2 7323   6.103   4.645   2.258
 2142SOL     OW 7324   2.012   2.516   3.561
 2142SOL    HW1 7325   2.006   2.607   3.521
 2142SOL    HW2 7326   1.921   2.486   3.589
 2143SOL     OW 7327   2.645   4.860   0.725
 2143SOL    HW1 7328   2.582   4.791   0.760
 2143SOL    HW2 7329   2.672   4.921   0.800
 2144SOL     OW 7330   6.523   5.699   4.125
 2144SOL    HW1 7331   6.593   5.667   4.189
 2144SOL    HW2 7332   6.470   5.621   4.091
 2145SOL     OW 7333   4.219   6.828   3.981
 2145SOL    HW1 7334   4.243   6.904   4.041
 2145SOL    HW2 7335   4.151   6.770   4.026
 2146SOL     OW 7336   2.206   2.710   0.890
 2146SOL    HW1 7337   2.286   2.650   0.884
 2146SOL    HW2 7338   2.230   2.793   0.941
 2147SOL     OW 7339   6.638   0.703   5.490
 2147SOL    HW1 7340   6.564   0.758   5.449
 2147SOL    HW2 7341   6.716   0.701   5.429
 2148SOL     OW 7342   0.243   3.468   6.559
 2148SOL    HW1 7343   0.150   3.478   6.525
 2148SOL    HW2 7344   0.307   3.497   6.488
 2149SOL     OW 7345   0.777   0.486   6.532
 2149SOL    HW1 7346   0.754   0.548   6.457
 2149SOL    HW2 7347   0.867   0.510   6.569
 2150SOL     OW 7348   2.507   2.905   1.743
 2150SOL    HW1 7349   2.461   2.994   1.739
 2150SOL    HW2 7350   2.453   2.837   1.694
 2151SOL     OW 7351   1.377   5.806   6.899
 2151SOL    HW1 7352   1.324   5.872   6.952
 2151SOL    HW2 7353   1.370   5.828   6.802
 2152SOL     OW 7354   4.285   6.044   2.900
 2152SOL    HW1 7355   4.223   6.117   2.926
 2152SOL    HW2 7356   4.233   5.960   2.884
 2153SOL     OW 7357   4.924   1.249   2.957
 2153SOL    HW1 7358   4.853   1.178   2.955
 2153SOL    HW2 7359   4.991   1.228   3.027
 2154SOL     OW 7360   3.170   6.322   3.415
 2154SOL    HW1 7361   3.206   6.246   3.468
 2154SOL    HW2 7362   3.246   6.382   3.387
 2155SOL     OW 7363   4.334   6.470   0.679
 2155SOL    HW1 7364   4.338   6.570   0.687
 2155SOL    HW2 7365   4.397   6.429   0.744
 2156SOL     OW 7366   5.469   1.432   4.342
 2156SOL    HW1 7367   5.390   1.478   4.302
 2156SOL    HW2 7368   5.488   1.470   4.432
 2157SOL     OW 7369   3.981   5.319   3.922
 2157SOL    HW1 7370   4.020   5.351   4.008
 2157SOL    HW2 7371   3.934   5.232   3.937
 2158SOL     OW 7372   3.168   0.374   0.508
 2158SOL    HW1 7373   3.257   0.411   0.479
 2158SOL    HW2 7374   3.168   0.359   0.607
 2159SOL     OW 7375   1.406   0.463   5.862
 2159SOL    HW1 7376   1.489   0.492   5.909
 2159SOL    HW2 7377   1.371   0.379   5.903
 2160SOL     OW 7378   5.128   6.287   0.243
 2160SOL    HW1 7379   5.085   6.363   0.293
 2160SOL    HW2 7380   5.168   6.321   0.158
 2161SOL     OW 7381   1.267   3.610   2.338
 2161SOL    HW1 7382   1.191   3.653   2.290
 2161SOL    HW2 7383   1.346   3.672   2.340
 2162SOL     OW 7384   1.500   6.917   2.789
 2162SOL    HW1 7385   1.407   6.923   2.752
 2162SOL    HW2 7386   1.498   6.938   2.886
 2163SOL     OW 7387   1.289   3.267   1.362
 2163SOL    HW1 7388   1.387   3.276   1.378
 2163SOL    HW2 7389   1.269   3.281   1.265
 2164SOL     OW 7390   1.964   2.654   2.062
 2164SOL    HW1 7391   1.887   2.702   2.104
 2164SOL    HW2 7392   1.940   2.629   1.968
 2165SOL     OW 7393   0.124   1.896   3.927
 2165SOL    HW1 7394   0.183   1.896   4.008
 2165SOL    HW2 7395   0.153   1.824   3.864
 2166SOL     OW 7396   0.339   4.572   3.421
 2166SOL    HW1 7397   0.330   4.652   3.480
 2166SOL    HW2 7398   0.355   4.491   3.477
 2167SOL     OW 7399   1.912   2.395   4.100
 2167SOL    HW1 7400   1.847   2.345   4.158
 2167SOL    HW2 7401   1.924   2.488   4.137
 2168SOL     OW 7402   1.236   1.903   3.229
 2168SOL    HW1 7403   1.227   1.994   3.271
 2168SOL    HW2 7404   1.315   1.856   3.268
 2169SOL     OW 7405   0.231   0.596   1.445
 2169SOL    HW1 7406   0.318   0.546   1.448
 2169SOL    HW2 7407   0.242   0.677   1.388
 2170SOL     OW 7408   0.919   3.961   5.679
 2170SOL    HW1 7409   0.928   3.922   5.771
 2170SOL    HW2 7410   0.824   3.956   5.650
 2171SOL     OW 7411   0.132   5.422   1.270
 2171SOL    HW1 7412   0.066   5.440   1.197
 2171SOL    HW2 7413   0.222   5.455   1.242
 2172SOL     OW 7414   0.016   1.889   4.487
 2172SOL    HW1 7415   6.992   1.874   4.576
 2172SOL    HW2 7416   6.970   1.936   4.427
 2173SOL     OW 7417   5.524   0.092   4.781
 2173SOL    HW1 7418   5.524   0.034   4.862
 2173SOL    HW2 7419   5.512   0.035   4.699
 2174SOL     OW 7420   0.396   5.903   5.040
 2174SOL    HW1 7421   0.337   5.914   5.120
 2174SOL    HW2 7422   0.355   5.952   4.962
 2175SOL     OW 7423   3.222   3.020   5.673
 2175SOL    HW1 7424   3.131   3.000   5.637
 2175SOL    HW2 7425   3.263   2.937   5.710
 2176SOL     OW 7426   5.394   2.767   0.969
 2176SOL    HW1 7427   5.298   2.745   0.985
 2176SOL    HW2 7428   5.423   2.840   1.032
 2177SOL     OW 7429   0.046   0.798   3.643
 2177SOL    HW1 7430   7.009   0.779   3.562
 2177SOL    HW2 7431   7.016   0.767   3.725
 2178SOL     OW 7432   0.969   1.745   2.404
 2178SOL    HW1 7433   0.943   1.840   2.422
 2178SOL    HW2 7434   0.983   1.697   2.490
 2179SOL     OW 7435   1.819   4.440   6.570
 2179SOL    HW1 7436   1.773   4.440   6.659
 2179SOL    HW2 7437   1.897   4.378   6.573
 2180SOL     OW 7438   0.852   4.595   2.067
 2180SOL    HW1 7439   0.778   4.540   2.106
 2180SOL    HW2 7440   0.880   4.664   2.134
 2181SOL     OW 7441   4.604   4.986   4.096
 2181SOL    HW1 7442   4.575   4.909   4.040
 2181SOL    HW2 7443   4.626   4.954   4.189
 2182SOL     OW 7444   0.783   5.465   3.220
 2182SOL    HW1 7445   0.841   5.427   3.292
 2182SOL    HW2 7446   0.812   5.559   3.201
 2183SOL     OW 7447   3.558   2.927   0.280
 2183SOL    HW1 7448   3.513   2.843   0.312
 2183SOL    HW2 7449   3.607   2.970   0.356
 2184SOL     OW 7450   6.717   0.254   0.287
 2184SOL    HW1 7451   6.670   0.270   0.374
 2184SOL    HW2 7452   6.800   0.199   0.304
 2185SOL     OW 7453   0.534   1.715   0.033
 2185SOL    HW1 7454   0.445   1.676   0.058
 2185SOL    HW2 7455   0.527   1.814   0.027
 2186SOL     OW 7456   6.997   5.832   4.864
 2186SOL    HW1 7457   7.014   5.737   4.891
 2186SOL    HW2 7458   0.065   5.875   4.838
 2187SOL     OW 7459   0.499   5.569   2.954
 2187SOL    HW1 7460   0.421   5.508   2.941
 2187SOL    HW2 7461   0.477   5.660   2.917
 2188SOL     OW 7462   1.870   6.882   0.636
 2188SOL    HW1 7463   1.968   6.878   0.618
 2188SOL    HW2 7464   1.834   6.970   0.603
 2189SOL     OW 7465   2.826   1.215   2.093
 2189SOL    HW1 7466   2.753   1.280   2.071
 2189SOL    HW2 7467   2.841   1.215   2.191
 2190SOL     OW 7468   6.795   4.321   2.288
 2190SOL    HW1 7469   6.798   4.411   2.331
 2190SOL    HW2 7470   6.881   4.304   2.239
 2191SOL     OW 7471   2.147   0.847   6.144
 2191SOL    HW1 7472   2.167   0.757   6.105
 2191SOL    HW2 7473   2.077   0.838   6.214
 2192SOL     OW 7474   5.059   0.963   2.072
 2192SOL    HW1 7475   5.117   1.044   2.079
 2192SOL    HW2 7476   4.995   0.960   2.149
 2193SOL     OW 7477   6.943   6.876   6.363
 2193SOL    HW1 7478   6.998   6.943   6.312
 2193SOL    HW2 7479   6.902   6.921   6.443
 2194SOL     OW 7480   0.846   4.436   5.539
 2194SOL    HW1 7481   0.914   4.509   5.535
 2194SOL    HW2 7482   0.866   4.375   5.615
 2195SOL     OW 7483   0.747   4.174   6.623
 2195SOL    HW1 7484   0.715   4.174   6.718
 2195SOL    HW2 7485   0.763   4.080   6.592
 2196SOL     OW 7486   2.344   6.005   5.558
 2196SOL    HW1 7487   2.364   5.956   5.473
 2196SOL    HW2 7488   2.360   5.944   5.636
 2197SOL     OW 7489   2.956   3.991   5.500
 2197SOL    HW1 7490   2.989   3.990   5.406
 2197SOL    HW2 7491   2.869   4.040   5.505
 2198SOL     OW 7492   0.757   6.790   6.435
 2198SOL    HW1 7493   0.717   6.707   6.473
 2198SOL    HW2 7494   0.729   6.869   6.489
 2199SOL     OW 7495   4.744   6.825   4.518
 2199SOL    HW1 7496   4.824   6.856   4.570
 2199SOL    HW2 7497   4.756   6.729   4.493
 2200SOL     OW 7498   3.085   1.168   4.405
 2200SOL    HW1 7499   3.156   1.129   4.347
 2200SOL    HW2 7500   3.115   1.169   4.500
 2201SOL     OW 7501   6.544   2.710   3.752
 2201SOL    HW1 7502   6.447   2.687   3.760
 2201SOL    HW2 7503   6.598   2.625   3.754
 2202SOL     OW 7504   3.794   4.975   2.417
 2202SOL    HW1 7505   3.697   4.969   2.439
 2202SOL    HW2 7506   3.814   5.064   2.378
 2203SOL     OW 7507   2.059   3.665   0.803
 2203SOL    HW1 7508   1.993   3.591   0.822
 2203SOL    HW2 7509   2.145   3.646   0.851
 2204SOL     OW 7510   4.394   2.802   1.026
 2204SOL    HW1 7511   4.371   2.722   0.972
 2204SOL    HW2 7512   4.427   2.875   0.966
 2205SOL     OW 7513   1.203   6.275   0.430
 2205SOL    HW1 7514   1.302   6.284   0.418
 2205SOL    HW2 7515   1.163   6.364   0.454
 2206SOL     OW 7516   2.303   3.224   6.357
 2206SOL    HW1 7517   2.350   3.231   6.445
 2206SOL    HW2 7518   2.308   3.131   6.322
 2207SOL     OW 7519   4.369   6.054   1.057
 2207SOL    HW1 7520   4.421   6.084   1.136
 2207SOL    HW2 7521   4.272   6.077   1.069
 2208SOL     OW 7522   1.090   5.868   3.800
 2208SOL    HW1 7523   1.069   5.892   3.895
 2208SOL    HW2 7524   1.056   5.776   3.780
 2209SOL     OW 7525   2.639   5.152   5.090
 2209SOL    HW1 7526   2.549   5.181   5.057
 2209SOL    HW2 7527   2.706   5.226   5.075
 2210SOL     OW 7528   5.922   6.132   1.231
 2210SOL    HW1 7529   5.970   6.051   1.195
 2210SOL    HW2 7530   5.895   6.115   1.326
 2211SOL     OW 7531   5.963   0.782   0.810
 2211SOL    HW1 7532   6.015   0.749   0.731
 2211SOL    HW2 7533   5.865   0.783   0.787
 2212SOL     OW 7534   2.604   6.169   6.660
 2212SOL    HW1 7535   2.531   6.137   6.721
 2212SOL    HW2 7536   2.693   6.142   6.697
 2213SOL     OW 7537   4.410   2.362   3.997
 2213SOL    HW1 7538   4.403   2.326   3.904
 2213SOL    HW2 7539   4.435   2.459   3.993
 2214SOL     OW 7540   4.303   2.798   5.839
 2214SOL    HW1 7541   4.262   2.765   5.754
 2214SOL    HW2 7542   4.262   2.887   5.863
 2215SOL     OW 7543   4.898   1.171   6.596
 2215SOL    HW1 7544   4.944   1.210   6.676
 2215SOL    HW2 7545   4.939   1.207   6.513
 2216SOL     OW 7546   0.530   5.791   6.571
 2216SOL    HW1 7547   0.574   5.841   6.496
 2216SOL    HW2 7548   0.476   5.855   6.626
 2217SOL     OW 7549   4.595   0.941   2.600
 2217SOL    HW1 7550   4.686   0.954   2.560
 2217SOL    HW2 7551   4.549   1.029   2.609
 2218SOL     OW 7552   0.218   5.293   6.495
 2218SOL    HW1 7553   0.141   5.230   6.488
 2218SOL    HW2 7554   0.270   5.273   6.579
 2219SOL     OW 7555   5.338   1.369   0.723
 2219SOL    HW1 7556   5.335   1.468   0.740
 2219SOL    HW2 7557   5.286   1.321   0.794
 2220SOL     OW 7558   1.740   6.675   5.606
 2220SOL    HW1 7559   1.786   6.597   5.648
 2220SOL    HW2 7560   1.802   6.754   5.605
 2221SOL     OW 7561   6.493   0.993   4.907
 2221SOL    HW1 7562   6.584   1.016   4.942
 2221SOL    HW2 7563   6.460   1.067   4.848
 2222SOL     OW 7564   5.981   6.507   0.444
 2222SOL    HW1 7565   6.061   6.469   0.490
 2222SOL    HW2 7566   6.010   6.558   0.363
 2223SOL     OW 7567   6.607   0.369   5.781
 2223SOL    HW1 7568   6.676   0.297   5.790
 2223SOL    HW2 7569   6.536   0.355   5.850
 2224SOL     OW 7570   6.079   4.312   1.856
 2224SOL    HW1 7571   6.043   4.307   1.949
 2224SOL    HW2 7572   6.015   4.364   1.799
 2225SOL     OW 7573   0.554   6.603   3.539
 2225SOL    HW1 7574   0.494   6.636   3.612
 2225SOL    HW2 7575   0.634   6.663   3.532
 2226SOL     OW 7576   3.078   5.007   0.631
 2226SOL    HW1 7577   3.166   5.053   0.636
 2226SOL    HW2 7578   3.012   5.055   0.689
 2227SOL     OW 7579   4.133   2.524   1.648
 2227SOL    HW1 7580   4.089   2.510   1.560
 2227SOL    HW2 7581   4.192   2.446   1.668
 2228SOL     OW 7582   4.519   5.197   0.301
 2228SOL    HW1 7583   4.429   5.157   0.318
 2228SOL    HW2 7584   4.526   5.224   0.205
 2229SOL     OW 7585   3.334   3.440   4.511
 2229SOL    HW1 7586   3.411   3.472   4.566
 2229SOL    HW2 7587   3.366   3.372   4.445
 2230SOL     OW 7588   5.296   6.571   0.954
 2230SOL    HW1 7589   5.216   6.539   0.904
 2230SOL    HW2 7590   5.266   6.638   1.023
 2231SOL     OW 7591   0.439   1.180   6.559
 2231SOL    HW1 7592   0.422   1.272   6.593
 2231SOL    HW2 7593   0.496   1.130   6.624
 2232SOL     OW 7594   1.312   0.449   5.448
 2232SOL    HW1 7595   1.236   0.413   5.394
 2232SOL    HW2 7596   1.372   0.503   5.389
 2233SOL     OW 7597   3.032   3.579   0.934
 2233SOL    HW1 7598   3.083   3.592   0.849
 2233SOL    HW2 7599   3.035   3.662   0.989
 2234SOL     OW 7600   3.752   1.452   0.694
 2234SOL    HW1 7601   3.817   1.431   0.621
 2234SOL    HW2 7602   3.715   1.544   0.680
 2235SOL     OW 7603   2.787   0.435   2.505
 2235SOL    HW1 7604   2.803   0.532   2.520
 2235SOL    HW2 7605   2.861   0.397   2.449
 2236SOL     OW 7606   1.673   3.891   5.966
 2236SOL    HW1 7607   1.712   3.853   5.882
 2236SOL    HW2 7608   1.677   3.822   6.038
 2237SOL     OW 7609   5.890   5.344   5.288
 2237SOL    HW1 7610   5.800   5.299   5.290
 2237SOL    HW2 7611   5.878   5.442   5.303
 2238SOL     OW 7612   4.693   4.661   2.751
 2238SOL    HW1 7613   4.682   4.652   2.850
 2238SOL    HW2 7614   4.690   4.758   2.726
 2239SOL     OW 7615   3.299   6.411   3.774
 2239SOL    HW1 7616   3.212   6.367   3.754
 2239SOL    HW2 7617   3.366   6.342   3.802
 2240SOL     OW 7618   4.121   5.841   2.799
 2240SOL    HW1 7619   4.137   5.910   2.727
 2240SOL    HW2 7620   4.098   5.754   2.757
 2241SOL     OW 7621   0.093   0.020   1.835
 2241SOL    HW1 7622   0.111   0.115   1.861
 2241SOL    HW2 7623   0.005   7.009   1.874
 2242SOL     OW 7624   5.434   3.236   2.925
 2242SOL    HW1 7625   5.338   3.209   2.925
 2242SOL    HW2 7626   5.485   3.177   2.988
 2243SOL     OW 7627   2.630   6.340   0.113
 2243SOL    HW1 7628   2.613   6.371   0.207
 2243SOL    HW2 7629   2.604   6.244   0.103
 2244SOL     OW 7630   2.904   0.423   1.368
 2244SOL    HW1 7631   2.849   0.480   1.308
 2244SOL    HW2 7632   2.849   0.346   1.402
 2245SOL     OW 7633   0.601   1.404   0.773
 2245SOL    HW1 7634   0.694   1.430   0.748
 2245SOL    HW2 7635   0.566   1.337   0.707
 2246SOL     OW 7636   2.157   0.593   4.518
 2246SOL    HW1 7637   2.208   0.680   4.521
 2246SOL    HW2 7638   2.066   0.608   4.556
 2247SOL     OW 7639   3.418   3.988   2.438
 2247SOL    HW1 7640   3.386   4.029   2.353
 2247SOL    HW2 7641   3.499   4.038   2.470
 2248SOL     OW 7642   6.246   4.542   4.918
 2248SOL    HW1 7643   6.149   4.526   4.934
 2248SOL    HW2 7644   6.299   4.483   4.979
 2249SOL     OW 7645   2.930   6.545   3.680
 2249SOL    HW1 7646   2.995   6.606   3.725
 2249SOL    HW2 7647   2.960   6.450   3.690
 2250SOL     OW 7648   3.784   4.029   5.622
 2250SOL    HW1 7649   3.845   3.962   5.580
 2250SOL    HW2 7650   3.731   4.074   5.551
 2251SOL     OW 7651   5.276   6.514   6.493
 2251SOL    HW1 7652   5.201   6.457   6.459
 2251SOL    HW2 7653   5.256   6.610   6.474
 2252SOL     OW 7654   5.511   1.788   3.047
 2252SOL    HW1 7655   5.514   1.766   3.145
 2252SOL    HW2 7656   5.560   1.717   2.996
 2253SOL     OW 7657   0.601   3.044   0.336
 2253SOL    HW1 7658   0.587   3.138   0.365
 2253SOL    HW2 7659   0.686   3.009   0.377
 2254SOL     OW 7660   3.286   4.111   2.771
 2254SOL    HW1 7661   3.223   4.102   2.849
 2254SOL    HW2 7662   3.330   4.023   2.754
 2255SOL     OW 7663   2.870   4.057   5.225
 2255SOL    HW1 7664   2.901   4.144   5.262
 2255SOL    HW2 7665   2.911   4.042   5.135
 2256SOL     OW 7666   4.879   6.335   2.423
 2256SOL    HW1 7667   4.810   6.408   2.427
 2256SOL    HW2 7668   4.908   6.312   2.516
 2257SOL     OW 7669   0.883   1.447   4.078
 2257SOL    HW1 7670   0.880   1.374   4.147
 2257SOL    HW2 7671   0.814   1.516   4.099
 2258SOL     OW 7672   2.125   6.472   4.804
 2258SOL    HW1 7673   2.208   6.429   4.840
 2258SOL    HW2 7674   2.073   6.405   4.752
 2259SOL     OW 7675   6.218   2.257   4.631
 2259SOL    HW1 7676   6.154   2.209   4.690
 2259SOL    HW2 7677   6.168   2.305   4.559
 2260SOL     OW 7678   1.200   3.659   1.345
 2260SOL    HW1 7679   1.168   3.569   1.374
 2260SOL    HW2 7680   1.126   3.725   1.355
 2261SOL     OW 7681   6.406   4.171   0.549
 2261SOL    HW1 7682   6.433   4.169   0.645
 2261SOL    HW2 7683   6.461   4.106   0.497
 2262SOL     OW 7684   6.575   0.458   3.783
 2262SOL    HW1 7685   6.484   0.416   3.780
 2262SOL    HW2 7686   6.587   0.504   3.870
 2263SOL     OW 7687   1.229   5.487   0.639
 2263SOL    HW1 7688   1.325   5.467   0.658
 2263SOL    HW2 7689   1.171   5.446   0.710
 2264SOL     OW 7690   2.959   6.822   6.769
 2264SOL    HW1 7691   2.863   6.819   6.797
 2264SOL    HW2 7692   3.004   6.900   6.811
 2265SOL     OW 7693   1.650   0.284   4.220
 2265SOL    HW1 7694   1.699   0.361   4.260
 2265SOL    HW2 7695   1.675   0.275   4.124
 2266SOL     OW 7696   5.148   1.001   6.093
 2266SOL    HW1 7697   5.115   1.012   6.000
 2266SOL    HW2 7698   5.245   1.026   6.098
 2267SOL     OW 7699   4.595   2.604   4.829
 2267SOL    HW1 7700   4.638   2.691   4.807
 2267SOL    HW2 7701   4.571   2.603   4.926
 2268SOL     OW 7702   5.845   4.351   6.680
 2268SOL    HW1 7703   5.864   4.398   6.766
 2268SOL    HW2 7704   5.755   4.376   6.647
 2269SOL     OW 7705   0.264   2.993   5.708
 2269SOL    HW1 7706   0.261   2.934   5.627
 2269SOL    HW2 7707   0.315   2.947   5.781
 2270SOL     OW 7708   4.438   3.084   5.886
 2270SOL    HW1 7709   4.437   3.135   5.972
 2270SOL    HW2 7710   4.368   3.121   5.824
 2271SOL     OW 7711   5.572   4.448   0.309
 2271SOL    HW1 7712   5.576   4.418   0.214
 2271SOL    HW2 7713   5.536   4.541   0.314
 2272SOL     OW 7714   6.660   1.362   6.471
 2272SOL    HW1 7715   6.641   1.329   6.564
 2272SOL    HW2 7716   6.576   1.356   6.416
 2273SOL     OW 7717   2.153   2.289   2.124
 2273SOL    HW1 7718   2.182   2.379   2.093
 2273SOL    HW2 7719   2.208   2.262   2.203
 2274SOL     OW 7720   0.514   1.975   6.963
 2274SOL    HW1 7721   0.502   2.036   6.885
 2274SOL    HW2 7722   0.436   1.985   0.006
 2275SOL     OW 7723   6.042   5.210   2.239
 2275SOL    HW1 7724   6.075   5.283   2.180
 2275SOL    HW2 7725   6.080   5.122   2.209
 2276SOL     OW 7726   1.753   0.228   1.351
 2276SOL    HW1 7727   1.794   0.160   1.411
 2276SOL    HW2 7728   1.810   0.240   1.270
 2277SOL     OW 7729   3.488   3.623   3.898
 2277SOL    HW1 7730   3.510   3.593   3.990
 2277SOL    HW2 7731   3.475   3.544   3.839
 2278SOL     OW 7732   0.165   2.824   4.274
 2278SOL    HW1 7733   0.129   2.910   4.238
 2278SOL    HW2 7734   0.096   2.779   4.331
 2279SOL     OW 7735   6.537   6.049   5.799
 2279SOL    HW1 7736   6.548   6.080   5.704
 2279SOL    HW2 7737   6.549   5.949   5.802
 2280SOL     OW 7738   6.066   0.541   5.298
 2280SOL    HW1 7739   6.149   0.582   5.335
 2280SOL    HW2 7740   6.020   0.489   5.371
 2281SOL     OW 7741   4.155   0.240   2.582
 2281SOL    HW1 7742   4.202   0.321   2.546
 2281SOL    HW2 7743   4.197   0.157   2.544
 2282SOL     OW 7744   4.827   5.882   5.179
 2282SOL    HW1 7745   4.791   5.833   5.100
 2282SOL    HW2 7746   4.766   5.868   5.258
 2283SOL     OW 7747   1.663   0.491   2.860
 2283SOL    HW1 7748   1.727   0.568   2.868
 2283SOL    HW2 7749   1.573   0.520   2.891
 2284SOL     OW 7750   0.603   3.103   5.558
 2284SOL    HW1 7751   0.693   3.090   5.515
 2284SOL    HW2 7752   0.602   3.056   5.646
 2285SOL     OW 7753   1.378   3.924   6.471
 2285SOL    HW1 7754   1.355   3.895   6.378
 2285SOL    HW2 7755   1.351   4.019   6.484
 2286SOL     OW 7756   5.289   6.637   2.988
 2286SOL    HW1 7757   5.330   6.565   2.931
 2286SOL    HW2 7758   5.232   6.696   2.930
 2287SOL     OW 7759   2.677   1.380   3.438
 2287SOL    HW1 7760   2.718   1.429   3.515
 2287SOL    HW2 7761   2.748   1.333   3.386
 2288SOL     OW 7762   0.666   4.981   4.010
 2288SOL    HW1 7763   0.725   5.057   3.983
 2288SOL    HW2 7764   0.723   4.901   4.032
 2289SOL     OW 7765   0.171   5.065   1.434
 2289SOL    HW1 7766   0.094   5.068   1.370
 2289SOL    HW2 7767   0.143   5.018   1.517
 2290SOL     OW 7768   1.001   4.110   0.936
 2290SOL    HW1 7769   0.975   4.159   0.853
 2290SOL    HW2 7770   1.016   4.176   1.010
 2291SOL     OW 7771   3.067   1.722   5.812
 2291SOL    HW1 7772   2.983   1.777   5.814
 2291SOL    HW2 7773   3.139   1.773   5.765
 2292SOL     OW 7774   1.147   1.128   4.976
 2292SOL    HW1 7775   1.048   1.125   4.962
 2292SOL    HW2 7776   1.167   1.120   5.074
 2293SOL     OW 7777   5.321   5.802   1.315
 2293SOL    HW1 7778   5.392   5.869   1.291
 2293SOL    HW2 7779   5.235   5.827   1.271
 2294SOL     OW 7780   3.749   6.855   0.393
 2294SOL    HW1 7781   3.773   6.759   0.381
 2294SOL    HW2 7782   3.656   6.862   0.429
 2295SOL     OW 7783   0.291   1.924   2.516
 2295SOL    HW1 7784   0.369   1.969   2.473
 2295SOL    HW2 7785   0.231   1.886   2.445
 2296SOL     OW 7786   3.489   0.498   0.817
 2296SOL    HW1 7787   3.503   0.511   0.719
 2296SOL    HW2 7788   3.413   0.435   0.832
 2297SOL     OW 7789   4.116   4.201   5.662
 2297SOL    HW1 7790   4.169   4.284   5.645
 2297SOL    HW2 7791   4.080   4.166   5.576
 2298SOL     OW 7792   3.868   2.454   0.823
 2298SOL    HW1 7793   3.805   2.407   0.762
 2298SOL    HW2 7794   3.818   2.521   0.878
 2299SOL     OW 7795   5.138   6.500   6.825
 2299SOL    HW1 7796   5.238   6.509   6.819
 2299SOL    HW2 7797   5.096   6.591   6.820
 2300SOL     OW 7798   1.612   5.458   1.369
 2300SOL    HW1 7799   1.613   5.359   1.381
 2300SOL    HW2 7800   1.693   5.498   1.412
 2301SOL     OW 7801   3.224   3.124   2.974
 2301SOL    HW1 7802   3.137   3.172   2.989
 2301SOL    HW2 7803   3.274   3.168   2.900
 2302SOL     OW 7804   4.138   6.285   2.654
 2302SOL    HW1 7805   4.150   6.258   2.749
 2302SOL    HW2 7806   4.165   6.380   2.642
 2303SOL     OW 7807   1.218   3.244   5.340
 2303SOL    HW1 7808   1.291   3.202   5.394
 2303SOL    HW2 7809   1.133   3.246   5.393
 2304SOL     OW 7810   2.643   0.184   3.338
 2304SOL    HW1 7811   2.738   0.212   3.326
 2304SOL    HW2 7812   2.639   0.084   3.350
 2305SOL     OW 7813   4.097   5.473   2.983
 2305SOL    HW1 7814   4.082   5.439   2.890
 2305SOL    HW2 7815   4.154   5.408   3.034
 2306SOL     OW 7816   2.200   4.841   1.606
 2306SOL    HW1 7817   2.186   4.933   1.569
 2306SOL    HW2 7818   2.114   4.791   1.605
 2307SOL     OW 7819   2.042   4.135   2.621
 2307SOL    HW1 7820   2.007   4.125   2.714
 2307SOL    HW2 7821   1.998   4.213   2.577
 2308SOL     OW 7822   0.544   0.852   6.218
 2308SOL    HW1 7823   0.562   0.873   6.122
 2308SOL    HW2 7824   0.453   0.886   6.243
 2309SOL     OW 7825   2.939   5.960   6.868
 2309SOL    HW1 7826   3.014   5.903   6.901
 2309SOL    HW2 7827   2.975   6.037   6.815
 2310SOL     OW 7828   6.601   6.545   1.447
 2310SOL    HW1 7829   6.612   6.457   1.400
 2310SOL    HW2 7830   6.536   6.534   1.522
 2311SOL     OW 7831   2.544   6.915   2.681
 2311SOL    HW1 7832   2.613   6.844   2.667
 2311SOL    HW2 7833   2.529   6.964   2.596
 2312SOL     OW 7834   2.826   6.705   3.267
 2312SOL    HW1 7835   2.867   6.718   3.177
 2312SOL    HW2 7836   2.877   6.635   3.317
 2313SOL     OW 7837   4.526   4.904   1.747
 2313SOL    HW1 7838   4.455   4.887   1.816
 2313SOL    HW2 7839   4.593   4.829   1.750
 2314SOL     OW 7840   6.314   0.668   3.323
 2314SOL    HW1 7841   6.349   0.623   3.404
 2314SOL    HW2 7842   6.342   0.618   3.241
 2315SOL     OW 7843   4.821   3.694   5.825
 2315SOL    HW1 7844   4.910   3.660   5.854
 2315SOL    HW2 7845   4.808   3.676   5.728
 2316SOL     OW 7846   2.473   1.124   5.828
 2316SOL    HW1 7847   2.447   1.191   5.758
 2316SOL    HW2 7848   2.446   1.159   5.918
 2317SOL     OW 7849   6.577   6.483   4.171
 2317SOL    HW1 7850   6.568   6.501   4.269
 2317SOL    HW2 7851   6.633   6.401   4.157
 2318SOL     OW 7852   2.081   3.611   4.504
 2318SOL    HW1 7853   2.151   3.545   4.530
 2318SOL    HW2 7854   2.029   3.639   4.585
 2319SOL     OW 7855   3.439   5.256   4.672
 2319SOL    HW1 7856   3.527   5.269   4.626
 2319SOL    HW2 7857   3.398   5.170   4.643
 2320SOL     OW 7858   1.364   2.577   5.887
 2320SOL    HW1 7859   1.367   2.671   5.920
 2320SOL    HW2 7860   1.324   2.576   5.795
 2321SOL     OW 7861   2.672   5.289   6.203
 2321SOL    HW1 7862   2.698   5.383   6.225
 2321SOL    HW2 7863   2.699   5.268   6.110
 2322SOL     OW 7864   2.134   4.171   2.129
 2322SOL    HW1 7865   2.042   4.177   2.167
 2322SOL    HW2 7866   2.200   4.206   2.196
 2323SOL     OW 7867   3.425   4.950   2.099
 2323SOL    HW1 7868   3.486   4.878   2.067
 2323SOL    HW2 7869   3.335   4.911   2.121
 2324SOL     OW 7870   0.211   6.232   1.594
 2324SOL    HW1 7871   0.140   6.226   1.524
 2324SOL    HW2 7872   0.234   6.140   1.625
 2325SOL     OW 7873   0.026   4.931   1.634
 2325SOL    HW1 7874   6.998   4.844   1.651
 2325SOL    HW2 7875   6.978   5.005   1.641
 2326SOL     OW 7876   1.755   5.969   6.475
 2326SOL    HW1 7877   1.728   6.052   6.426
 2326SOL    HW2 7878   1.731   5.978   6.572
 2327SOL     OW 7879   0.280   1.051   3.134
 2327SOL    HW1 7880   0.320   1.089   3.218
 2327SOL    HW2 7881   0.352   1.043   3.064
 2328SOL     OW 7882   1.354   2.072   2.397
 2328SOL    HW1 7883   1.407   2.084   2.481
 2328SOL    HW2 7884   1.413   2.087   2.318
 2329SOL     OW 7885   1.036   4.506   4.634
 2329SOL    HW1 7886   1.106   4.508   4.706
 2329SOL    HW2 7887   0.946   4.521   4.675
 2330SOL     OW 7888   0.346   2.766   0.420
 2330SOL    HW1 7889   0.318   2.858   0.392
 2330SOL    HW2 7890   0.266   2.707   0.427
 2331SOL     OW 7891   2.826   5.071   6.697
 2331SOL    HW1 7892   2.806   5.056   6.600
 2331SOL    HW2 7893   2.752   5.122   6.739
 2332SOL     OW 7894   6.667   0.238   6.140
 2332SOL    HW1 7895   6.757   0.208   6.109
 2332SOL    HW2 7896   6.652   0.206   6.234
 2333SOL     OW 7897   0.092   4.704   2.988
 2333SOL    HW1 7898   0.162   4.733   3.053
 2333SOL    HW2 7899   0.054   4.785   2.941
 2334SOL     OW 7900   1.069   1.666   6.685
 2334SOL    HW1 7901   1.152   1.646   6.633
 2334SOL    HW2 7902   1.007   1.720   6.630
 2335SOL     OW 7903   5.919   0.703   3.945
 2335SOL    HW1 7904   5.889   0.618   3.902
 2335SOL    HW2 7905   6.008   0.730   3.908
 2336SOL     OW 7906   2.828   1.616   3.954
 2336SOL    HW1 7907   2.803   1.701   4.000
 2336SOL    HW2 7908   2.760   1.546   3.973
 2337SOL     OW 7909   4.347   1.291   1.799
 2337SOL    HW1 7910   4.324   1.301   1.896
 2337SOL    HW2 7911   4.359   1.195   1.777
 2338SOL     OW 7912   0.672   3.152   4.672
 2338SOL    HW1 7913   0.691   3.241   4.630
 2338SOL    HW2 7914   0.624   3.094   4.606
 2339SOL     OW 7915   2.946   3.234   3.045
 2339SOL    HW1 7916   2.962   3.289   3.127
 2339SOL    HW2 7917   2.874   3.167   3.063
 2340SOL     OW 7918   0.418   4.615   0.185
 2340SOL    HW1 7919   0.396   4.626   0.282
 2340SOL    HW2 7920   0.512   4.644   0.168
 2341SOL     OW 7921   2.986   5.105   2.083
 2341SOL    HW1 7922   3.006   5.009   2.066
 2341SOL    HW2 7923   3.029   5.161   2.012
 2342SOL     OW 7924   1.857   6.821   4.544
 2342SOL    HW1 7925   1.952   6.843   4.569
 2342SOL    HW2 7926   1.847   6.722   4.535
 2343SOL     OW 7927   2.141   5.884   2.804
 2343SOL    HW1 7928   2.079   5.941   2.751
 2343SOL    HW2 7929   2.105   5.790   2.808
 2344SOL     OW 7930   7.013   6.209   6.788
 2344SOL    HW1 7931   6.958   6.257   6.719
 2344SOL    HW2 7932   0.080   6.180   6.746
 2345SOL     OW 7933   2.779   5.331   4.650
 2345SOL    HW1 7934   2.844   5.406   4.641
 2345SOL    HW2 7935   2.691   5.365   4.683
 2346SOL     OW 7936   3.864   3.380   5.693
 2346SOL    HW1 7937   3.845   3.301   5.751
 2346SOL    HW2 7938   3.788   3.445   5.701
 2347SOL     OW 7939   2.194   1.832   1.515
 2347SOL    HW1 7940   2.250   1.783   1.448
 2347SOL    HW2 7941   2.249   1.853   1.595
 2348SOL     OW 7942   2.043   6.221   4.000
 2348SOL    HW1 7943   1.976   6.163   4.045
 2348SOL    HW2 7944   2.066   6.183   3.911
 2349SOL     OW 7945   0.677   4.441   6.237
 2349SOL    HW1 7946   0.690   4.510   6.308
 2349SOL    HW2 7947   0.744   4.455   6.164
 2350SOL     OW 7948   6.052   5.089   6.086
 2350SOL    HW1 7949   6.070   5.009   6.028
 2350SOL    HW2 7950   6.037   5.170   6.029
 2351SOL     OW 7951   3.436   5.249   4.011
 2351SOL    HW1 7952   3.395   5.165   3.975
 2351SOL    HW2 7953   3.475   5.302   3.936
 2352SOL     OW 7954   0.191   2.910   2.970
 2352SOL    HW1 7955   0.122   2.868   2.912
 2352SOL    HW2 7956   0.258   2.841   2.998
 2353SOL     OW 7957   3.627   4.925   4.625
 2353SOL    HW1 7958   3.588   4.836   4.604
 2353SOL    HW2 7959   3.703   4.943   4.564
 2354SOL     OW 7960   2.240   2.301   4.637
 2354SOL    HW1 7961   2.259   2.364   4.712
 2354SOL    HW2 7962   2.290   2.330   4.555
 2355SOL     OW 7963   2.271   7.018   6.218
 2355SOL    HW1 7964   2.294   6.936   6.167
 2355SOL    HW2 7965   2.346   0.066   6.209
 2356SOL     OW 7966   1.479   2.834   6.317
 2356SOL    HW1 7967   1.494   2.737   6.333
 2356SOL    HW2 7968   1.381   2.853   6.316
 2357SOL     OW 7969   4.128   1.119   2.035
 2357SOL    HW1 7970   4.033   1.110   2.063
 2357SOL    HW2 7971   4.153   1.216   2.034
 2358SOL     OW 7972   2.837   5.473   5.369
 2358SOL    HW1 7973   2.758   5.412   5.364
 2358SOL    HW2 7974   2.919   5.423   5.343
 2359SOL     OW 7975   0.364   0.632   5.936
 2359SOL    HW1 7976   0.330   0.570   6.006
 2359SOL    HW2 7977   0.409   0.580   5.863
 2360SOL     OW 7978   5.850   3.537   0.001
 2360SOL    HW1 7979   5.817   3.569   0.090
 2360SOL    HW2 7980   5.800   3.585   6.947
 2361SOL     OW 7981   2.641   0.653   6.621
 2361SOL    HW1 7982   2.624   0.743   6.582
 2361SOL    HW2 7983   2.708   0.662   6.695
 2362SOL     OW 7984   2.739   5.899   4.020
 2362SOL    HW1 7985   2.657   5.843   4.030
 2362SOL    HW2 7986   2.807   5.871   4.088
 2363SOL     OW 7987   3.729   1.900   4.758
 2363SOL    HW1 7988   3.746   1.868   4.665
 2363SOL    HW2 7989   3.781   1.844   4.823
 2364SOL     OW 7990   1.360   2.778   2.479
 2364SOL    HW1 7991   1.341   2.770   2.381
 2364SOL    HW2 7992   1.452   2.743   2.498
 2365SOL     OW 7993   6.604   2.226   6.600
 2365SOL    HW1 7994   6.542   2.264   6.668
 2365SOL    HW2 7995   6.636   2.299   6.539
 2366SOL     OW 7996   2.259   5.846   6.835
 2366SOL    HW1 7997   2.350   5.816   6.806
 2366SOL    HW2 7998   2.244   5.819   6.930
 2367SOL     OW 7999   2.183   3.501   1.190
 2367SOL    HW1 8000   2.147   3.578   1.242
 2367SOL    HW2 8001   2.161   3.416   1.236
 2368SOL     OW 8002   5.211   6.401   4.751
 2368SOL    HW1 8003   5.147   6.334   4.787
 2368SOL    HW2 8004   5.232   6.470   4.821
 2369SOL     OW 8005   1.731   0.032   4.535
 2369SOL    HW1 8006   1.665   0.033   4.461
 2369SOL    HW2 8007   1.768   6.958   4.545
 2370SOL     OW 8008   5.513   3.429   6.918
 2370SOL    HW1 8009   5.583   3.388   6.860
 2370SOL    HW2 8010   5.426   3.381   6.903
 2371SOL     OW 8011   2.113   0.246   1.606
 2371SOL    HW1 8012   2.044   0.318   1.602
 2371SOL    HW2 8013   2.115   0.207   1.698
 2372SOL     OW 8014   6.620   2.692   2.164
 2372SOL    HW1 8015   6.684   2.716   2.237
 2372SOL    HW2 8016   6.570   2.773   2.136
 2373SOL     OW 8017   0.910   3.405   6.031
 2373SOL    HW1 8018   0.936   3.457   6.112
 2373SOL    HW2 8019   0.992   3.370   5.986
 2374SOL     OW 8020   6.224   1.529   4.293
 2374SOL    HW1 8021   6.196   1.528   4.197
 2374SOL    HW2 8022   6.244   1.435   4.323
 2375SOL     OW 8023   3.203   6.248   5.505
 2375SOL    HW1 8024   3.168   6.256   5.599
 2375SOL    HW2 8025   3.199   6.152   5.477
 2376SOL     OW 8026   6.819   3.115   4.215
 2376SOL    HW1 8027   6.781   3.035   4.169
 2376SOL    HW2 8028   6.800   3.110   4.313
 2377SOL     OW 8029   3.512   3.886   3.792
 2377SOL    HW1 8030   3.528   3.857   3.698
 2377SOL    HW2 8031   3.522   3.808   3.853
 2378SOL     OW 8032   5.095   2.063   0.120
 2378SOL    HW1 8033   5.008   2.064   0.072
 2378SOL    HW2 8034   5.165   2.107   0.063
 2379SOL     OW 8035   6.829   0.824   0.484
 2379SOL    HW1 8036   6.734   0.847   0.505
 2379SOL    HW2 8037   6.861   0.881   0.408
 2380SOL     OW 8038   0.250   1.931   0.041
 2380SOL    HW1 8039   0.185   2.002   0.070
 2380SOL    HW2 8040   0.220   1.892   6.973
 2381SOL     OW 8041   2.483   5.664   3.916
 2381SOL    HW1 8042   2.506   5.577   3.871
 2381SOL    HW2 8043   2.493   5.653   4.015
 2382SOL     OW 8044   1.826   3.771   4.442
 2382SOL    HW1 8045   1.792   3.837   4.508
 2382SOL    HW2 8046   1.926   3.777   4.437
 2383SOL     OW 8047   5.503   6.633   0.509
 2383SOL    HW1 8048   5.481   6.729   0.491
 2383SOL    HW2 8049   5.567   6.600   0.440
 2384SOL     OW 8050   5.729   1.008   2.837
 2384SOL    HW1 8051   5.695   1.012   2.743
 2384SOL    HW2 8052   5.722   0.915   2.871
 2385SOL     OW 8053   0.370   0.735   0.444
 2385SOL    HW1 8054   0.341   0.824   0.410
 2385SOL    HW2 8055   0.290   0.684   0.476
 2386SOL     OW 8056   5.177   5.887   5.053
 2386SOL    HW1 8057   5.091   5.897   5.104
 2386SOL    HW2 8058   5.210   5.793   5.062
 2387SOL     OW 8059   2.208   1.982   4.009
 2387SOL    HW1 8060   2.242   1.916   3.941
 2387SOL    HW2 8061   2.108   1.981   4.010
 2388SOL     OW 8062   6.886   2.218   3.865
 2388SOL    HW1 8063   6.823   2.147   3.895
 2388SOL    HW2 8064   6.953   2.236   3.937
 2389SOL     OW 8065   4.440   4.528   3.348
 2389SOL    HW1 8066   4.385   4.446   3.331
 2389SOL    HW2 8067   4.509   4.508   3.418
 2390SOL     OW 8068   3.611   3.169   4.147
 2390SOL    HW1 8069   3.705   3.204   4.142
 2390SOL    HW2 8070   3.612   3.076   4.184
 2391SOL     OW 8071   5.278   4.066   6.007
 2391SOL    HW1 8072   5.278   4.027   6.099
 2391SOL    HW2 8073   5.340   4.013   5.948
 2392SOL     OW 8074   3.122   6.220   5.759
 2392SOL    HW1 8075   3.022   6.224   5.758
 2392SOL    HW2 8076   3.157   6.266   5.840
 2393SOL     OW 8077   4.981   3.985   6.213
 2393SOL    HW1 8078   5.046   3.910   6.221
 2393SOL    HW2 8079   4.895   3.951   6.175
 2394SOL     OW 8080   1.003   3.971   4.939
 2394SOL    HW1 8081   1.058   3.956   4.856
 2394SOL    HW2 8082   1.010   3.892   4.999
 2395SOL     OW 8083   4.894   0.188   5.897
 2395SOL    HW1 8084   4.975   0.165   5.951
 2395SOL    HW2 8085   4.909   0.276   5.851
 2396SOL     OW 8086   3.901   4.818   1.115
 2396SOL    HW1 8087   3.962   4.740   1.099
 2396SOL    HW2 8088   3.833   4.822   1.042
 2397SOL     OW 8089   0.054   3.835   5.279
 2397SOL    HW1 8090   0.066   3.782   5.363
 2397SOL    HW2 8091   0.113   3.797   5.207
 2398SOL     OW 8092   4.684   4.203   6.621
 2398SOL    HW1 8093   4.758   4.157   6.572
 2398SOL    HW2 8094   4.649   4.278   6.565
 2399SOL     OW 8095   4.907   0.714   1.072
 2399SOL    HW1 8096   4.833   0.725   1.006
 2399SOL    HW2 8097   4.884   0.765   1.155
 2400SOL     OW 8098   2.951   4.429   1.242
 2400SOL    HW1 8099   2.931   4.335   1.270
 2400SOL    HW2 8100   2.878   4.489   1.272
 2401SOL     OW 8101   5.371   6.270   0.376
 2401SOL    HW1 8102   5.407   6.178   0.390
 2401SOL    HW2 8103   5.280   6.265   0.335
 2402SOL     OW 8104   0.611   0.415   3.935
 2402SOL    HW1 8105   0.570   0.391   3.847
 2402SOL    HW2 8106   0.670   0.341   3.966
 2403SOL     OW 8107   2.122   2.020   6.264
 2403SOL    HW1 8108   2.092   1.950   6.200
 2403SOL    HW2 8109   2.085   2.109   6.237
 2404SOL     OW 8110   2.839   0.756   1.056
 2404SOL    HW1 8111   2.816   0.847   1.022
 2404SOL    HW2 8112   2.934   0.755   1.088
 2405SOL     OW 8113   3.494   3.484   2.230
 2405SOL    HW1 8114   3.474   3.541   2.311
 2405SOL    HW2 8115   3.446   3.521   2.151
 2406SOL     OW 8116   3.465   0.239   1.304
 2406SOL    HW1 8117   3.516   0.325   1.291
 2406SOL    HW2 8118   3.446   0.198   1.215
 2407SOL     OW 8119   5.981   1.712   2.978
 2407SOL    HW1 8120   5.907   1.652   3.008
 2407SOL    HW2 8121   6.047   1.723   3.052
 2408SOL     OW 8122   4.484   4.508   2.436
 2408SOL    HW1 8123   4.493   4.494   2.337
 2408SOL    HW2 8124   4.483   4.606   2.456
 2409SOL     OW 8125   2.263   4.716   2.316
 2409SOL    HW1 8126   2.340   4.660   2.285
 2409SOL    HW2 8127   2.261   4.801   2.263
 2410SOL     OW 8128   4.049   3.149   5.376
 2410SOL    HW1 8129   4.013   3.146   5.283
 2410SOL    HW2 8130   4.148   3.142   5.374
 2411SOL     OW 8131   5.075   6.223   4.190
 2411SOL    HW1 8132   5.103   6.276   4.110
 2411SOL    HW2 8133   5.102   6.270   4.274
 2412SOL     OW 8134   5.865   4.417   1.703
 2412SOL    HW1 8135   5.776   4.410   1.746
 2412SOL    HW2 8136   5.866   4.364   1.618
 2413SOL     OW 8137   6.522   0.878   0.914
 2413SOL    HW1 8138   6.515   0.904   1.011
 2413SOL    HW2 8139   6.563   0.787   0.907
 2414SOL     OW 8140   4.785   3.963   3.182
 2414SOL    HW1 8141   4.786   3.977   3.083
 2414SOL    HW2 8142   4.817   3.870   3.203
 2415SOL     OW 8143   6.116   1.364   3.215
 2415SOL    HW1 8144   6.102   1.463   3.212
 2415SOL    HW2 8145   6.091   1.324   3.127
 2416SOL     OW 8146   4.493   2.123   5.128
 2416SOL    HW1 8147   4.461   2.161   5.041
 2416SOL    HW2 8148   4.512   2.026   5.117
 2417SOL     OW 8149   3.641   3.892   4.747
 2417SOL    HW1 8150   3.721   3.896   4.687
 2417SOL    HW2 8151   3.654   3.822   4.817
 2418SOL     OW 8152   4.038   3.287   4.341
 2418SOL    HW1 8153   4.020   3.192   4.316
 2418SOL    HW2 8154   4.043   3.343   4.259
 2419SOL     OW 8155   0.354   6.646   3.754
 2419SOL    HW1 8156   0.273   6.703   3.744
 2419SOL    HW2 8157   0.327   6.552   3.776
 2420SOL     OW 8158   3.001   0.256   3.093
 2420SOL    HW1 8159   3.026   0.198   3.016
 2420SOL    HW2 8160   2.958   0.201   3.164
 2421SOL     OW 8161   2.225   2.474   4.843
 2421SOL    HW1 8162   2.249   2.458   4.939
 2421SOL    HW2 8163   2.132   2.508   4.837
 2422SOL     OW 8164   5.053   1.888   0.426
 2422SOL    HW1 8165   4.971   1.850   0.384
 2422SOL    HW2 8166   5.125   1.898   0.357
 2423SOL     OW 8167   1.810   6.189   2.042
 2423SOL    HW1 8168   1.903   6.172   2.010
 2423SOL    HW2 8169   1.766   6.255   1.981
 2424SOL     OW 8170   6.525   6.859   0.220
 2424SOL    HW1 8171   6.573   6.774   0.242
 2424SOL    HW2 8172   6.431   6.853   0.252
 2425SOL     OW 8173   5.814   0.488   3.795
 2425SOL    HW1 8174   5.825   0.440   3.708
 2425SOL    HW2 8175   5.731   0.455   3.840
 2426SOL     OW 8176   1.376   5.342   5.574
 2426SOL    HW1 8177   1.449   5.385   5.520
 2426SOL    HW2 8178   1.343   5.261   5.526
 2427SOL     OW 8179   5.628   5.922   6.129
 2427SOL    HW1 8180   5.696   5.909   6.202
 2427SOL    HW2 8181   5.651   6.005   6.077
 2428SOL     OW 8182   0.247   0.620   1.928
 2428SOL    HW1 8183   0.177   0.681   1.965
 2428SOL    HW2 8184   0.211   0.572   1.848
 2429SOL     OW 8185   5.258   5.827   1.852
 2429SOL    HW1 8186   5.217   5.869   1.771
 2429SOL    HW2 8187   5.355   5.849   1.856
 2430SOL     OW 8188   6.152   1.181   2.039
 2430SOL    HW1 8189   6.128   1.204   1.944
 2430SOL    HW2 8190   6.092   1.109   2.072
 2431SOL     OW 8191   4.124   1.073   2.358
 2431SOL    HW1 8192   4.151   1.130   2.436
 2431SOL    HW2 8193   4.172   1.104   2.276
 2432SOL     OW 8194   4.450   6.780   2.167
 2432SOL    HW1 8195   4.358   6.798   2.201
 2432SOL    HW2 8196   4.458   6.683   2.143
 2433SOL     OW 8197   4.421   1.730   0.161
 2433SOL    HW1 8198   4.470   1.692   0.240
 2433SOL    HW2 8199   4.397   1.825   0.180
 2434SOL     OW 8200   3.772   1.032   5.817
 2434SOL    HW1 8201   3.798   1.002   5.725
 2434SOL    HW2 8202   3.851   1.025   5.877
 2435SOL     OW 8203   5.014   5.511   5.358
 2435SOL    HW1 8204   5.079   5.458   5.412
 2435SOL    HW2 8205   4.992   5.596   5.406
 2436SOL     OW 8206   1.838   5.878   6.202
 2436SOL    HW1 8207   1.821   5.918   6.292
 2436SOL    HW2 8208   1.935   5.854   6.194
 2437SOL     OW 8209   5.715   6.805   6.033
 2437SOL    HW1 8210   5.735   6.781   5.938
 2437SOL    HW2 8211   5.658   6.734   6.074
 2438SOL     OW 8212   3.269   2.226   0.706
 2438SOL    HW1 8213   3.175   2.225   0.741
 2438SOL    HW2 8214   3.312   2.313   0.730
 2439SOL     OW 8215   7.016   4.299   6.218
 2439SOL    HW1 8216   6.963   4.304   6.134
 2439SOL    HW2 8217   6.963   4.336   6.294
 2440SOL     OW 8218   5.047   5.479   5.665
 2440SOL    HW1 8219   4.991   5.561   5.649
 2440SOL    HW2 8220   5.007   5.425   5.739
 2441SOL     OW 8221   6.885   2.210   0.744
 2441SOL    HW1 8222   6.840   2.235   0.830
 2441SOL    HW2 8223   6.852   2.270   0.671
 2442SOL     OW 8224   0.984   3.707   5.036
 2442SOL    HW1 8225   1.082   3.698   5.056
 2442SOL    HW2 8226   0.935   3.629   5.076
 2443SOL     OW 8227   2.919   3.900   6.512
 2443SOL    HW1 8228   2.932   3.864   6.419
 2443SOL    HW2 8229   2.941   3.828   6.578
 2444SOL     OW 8230   2.200   4.438   5.950
 2444SOL    HW1 8231   2.279   4.380   5.932
 2444SOL    HW2 8232   2.157   4.412   6.036
 2445SOL     OW 8233   0.000   0.975   0.679
 2445SOL    HW1 8234   6.932   0.937   0.710
 2445SOL    HW2 8235   7.002   1.049   0.613
 2446SOL     OW 8236   5.876   4.068   4.701
 2446SOL    HW1 8237   5.801   4.080   4.767
 2446SOL    HW2 8238   5.938   3.997   4.733
 2447SOL     OW 8239   1.609   2.117   0.095
 2447SOL    HW1 8240   1.523   2.130   0.146
 2447SOL    HW2 8241   1.599   2.039   0.034
 2448SOL     OW 8242   0.632   0.055   4.671
 2448SOL    HW1 8243   0.554   0.032   4.613
 2448SOL    HW2 8244   0.703   0.099   4.617
 2449SOL     OW 8245   0.272   3.646   6.993
 2449SOL    HW1 8246   0.178   3.678   7.001
 2449SOL    HW2 8247   0.274   3.563   6.937
 2450SOL     OW 8248   2.802   4.787   2.769
 2450SOL    HW1 8249   2.818   4.768   2.673
 2450SOL    HW2 8250   2.716   4.744   2.798
 2451SOL     OW 8251   2.099   6.478   3.810
 2451SOL    HW1 8252   2.144   6.397   3.848
 2451SOL    HW2 8253   2.140   6.560   3.850
 2452SOL     OW 8254   1.093   3.236   2.804
 2452SOL    HW1 8255   1.027   3.175   2.846
 2452SOL    HW2 8256   1.050   3.324   2.786
 2453SOL     OW 8257   6.551   5.066   1.938
 2453SOL    HW1 8258   6.623   5.001   1.961
 2453SOL    HW2 8259   6.497   5.030   1.862
 2454SOL     OW 8260   3.442   0.324   1.817
 2454SOL    HW1 8261   3.441   0.288   1.723
 2454SOL    HW2 8262   3.383   0.404   1.823
 2455SOL     OW 8263   5.181   5.714   0.773
 2455SOL    HW1 8264   5.093   5.760   0.775
 2455SOL    HW2 8265   5.243   5.756   0.839
 2456SOL     OW 8266   5.009   6.247   1.991
 2456SOL    HW1 8267   4.917   6.212   1.972
 2456SOL    HW2 8268   5.077   6.187   1.948
 2457SOL     OW 8269   5.194   0.200   1.349
 2457SOL    HW1 8270   5.135   0.280   1.359
 2457SOL    HW2 8271   5.146   0.129   1.297
 2458SOL     OW 8272   1.840   5.621   2.630
 2458SOL    HW1 8273   1.893   5.538   2.615
 2458SOL    HW2 8274   1.751   5.613   2.586
 2459SOL     OW 8275   2.442   0.722   0.653
 2459SOL    HW1 8276   2.404   0.659   0.586
 2459SOL    HW2 8277   2.469   0.807   0.608
 2460SOL     OW 8278   3.244   5.875   1.631
 2460SOL    HW1 8279   3.299   5.797   1.660
 2460SOL    HW2 8280   3.204   5.856   1.541
 2461SOL     OW 8281   5.539   0.419   1.997
 2461SOL    HW1 8282   5.450   0.433   1.952
 2461SOL    HW2 8283   5.611   0.461   1.942
 2462SOL     OW 8284   2.251   5.258   6.526
 2462SOL    HW1 8285   2.170   5.292   6.479
 2462SOL    HW2 8286   2.225   5.189   6.594
 2463SOL     OW 8287   6.279   1.891   3.454
 2463SOL    HW1 8288   6.310   1.936   3.370
 2463SOL    HW2 8289   6.358   1.866   3.509
 2464SOL     OW 8290   0.889   3.260   1.013
 2464SOL    HW1 8291   0.930   3.279   1.102
 2464SOL    HW2 8292   0.914   3.332   0.949
 2465SOL     OW 8293   6.963   5.796   3.279
 2465SOL    HW1 8294   6.927   5.861   3.213
 2465SOL    HW2 8295   0.023   5.836   3.326
 2466SOL     OW 8296   3.824   1.710   2.258
 2466SOL    HW1 8297   3.747   1.768   2.287
 2466SOL    HW2 8298   3.898   1.768   2.224
 2467SOL     OW 8299   6.827   0.886   6.110
 2467SOL    HW1 8300   6.836   0.922   6.017
 2467SOL    HW2 8301   6.788   0.794   6.106
 2468SOL     OW 8302   6.935   5.491   1.089
 2468SOL    HW1 8303   6.990   5.449   1.017
 2468SOL    HW2 8304   6.844   5.449   1.092
 2469SOL     OW 8305   2.574   3.180   5.645
 2469SOL    HW1 8306   2.514   3.179   5.725
 2469SOL    HW2 8307   2.520   3.162   5.563
 2470SOL     OW 8308   4.937   3.248   6.703
 2470SOL    HW1 8309   4.959   3.252   6.800
 2470SOL    HW2 8310   5.021   3.229   6.651
 2471SOL     OW 8311   0.884   6.970   2.854
 2471SOL    HW1 8312   0.894   7.003   2.948
 2471SOL    HW2 8313   0.955   6.903   2.835
 2472SOL     OW 8314   5.219   1.864   4.223
 2472SOL    HW1 8315   5.308   1.909   4.224
 2472SOL    HW2 8316   5.195   1.837   4.130
 2473SOL     OW 8317   0.698   6.074   4.815
 2473SOL    HW1 8318   0.721   5.988   4.860
 2473SOL    HW2 8319   0.760   6.088   4.737
 2474SOL     OW 8320   6.767   4.331   5.265
 2474SOL    HW1 8321   6.672   4.347   5.236
 2474SOL    HW2 8322   6.768   4.263   5.338
 2475SOL     OW 8323   4.890   2.437   0.238
 2475SOL    HW1 8324   4.940   2.512   0.195
 2475SOL    HW2 8325   4.860   2.372   0.167
 2476SOL     OW 8326   1.140   1.993   4.033
 2476SOL    HW1 8327   1.208   2.032   3.970
 2476SOL    HW2 8328   1.161   2.021   4.126
 2477SOL     OW 8329   4.744   5.140   1.061
 2477SOL    HW1 8330   4.804   5.188   0.997
 2477SOL    HW2 8331   4.788   5.056   1.093
 2478SOL     OW 8332   6.449   6.995   2.946
 2478SOL    HW1 8333   6.448   6.911   3.000
 2478SOL    HW2 8334   6.537   7.003   2.899
 2479SOL     OW 8335   0.134   2.955   0.601
 2479SOL    HW1 8336   0.201   2.906   0.656
 2479SOL    HW2 8337   0.094   3.029   0.654
 2480SOL     OW 8338   0.761   3.495   1.285
 2480SOL    HW1 8339   0.666   3.471   1.265
 2480SOL    HW2 8340   0.794   3.563   1.219
 2481SOL     OW 8341   4.317   5.047   2.049
 2481SOL    HW1 8342   4.413   5.076   2.047
 2481SOL    HW2 8343   4.303   4.976   1.980
 2482SOL     OW 8344   4.874   2.450   4.877
 2482SOL    HW1 8345   4.900   2.539   4.913
 2482SOL    HW2 8346   4.851   2.459   4.780
 2483SOL     OW 8347   0.698   2.220   6.701
 2483SOL    HW1 8348   0.770   2.151   6.701
 2483SOL    HW2 8349   0.639   2.206   6.622
 2484SOL     OW 8350   3.442   1.956   6.959
 2484SOL    HW1 8351   3.421   1.884   0.006
 2484SOL    HW2 8352   3.427   2.045   7.002
 2485SOL     OW 8353   0.296   5.620   2.046
 2485SOL    HW1 8354   0.258   5.543   2.097
 2485SOL    HW2 8355   0.225   5.660   1.988
 2486SOL     OW 8356   1.772   5.496   3.102
 2486SOL    HW1 8357   1.718   5.580   3.096
 2486SOL    HW2 8358   1.748   5.446   3.185
 2487SOL     OW 8359   3.645   0.746   0.890
 2487SOL    HW1 8360   3.606   0.760   0.799
 2487SOL    HW2 8361   3.596   0.801   0.957
 2488SOL     OW 8362   3.237   5.898   0.756
 2488SOL    HW1 8363   3.336   5.902   0.745
 2488SOL    HW2 8364   3.193   5.958   0.690
 2489SOL     OW 8365   0.864   5.420   4.674
 2489SOL    HW1 8366   0.961   5.446   4.680
 2489SOL    HW2 8367   0.817   5.483   4.612
 2490SOL     OW 8368   5.213   3.123   1.362
 2490SOL    HW1 8369   5.189   3.062   1.286
 2490SOL    HW2 8370   5.132   3.172   1.393
 2491SOL     OW 8371   2.576   4.934   2.016
 2491SOL    HW1 8372   2.550   4.956   1.922
 2491SOL    HW2 8373   2.564   4.835   2.031
 2492SOL     OW 8374   4.360   3.371   6.498
 2492SOL    HW1 8375   4.452   3.411   6.490
 2492SOL    HW2 8376   4.367   3.282   6.543
 2493SOL     OW 8377   6.519   1.678   3.509
 2493SOL    HW1 8378   6.464   1.627   3.575
 2493SOL    HW2 8379   6.481   1.664   3.417
 2494SOL     OW 8380   4.983   3.648   2.356
 2494SOL    HW1 8381   5.059   3.653   2.292
 2494SOL    HW2 8382   4.897   3.636   2.304
 2495SOL     OW 8383   5.637   0.898   4.885
 2495SOL    HW1 8384   5.575   0.822   4.863
 2495SOL    HW2 8385   5.694   0.918   4.805
 2496SOL     OW 8386   1.563   6.406   0.385
 2496SOL    HW1 8387   1.613   6.405   0.471
 2496SOL    HW2 8388   1.624   6.435   0.311
 2497SOL     OW 8389   5.765   1.675   5.917
 2497SOL    HW1 8390   5.743   1.679   6.015
 2497SOL    HW2 8391   5.707   1.739   5.868
 2498SOL     OW 8392   1.986   3.496   5.108
 2498SOL    HW1 8393   1.921   3.511   5.182
 2498SOL    HW2 8394   2.050   3.573   5.103
 2499SOL     OW 8395   5.850   6.890   5.072
 2499SOL    HW1 8396   5.910   6.970   5.078
 2499SOL    HW2 8397   5.796   6.883   5.155
 2500SOL     OW 8398   4.464   3.344   6.786
 2500SOL    HW1 8399   4.394   3.286   6.827
 2500SOL    HW2 8400   4.524   3.289   6.728
 2501SOL     OW 8401   0.067   4.087   6.870
 2501SOL    HW1 8402   0.068   4.172   6.818
 2501SOL    HW2 8403   0.061   4.108   6.968
 2502SOL     OW 8404   1.987   6.103   3.194
 2502SOL    HW1 8405   2.057   6.055   3.246
 2502SOL    HW2 8406   2.030   6.154   3.119
 2503SOL     OW 8407   4.481   5.017   5.022
 2503SOL    HW1 8408   4.552   5.056   5.081
 2503SOL    HW2 8409   4.524   4.976   4.941
 2504SOL     OW 8410   1.683   4.170   4.267
 2504SOL    HW1 8411   1.615   4.203   4.331
 2504SOL    HW2 8412   1.668   4.210   4.176
 2505SOL     OW 8413   4.741   5.653   4.006
 2505SOL    HW1 8414   4.725   5.657   3.908
 2505SOL    HW2 8415   4.808   5.582   4.026
 2506SOL     OW 8416   0.388   2.199   6.606
 2506SOL    HW1 8417   0.372   2.202   6.705
 2506SOL    HW2 8418   0.421   2.108   6.580
 2507SOL     OW 8419   6.636   6.009   0.449
 2507SOL    HW1 8420   6.646   6.102   0.483
 2507SOL    HW2 8421   6.677   6.002   0.358
 2508SOL     OW 8422   2.470   2.562   2.600
 2508SOL    HW1 8423   2.507   2.493   2.538
 2508SOL    HW2 8424   2.495   2.538   2.694
 2509SOL     OW 8425   4.802   2.894   3.368
 2509SOL    HW1 8426   4.828   2.986   3.397
 2509SOL    HW2 8427   4.881   2.834   3.371
 2510SOL     OW 8428   4.023   5.870   0.735
 2510SOL    HW1 8429   3.980   5.959   0.720
 2510SOL    HW2 8430   4.103   5.860   0.676
 2511SOL     OW 8431   1.717   0.120   4.792
 2511SOL    HW1 8432   1.736   0.106   4.694
 2511SOL    HW2 8433   1.659   0.045   4.825
 2512SOL     OW 8434   4.924   3.141   4.808
 2512SOL    HW1 8435   5.020   3.115   4.802
 2512SOL    HW2 8436   4.904   3.213   4.741
 2513SOL     OW 8437   0.584   3.310   0.415
 2513SOL    HW1 8438   0.555   3.351   0.329
 2513SOL    HW2 8439   0.514   3.325   0.485
 2514SOL     OW 8440   1.781   1.096   3.633
 2514SOL    HW1 8441   1.847   1.022   3.629
 2514SOL    HW2 8442   1.819   1.177   3.589
 2515SOL     OW 8443   0.613   5.200   0.486
 2515SOL    HW1 8444   0.576   5.281   0.441
 2515SOL    HW2 8445   0.606   5.122   0.424
 2516SOL     OW 8446   5.147   6.308   3.909
 2516SOL    HW1 8447   5.107   6.228   3.865
 2516SOL    HW2 8448   5.087   6.387   3.896
 2517SOL     OW 8449   2.172   4.851   0.230
 2517SOL    HW1 8450   2.201   4.825   0.138
 2517SOL    HW2 8451   2.090   4.800   0.255
 2518SOL     OW 8452   2.406   2.231   6.686
 2518SOL    HW1 8453   2.465   2.197   6.613
 2518SOL    HW2 8454   2.458   2.294   6.744
 2519SOL     OW 8455   4.842   4.081   4.532
 2519SOL    HW1 8456   4.872   3.988   4.551
 2519SOL    HW2 8457   4.901   4.145   4.581
 2520SOL     OW 8458   2.103   4.518   2.386
 2520SOL    HW1 8459   2.148   4.607   2.381
 2520SOL    HW2 8460   2.166   4.447   2.353
 2521SOL     OW 8461   5.539   6.512   5.079
 2521SOL    HW1 8462   5.562   6.609   5.072
 2521SOL    HW2 8463   5.612   6.464   5.127
 2522SOL     OW 8464   1.373   2.806   4.809
 2522SOL    HW1 8465   1.284   2.839   4.775
 2522SOL    HW2 8466   1.417   2.877   4.863
 2523SOL     OW 8467   0.508   2.967   6.544
 2523SOL    HW1 8468   0.473   2.997   6.633
 2523SOL    HW2 8469   0.590   2.912   6.557
 2524SOL     OW 8470   1.035   0.012   4.823
 2524SOL    HW1 8471   0.953   0.069   4.825
 2524SOL    HW2 8472   1.096   0.038   4.898
 2525SOL     OW 8473   1.393   3.663   3.117
 2525SOL    HW1 8474   1.314   3.605   3.097
 2525SOL    HW2 8475   1.406   3.728   3.041
 2526SOL     OW 8476   6.666   1.042   5.295
 2526SOL    HW1 8477   6.712   1.092   5.368
 2526SOL    HW2 8478   6.722   0.964   5.266
 2527SOL     OW 8479   5.818   6.408   4.098
 2527SOL    HW1 8480   5.866   6.438   4.180
 2527SOL    HW2 8481   5.730   6.456   4.092
 2528SOL     OW 8482   6.409   5.874   0.213
 2528SOL    HW1 8483   6.318   5.877   0.172
 2528SOL    HW2 8484   6.401   5.874   0.313
 2529SOL     OW 8485   4.913   3.770   4.635
 2529SOL    HW1 8486   4.977   3.827   4.687
 2529SOL    HW2 8487   4.898   3.683   4.684
 2530SOL     OW 8488   0.107   0.918   4.582
 2530SOL    HW1 8489   0.036   0.981   4.614
 2530SOL    HW2 8490   0.191   0.934   4.633
 2531SOL     OW 8491   4.404   1.674   6.306
 2531SOL    HW1 8492   4.353   1.590   6.289
 2531SOL    HW2 8493   4.342   1.752   6.304
 2532SOL     OW 8494   1.738   4.803   6.559
 2532SOL    HW1 8495   1.750   4.704   6.555
 2532SOL    HW2 8496   1.642   4.824   6.574
 2533SOL     OW 8497   5.938   6.571   5.602
 2533SOL    HW1 8498   6.010   6.508   5.631
 2533SOL    HW2 8499   5.979   6.650   5.556
 2534SOL     OW 8500   0.807   2.559   4.022
 2534SOL    HW1 8501   0.853   2.472   4.040
 2534SOL    HW2 8502   0.875   2.628   3.997
 2535SOL     OW 8503   2.117   1.033   2.897
 2535SOL    HW1 8504   2.039   1.095   2.893
 2535SOL    HW2 8505   2.088   0.942   2.865
 2536SOL     OW 8506   5.902   1.090   4.003
 2536SOL    HW1 8507   5.845   1.027   3.951
 2536SOL    HW2 8508   5.896   1.181   3.963
 2537SOL     OW 8509   4.584   5.288   1.237
 2537SOL    HW1 8510   4.647   5.244   1.173
 2537SOL    HW2 8511   4.634   5.354   1.292
 2538SOL     OW 8512   2.422   4.549   4.974
 2538SOL    HW1 8513   2.417   4.450   4.972
 2538SOL    HW2 8514   2.348   4.585   5.030
 2539SOL     OW 8515   2.897   7.008   5.036
 2539SOL    HW1 8516   2.915   6.955   5.119
 2539SOL    HW2 8517   2.799   0.001   5.025
 2540SOL     OW 8518   5.781   2.326   2.190
 2540SOL    HW1 8519   5.769   2.240   2.141
 2540SOL    HW2 8520   5.863   2.319   2.248
 2541SOL     OW 8521   1.182   6.457   5.951
 2541SOL    HW1 8522   1.131   6.417   5.875
 2541SOL    HW2 8523   1.135   6.539   5.983
 2542SOL     OW 8524   3.709   2.085   4.198
 2542SOL    HW1 8525   3.800   2.085   4.157
 2542SOL    HW2 8526   3.715   2.109   4.295
 2543SOL     OW 8527   0.682   1.885   4.273
 2543SOL    HW1 8528   0.598   1.939   4.283
 2543SOL    HW2 8529   0.749   1.938   4.221
 2544SOL     OW 8530   6.366   5.945   2.042
 2544SOL    HW1 8531   6.344   5.848   2.039
 2544SOL    HW2 8532   6.445   5.964   1.984
 2545SOL     OW 8533   0.207   1.573   1.406
 2545SOL    HW1 8534   0.185   1.588   1.309
 2545SOL    HW2 8535   0.198   1.659   1.456
 2546SOL     OW 8536   6.978   4.379   2.707
 2546SOL    HW1 8537   6.951   4.416   2.796
 2546SOL    HW2 8538   6.902   4.327   2.668
 2547SOL     OW 8539   6.036   3.373   1.107
 2547SOL    HW1 8540   6.052   3.380   1.008
 2547SOL    HW2 8541   6.120   3.345   1.152
 2548SOL     OW 8542   0.100   6.499   5.574
 2548SOL    HW1 8543   0.043   6.544   5.643
 2548SOL    HW2 8544   0.159   6.567   5.531
 2549SOL     OW 8545   2.596   2.139   0.491
 2549SOL    HW1 8546   2.585   2.203   0.415
 2549SOL    HW2 8547   2.693   2.131   0.515
 2550SOL     OW 8548   4.006   6.675   6.216
 2550SOL    HW1 8549   4.060   6.601   6.255
 2550SOL    HW2 8550   3.935   6.637   6.157
 2551SOL     OW 8551   3.591   5.189   0.413
 2551SOL    HW1 8552   3.634   5.272   0.448
 2551SOL    HW2 8553   3.599   5.116   0.481
 2552SOL     OW 8554   2.485   5.947   0.899
 2552SOL    HW1 8555   2.513   5.926   0.993
 2552SOL    HW2 8556   2.475   6.046   0.888
 2553SOL     OW 8557   4.632   1.390   6.854
 2553SOL    HW1 8558   4.722   1.418   6.887
 2553SOL    HW2 8559   4.621   1.421   6.760
 2554SOL     OW 8560   1.733   6.111   1.729
 2554SOL    HW1 8561   1.782   6.191   1.695
 2554SOL    HW2 8562   1.688   6.134   1.815
 2555SOL     OW 8563   5.527   6.232   4.988
 2555SOL    HW1 8564   5.509   6.327   5.014
 2555SOL    HW2 8565   5.441   6.184   4.971
 2556SOL     OW 8566   4.135   0.610   0.809
 2556SOL    HW1 8567   4.199   0.580   0.880
 2556SOL    HW2 8568   4.046   0.632   0.851
 2557SOL     OW 8569   3.545   0.240   0.066
 2557SOL    HW1 8570   3.468   0.303   0.071
 2557SOL    HW2 8571   3.614   0.277   0.004
 2558SOL     OW 8572   5.453   3.812   6.348
 2558SOL    HW1 8573   5.371   3.767   6.315
 2558SOL    HW2 8574   5.533   3.773   6.303
 2559SOL     OW 8575   1.077   4.634   5.062
 2559SOL    HW1 8576   1.087   4.728   5.029
 2559SOL    HW2 8577   0.990   4.626   5.111
 2560SOL     OW 8578   5.199   2.323   3.291
 2560SOL    HW1 8579   5.268   2.352   3.224
 2560SOL    HW2 8580   5.112   2.306   3.244
 2561SOL     OW 8581   3.519   0.349   4.234
 2561SOL    HW1 8582   3.600   0.372   4.288
 2561SOL    HW2 8583   3.492   0.428   4.179
 2562SOL     OW 8584   4.075   6.724   3.577
 2562SOL    HW1 8585   4.037   6.643   3.622
 2562SOL    HW2 8586   4.117   6.784   3.645
 2563SOL     OW 8587   3.560   1.378   0.204
 2563SOL    HW1 8588   3.607   1.441   0.266
 2563SOL    HW2 8589   3.621   1.352   0.129
 2564SOL     OW 8590   2.128   1.685   0.710
 2564SOL    HW1 8591   2.079   1.603   0.740
 2564SOL    HW2 8592   2.225   1.674   0.730
 2565SOL     OW 8593   1.305   1.953   6.948
 2565SOL    HW1 8594   1.295   2.050   6.972
 2565SOL    HW2 8595   1.292   1.941   6.850
 2566SOL     OW 8596   2.549   0.918   1.011
 2566SOL    HW1 8597   2.536   0.821   0.992
 2566SOL    HW2 8598   2.565   0.967   0.926
 2567SOL     OW 8599   1.858   0.408   0.250
 2567SOL    HW1 8600   1.841   0.488   0.193
 2567SOL    HW2 8601   1.864   0.437   0.346
 2568SOL     OW 8602   3.014   6.287   1.070
 2568SOL    HW1 8603   2.939   6.276   1.005
 2568SOL    HW2 8604   3.020   6.383   1.099
 2569SOL     OW 8605   1.117   0.270   1.442
 2569SOL    HW1 8606   1.163   0.185   1.416
 2569SOL    HW2 8607   1.035   0.282   1.386
 2570SOL     OW 8608   6.143   6.748   5.785
 2570SOL    HW1 8609   6.240   6.770   5.775
 2570SOL    HW2 8610   6.089   6.831   5.771
 2571SOL     OW 8611   3.691   3.356   4.408
 2571SOL    HW1 8612   3.606   3.319   4.372
 2571SOL    HW2 8613   3.747   3.390   4.333
 2572SOL     OW 8614   2.028   6.876   1.845
 2572SOL    HW1 8615   2.109   6.828   1.811
 2572SOL    HW2 8616   1.973   6.906   1.767
 2573SOL     OW 8617   0.263   2.359   4.373
 2573SOL    HW1 8618   0.261   2.267   4.414
 2573SOL    HW2 8619   0.170   2.387   4.349
 2574SOL     OW 8620   0.794   3.522   1.815
 2574SOL    HW1 8621   0.822   3.426   1.810
 2574SOL    HW2 8622   0.872   3.581   1.796
 2575SOL     OW 8623   6.203   3.839   0.306
 2575SOL    HW1 8624   6.230   3.750   0.343
 2575SOL    HW2 8625   6.216   3.839   0.207
 2576SOL     OW 8626   1.743   0.049   3.541
 2576SOL    HW1 8627   1.824   0.102   3.516
 2576SOL    HW2 8628   1.745   0.030   3.639
 2577SOL     OW 8629   2.444   6.330   2.108
 2577SOL    HW1 8630   2.520   6.390   2.082
 2577SOL    HW2 8631   2.475   6.266   2.179
 2578SOL     OW 8632   4.967   2.453   4.252
 2578SOL    HW1 8633   4.970   2.509   4.334
 2578SOL    HW2 8634   4.989   2.358   4.275
 2579SOL     OW 8635   6.859   2.454   6.556
 2579SOL    HW1 8636   6.909   2.420   6.477
 2579SOL    HW2 8637   6.803   2.532   6.529
 2580SOL     OW 8638   1.795   2.521   6.154
 2580SOL    HW1 8639   1.845   2.574   6.086
 2580SOL    HW2 8640   1.774   2.430   6.117
 2581SOL     OW 8641   6.263   6.583   3.738
 2581SOL    HW1 8642   6.262   6.504   3.798
 2581SOL    HW2 8643   6.299   6.662   3.787
 2582SOL     OW 8644   0.513   5.506   2.620
 2582SOL    HW1 8645   0.474   5.577   2.678
 2582SOL    HW2 8646   0.595   5.469   2.663
 2583SOL     OW 8647   1.883   0.408   0.540
 2583SOL    HW1 8648   1.797   0.446   0.576
 2583SOL    HW2 8649   1.898   0.318   0.581
 2584SOL     OW 8650   4.724   6.748   2.219
 2584SOL    HW1 8651   4.775   6.766   2.303
 2584SOL    HW2 8652   4.638   6.798   2.220
 2585SOL     OW 8653   3.869   0.861   1.418
 2585SOL    HW1 8654   3.837   0.953   1.396
 2585SOL    HW2 8655   3.803   0.817   1.479
 2586SOL     OW 8656   6.475   2.388   4.289
 2586SOL    HW1 8657   6.550   2.345   4.239
 2586SOL    HW2 8658   6.429   2.453   4.229
 2587SOL     OW 8659   5.829   6.419   3.099
 2587SOL    HW1 8660   5.877   6.465   3.174
 2587SOL    HW2 8661   5.828   6.478   3.018
 2588SOL     OW 8662   5.850   1.398   1.266
 2588SOL    HW1 8663   5.859   1.428   1.171
 2588SOL    HW2 8664   5.897   1.311   1.278
 2589SOL     OW 8665   6.720   6.732   6.844
 2589SOL    HW1 8666   6.737   6.723   6.746
 2589SOL    HW2 8667   6.696   6.826   6.865
 2590SOL     OW 8668   4.146   6.846   2.705
 2590SOL    HW1 8669   4.137   6.799   2.793
 2590SOL    HW2 8670   4.212   6.920   2.713
 2591SOL     OW 8671   5.780   6.854   1.111
 2591SOL    HW1 8672   5.704   6.791   1.097
 2591SOL    HW2 8673   5.864   6.803   1.127
 2592SOL     OW 8674   3.739   5.739   1.792
 2592SOL    HW1 8675   3.836   5.756   1.774
 2592SOL    HW2 8676   3.729   5.656   1.847
 2593SOL     OW 8677   2.831   6.461   2.287
 2593SOL    HW1 8678   2.731   6.472   2.286
 2593SOL    HW2 8679   2.874   6.551   2.296
 2594SOL     OW 8680   1.351   6.820   6.177
 2594SOL    HW1 8681   1.291   6.748   6.209
 2594SOL    HW2 8682   1.440   6.812   6.222
 2595SOL     OW 8683   6.046   3.493   4.049
 2595SOL    HW1 8684   6.045   3.571   3.985
 2595SOL    HW2 8685   6.123   3.504   4.113
 2596SOL     OW 8686   3.969   2.153   2.058
 2596SOL    HW1 8687   4.045   2.151   1.993
 2596SOL    HW2 8688   3.888   2.190   2.012
 2597SOL     OW 8689   2.436   2.905   0.008
 2597SOL    HW1 8690   2.384   2.840   6.971
 2597SOL    HW2 8691   2.389   2.918   0.096
 2598SOL     OW 8692   6.485   3.297   3.376
 2598SOL    HW1 8693   6.456   3.325   3.467
 2598SOL    HW2 8694   6.538   3.370   3.333
 2599SOL     OW 8695   3.985   5.475   6.992
 2599SOL    HW1 8696   3.968   5.426   6.907
 2599SOL    HW2 8697   3.980   5.574   6.975
 2600SOL     OW 8698   6.432   3.654   3.434
 2600SOL    HW1 8699   6.474   3.587   3.372
 2600SOL    HW2 8700   6.475   3.648   3.524
 2601SOL     OW 8701   4.158   3.027   5.858
 2601SOL    HW1 8702   4.123   3.060   5.945
 2601SOL    HW2 8703   4.109   3.071   5.783
 2602SOL     OW 8704   6.232   5.318   3.893
 2602SOL    HW1 8705   6.178   5.312   3.977
 2602SOL    HW2 8706   6.187   5.383   3.830
 2603SOL     OW 8707   3.432   2.641   1.026
 2603SOL    HW1 8708   3.423   2.544   1.002
 2603SOL    HW2 8709   3.374   2.661   1.105
 2604SOL     OW 8710   6.111   7.002   1.025
 2604SOL    HW1 8711   6.060   0.069   1.021
 2604SOL    HW2 8712   6.077   6.947   1.102
 2605SOL     OW 8713   4.657   4.691   4.280
 2605SOL    HW1 8714   4.629   4.736   4.364
 2605SOL    HW2 8715   4.620   4.598   4.277
 2606SOL     OW 8716   0.267   4.700   0.629
 2606SOL    HW1 8717   0.257   4.720   0.726
 2606SOL    HW2 8718   0.178   4.671   0.592
 2607SOL     OW 8719   0.335   0.904   4.040
 2607SOL    HW1 8720   0.313   0.812   4.010
 2607SOL    HW2 8721   0.435   0.916   4.042
 2608SOL     OW 8722   4.843   0.572   1.561
 2608SOL    HW1 8723   4.896   0.653   1.585
 2608SOL    HW2 8724   4.750   0.599   1.538
 2609SOL     OW 8725   1.041   2.414   2.697
 2609SOL    HW1 8726   1.061   2.486   2.762
 2609SOL    HW2 8727   0.945   2.420   2.668
 2610SOL     OW 8728   5.819   6.036   4.660
 2610SOL    HW1 8729   5.749   6.051   4.729
 2610SOL    HW2 8730   5.828   5.937   4.643
 2611SOL     OW 8731   4.349   6.497   1.468
 2611SOL    HW1 8732   4.347   6.574   1.405
 2611SOL    HW2 8733   4.328   6.529   1.560
 2612SOL     OW 8734   6.041   6.526   3.582
 2612SOL    HW1 8735   6.122   6.557   3.632
 2612SOL    HW2 8736   5.981   6.604   3.565
 2613SOL     OW 8737   4.081   0.644   1.710
 2613SOL    HW1 8738   4.028   0.603   1.636
 2613SOL    HW2 8739   4.112   0.735   1.683
 2614SOL     OW 8740   6.845   6.613   6.581
 2614SOL    HW1 8741   6.776   6.616   6.509
 2614SOL    HW2 8742   6.914   6.545   6.557
 2615SOL     OW 8743   5.187   5.358   2.352
 2615SOL    HW1 8744   5.143   5.297   2.417
 2615SOL    HW2 8745   5.199   5.311   2.264
 2616SOL     OW 8746   4.164   3.403   3.125
 2616SOL    HW1 8747   4.090   3.339   3.147
 2616SOL    HW2 8748   4.234   3.400   3.196
 2617SOL     OW 8749   4.109   0.045   1.124
 2617SOL    HW1 8750   4.127   0.143   1.117
 2617SOL    HW2 8751   4.027   0.031   1.180
 2618SOL     OW 8752   1.156   0.564   0.797
 2618SOL    HW1 8753   1.137   0.638   0.732
 2618SOL    HW2 8754   1.081   0.559   0.863
 2619SOL     OW 8755   4.313   2.307   1.655
 2619SOL    HW1 8756   4.332   2.278   1.749
 2619SOL    HW2 8757   4.325   2.229   1.593
 2620SOL     OW 8758   1.331   4.151   4.491
 2620SOL    HW1 8759   1.331   4.062   4.447
 2620SOL    HW2 8760   1.278   4.216   4.436
 2621SOL     OW 8761   0.979   5.369   3.438
 2621SOL    HW1 8762   0.923   5.304   3.488
 2621SOL    HW2 8763   1.076   5.348   3.453
 2622SOL     OW 8764   2.560   2.592   6.537
 2622SOL    HW1 8765   2.511   2.515   6.495
 2622SOL    HW2 8766   2.567   2.667   6.471
 2623SOL     OW 8767   2.897   0.906   5.476
 2623SOL    HW1 8768   2.939   0.936   5.390
 2623SOL    HW2 8769   2.804   0.942   5.483
 2624SOL     OW 8770   6.215   1.781   3.713
 2624SOL    HW1 8771   6.176   1.749   3.799
 2624SOL    HW2 8772   6.184   1.874   3.695
 2625SOL     OW 8773   3.002   1.796   6.103
 2625SOL    HW1 8774   2.923   1.736   6.119
 2625SOL    HW2 8775   3.021   1.800   6.005
 2626SOL     OW 8776   2.009   6.704   3.187
 2626SOL    HW1 8777   2.000   6.753   3.100
 2626SOL    HW2 8778   2.015   6.606   3.170
 2627SOL     OW 8779   6.524   0.226   4.745
 2627SOL    HW1 8780   6.595   0.157   4.733
 2627SOL    HW2 8781   6.435   0.187   4.722
 2628SOL     OW 8782   4.071   6.131   6.578
 2628SOL    HW1 8783   4.099   6.146   6.672
 2628SOL    HW2 8784   4.097   6.209   6.522
 2629SOL     OW 8785   3.169   4.162   1.235
 2629SOL    HW1 8786   3.070   4.161   1.248
 2629SOL    HW2 8787   3.208   4.240   1.283
 2630SOL     OW 8788   2.869   2.172   2.276
 2630SOL    HW1 8789   2.926   2.195   2.197
 2630SOL    HW2 8790   2.778   2.212   2.264
 2631SOL     OW 8791   4.477   6.311   3.873
 2631SOL    HW1 8792   4.525   6.381   3.821
 2631SOL    HW2 8793   4.455   6.234   3.813
 2632SOL     OW 8794   3.772   2.541   0.035
 2632SOL    HW1 8795   3.688   2.496   0.001
 2632SOL    HW2 8796   3.751   2.635   0.062
 2633SOL     OW 8797   5.465   2.217   6.756
 2633SOL    HW1 8798   5.459   2.155   6.678
 2633SOL    HW2 8799   5.393   2.286   6.749
 2634SOL     OW 8800   2.047   4.478   0.902
 2634SOL    HW1 8801   1.977   4.410   0.922
 2634SOL    HW2 8802   2.088   4.510   0.987
 2635SOL     OW 8803   5.723   4.599   5.160
 2635SOL    HW1 8804   5.782   4.519   5.170
 2635SOL    HW2 8805   5.777   4.674   5.121
 2636SOL     OW 8806   5.432   0.314   5.360
 2636SOL    HW1 8807   5.442   0.246   5.288
 2636SOL    HW2 8808   5.335   0.329   5.379
 2637SOL     OW 8809   5.752   6.771   2.841
 2637SOL    HW1 8810   5.780   6.843   2.777
 2637SOL    HW2 8811   5.668   6.728   2.808
 2638SOL     OW 8812   5.583   6.173   0.610
 2638SOL    HW1 8813   5.535   6.256   0.640
 2638SOL    HW2 8814   5.670   6.199   0.569
 2639SOL     OW 8815   6.270   6.123   0.640
 2639SOL    HW1 8816   6.361   6.105   0.676
 2639SOL    HW2 8817   6.208   6.143   0.715
 2640SOL     OW 8818   0.027   6.159   5.282
 2640SOL    HW1 8819   6.999   6.230   5.229
 2640SOL    HW2 8820   0.109   6.198   5.324
 2641SOL     OW 8821   5.075   4.561   0.373
 2641SOL    HW1 8822   5.131   4.609   0.441
 2641SOL    HW2 8823   5.130   4.540   0.293
 2642SOL     OW 8824   5.130   0.256   3.816
 2642SOL    HW1 8825   5.067   0.191   3.859
 2642SOL    HW2 8826   5.079   0.335   3.783
 2643SOL     OW 8827   0.302   0.503   2.520
 2643SOL    HW1 8828   0.400   0.502   2.540
 2643SOL    HW2 8829   0.267   0.596   2.529
 2644SOL     OW 8830   0.226   4.282   6.081
 2644SOL    HW1 8831   0.281   4.361   6.108
 2644SOL    HW2 8832   0.147   4.274   6.141
 2645SOL     OW 8833   5.717   5.806   6.566
 2645SOL    HW1 8834   5.746   5.785   6.659
 2645SOL    HW2 8835   5.768   5.749   6.501
 2646SOL     OW 8836   6.439   6.801   6.632
 2646SOL    HW1 8837   6.451   6.701   6.635
 2646SOL    HW2 8838   6.404   6.827   6.542
 2647SOL     OW 8839   3.900   2.180   1.479
 2647SOL    HW1 8840   3.987   2.139   1.455
 2647SOL    HW2 8841   3.895   2.193   1.578
 2648SOL     OW 8842   5.618   0.403   2.417
 2648SOL    HW1 8843   5.524   0.407   2.450
 2648SOL    HW2 8844   5.641   0.308   2.394
 2649SOL     OW 8845   3.478   1.598   6.313
 2649SOL    HW1 8846   3.527   1.616   6.399
 2649SOL    HW2 8847   3.410   1.670   6.298
 2650SOL     OW 8848   0.179   6.161   2.724
 2650SOL    HW1 8849   0.195   6.188   2.819
 2650SOL    HW2 8850   0.148   6.066   2.720
 2651SOL     OW 8851   6.534   1.412   2.463
 2651SOL    HW1 8852   6.443   1.420   2.421
 2651SOL    HW2 8853   6.557   1.315   2.472
 2652SOL     OW 8854   3.587   3.051   2.720
 2652SOL    HW1 8855   3.669   3.001   2.691
 2652SOL    HW2 8856   3.573   3.130   2.661
 2653SOL     OW 8857   6.566   6.751   6.061
 2653SOL    HW1 8858   6.646   6.795   6.021
 2653SOL    HW2 8859   6.491   6.818   6.067
 2654SOL     OW 8860   5.759   2.830   5.681
 2654SOL    HW1 8861   5.775   2.849   5.778
 2654SOL    HW2 8862   5.765   2.731   5.665
 2655SOL     OW 8863   4.810   6.022   4.431
 2655SOL    HW1 8864   4.882   6.016   4.362
 2655SOL    HW2 8865   4.720   6.017   4.386
 2656SOL     OW 8866   5.420   3.508   3.558
 2656SOL    HW1 8867   5.519   3.503   3.542
 2656SOL    HW2 8868   5.403   3.511   3.657
 2657SOL     OW 8869   1.611   4.146   6.433
 2657SOL    HW1 8870   1.613   4.238   6.471
 2657SOL    HW2 8871   1.659   4.083   6.495
 2658SOL     OW 8872   6.060   3.907   5.795
 2658SOL    HW1 8873   6.147   3.917   5.844
 2658SOL    HW2 8874   5.987   3.948   5.849
 2659SOL     OW 8875   0.020   2.479   4.393
 2659SOL    HW1 8876   0.005   2.577   4.406
 2659SOL    HW2 8877   6.951   2.433   4.377
 2660SOL     OW 8878   6.956   2.579   2.561
 2660SOL    HW1 8879   0.011   2.630   2.516
 2660SOL    HW2 8880   6.898   2.536   2.492
 2661SOL     OW 8881   3.595   6.395   1.295
 2661SOL    HW1 8882   3.561   6.305   1.321
 2661SOL    HW2 8883   3.541   6.466   1.341
 2662SOL     OW 8884   4.004   6.574   4.094
 2662SOL    HW1 8885   4.084   6.553   4.149
 2662SOL    HW2 8886   3.921   6.556   4.147
 2663SOL     OW 8887   1.714   4.246   2.449
 2663SOL    HW1 8888   1.762   4.325   2.487
 2663SOL    HW2 8889   1.620   4.272   2.425
 2664SOL     OW 8890   4.092   3.645   2.520
 2664SOL    HW1 8891   4.189   3.637   2.543
 2664SOL    HW2 8892   4.040   3.577   2.571
 2665SOL     OW 8893   3.592   1.154   4.396
 2665SOL    HW1 8894   3.580   1.178   4.300
 2665SOL    HW2 8895   3.689   1.163   4.421
 2666SOL     OW 8896   5.591   4.553   1.231
 2666SOL    HW1 8897   5.563   4.463   1.198
 2666SOL    HW2 8898   5.509   4.609   1.247
 2667SOL     OW 8899   2.379   5.666   4.376
 2667SOL    HW1 8900   2.379   5.760   4.409
 2667SOL    HW2 8901   2.294   5.622   4.402
 2668SOL     OW 8902   0.049   2.929   5.340
 2668SOL    HW1 8903   6.974   2.897   5.349
 2668SOL    HW2 8904   0.103   2.898   5.419
 2669SOL     OW 8905   4.429   4.860   5.490
 2669SOL    HW1 8906   4.522   4.895   5.502
 2669SOL    HW2 8907   4.425   4.766   5.524
 2670SOL     OW 8908   1.122   1.514   6.944
 2670SOL    HW1 8909   1.221   1.520   6.957
 2670SOL    HW2 8910   1.093   1.580   6.874
 2671SOL     OW 8911   2.399   3.377   6.140
 2671SOL    HW1 8912   2.340   3.457   6.126
 2671SOL    HW2 8913   2.363   3.321   6.214
 2672SOL     OW 8914   1.852   5.925   1.040
 2672SOL    HW1 8915   1.792   5.970   1.106
 2672SOL    HW2 8916   1.938   5.975   1.034
 2673SOL     OW 8917   3.838   2.039   3.006
 2673SOL    HW1 8918   3.753   2.025   3.057
 2673SOL    HW2 8919   3.864   1.953   2.960
 2674SOL     OW 8920   6.140   5.085   5.151
 2674SOL    HW1 8921   6.162   4.992   5.124
 2674SOL    HW2 8922   6.118   5.088   5.248
 2675SOL     OW 8923   0.168   4.565   5.739
 2675SOL    HW1 8924   0.256   4.528   5.712
 2675SOL    HW2 8925   0.159   4.658   5.703
 2676SOL     OW 8926   4.409   1.631   1.524
 2676SOL    HW1 8927   4.378   1.538   1.506
 2676SOL    HW2 8928   4.496   1.629   1.573
 2677SOL     OW 8929   2.464   5.049   1.771
 2677SOL    HW1 8930   2.388   5.106   1.801
 2677SOL    HW2 8931   2.433   4.955   1.759
 2678SOL     OW 8932   0.398   5.119   6.354
 2678SOL    HW1 8933   0.382   5.104   6.257
 2678SOL    HW2 8934   0.313   5.144   6.399
 2679SOL     OW 8935   3.306   5.180   0.899
 2679SOL    HW1 8936   3.206   5.185   0.905
 2679SOL    HW2 8937   3.342   5.272   0.880
 2680SOL     OW 8938   1.562   1.110   1.771
 2680SOL    HW1 8939   1.618   1.037   1.809
 2680SOL    HW2 8940   1.512   1.076   1.692
 2681SOL     OW 8941   1.571   2.537   3.099
 2681SOL    HW1 8942   1.533   2.444   3.100
 2681SOL    HW2 8943   1.657   2.539   3.149
 2682SOL     OW 8944   5.561   2.762   2.653
 2682SOL    HW1 8945   5.486   2.705   2.621
 2682SOL    HW2 8946   5.647   2.731   2.613
 2683SOL     OW 8947   1.008   5.761   1.159
 2683SOL    HW1 8948   1.038   5.729   1.069
 2683SOL    HW2 8949   1.085   5.761   1.222
 2684SOL     OW 8950   2.174   6.460   3.283
 2684SOL    HW1 8951   2.196   6.529   3.214
 2684SOL    HW2 8952   2.166   6.504   3.372
 2685SOL     OW 8953   4.800   6.247   5.206
 2685SOL    HW1 8954   4.874   6.181   5.222
 2685SOL    HW2 8955   4.834   6.321   5.147
 2686SOL     OW 8956   2.219   3.082   4.209
 2686SOL    HW1 8957   2.279   3.011   4.248
 2686SOL    HW2 8958   2.214   3.070   4.110
 2687SOL     OW 8959   3.813   5.560   2.352
 2687SOL    HW1 8960   3.732   5.533   2.300
 2687SOL    HW2 8961   3.895   5.532   2.302
 2688SOL     OW 8962   4.142   4.739   6.670
 2688SOL    HW1 8963   4.181   4.650   6.692
 2688SOL    HW2 8964   4.206   4.790   6.613
 2689SOL     OW 8965   0.608   3.175   4.220
 2689SOL    HW1 8966   0.636   3.268   4.197
 2689SOL    HW2 8967   0.667   3.110   4.173
 2690SOL     OW 8968   3.928   3.866   3.860
 2690SOL    HW1 8969   3.894   3.776   3.834
 2690SOL    HW2 8970   3.915   3.930   3.784
 2691SOL     OW 8971   1.550   5.752   2.292
 2691SOL    HW1 8972   1.607   5.804   2.228
 2691SOL    HW2 8973   1.476   5.809   2.325
 2692SOL     OW 8974   0.091   6.490   3.859
 2692SOL    HW1 8975   0.074   6.434   3.940
 2692SOL    HW2 8976   0.006   6.534   3.830
 2693SOL     OW 8977   1.796   3.811   3.531
 2693SOL    HW1 8978   1.896   3.818   3.531
 2693SOL    HW2 8979   1.769   3.721   3.565
 2694SOL     OW 8980   1.551   0.020   3.347
 2694SOL    HW1 8981   1.511   6.948   3.362
 2694SOL    HW2 8982   1.628   0.034   3.408
 2695SOL     OW 8983   4.441   2.396   2.542
 2695SOL    HW1 8984   4.414   2.434   2.454
 2695SOL    HW2 8985   4.363   2.396   2.605
 2696SOL     OW 8986   3.924   3.849   5.449
 2696SOL    HW1 8987   3.894   3.878   5.358
 2696SOL    HW2 8988   4.022   3.830   5.447
 2697SOL     OW 8989   3.113   1.997   4.181
 2697SOL    HW1 8990   3.192   1.941   4.159
 2697SOL    HW2 8991   3.112   2.017   4.279
 2698SOL     OW 8992   1.544   4.310   0.396
 2698SOL    HW1 8993   1.595   4.347   0.318
 2698SOL    HW2 8994   1.608   4.271   0.462
 2699SOL     OW 8995   3.379   6.365   1.554
 2699SOL    HW1 8996   3.313   6.298   1.520
 2699SOL    HW2 8997   3.383   6.443   1.491
 2700SOL     OW 8998   1.768   3.470   2.958
 2700SOL    HW1 8999   1.687   3.478   2.900
 2700SOL    HW2 9000   1.771   3.379   2.999
 2701SOL     OW 9001   3.769   7.007   6.741
 2701SOL    HW1 9002   3.763   6.908   6.742
 2701SOL    HW2 9003   3.803   0.019   6.652
 2702SOL     OW 9004   0.019   1.123   3.894
 2702SOL    HW1 9005   0.117   1.118   3.878
 2702SOL    HW2 9006   6.989   1.124   3.806
 2703SOL     OW 9007   1.925   1.921   2.300
 2703SOL    HW1 9008   1.985   1.842   2.306
 2703SOL    HW2 9009   1.841   1.903   2.351
 2704SOL     OW 9010   2.435   5.401   1.618
 2704SOL    HW1 9011   2.516   5.371   1.567
 2704SOL    HW2 9012   2.409   5.331   1.684
 2705SOL     OW 9013   6.333   5.516   3.335
 2705SOL    HW1 9014   6.257   5.568   3.296
 2705SOL    HW2 9015   6.394   5.487   3.261
 2706SOL     OW 9016   6.626   1.519   1.656
 2706SOL    HW1 9017   6.653   1.516   1.753
 2706SOL    HW2 9018   6.608   1.613   1.629
 2707SOL     OW 9019   2.041   1.604   6.161
 2707SOL    HW1 9020   2.027   1.693   6.117
 2707SOL    HW2 9021   2.025   1.612   6.259
 2708SOL     OW 9022   1.477   2.345   1.441
 2708SOL    HW1 9023   1.558   2.403   1.446
 2708SOL    HW2 9024   1.496   2.257   1.485
 2709SOL     OW 9025   4.926   6.007   0.623
 2709SOL    HW1 9026   4.850   6.016   0.559
 2709SOL    HW2 9027   5.012   6.007   0.573
 2710SOL     OW 9028   0.501   4.118   2.504
 2710SOL    HW1 9029   0.563   4.052   2.548
 2710SOL    HW2 9030   0.486   4.195   2.566
 2711SOL     OW 9031   0.672   0.133   2.309
 2711SOL    HW1 9032   0.720   0.209   2.353
 2711SOL    HW2 9033   0.700   0.047   2.351
 2712SOL     OW 9034   2.686   4.520   0.638
 2712SOL    HW1 9035   2.771   4.573   0.634
 2712SOL    HW2 9036   2.627   4.547   0.562
 2713SOL     OW 9037   2.387   3.118   5.431
 2713SOL    HW1 9038   2.393   3.091   5.335
 2713SOL    HW2 9039   2.414   3.214   5.439
 2714SOL     OW 9040   4.616   0.523   5.902
 2714SOL    HW1 9041   4.662   0.582   5.835
 2714SOL    HW2 9042   4.648   0.545   5.994
 2715SOL     OW 9043   5.764   1.130   6.625
 2715SOL    HW1 9044   5.746   1.149   6.529
 2715SOL    HW2 9045   5.855   1.163   6.649
 2716SOL     OW 9046   0.433   6.224   2.644
 2716SOL    HW1 9047   0.342   6.210   2.684
 2716SOL    HW2 9048   0.499   6.244   2.717
 2717SOL     OW 9049   0.874   0.549   3.193
 2717SOL    HW1 9050   0.878   0.648   3.203
 2717SOL    HW2 9051   0.799   0.524   3.132
 2718SOL     OW 9052   2.482   4.490   3.804
 2718SOL    HW1 9053   2.522   4.447   3.723
 2718SOL    HW2 9054   2.549   4.553   3.844
 2719SOL     OW 9055   4.239   5.324   1.879
 2719SOL    HW1 9056   4.288   5.401   1.922
 2719SOL    HW2 9057   4.295   5.242   1.883
 2720SOL     OW 9058   1.625   6.772   3.584
 2720SOL    HW1 9059   1.664   6.713   3.513
 2720SOL    HW2 9060   1.675   6.859   3.587
 2721SOL     OW 9061   3.518   0.053   4.210
 2721SOL    HW1 9062   3.592   0.008   4.160
 2721SOL    HW2 9063   3.540   0.150   4.221
 2722SOL     OW 9064   1.144   6.081   2.641
 2722SOL    HW1 9065   1.135   6.177   2.667
 2722SOL    HW2 9066   1.193   6.074   2.554
 2723SOL     OW 9067   1.786   1.132   5.823
 2723SOL    HW1 9068   1.771   1.231   5.822
 2723SOL    HW2 9069   1.778   1.098   5.917
 2724SOL     OW 9070   4.153   5.746   6.156
 2724SOL    HW1 9071   4.080   5.688   6.119
 2724SOL    HW2 9072   4.125   5.781   6.245
 2725SOL     OW 9073   4.249   4.792   4.027
 2725SOL    HW1 9074   4.216   4.883   4.051
 2725SOL    HW2 9075   4.194   4.755   3.952
 2726SOL     OW 9076   4.951   5.749   2.416
 2726SOL    HW1 9077   4.956   5.822   2.349
 2726SOL    HW2 9078   4.857   5.738   2.448
 2727SOL     OW 9079   0.783   5.449   2.574
 2727SOL    HW1 9080   0.875   5.485   2.590
 2727SOL    HW2 9081   0.786   5.349   2.573
 2728SOL     OW 9082   2.554   6.705   5.086
 2728SOL    HW1 9083   2.545   6.746   4.995
 2728SOL    HW2 9084   2.636   6.649   5.089
 2729SOL     OW 9085   5.858   5.447   2.913
 2729SOL    HW1 9086   5.919   5.485   2.844
 2729SOL    HW2 9087   5.795   5.382   2.870
 2730SOL     OW 9088   1.484   0.280   0.828
 2730SOL    HW1 9089   1.458   0.185   0.844
 2730SOL    HW2 9090   1.530   0.287   0.739
 2731SOL     OW 9091   2.957   3.781   1.808
 2731SOL    HW1 9092   3.021   3.847   1.846
 2731SOL    HW2 9093   2.994   3.688   1.819
 2732SOL     OW 9094   5.794   1.724   2.588
 2732SOL    HW1 9095   5.880   1.720   2.538
 2732SOL    HW2 9096   5.789   1.647   2.652
 2733SOL     OW 9097   1.211   6.886   5.724
 2733SOL    HW1 9098   1.295   6.881   5.778
 2733SOL    HW2 9099   1.169   6.795   5.719
 2734SOL     OW 9100   1.907   6.008   4.161
 2734SOL    HW1 9101   1.998   5.969   4.171
 2734SOL    HW2 9102   1.859   5.963   4.085
 2735SOL     OW 9103   1.695   5.118   2.725
 2735SOL    HW1 9104   1.759   5.133   2.650
 2735SOL    HW2 9105   1.684   5.203   2.777
 2736SOL     OW 9106   4.353   0.360   4.916
 2736SOL    HW1 9107   4.272   0.303   4.933
 2736SOL    HW2 9108   4.428   0.329   4.974
 2737SOL     OW 9109   4.517   3.741   6.428
 2737SOL    HW1 9110   4.542   3.647   6.450
 2737SOL    HW2 9111   4.562   3.804   6.492
 2738SOL     OW 9112   5.611   5.412   4.694
 2738SOL    HW1 9113   5.530   5.431   4.640
 2738SOL    HW2 9114   5.623   5.313   4.703
 2739SOL     OW 9115   5.569   3.672   1.340
 2739SOL    HW1 9116   5.560   3.674   1.240
 2739SOL    HW2 9117   5.660   3.638   1.364
 2740SOL     OW 9118   5.960   2.195   3.176
 2740SOL    HW1 9119   5.955   2.292   3.201
 2740SOL    HW2 9120   5.876   2.169   3.128
 2741SOL     OW 9121   1.054   2.226   5.746
 2741SOL    HW1 9122   1.126   2.199   5.810
 2741SOL    HW2 9123   1.057   2.325   5.731
 2742SOL     OW 9124   1.966   0.057   6.876
 2742SOL    HW1 9125   1.877   0.012   6.880
 2742SOL    HW2 9126   2.018   0.021   6.799
 2743SOL     OW 9127   5.446   5.149   1.431
 2743SOL    HW1 9128   5.412   5.151   1.337
 2743SOL    HW2 9129   5.389   5.208   1.489
 2744SOL     OW 9130   4.444   2.419   5.824
 2744SOL    HW1 9131   4.489   2.331   5.812
 2744SOL    HW2 9132   4.359   2.407   5.875
 2745SOL     OW 9133   2.621   6.656   1.094
 2745SOL    HW1 9134   2.685   6.603   1.149
 2745SOL    HW2 9135   2.531   6.655   1.137
 2746SOL     OW 9136   2.068   1.861   6.573
 2746SOL    HW1 9137   2.142   1.905   6.624
 2746SOL    HW2 9138   2.083   1.874   6.475
 2747SOL     OW 9139   5.039   6.531   3.777
 2747SOL    HW1 9140   4.970   6.466   3.745
 2747SOL    HW2 9141   4.995   6.617   3.803
 2748SOL     OW 9142   3.825   1.211   2.764
 2748SOL    HW1 9143   3.776   1.211   2.851
 2748SOL    HW2 9144   3.873   1.124   2.753
 2749SOL     OW 9145   4.791   5.124   3.931
 2749SOL    HW1 9146   4.714   5.077   3.975
 2749SOL    HW2 9147   4.772   5.137   3.833
 2750SOL     OW 9148   0.503   5.950   2.600
 2750SOL    HW1 9149   0.542   6.016   2.665
 2750SOL    HW2 9150   0.427   5.992   2.551
 2751SOL     OW 9151   1.566   0.208   6.775
 2751SOL    HW1 9152   1.647   0.238   6.724
 2751SOL    HW2 9153   1.486   0.210   6.715
 2752SOL     OW 9154   6.170   6.165   5.679
 2752SOL    HW1 9155   6.192   6.258   5.648
 2752SOL    HW2 9156   6.179   6.160   5.778
 2753SOL     OW 9157   3.185   5.636   6.055
 2753SOL    HW1 9158   3.284   5.643   6.062
 2753SOL    HW2 9159   3.148   5.718   6.011
 2754SOL     OW 9160   0.844   0.842   4.477
 2754SOL    HW1 9161   0.798   0.755   4.459
 2754SOL    HW2 9162   0.929   0.824   4.528
 2755SOL     OW 9163   3.124   6.448   2.235
 2755SOL    HW1 9164   3.175   6.369   2.200
 2755SOL    HW2 9165   3.029   6.422   2.251
 2756SOL     OW 9166   0.054   2.814   5.706
 2756SOL    HW1 9167   6.988   2.867   5.697
 2756SOL    HW2 9168   0.095   2.801   5.615
 2757SOL     OW 9169   4.662   3.160   6.681
 2757SOL    HW1 9170   4.758   3.155   6.709
 2757SOL    HW2 9171   4.607   3.101   6.740
 2758SOL     OW 9172   6.320   6.454   2.490
 2758SOL    HW1 9173   6.293   6.430   2.584
 2758SOL    HW2 9174   6.341   6.551   2.486
 2759SOL     OW 9175   3.131   4.448   5.999
 2759SOL    HW1 9176   3.194   4.387   5.950
 2759SOL    HW2 9177   3.045   4.454   5.949
 2760SOL     OW 9178   5.357   6.042   3.308
 2760SOL    HW1 9179   5.390   6.096   3.230
 2760SOL    HW2 9180   5.357   6.099   3.390
 2761SOL     OW 9181   1.785   3.179   3.014
 2761SOL    HW1 9182   1.783   3.157   2.916
 2761SOL    HW2 9183   1.862   3.240   3.034
 2762SOL     OW 9184   2.467   2.340   0.292
 2762SOL    HW1 9185   2.490   2.307   0.201
 2762SOL    HW2 9186   2.373   2.316   0.314
 2763SOL     OW 9187   5.030   2.241   4.902
 2763SOL    HW1 9188   5.029   2.204   4.809
 2763SOL    HW2 9189   4.981   2.328   4.904
 2764SOL     OW 9190   1.137   3.851   1.968
 2764SOL    HW1 9191   1.218   3.809   2.008
 2764SOL    HW2 9192   1.061   3.786   1.969
 2765SOL     OW 9193   6.953   6.855   6.669
 2765SOL    HW1 9194   6.936   6.767   6.624
 2765SOL    HW2 9195   6.881   6.920   6.643
 2766SOL     OW 9196   5.032   1.258   6.825
 2766SOL    HW1 9197   5.096   1.302   6.762
 2766SOL    HW2 9198   5.076   1.181   6.871
 2767SOL     OW 9199   0.135   5.077   6.167
 2767SOL    HW1 9200   0.047   5.052   6.127
 2767SOL    HW2 9201   0.167   5.004   6.226
 2768SOL     OW 9202   4.513   0.133   1.127
 2768SOL    HW1 9203   4.558   0.045   1.110
 2768SOL    HW2 9204   4.425   0.118   1.171
 2769SOL     OW 9205   1.402   4.354   5.550
 2769SOL    HW1 9206   1.392   4.274   5.609
 2769SOL    HW2 9207   1.313   4.396   5.534
 2770SOL     OW 9208   2.937   6.499   0.745
 2770SOL    HW1 9209   3.009   6.545   0.797
 2770SOL    HW2 9210   2.863   6.563   0.726
 2771SOL     OW 9211   4.644   0.222   4.258
 2771SOL    HW1 9212   4.711   0.259   4.193
 2771SOL    HW2 9213   4.583   0.294   4.288
 2772SOL     OW 9214   3.801   0.094   3.475
 2772SOL    HW1 9215   3.844   0.040   3.403
 2772SOL    HW2 9216   3.857   0.091   3.558
 2773SOL     OW 9217   5.892   2.668   4.445
 2773SOL    HW1 9218   5.827   2.662   4.370
 2773SOL    HW2 9219   5.982   2.637   4.415
 2774SOL     OW 9220   5.092   1.503   4.105
 2774SOL    HW1 9221   5.070   1.415   4.147
 2774SOL    HW2 9222   5.010   1.539   4.060
 2775SOL     OW 9223   0.755   3.864   4.143
 2775SOL    HW1 9224   0.808   3.784   4.169
 2775SOL    HW2 9225   0.805   3.947   4.168
 2776SOL     OW 9226   5.050   4.246   6.252
 2776SOL    HW1 9227   5.079   4.253   6.348
 2776SOL    HW2 9228   5.034   4.151   6.228
 2777SOL     OW 9229   3.197   2.003   6.329
 2777SOL    HW1 9230   3.288   1.970   6.353
 2777SOL    HW2 9231   3.128   1.956   6.383
 2778SOL     OW 9232   2.950   6.136   6.088
 2778SOL    HW1 9233   2.857   6.124   6.055
 2778SOL    HW2 9234   3.011   6.155   6.011
 2779SOL     OW 9235   5.769   0.113   1.169
 2779SOL    HW1 9236   5.760   0.015   1.151
 2779SOL    HW2 9237   5.850   0.148   1.120
 2780SOL     OW 9238   6.843   1.258   5.145
 2780SOL    HW1 9239   6.878   1.351   5.138
 2780SOL    HW2 9240   6.919   1.195   5.161
 2781SOL     OW 9241   5.921   0.655   3.035
 2781SOL    HW1 9242   5.958   0.744   3.062
 2781SOL    HW2 9243   5.936   0.588   3.108
 2782SOL     OW 9244   4.557   0.842   6.228
 2782SOL    HW1 9245   4.551   0.857   6.327
 2782SOL    HW2 9246   4.500   0.909   6.181
 2783SOL     OW 9247   5.654   4.423   1.988
 2783SOL    HW1 9248   5.648   4.337   1.939
 2783SOL    HW2 9249   5.583   4.485   1.955
 2784SOL     OW 9250   1.220   1.627   1.089
 2784SOL    HW1 9251   1.283   1.646   1.013
 2784SOL    HW2 9252   1.126   1.620   1.053
 2785SOL     OW 9253   5.690   2.704   1.565
 2785SOL    HW1 9254   5.597   2.692   1.530
 2785SOL    HW2 9255   5.728   2.615   1.591
 2786SOL     OW 9256   0.199   6.928   0.098
 2786SOL    HW1 9257   0.297   6.914   0.109
 2786SOL    HW2 9258   0.149   6.853   0.141
 2787SOL     OW 9259   6.469   4.794   6.238
 2787SOL    HW1 9260   6.383   4.772   6.284
 2787SOL    HW2 9261   6.470   4.891   6.213
 2788SOL     OW 9262   2.810   5.886   5.547
 2788SOL    HW1 9263   2.726   5.933   5.572
 2788SOL    HW2 9264   2.839   5.915   5.455
 2789SOL     OW 9265   1.333   2.549   5.609
 2789SOL    HW1 9266   1.236   2.564   5.593
 2789SOL    HW2 9267   1.366   2.473   5.552
 2790SOL     OW 9268   1.534   5.547   2.119
 2790SOL    HW1 9269   1.518   5.628   2.175
 2790SOL    HW2 9270   1.523   5.465   2.175
 2791SOL     OW 9271   0.331   3.614   2.944
 2791SOL    HW1 9272   0.317   3.713   2.948
 2791SOL    HW2 9273   0.242   3.568   2.944
 2792SOL     OW 9274   3.219   1.438   5.297
 2792SOL    HW1 9275   3.195   1.530   5.266
 2792SOL    HW2 9276   3.144   1.375   5.275
 2793SOL     OW 9277   3.280   4.113   1.010
 2793SOL    HW1 9278   3.234   4.133   1.097
 2793SOL    HW2 9279   3.250   4.180   0.941
 2794SOL     OW 9280   1.061   2.580   6.462
 2794SOL    HW1 9281   1.052   2.658   6.399
 2794SOL    HW2 9282   1.077   2.614   6.554
 2795SOL     OW 9283   1.118   4.779   1.258
 2795SOL    HW1 9284   1.168   4.863   1.238
 2795SOL    HW2 9285   1.102   4.729   1.173
 2796SOL     OW 9286   1.941   6.217   6.164
 2796SOL    HW1 9287   1.955   6.179   6.072
 2796SOL    HW2 9288   1.908   6.311   6.156
 2797SOL     OW 9289   5.573   0.131   3.526
 2797SOL    HW1 9290   5.484   0.098   3.558
 2797SOL    HW2 9291   5.642   0.113   3.595
 2798SOL     OW 9292   5.656   0.174   2.160
 2798SOL    HW1 9293   5.565   0.212   2.140
 2798SOL    HW2 9294   5.688   0.121   2.081
 2799SOL     OW 9295   3.196   6.027   5.333
 2799SOL    HW1 9296   3.283   6.029   5.285
 2799SOL    HW2 9297   3.188   5.942   5.385
 2800SOL     OW 9298   6.163   0.065   6.506
 2800SOL    HW1 9299   6.205   0.141   6.554
 2800SOL    HW2 9300   6.107   0.099   6.430
 2801SOL     OW 9301   0.532   4.845   5.272
 2801SOL    HW1 9302   0.604   4.862   5.339
 2801SOL    HW2 9303   0.540   4.751   5.239
 2802SOL     OW 9304   0.593   5.124   5.782
 2802SOL    HW1 9305   0.496   5.113   5.803
 2802SOL    HW2 9306   0.609   5.215   5.743
 2803SOL     OW 9307   4.200   2.637   6.545
 2803SOL    HW1 9308   4.297   2.615   6.529
 2803SOL    HW2 9309   4.161   2.571   6.608
 2804SOL     OW 9310   0.296   2.685   3.810
 2804SOL    HW1 9311   0.319   2.631   3.730
 2804SOL    HW2 9312   0.235   2.633   3.870
 2805SOL     OW 9313   4.670   3.337   1.356
 2805SOL    HW1 9314   4.723   3.310   1.276
 2805SOL    HW2 9315   4.658   3.259   1.417
 2806SOL     OW 9316   0.254   4.016   6.055
 2806SOL    HW1 9317   0.162   3.990   6.028
 2806SOL    HW2 9318   0.262   4.115   6.055
 2807SOL     OW 9319   3.312   0.171   3.781
 2807SOL    HW1 9320   3.295   0.175   3.880
 2807SOL    HW2 9321   3.409   0.188   3.764
 2808SOL     OW 9322   6.799   5.515   6.388
 2808SOL    HW1 9323   6.892   5.503   6.423
 2808SOL    HW2 9324   6.775   5.612   6.391
 2809SOL     OW 9325   6.882   5.194   2.182
 2809SOL    HW1 9326   6.910   5.186   2.278
 2809SOL    HW2 9327   6.945   5.143   2.125
 2810SOL     OW 9328   2.778   5.791   3.120
 2810SOL    HW1 9329   2.760   5.820   3.026
 2810SOL    HW2 9330   2.701   5.818   3.178
 2811SOL     OW 9331   0.811   0.672   1.647
 2811SOL    HW1 9332   0.782   0.686   1.553
 2811SOL    HW2 9333   0.735   0.690   1.709
 2812SOL     OW 9334   0.578   2.251   1.211
 2812SOL    HW1 9335   0.624   2.200   1.139
 2812SOL    HW2 9336   0.551   2.341   1.176
 2813SOL     OW 9337   0.931   2.182   1.756
 2813SOL    HW1 9338   0.958   2.278   1.757
 2813SOL    HW2 9339   0.913   2.152   1.850
 2814SOL     OW 9340   2.123   4.507   0.278
 2814SOL    HW1 9341   2.146   4.490   0.183
 2814SOL    HW2 9342   2.206   4.512   0.333
 2815SOL     OW 9343   0.306   5.076   5.531
 2815SOL    HW1 9344   0.355   5.090   5.617
 2815SOL    HW2 9345   0.339   4.992   5.487
 2816SOL     OW 9346   0.650   5.958   6.341
 2816SOL    HW1 9347   0.629   6.055   6.326
 2816SOL    HW2 9348   0.602   5.903   6.273
 2817SOL     OW 9349   4.315   0.901   1.760
 2817SOL    HW1 9350   4.229   0.945   1.732
 2817SOL    HW2 9351   4.308   0.871   1.855
 2818SOL     OW 9352   1.569   0.382   0.598
 2818SOL    HW1 9353   1.478   0.424   0.607
 2818SOL    HW2 9354   1.567   0.314   0.525
 2819SOL     OW 9355   0.706   1.164   0.406
 2819SOL    HW1 9356   0.715   1.066   0.428
 2819SOL    HW2 9357   0.758   1.183   0.323
 2820SOL     OW 9358   1.275   2.342   1.243
 2820SOL    HW1 9359   1.328   2.326   1.326
 2820SOL    HW2 9360   1.270   2.257   1.190
 2821SOL     OW 9361   2.679   3.371   6.067
 2821SOL    HW1 9362   2.669   3.359   5.968
 2821SOL    HW2 9363   2.589   3.376   6.110
 2822SOL     OW 9364   4.376   2.398   0.962
 2822SOL    HW1 9365   4.318   2.392   1.043
 2822SOL    HW2 9366   4.467   2.363   0.984
 2823SOL     OW 9367   5.513   1.922   1.380
 2823SOL    HW1 9368   5.553   1.854   1.442
 2823SOL    HW2 9369   5.585   1.985   1.350
 2824SOL     OW 9370   1.382   3.293   4.792
 2824SOL    HW1 9371   1.427   3.329   4.874
 2824SOL    HW2 9372   1.288   3.329   4.788
 2825SOL     OW 9373   5.111   1.438   6.002
 2825SOL    HW1 9374   5.066   1.367   5.948
 2825SOL    HW2 9375   5.162   1.499   5.941
 2826SOL     OW 9376   2.438   3.012   6.757
 2826SOL    HW1 9377   2.515   2.966   6.712
 2826SOL    HW2 9378   2.419   2.966   6.844
 2827SOL     OW 9379   6.454   0.739   6.663
 2827SOL    HW1 9380   6.397   0.810   6.621
 2827SOL    HW2 9381   6.504   0.778   6.741
 2828SOL     OW 9382   1.853   3.678   0.561
 2828SOL    HW1 9383   1.939   3.641   0.527
 2828SOL    HW2 9384   1.870   3.740   0.637
 2829SOL     OW 9385   3.120   4.069   3.029
 2829SOL    HW1 9386   3.185   4.101   3.097
 2829SOL    HW2 9387   3.090   3.977   3.052
 2830SOL     OW 9388   3.103   4.481   5.468
 2830SOL    HW1 9389   3.119   4.490   5.567
 2830SOL    HW2 9390   3.097   4.571   5.427
 2831SOL     OW 9391   5.978   1.623   1.402
 2831SOL    HW1 9392   5.955   1.621   1.499
 2831SOL    HW2 9393   5.909   1.572   1.350
 2832SOL     OW 9394   0.504   3.743   1.721
 2832SOL    HW1 9395   0.452   3.697   1.648
 2832SOL    HW2 9396   0.602   3.728   1.705
 2833SOL     OW 9397   2.301   2.502   2.310
 2833SOL    HW1 9398   2.275   2.574   2.374
 2833SOL    HW2 9399   2.364   2.538   2.242
 2834SOL     OW 9400   2.905   5.786   5.768
 2834SOL    HW1 9401   2.884   5.809   5.673
 2834SOL    HW2 9402   2.945   5.865   5.814
 2835SOL     OW 9403   0.094   0.260   0.524
 2835SOL    HW1 9404   0.066   0.209   0.605
 2835SOL    HW2 9405   0.137   0.198   0.458
 2836SOL     OW 9406   3.705   6.301   2.585
 2836SOL    HW1 9407   3.773   6.309   2.513
 2836SOL    HW2 9408   3.623   6.257   2.548
 2837SOL     OW 9409   4.945   4.489   1.918
 2837SOL    HW1 9410   4.904   4.530   1.999
 2837SOL    HW2 9411   5.039   4.462   1.938
 2838SOL     OW 9412   5.543   4.293   6.086
 2838SOL    HW1 9413   5.477   4.368   6.089
 2838SOL    HW2 9414   5.536   4.239   6.171
 2839SOL     OW 9415   5.633   2.688   4.898
 2839SOL    HW1 9416   5.616   2.692   4.997
 2839SOL    HW2 9417   5.727   2.719   4.880
 2840SOL     OW 9418   6.933   6.274   4.298
 2840SOL    HW1 9419   6.934   6.179   4.329
 2840SOL    HW2 9420   0.008   6.309   4.291
 2841SOL     OW 9421   6.534   3.392   2.238
 2841SOL    HW1 9422   6.458   3.447   2.271
 2841SOL    HW2 9423   6.620   3.439   2.256
 2842SOL     OW 9424   1.113   0.025   3.049
 2842SOL    HW1 9425   1.165   0.098   3.006
 2842SOL    HW2 9426   1.027   0.062   3.085
 2843SOL     OW 9427   2.001   2.777   3.189
 2843SOL    HW1 9428   2.057   2.852   3.155
 2843SOL    HW2 9429   1.948   2.808   3.268
 2844SOL     OW 9430   4.828   4.492   0.604
 2844SOL    HW1 9431   4.856   4.571   0.550
 2844SOL    HW2 9432   4.763   4.437   0.552
 2845SOL     OW 9433   3.208   2.165   3.469
 2845SOL    HW1 9434   3.188   2.223   3.548
 2845SOL    HW2 9435   3.139   2.181   3.399
 2846SOL     OW 9436   5.770   0.039   0.240
 2846SOL    HW1 9437   5.837   0.006   0.173
 2846SOL    HW2 9438   5.727   6.979   0.285
 2847SOL     OW 9439   4.438   5.163   1.767
 2847SOL    HW1 9440   4.512   5.203   1.821
 2847SOL    HW2 9441   4.460   5.068   1.746
 2848SOL     OW 9442   0.057   4.086   5.624
 2848SOL    HW1 9443   0.098   3.995   5.634
 2848SOL    HW2 9444   0.091   4.147   5.696
 2849SOL     OW 9445   5.044   0.179   2.467
 2849SOL    HW1 9446   5.015   0.146   2.377
 2849SOL    HW2 9447   4.978   0.246   2.500
 2850SOL     OW 9448   1.624   0.303   2.654
 2850SOL    HW1 9449   1.654   0.356   2.733
 2850SOL    HW2 9450   1.700   0.294   2.589
 2851SOL     OW 9451   3.830   3.519   0.628
 2851SOL    HW1 9452   3.817   3.477   0.717
 2851SOL    HW2 9453   3.745   3.514   0.575
 2852SOL     OW 9454   6.388   4.498   6.537
 2852SOL    HW1 9455   6.482   4.529   6.552
 2852SOL    HW2 9456   6.326   4.575   6.548
 2853SOL     OW 9457   0.088   4.092   6.382
 2853SOL    HW1 9458   0.055   4.158   6.314
 2853SOL    HW2 9459   0.067   3.999   6.352
 2854SOL     OW 9460   3.577   1.265   5.761
 2854SOL    HW1 9461   3.502   1.281   5.825
 2854SOL    HW2 9462   3.638   1.195   5.798
 2855SOL     OW 9463   1.910   1.161   5.563
 2855SOL    HW1 9464   1.904   1.256   5.534
 2855SOL    HW2 9465   1.870   1.152   5.655
 2856SOL     OW 9466   1.215   5.285   3.542
 2856SOL    HW1 9467   1.225   5.342   3.624
 2856SOL    HW2 9468   1.299   5.233   3.527
 2857SOL     OW 9469   7.012   3.694   0.022
 2857SOL    HW1 9470   6.980   3.772   6.987
 2857SOL    HW2 9471   6.949   3.678   0.098
 2858SOL     OW 9472   4.591   4.707   3.017
 2858SOL    HW1 9473   4.594   4.754   3.106
 2858SOL    HW2 9474   4.532   4.627   3.023
 2859SOL     OW 9475   5.000   4.277   1.035
 2859SOL    HW1 9476   4.999   4.345   1.108
 2859SOL    HW2 9477   5.002   4.323   0.946
 2860SOL     OW 9478   0.351   0.070   2.259
 2860SOL    HW1 9479   0.285   0.001   2.231
 2860SOL    HW2 9480   0.431   0.025   2.300
 2861SOL     OW 9481   4.454   5.359   6.305
 2861SOL    HW1 9482   4.431   5.261   6.306
 2861SOL    HW2 9483   4.541   5.372   6.352
 2862SOL     OW 9484   3.927   2.875   0.414
 2862SOL    HW1 9485   3.991   2.930   0.361
 2862SOL    HW2 9486   3.923   2.782   0.377
 2863SOL     OW 9487   5.320   6.571   5.231
 2863SOL    HW1 9488   5.379   6.576   5.151
 2863SOL    HW2 9489   5.371   6.602   5.312
 2864SOL     OW 9490   3.076   4.189   0.346
 2864SOL    HW1 9491   3.160   4.152   0.386
 2864SOL    HW2 9492   3.099   4.248   0.268
 2865SOL     OW 9493   5.340   5.487   4.315
 2865SOL    HW1 9494   5.243   5.503   4.295
 2865SOL    HW2 9495   5.368   5.547   4.390
 2866SOL     OW 9496   4.455   4.894   0.510
 2866SOL    HW1 9497   4.431   4.883   0.607
 2866SOL    HW2 9498   4.480   4.806   0.471
 2867SOL     OW 9499   5.455   6.228   1.892
 2867SOL    HW1 9500   5.550   6.258   1.904
 2867SOL    HW2 9501   5.406   6.295   1.836
 2868SOL     OW 9502   0.967   1.401   5.667
 2868SOL    HW1 9503   0.945   1.486   5.618
 2868SOL    HW2 9504   0.915   1.325   5.626
 2869SOL     OW 9505   5.859   5.347   4.582
 2869SOL    HW1 9506   5.783   5.407   4.606
 2869SOL    HW2 9507   5.862   5.269   4.645
 2870SOL     OW 9508   6.697   2.141   1.270
 2870SOL    HW1 9509   6.780   2.188   1.242
 2870SOL    HW2 9510   6.690   2.054   1.221
 2871SOL     OW 9511   5.363   1.672   1.421
 2871SOL    HW1 9512   5.272   1.694   1.388
 2871SOL    HW2 9513   5.421   1.753   1.417
 2872SOL     OW 9514   2.585   2.360   2.106
 2872SOL    HW1 9515   2.663   2.365   2.044
 2872SOL    HW2 9516   2.543   2.451   2.115
 2873SOL     OW 9517   1.127   6.123   1.297
 2873SOL    HW1 9518   1.184   6.063   1.240
 2873SOL    HW2 9519   1.074   6.183   1.238
 2874SOL     OW 9520   2.315   0.633   2.512
 2874SOL    HW1 9521   2.406   0.621   2.473
 2874SOL    HW2 9522   2.264   0.548   2.506
 2875SOL     OW 9523   2.652   6.774   3.006
 2875SOL    HW1 9524   2.556   6.791   2.981
 2875SOL    HW2 9525   2.662   6.678   3.035
 2876SOL     OW 9526   1.581   6.511   2.104
 2876SOL    HW1 9527   1.489   6.540   2.130
 2876SOL    HW2 9528   1.645   6.586   2.117
 2877SOL     OW 9529   1.145   1.850   6.472
 2877SOL    HW1 9530   1.092   1.790   6.413
 2877SOL    HW2 9531   1.236   1.863   6.433
 2878SOL     OW 9532   4.071   3.644   3.667
 2878SOL    HW1 9533   4.012   3.656   3.747
 2878SOL    HW2 9534   4.117   3.555   3.673
 2879SOL     OW 9535   4.225   3.538   0.320
 2879SOL    HW1 9536   4.193   3.623   0.363
 2879SOL    HW2 9537   4.310   3.509   0.365
 2880SOL     OW 9538   1.844   1.511   4.210
 2880SOL    HW1 9539   1.747   1.497   4.229
 2880SOL    HW2 9540   1.865   1.481   4.117
 2881SOL     OW 9541   4.693   6.191   6.372
 2881SOL    HW1 9542   4.602   6.153   6.357
 2881SOL    HW2 9543   4.763   6.128   6.338
 2882SOL     OW 9544   4.793   6.488   0.594
 2882SOL    HW1 9545   4.757   6.580   0.607
 2882SOL    HW2 9546   4.743   6.442   0.521
 2883SOL     OW 9547   6.227   5.883   3.840
 2883SOL    HW1 9548   6.315   5.860   3.799
 2883SOL    HW2 9549   6.198   5.809   3.901
 2884SOL     OW 9550   6.711   4.751   3.789
 2884SOL    HW1 9551   6.758   4.674   3.832
 2884SOL    HW2 9552   6.678   4.723   3.699
 2885SOL     OW 9553   1.054   2.788   3.078
 2885SOL    HW1 9554   1.072   2.849   3.001
 2885SOL    HW2 9555   1.041   2.841   3.161
 2886SOL     OW 9556   1.975   4.748   6.326
 2886SOL    HW1 9557   1.998   4.729   6.231
 2886SOL    HW2 9558   1.875   4.751   6.336
 2887SOL     OW 9559   0.531   5.701   3.905
 2887SOL    HW1 9560   0.551   5.619   3.851
 2887SOL    HW2 9561   0.481   5.675   3.987
 2888SOL     OW 9562   6.416   6.371   0.001
 2888SOL    HW1 9563   6.387   6.301   6.954
 2888SOL    HW2 9564   6.378   6.460   6.993
 2889SOL     OW 9565   3.390   6.347   2.865
 2889SOL    HW1 9566   3.402   6.338   2.964
 2889SOL    HW2 9567   3.365   6.441   2.843
 2890SOL     OW 9568   2.484   0.871   1.284
 2890SOL    HW1 9569   2.480   0.883   1.185
 2890SOL    HW2 9570   2.422   0.797   1.311
 2891SOL     OW 9571   0.797   1.743   4.489
 2891SOL    HW1 9572   0.760   1.810   4.425
 2891SOL    HW2 9573   0.851   1.675   4.439
 2892SOL     OW 9574   6.689   4.052   2.969
 2892SOL    HW1 9575   6.629   4.107   2.911
 2892SOL    HW2 9576   6.769   4.023   2.916
 2893SOL     OW 9577   6.814   5.395   4.465
 2893SOL    HW1 9578   6.892   5.335   4.447
 2893SOL    HW2 9579   6.835   5.455   4.542
 2894SOL     OW 9580   1.577   5.621   2.556
 2894SOL    HW1 9581   1.490   5.590   2.595
 2894SOL    HW2 9582   1.560   5.665   2.468
 2895SOL     OW 9583   4.076   6.887   6.372
 2895SOL    HW1 9584   4.064   6.802   6.321
 2895SOL    HW2 9585   4.135   6.870   6.451
 2896SOL     OW 9586   4.803   6.095   4.841
 2896SOL    HW1 9587   4.747   6.067   4.919
 2896SOL    HW2 9588   4.838   6.014   4.794
 2897SOL     OW 9589   3.755   4.851   3.359
 2897SOL    HW1 9590   3.769   4.779   3.426
 2897SOL    HW2 9591   3.711   4.930   3.402
 2898SOL     OW 9592   5.548   3.391   2.745
 2898SOL    HW1 9593   5.504   3.401   2.656
 2898SOL    HW2 9594   5.490   3.336   2.805
 2899SOL     OW 9595   7.010   3.438   1.150
 2899SOL    HW1 9596   0.026   3.486   1.070
 2899SOL    HW2 9597   0.027   3.345   1.152
 2900SOL     OW 9598   2.721   3.429   6.333
 2900SOL    HW1 9599   2.648   3.497   6.340
 2900SOL    HW2 9600   2.723   3.390   6.241
 2901SOL     OW 9601   0.989   4.031   3.815
 2901SOL    HW1 9602   1.006   4.096   3.888
 2901SOL    HW2 9603   0.950   3.947   3.853
 2902SOL     OW 9604   6.977   6.113   3.760
 2902SOL    HW1 9605   7.015   6.185   3.702
 2902SOL    HW2 9606   6.894   6.076   3.718
 2903SOL     OW 9607   4.294   5.411   0.479
 2903SOL    HW1 9608   4.375   5.438   0.532
 2903SOL    HW2 9609   4.273   5.483   0.412
 2904SOL     OW 9610   2.412   4.218   5.317
 2904SOL    HW1 9611   2.501   4.262   5.310
 2904SOL    HW2 9612   2.404   4.147   5.247
 2905SOL     OW 9613   0.653   5.676   1.698
 2905SOL    HW1 9614   0.630   5.582   1.676
 2905SOL    HW2 9615   0.716   5.712   1.629
 2906SOL     OW 9616   6.144   6.410   3.151
 2906SOL    HW1 9617   6.126   6.369   3.061
 2906SOL    HW2 9618   6.186   6.342   3.211
 2907SOL     OW 9619   0.307   1.124   3.863
 2907SOL    HW1 9620   0.302   1.037   3.912
 2907SOL    HW2 9621   0.305   1.199   3.929
 2908SOL     OW 9622   4.267   6.505   2.525
 2908SOL    HW1 9623   4.220   6.576   2.473
 2908SOL    HW2 9624   4.327   6.547   2.593
 2909SOL     OW 9625   0.804   6.070   2.629
 2909SOL    HW1 9626   0.829   6.104   2.538
 2909SOL    HW2 9627   0.846   5.980   2.643
 2910SOL     OW 9628   6.484   0.757   4.299
 2910SOL    HW1 9629   6.560   0.703   4.335
 2910SOL    HW2 9630   6.425   0.786   4.374
 2911SOL     OW 9631   6.516   4.077   4.926
 2911SOL    HW1 9632   6.470   4.073   5.015
 2911SOL    HW2 9633   6.448   4.076   4.853
 2912SOL     OW 9634   0.779   0.009   1.398
 2912SOL    HW1 9635   0.756   6.931   1.408
 2912SOL    HW2 9636   0.745   0.060   1.477
 2913SOL     OW 9637   2.579   6.513   1.454
 2913SOL    HW1 9638   2.631   6.428   1.459
 2913SOL    HW2 9639   2.638   6.591   1.476
 2914SOL     OW 9640   4.508   5.508   0.641
 2914SOL    HW1 9641   4.497   5.582   0.708
 2914SOL    HW2 9642   4.586   5.451   0.668
 2915SOL     OW 9643   2.765   0.143   2.668
 2915SOL    HW1 9644   2.732   0.201   2.594
 2915SOL    HW2 9645   2.790   0.053   2.631
 2916SOL     OW 9646   1.478   5.670   0.844
 2916SOL    HW1 9647   1.548   5.611   0.804
 2916SOL    HW2 9648   1.446   5.734   0.775
 2917SOL     OW 9649   2.244   6.119   4.306
 2917SOL    HW1 9650   2.173   6.189   4.311
 2917SOL    HW2 9651   2.309   6.133   4.381
 2918SOL     OW 9652   5.290   2.851   1.802
 2918SOL    HW1 9653   5.268   2.851   1.704
 2918SOL    HW2 9654   5.273   2.942   1.839
 2919SOL     OW 9655   1.020   5.701   4.364
 2919SOL    HW1 9656   1.063   5.658   4.444
 2919SOL    HW2 9657   1.003   5.631   4.294
 2920SOL     OW 9658   1.292   2.493   2.447
 2920SOL    HW1 9659   1.280   2.580   2.495
 2920SOL    HW2 9660   1.344   2.430   2.505
 2921SOL     OW 9661   1.471   0.270   4.421
 2921SOL    HW1 9662   1.377   0.279   4.387
 2921SOL    HW2 9663   1.535   0.295   4.348
 2922SOL     OW 9664   4.003   6.725   3.333
 2922SOL    HW1 9665   4.052   6.721   3.419
 2922SOL    HW2 9666   3.957   6.638   3.317
 2923SOL     OW 9667   6.481   6.041   4.832
 2923SOL    HW1 9668   6.549   6.029   4.760
 2923SOL    HW2 9669   6.405   6.095   4.797
 2924SOL     OW 9670   6.057   2.412   4.908
 2924SOL    HW1 9671   6.042   2.443   4.815
 2924SOL    HW2 9672   6.036   2.486   4.972
 2925SOL     OW 9673   4.893   0.005   6.143
 2925SOL    HW1 9674   4.980   0.052   6.128
 2925SOL    HW2 9675   4.819   0.059   6.105
 2926SOL     OW 9676   0.215   2.093   4.368
 2926SOL    HW1 9677   0.206   1.997   4.395
 2926SOL    HW2 9678   0.182   2.104   4.274
 2927SOL     OW 9679   1.023   2.433   1.799
 2927SOL    HW1 9680   1.091   2.415   1.870
 2927SOL    HW2 9681   1.030   2.529   1.771
 2928SOL     OW 9682   6.426   3.109   6.987
 2928SOL    HW1 9683   6.464   3.183   0.024
 2928SOL    HW2 9684   6.368   3.147   6.916
 2929SOL     OW 9685   2.594   2.476   4.915
 2929SOL    HW1 9686   2.552   2.566   4.931
 2929SOL    HW2 9687   2.606   2.462   4.817
 2930SOL     OW 9688   6.623   4.351   4.959
 2930SOL    HW1 9689   6.708   4.354   4.906
 2930SOL    HW2 9690   6.585   4.258   4.956
 2931SOL     OW 9691   5.262   4.309   5.338
 2931SOL    HW1 9692   5.200   4.232   5.353
 2931SOL    HW2 9693   5.234   4.386   5.396
 2932SOL     OW 9694   6.910   5.327   0.769
 2932SOL    HW1 9695   6.823   5.367   0.797
 2932SOL    HW2 9696   6.897   5.230   0.748
 2933SOL     OW 9697   1.377   0.454   1.144
 2933SOL    HW1 9698   1.300   0.400   1.110
 2933SOL    HW2 9699   1.426   0.494   1.067
 2934SOL     OW 9700   3.918   4.537   0.313
 2934SOL    HW1 9701   3.858   4.573   0.241
 2934SOL    HW2 9702   3.879   4.559   0.403
 2935SOL     OW 9703   6.985   2.321   6.322
 2935SOL    HW1 9704   6.924   2.242   6.333
 2935SOL    HW2 9705   0.055   2.301   6.363
 2936SOL     OW 9706   3.928   6.113   0.688
 2936SOL    HW1 9707   4.005   6.176   0.680
 2936SOL    HW2 9708   3.875   6.135   0.770
 2937SOL     OW 9709   4.376   5.153   2.484
 2937SOL    HW1 9710   4.358   5.062   2.447
 2937SOL    HW2 9711   4.333   5.161   2.574
 2938SOL     OW 9712   6.389   6.190   6.820
 2938SOL    HW1 9713   6.415   6.121   6.888
 2938SOL    HW2 9714   6.398   6.152   6.728
 2939SOL     OW 9715   0.408   5.753   1.775
 2939SOL    HW1 9716   0.490   5.744   1.719
 2939SOL    HW2 9717   0.422   5.826   1.842
 2940SOL     OW 9718   4.445   0.001   3.763
 2940SOL    HW1 9719   4.459   0.011   3.665
 2940SOL    HW2 9720   4.497   6.941   3.797
 2941SOL     OW 9721   1.632   3.786   3.802
 2941SOL    HW1 9722   1.655   3.782   3.900
 2941SOL    HW2 9723   1.697   3.845   3.755
 2942SOL     OW 9724   3.627   1.741   1.445
 2942SOL    HW1 9725   3.561   1.715   1.375
 2942SOL    HW2 9726   3.592   1.817   1.499
 2943SOL     OW 9727   6.166   3.999   3.390
 2943SOL    HW1 9728   6.253   3.956   3.364
 2943SOL    HW2 9729   6.179   4.098   3.399
 2944SOL     OW 9730   2.018   5.662   2.934
 2944SOL    HW1 9731   2.037   5.656   3.032
 2944SOL    HW2 9732   1.933   5.712   2.919
 2945SOL     OW 9733   5.183   4.524   1.725
 2945SOL    HW1 9734   5.132   4.524   1.639
 2945SOL    HW2 9735   5.137   4.583   1.791
 2946SOL     OW 9736   3.400   3.969   5.541
 2946SOL    HW1 9737   3.488   3.990   5.584
 2946SOL    HW2 9738   3.397   3.872   5.516
 2947SOL     OW 9739   6.456   6.759   0.552
 2947SOL    HW1 9740   6.493   6.671   0.520
 2947SOL    HW2 9741   6.400   6.799   0.480
 2948SOL     OW 9742   6.255   4.188   1.676
 2948SOL    HW1 9743   6.343   4.234   1.665
 2948SOL    HW2 9744   6.201   4.236   1.745
 2949SOL     OW 9745   1.148   0.318   1.040
 2949SOL    HW1 9746   1.089   0.241   1.066
 2949SOL    HW2 9747   1.183   0.303   0.948
 2950SOL     OW 9748   5.745   4.598   3.040
 2950SOL    HW1 9749   5.736   4.664   3.115
 2950SOL    HW2 9750   5.732   4.644   2.953
 2951SOL     OW 9751   6.840   1.066   1.885
 2951SOL    HW1 9752   6.793   0.980   1.903
 2951SOL    HW2 9753   6.827   1.128   1.963
 2952SOL     OW 9754   5.691   1.616   3.844
 2952SOL    HW1 9755   5.632   1.547   3.886
 2952SOL    HW2 9756   5.753   1.653   3.913
 2953SOL     OW 9757   0.939   5.521   4.176
 2953SOL    HW1 9758   0.886   5.555   4.099
 2953SOL    HW2 9759   0.954   5.423   4.166
 2954SOL     OW 9760   0.124   4.539   6.337
 2954SOL    HW1 9761   0.137   4.443   6.315
 2954SOL    HW2 9762   0.207   4.590   6.312
 2955SOL     OW 9763   2.232   4.619   6.395
 2955SOL    HW1 9764   2.136   4.645   6.395
 2955SOL    HW2 9765   2.289   4.700   6.383
 2956SOL     OW 9766   6.327   4.614   3.231
 2956SOL    HW1 9767   6.349   4.710   3.248
 2956SOL    HW2 9768   6.355   4.589   3.138
 2957SOL     OW 9769   2.742   4.978   0.977
 2957SOL    HW1 9770   2.833   4.944   0.954
 2957SOL    HW2 9771   2.744   5.020   1.068
 2958SOL     OW 9772   2.119   5.699   2.236
 2958SOL    HW1 9773   2.026   5.699   2.274
 2958SOL    HW2 9774   2.183   5.661   2.303
 2959SOL     OW 9775   0.126   3.457   2.964
 2959SOL    HW1 9776   0.095   3.472   3.058
 2959SOL    HW2 9777   0.162   3.364   2.956
 2960SOL     OW 9778   5.069   0.382   0.303
 2960SOL    HW1 9779   5.092   0.479   0.310
 2960SOL    HW2 9780   5.153   0.328   0.298
 2961SOL     OW 9781   5.421   4.464   2.161
 2961SOL    HW1 9782   5.362   4.427   2.233
 2961SOL    HW2 9783   5.517   4.447   2.185
 2962SOL     OW 9784   7.005   0.201   3.087
 2962SOL    HW1 9785   7.000   0.123   3.149
 2962SOL    HW2 9786   0.025   0.171   3.000
 2963SOL     OW 9787   2.324   1.059   4.858
 2963SOL    HW1 9788   2.399   1.121   4.878
 2963SOL    HW2 9789   2.347   0.967   4.888
 2964SOL     OW 9790   1.397   1.964   0.218
 2964SOL    HW1 9791   1.373   1.912   0.136
 2964SOL    HW2 9792   1.481   1.927   0.258
 2965SOL     OW 9793   0.667   6.832   5.125
 2965SOL    HW1 9794   0.597   6.884   5.077
 2965SOL    HW2 9795   0.643   6.826   5.222
 2966SOL     OW 9796   3.437   6.099   2.718
 2966SOL    HW1 9797   3.424   6.177   2.778
 2966SOL    HW2 9798   3.348   6.064   2.688
 2967SOL     OW 9799   5.446   6.885   5.300
 2967SOL    HW1 9800   5.363   6.940   5.308
 2967SOL    HW2 9801   5.440   6.807   5.363
 2968SOL     OW 9802   1.897   2.928   1.354
 2968SOL    HW1 9803   1.803   2.922   1.387
 2968SOL    HW2 9804   1.955   2.970   1.424
 2969SOL     OW 9805   5.143   3.236   4.407
 2969SOL    HW1 9806   5.140   3.335   4.412
 2969SOL    HW2 9807   5.226   3.202   4.452
 2970SOL     OW 9808   2.525   2.183   4.301
 2970SOL    HW1 9809   2.447   2.204   4.359
 2970SOL    HW2 9810   2.519   2.235   4.217
 2971SOL     OW 9811   5.531   2.451   6.565
 2971SOL    HW1 9812   5.604   2.499   6.517
 2971SOL    HW2 9813   5.539   2.353   6.549
 2972SOL     OW 9814   5.652   5.525   0.318
 2972SOL    HW1 9815   5.588   5.452   0.294
 2972SOL    HW2 9816   5.686   5.569   0.235
 2973SOL     OW 9817   5.038   1.390   2.728
 2973SOL    HW1 9818   5.056   1.488   2.733
 2973SOL    HW2 9819   4.976   1.363   2.801
 2974SOL     OW 9820   5.199   6.396   3.139
 2974SOL    HW1 9821   5.128   6.417   3.072
 2974SOL    HW2 9822   5.157   6.355   3.220
 2975SOL     OW 9823   4.938   4.160   3.557
 2975SOL    HW1 9824   4.951   4.074   3.506
 2975SOL    HW2 9825   4.869   4.146   3.628
 2976SOL     OW 9826   4.224   2.208   1.983
 2976SOL    HW1 9827   4.267   2.118   1.974
 2976SOL    HW2 9828   4.292   2.279   1.970
 2977SOL     OW 9829   1.384   0.991   1.624
 2977SOL    HW1 9830   1.386   1.059   1.551
 2977SOL    HW2 9831   1.291   0.959   1.638
 2978SOL     OW 9832   4.433   5.163   6.040
 2978SOL    HW1 9833   4.446   5.253   6.000
 2978SOL    HW2 9834   4.520   5.113   6.039
 2979SOL     OW 9835   3.333   0.492   3.905
 2979SOL    HW1 9836   3.326   0.394   3.923
 2979SOL    HW2 9837   3.241   0.531   3.902
 2980SOL     OW 9838   3.847   3.306   5.400
 2980SOL    HW1 9839   3.933   3.256   5.398
 2980SOL    HW2 9840   3.841   3.359   5.485
 2981SOL     OW 9841   1.812   1.186   1.476
 2981SOL    HW1 9842   1.904   1.188   1.516
 2981SOL    HW2 9843   1.778   1.092   1.474
 2982SOL     OW 9844   0.701   0.411   1.596
 2982SOL    HW1 9845   0.754   0.331   1.626
 2982SOL    HW2 9846   0.701   0.480   1.667
 2983SOL     OW 9847   6.272   3.143   5.594
 2983SOL    HW1 9848   6.247   3.115   5.501
 2983SOL    HW2 9849   6.222   3.226   5.618
 2984SOL     OW 9850   0.823   4.853   1.159
 2984SOL    HW1 9851   0.734   4.897   1.165
 2984SOL    HW2 9852   0.895   4.923   1.161
 2985SOL     OW 9853   0.237   6.722   5.541
 2985SOL    HW1 9854   0.305   6.749   5.473
 2985SOL    HW2 9855   0.196   6.804   5.581
 2986SOL     OW 9856   3.862   3.521   2.318
 2986SOL    HW1 9857   3.813   3.491   2.236
 2986SOL    HW2 9858   3.888   3.442   2.373
 2987SOL     OW 9859   1.993   0.258   4.775
 2987SOL    HW1 9860   2.008   0.257   4.676
 2987SOL    HW2 9861   1.897   0.241   4.795
 2988SOL     OW 9862   0.170   1.342   6.870
 2988SOL    HW1 9863   0.080   1.387   6.870
 2988SOL    HW2 9864   0.208   1.345   6.778
 2989SOL     OW 9865   4.943   3.772   4.359
 2989SOL    HW1 9866   4.905   3.758   4.450
 2989SOL    HW2 9867   5.008   3.847   4.360
 2990SOL     OW 9868   5.451   1.159   4.387
 2990SOL    HW1 9869   5.490   1.239   4.432
 2990SOL    HW2 9870   5.450   1.174   4.288
 2991SOL     OW 9871   0.139   4.230   1.442
 2991SOL    HW1 9872   0.130   4.319   1.397
 2991SOL    HW2 9873   0.189   4.168   1.381
 2992SOL     OW 9874   0.388   3.302   5.592
 2992SOL    HW1 9875   0.430   3.211   5.599
 2992SOL    HW2 9876   0.453   3.366   5.551
 2993SOL     OW 9877   1.064   4.183   0.464
 2993SOL    HW1 9878   1.138   4.249   0.450
 2993SOL    HW2 9879   1.014   4.205   0.548
 2994SOL     OW 9880   4.134   6.330   6.413
 2994SOL    HW1 9881   4.122   6.333   6.314
 2994SOL    HW2 9882   4.060   6.382   6.457
 2995SOL     OW 9883   5.281   0.616   1.329
 2995SOL    HW1 9884   5.234   0.614   1.417
 2995SOL    HW2 9885   5.221   0.657   1.260
 2996SOL     OW 9886   6.857   0.775   4.765
 2996SOL    HW1 9887   6.764   0.766   4.801
 2996SOL    HW2 9888   6.857   0.753   4.668
 2997SOL     OW 9889   5.427   0.041   4.152
 2997SOL    HW1 9890   5.418   0.139   4.136
 2997SOL    HW2 9891   5.486   0.001   4.083
 2998SOL     OW 9892   2.591   1.439   2.886
 2998SOL    HW1 9893   2.626   1.367   2.826
 2998SOL    HW2 9894   2.586   1.525   2.835
 2999SOL     OW 9895   2.260   4.256   0.718
 2999SOL    HW1 9896   2.314   4.282   0.798
 2999SOL    HW2 9897   2.321   4.230   0.643
 3000SOL     OW 9898   2.888   3.688   4.651
 3000SOL    HW1 9899   2.864   3.774   4.696
 3000SOL    HW2 9900   2.832   3.614   4.689
 3001SOL     OW 9901   5.586   0.524   5.802
 3001SOL    HW1 9902   5.546   0.611   5.831
 3001SOL    HW2 9903   5.543   0.450   5.853
 3002SOL     OW 9904   1.817   1.810   1.721
 3002SOL    HW1 9905   1.779   1.810   1.628
 3002SOL    HW2 9906   1.742   1.802   1.787
 3003SOL     OW 9907   1.399   6.087   0.788
 3003SOL    HW1 9908   1.332   6.060   0.857
 3003SOL    HW2 9909   1.406   6.016   0.718
 3004SOL     OW 9910   2.311   6.306   3.868
 3004SOL    HW1 9911   2.373   6.227   3.873
 3004SOL    HW2 9912   2.283   6.333   3.960
 3005SOL     OW 9913   0.852   2.246   6.098
 3005SOL    HW1 9914   0.833   2.344   6.110
 3005SOL    HW2 9915   0.831   2.219   6.004
 3006SOL     OW 9916   5.026   1.485   5.517
 3006SOL    HW1 9917   5.119   1.503   5.549
 3006SOL    HW2 9918   4.968   1.461   5.595
 3007SOL     OW 9919   5.260   5.468   0.161
 3007SOL    HW1 9920   5.320   5.544   0.135
 3007SOL    HW2 9921   5.184   5.462   0.097
 3008SOL     OW 9922   5.286   2.910   5.992
 3008SOL    HW1 9923   5.322   2.824   5.955
 3008SOL    HW2 9924   5.362   2.973   6.008
 3009SOL     OW 9925   6.943   3.621   2.449
 3009SOL    HW1 9926   6.962   3.673   2.365
 3009SOL    HW2 9927   0.006   3.621   2.506
 3010SOL     OW 9928   3.646   5.693   7.003
 3010SOL    HW1 9929   3.570   5.749   0.019
 3010SOL    HW2 9930   3.640   5.602   0.025
 3011SOL     OW 9931   6.574   0.102   0.918
 3011SOL    HW1 9932   6.522   0.184   0.898
 3011SOL    HW2 9933   6.601   0.057   0.833
 3012SOL     OW 9934   2.372   2.574   5.519
 3012SOL    HW1 9935   2.441   2.542   5.585
 3012SOL    HW2 9936   2.337   2.496   5.468
 3013SOL     OW 9937   0.709   4.311   5.175
 3013SOL    HW1 9938   0.761   4.312   5.090
 3013SOL    HW2 9939   0.723   4.224   5.222
 3014SOL     OW 9940   5.183   6.544   5.813
 3014SOL    HW1 9941   5.203   6.485   5.735
 3014SOL    HW2 9942   5.269   6.572   5.856
 3015SOL     OW 9943   1.494   0.998   0.089
 3015SOL    HW1 9944   1.457   1.086   0.119
 3015SOL    HW2 9945   1.500   0.996   7.008
 3016SOL     OW 9946   1.857   6.487   4.235
 3016SOL    HW1 9947   1.866   6.484   4.135
 3016SOL    HW2 9948   1.761   6.499   4.259
 3017SOL     OW 9949   0.304   5.215   0.745
 3017SOL    HW1 9950   0.383   5.268   0.713
 3017SOL    HW2 9951   0.337   5.131   0.789
 3018SOL     OW 9952   3.220   6.959   0.499
 3018SOL    HW1 9953   3.213   0.025   0.448
 3018SOL    HW2 9954   3.313   6.924   0.495
 3019SOL     OW 9955   2.094   0.683   5.688
 3019SOL    HW1 9956   2.190   0.706   5.673
 3019SOL    HW2 9957   2.080   0.586   5.668
 3020SOL     OW 9958   6.083   4.308   6.911
 3020SOL    HW1 9959   6.164   4.255   6.884
 3020SOL    HW2 9960   6.064   4.293   7.007
 3021SOL     OW 9961   4.280   0.020   4.622
 3021SOL    HW1 9962   4.366   7.008   4.582
 3021SOL    HW2 9963   4.281   0.120   4.632
 3022SOL     OW 9964   3.700   5.725   3.758
 3022SOL    HW1 9965   3.664   5.650   3.704
 3022SOL    HW2 9966   3.769   5.690   3.821
 3023SOL     OW 9967   4.911   5.894   3.455
 3023SOL    HW1 9968   4.957   5.966   3.403
 3023SOL    HW2 9969   4.952   5.805   3.435
 3024SOL     OW 9970   7.009   6.615   6.877
 3024SOL    HW1 9971   6.938   6.598   6.945
 3024SOL    HW2 9972   6.974   6.679   6.808
 3025SOL     OW 9973   3.209   5.617   0.196
 3025SOL    HW1 9974   3.159   5.555   0.135
 3025SOL    HW2 9975   3.146   5.656   0.263
 3026SOL     OW 9976   6.548   1.002   1.496
 3026SOL    HW1 9977   6.565   1.094   1.529
 3026SOL    HW2 9978   6.614   0.939   1.537
 3027SOL     OW 9979   4.899   1.290   1.444
 3027SOL    HW1 9980   4.954   1.355   1.392
 3027SOL    HW2 9981   4.833   1.339   1.501
 3028SOL     OW 9982   3.117   3.664   5.316
 3028SOL    HW1 9983   3.044   3.634   5.378
 3028SOL    HW2 9984   3.078   3.722   5.244
 3029SOL     OW 9985   0.263   3.085   4.615
 3029SOL    HW1 9986   0.316   3.080   4.530
 3029SOL    HW2 9987   0.312   3.037   4.688
 3030SOL     OW 9988   2.512   2.960   0.888
 3030SOL    HW1 9989   2.602   2.955   0.845
 3030SOL    HW2 9990   2.489   3.056   0.904
 3031SOL     OW 9991   1.254   6.609   0.872
 3031SOL    HW1 9992   1.231   6.648   0.960
 3031SOL    HW2 9993   1.347   6.571   0.875
 3032SOL     OW 9994   2.086   0.227   2.984
 3032SOL    HW1 9995   2.093   0.284   3.066
 3032SOL    HW2 9996   2.003   0.250   2.934
 3033SOL     OW 9997   6.766   2.146   4.962
 3033SOL    HW1 9998   6.690   2.211   4.963
 3033SOL    HW2 9999   6.829   2.166   5.037
 3034SOL     OW10000   6.681   4.974   3.336
 3034SOL    HW110001   6.610   5.043   3.324
 3034SOL    HW210002   6.661   4.895   3.278
 3035SOL     OW10003   1.539   2.871   6.697
 3035SOL    HW110004   1.516   2.938   6.767
 3035SOL    HW210005   1.588   2.917   6.622
 3036SOL     OW10006   3.408   2.255   6.395
 3036SOL    HW110007   3.387   2.330   6.332
 3036SOL    HW210008   3.372   2.170   6.358
 3037SOL     OW10009   0.191   5.854   0.004
 3037SOL    HW110010   0.251   5.865   0.083
 3037SOL    HW210011   0.176   5.757   7.004
 3038SOL     OW10012   5.701   4.551   6.792
 3038SOL    HW110013   5.607   4.563   6.760
 3038SOL    HW210014   5.753   4.635   6.772
 3039SOL     OW10015   6.848   3.887   6.421
 3039SOL    HW110016   6.931   3.892   6.365
 3039SOL    HW210017   6.873   3.863   6.515
 3040SOL     OW10018   4.740   4.164   6.036
 3040SOL    HW110019   4.804   4.158   6.113
 3040SOL    HW210020   4.762   4.094   5.968
 3041SOL     OW10021   1.825   4.667   5.501
 3041SOL    HW110022   1.749   4.605   5.481
 3041SOL    HW210023   1.897   4.653   5.433
 3042SOL     OW10024   6.867   4.890   3.559
 3042SOL    HW110025   6.865   4.821   3.632
 3042SOL    HW210026   6.780   4.888   3.509
 3043SOL     OW10027   2.864   4.712   0.625
 3043SOL    HW110028   2.803   4.780   0.666
 3043SOL    HW210029   2.913   4.753   0.547
 3044SOL     OW10030   3.624   3.432   4.927
 3044SOL    HW110031   3.620   3.512   4.987
 3044SOL    HW210032   3.719   3.401   4.918
 3045SOL     OW10033   4.714   1.737   1.976
 3045SOL    HW110034   4.779   1.726   2.051
 3045SOL    HW210035   4.679   1.831   1.975
 3046SOL     OW10036   5.460   6.111   0.998
 3046SOL    HW110037   5.553   6.143   0.982
 3046SOL    HW210038   5.398   6.189   1.007
 3047SOL     OW10039   5.486   1.525   5.024
 3047SOL    HW110040   5.484   1.564   5.116
 3047SOL    HW210041   5.537   1.439   5.025
 3048SOL     OW10042   3.521   4.246   0.800
 3048SOL    HW110043   3.460   4.325   0.790
 3048SOL    HW210044   3.584   4.242   0.723
 3049SOL     OW10045   1.537   1.018   3.452
 3049SOL    HW110046   1.623   1.040   3.499
 3049SOL    HW210047   1.496   1.102   3.418
 3050SOL     OW10048   3.116   2.184   0.954
 3050SOL    HW110049   3.032   2.197   0.901
 3050SOL    HW210050   3.161   2.100   0.925
 3051SOL     OW10051   2.127   5.331   5.515
 3051SOL    HW110052   2.145   5.250   5.459
 3051SOL    HW210053   2.142   5.309   5.611
 3052SOL     OW10054   6.957   6.843   2.042
 3052SOL    HW110055   6.917   6.911   1.980
 3052SOL    HW210056   6.884   6.797   2.092
 3053SOL     OW10057   1.111   3.976   7.009
 3053SOL    HW110058   1.088   4.042   0.061
 3053SOL    HW210059   1.028   3.945   6.962
 3054SOL     OW10060   5.561   1.081   2.634
 3054SOL    HW110061   5.580   1.157   2.572
 3054SOL    HW210062   5.462   1.068   2.642
 3055SOL     OW10063   5.721   6.131   6.778
 3055SOL    HW110064   5.777   6.081   6.712
 3055SOL    HW210065   5.684   6.213   6.735
 3056SOL     OW10066   4.778   1.486   5.416
 3056SOL    HW110067   4.874   1.478   5.443
 3056SOL    HW210068   4.751   1.405   5.364
 3057SOL     OW10069   5.695   4.533   3.385
 3057SOL    HW110070   5.750   4.613   3.364
 3057SOL    HW210071   5.725   4.493   3.472
 3058SOL     OW10072   0.171   4.565   6.862
 3058SOL    HW110073   0.200   4.498   6.794
 3058SOL    HW210074   0.189   4.657   6.826
 3059SOL     OW10075   2.019   2.198   3.796
 3059SOL    HW110076   1.964   2.143   3.859
 3059SOL    HW210077   2.014   2.158   3.705
 3060SOL     OW10078   5.113   5.250   5.095
 3060SOL    HW110079   5.083   5.161   5.129
 3060SOL    HW210080   5.194   5.238   5.037
 3061SOL     OW10081   5.335   5.893   4.708
 3061SOL    HW110082   5.347   5.963   4.778
 3061SOL    HW210083   5.262   5.922   4.646
 3062SOL     OW10084   4.434   4.462   1.326
 3062SOL    HW110085   4.382   4.408   1.260
 3062SOL    HW210086   4.404   4.557   1.322
 3063SOL     OW10087   0.590   4.664   1.783
 3063SOL    HW110088   0.538   4.665   1.697
 3063SOL    HW210089   0.666   4.730   1.775
 3064SOL     OW10090   4.937   2.158   6.413
 3064SOL    HW110091   5.018   2.186   6.464
 3064SOL    HW210092   4.950   2.066   6.375
 3065SOL     OW10093   6.699   1.015   6.589
 3065SOL    HW110094   6.744   1.083   6.531
 3065SOL    HW210095   6.685   0.930   6.537
 3066SOL     OW10096   5.051   6.187   5.843
 3066SOL    HW110097   5.055   6.237   5.930
 3066SOL    HW210098   5.118   6.227   5.779
 3067SOL     OW10099   1.564   1.983   5.998
 3067SOL    HW110100   1.473   1.958   5.963
 3067SOL    HW210101   1.565   1.972   6.097
 3068SOL     OW10102   0.497   1.247   0.586
 3068SOL    HW110103   0.574   1.226   0.527
 3068SOL    HW210104   0.485   1.174   0.653
 3069SOL     OW10105   5.465   0.153   2.501
 3069SOL    HW110106   5.563   0.152   2.518
 3069SOL    HW210107   5.416   0.131   2.585
 3070SOL     OW10108   2.467   0.685   0.914
 3070SOL    HW110109   2.447   0.700   0.818
 3070SOL    HW210110   2.455   0.589   0.937
 3071SOL     OW10111   6.487   3.768   4.466
 3071SOL    HW110112   6.390   3.788   4.454
 3071SOL    HW210113   6.501   3.722   4.553
 3072SOL     OW10114   2.017   0.596   6.689
 3072SOL    HW110115   2.074   0.630   6.614
 3072SOL    HW210116   1.993   0.500   6.671
 3073SOL     OW10117   6.269   5.105   1.305
 3073SOL    HW110118   6.356   5.138   1.342
 3073SOL    HW210119   6.249   5.154   1.220
 3074SOL     OW10120   1.802   3.176   1.770
 3074SOL    HW110121   1.706   3.149   1.780
 3074SOL    HW210122   1.856   3.135   1.843
 3075SOL     OW10123   3.584   5.541   2.212
 3075SOL    HW110124   3.602   5.507   2.120
 3075SOL    HW210125   3.522   5.478   2.260
 3076SOL     OW10126   0.537   0.408   5.173
 3076SOL    HW110127   0.573   0.327   5.128
 3076SOL    HW210128   0.606   0.448   5.233
 3077SOL     OW10129   6.783   3.930   2.601
 3077SOL    HW110130   6.848   3.857   2.582
 3077SOL    HW210131   6.696   3.889   2.632
 3078SOL     OW10132   6.594   3.341   1.853
 3078SOL    HW110133   6.658   3.343   1.776
 3078SOL    HW210134   6.635   3.290   1.928
 3079SOL     OW10135   2.085   3.342   5.473
 3079SOL    HW110136   2.062   3.267   5.411
 3079SOL    HW210137   2.107   3.424   5.420
 3080SOL     OW10138   4.051   4.996   0.595
 3080SOL    HW110139   4.037   4.913   0.650
 3080SOL    HW210140   4.022   4.978   0.501
 3081SOL     OW10141   1.245   3.464   0.119
 3081SOL    HW110142   1.197   3.469   0.032
 3081SOL    HW210143   1.224   3.545   0.174
 3082SOL     OW10144   4.642   4.845   4.540
 3082SOL    HW110145   4.624   4.943   4.526
 3082SOL    HW210146   4.556   4.795   4.540
 3083SOL     OW10147   3.348   6.118   1.707
 3083SOL    HW110148   3.274   6.052   1.696
 3083SOL    HW210149   3.417   6.081   1.770
 3084SOL     OW10150   0.642   3.441   4.045
 3084SOL    HW110151   0.553   3.483   4.065
 3084SOL    HW210152   0.656   3.439   3.946
 3085SOL     OW10153   5.275   4.457   0.693
 3085SOL    HW110154   5.356   4.440   0.749
 3085SOL    HW210155   5.276   4.396   0.613
 3086SOL     OW10156   5.906   6.775   6.370
 3086SOL    HW110157   5.991   6.827   6.375
 3086SOL    HW210158   5.829   6.838   6.369
 3087SOL     OW10159   3.413   6.747   1.645
 3087SOL    HW110160   3.372   6.692   1.717
 3087SOL    HW210161   3.374   6.839   1.647
 3088SOL     OW10162   1.788   2.867   5.869
 3088SOL    HW110163   1.707   2.871   5.927
 3088SOL    HW210164   1.796   2.952   5.817
 3089SOL     OW10165   3.807   6.503   4.973
 3089SOL    HW110166   3.799   6.465   4.881
 3089SOL    HW210167   3.733   6.568   4.990
 3090SOL     OW10168   1.556   2.154   2.238
 3090SOL    HW110169   1.627   2.104   2.186
 3090SOL    HW210170   1.587   2.167   2.332
 3091SOL     OW10171   0.971   2.140   1.238
 3091SOL    HW110172   1.004   2.214   1.297
 3091SOL    HW210173   1.037   2.064   1.241
 3092SOL     OW10174   6.154   1.324   2.564
 3092SOL    HW110175   6.150   1.409   2.616
 3092SOL    HW210176   6.068   1.312   2.514
 3093SOL     OW10177   5.707   5.094   0.260
 3093SOL    HW110178   5.624   5.150   0.266
 3093SOL    HW210179   5.787   5.152   0.272
 3094SOL     OW10180   2.590   1.885   6.848
 3094SOL    HW110181   2.614   1.977   6.817
 3094SOL    HW210182   2.507   1.889   6.903
 3095SOL     OW10183   1.713   3.593   5.014
 3095SOL    HW110184   1.707   3.547   4.926
 3095SOL    HW210185   1.809   3.597   5.044
 3096SOL     OW10186   0.826   3.398   4.285
 3096SOL    HW110187   0.760   3.414   4.358
 3096SOL    HW210188   0.815   3.467   4.213
 3097SOL     OW10189   5.379   2.719   5.404
 3097SOL    HW110190   5.448   2.768   5.457
 3097SOL    HW210191   5.367   2.627   5.440
 3098SOL     OW10192   1.901   2.858   2.284
 3098SOL    HW110193   1.802   2.870   2.283
 3098SOL    HW210194   1.944   2.937   2.240
 3099SOL     OW10195   0.494   5.873   4.520
 3099SOL    HW110196   0.515   5.932   4.443
 3099SOL    HW210197   0.397   5.881   4.543
 3100SOL     OW10198   6.319   5.314   2.456
 3100SOL    HW110199   6.232   5.267   2.472
 3100SOL    HW210200   6.340   5.313   2.358
 3101SOL     OW10201   3.409   6.402   5.642
 3101SOL    HW110202   3.386   6.340   5.568
 3101SOL    HW210203   3.328   6.421   5.698
 3102SOL     OW10204   0.052   5.011   0.882
 3102SOL    HW110205   0.026   5.043   0.791
 3102SOL    HW210206   0.143   5.047   0.906
 3103SOL     OW10207   3.204   1.015   1.095
 3103SOL    HW110208   3.111   1.038   1.123
 3103SOL    HW210209   3.214   0.915   1.090
 3104SOL     OW10210   4.945   0.932   5.561
 3104SOL    HW110211   4.854   0.905   5.593
 3104SOL    HW210212   5.014   0.902   5.626
 3105SOL     OW10213   6.159   4.043   0.512
 3105SOL    HW110214   6.247   4.089   0.523
 3105SOL    HW210215   6.168   3.969   0.445
 3106SOL     OW10216   6.198   0.214   5.989
 3106SOL    HW110217   6.190   0.222   5.890
 3106SOL    HW210218   6.137   0.142   6.022
 3107SOL     OW10219   3.966   1.284   5.845
 3107SOL    HW110220   3.996   1.189   5.847
 3107SOL    HW210221   3.936   1.313   5.936
 3108SOL     OW10222   2.290   4.435   4.023
 3108SOL    HW110223   2.364   4.424   3.957
 3108SOL    HW210224   2.302   4.369   4.098
 3109SOL     OW10225   6.343   5.883   4.226
 3109SOL    HW110226   6.394   5.822   4.165
 3109SOL    HW210227   6.245   5.870   4.213
 3110SOL     OW10228   0.790   4.422   3.060
 3110SOL    HW110229   0.788   4.323   3.042
 3110SOL    HW210230   0.787   4.438   3.158
 3111SOL     OW10231   5.874   4.579   4.233
 3111SOL    HW110232   5.884   4.553   4.329
 3111SOL    HW210233   5.779   4.563   4.204
 3112SOL     OW10234   4.187   2.117   6.283
 3112SOL    HW110235   4.231   2.194   6.329
 3112SOL    HW210236   4.212   2.117   6.187
 3113SOL     OW10237   2.543   5.734   3.319
 3113SOL    HW110238   2.479   5.691   3.382
 3113SOL    HW210239   2.526   5.832   3.316
 3114SOL     OW10240   4.722   1.018   5.948
 3114SOL    HW110241   4.776   1.056   6.024
 3114SOL    HW210242   4.629   1.000   5.979
 3115SOL     OW10243   4.756   5.424   5.044
 3115SOL    HW110244   4.844   5.473   5.051
 3115SOL    HW210245   4.686   5.487   5.011
 3116SOL     OW10246   0.640   1.248   1.040
 3116SOL    HW110247   0.659   1.335   1.086
 3116SOL    HW210248   0.614   1.266   0.945
 3117SOL     OW10249   5.060   1.280   5.742
 3117SOL    HW110250   4.968   1.318   5.730
 3117SOL    HW210251   5.107   1.279   5.654
 3118SOL     OW10252   1.438   0.780   3.541
 3118SOL    HW110253   1.490   0.862   3.514
 3118SOL    HW210254   1.430   0.719   3.463
 3119SOL     OW10255   4.116   4.904   5.466
 3119SOL    HW110256   4.199   4.847   5.466
 3119SOL    HW210257   4.131   4.985   5.522
 3120SOL     OW10258   1.560   6.034   5.294
 3120SOL    HW110259   1.541   6.092   5.373
 3120SOL    HW210260   1.652   6.055   5.259
 3121SOL     OW10261   4.313   1.725   4.565
 3121SOL    HW110262   4.251   1.730   4.487
 3121SOL    HW210263   4.264   1.749   4.648
 3122SOL     OW10264   4.386   5.435   4.195
 3122SOL    HW110265   4.424   5.524   4.171
 3122SOL    HW210266   4.388   5.423   4.294
 3123SOL     OW10267   2.280   1.460   3.787
 3123SOL    HW110268   2.220   1.380   3.786
 3123SOL    HW210269   2.375   1.430   3.780
 3124SOL     OW10270   4.814   6.647   3.322
 3124SOL    HW110271   4.771   6.701   3.395
 3124SOL    HW210272   4.822   6.704   3.239
 3125SOL     OW10273   1.215   1.432   5.415
 3125SOL    HW110274   1.228   1.385   5.502
 3125SOL    HW210275   1.302   1.436   5.366
 3126SOL     OW10276   5.403   5.362   5.321
 3126SOL    HW110277   5.358   5.364   5.410
 3126SOL    HW210278   5.346   5.310   5.256
 3127SOL     OW10279   0.441   0.929   5.133
 3127SOL    HW110280   0.539   0.950   5.131
 3127SOL    HW210281   0.418   0.886   5.220
 3128SOL     OW10282   4.518   0.806   0.199
 3128SOL    HW110283   4.504   0.714   0.163
 3128SOL    HW210284   4.613   0.834   0.182
 3129SOL     OW10285   4.465   3.793   0.375
 3129SOL    HW110286   4.539   3.860   0.365
 3129SOL    HW210287   4.467   3.754   0.467
 3130SOL     OW10288   0.746   4.415   2.242
 3130SOL    HW110289   0.669   4.371   2.289
 3130SOL    HW210290   0.819   4.349   2.229
 3131SOL     OW10291   6.717   4.275   3.174
 3131SOL    HW110292   6.742   4.183   3.144
 3131SOL    HW210293   6.758   4.294   3.263
 3132SOL     OW10294   4.475   4.837   6.774
 3132SOL    HW110295   4.532   4.801   6.700
 3132SOL    HW210296   4.415   4.909   6.739
 3133SOL     OW10297   3.876   0.325   4.146
 3133SOL    HW110298   3.818   0.374   4.211
 3133SOL    HW210299   3.937   0.264   4.195
 3134SOL     OW10300   4.689   5.152   3.088
 3134SOL    HW110301   4.698   5.249   3.106
 3134SOL    HW210302   4.625   5.138   3.012
 3135SOL     OW10303   4.704   6.156   6.640
 3135SOL    HW110304   4.708   6.182   6.543
 3135SOL    HW210305   4.795   6.124   6.669
 3136SOL     OW10306   6.340   1.967   2.732
 3136SOL    HW110307   6.410   2.037   2.718
 3136SOL    HW210308   6.255   2.010   2.763
 3137SOL     OW10309   5.780   0.081   6.855
 3137SOL    HW110310   5.808   7.004   6.843
 3137SOL    HW210311   5.718   0.107   6.781
 3138SOL     OW10312   5.456   5.548   3.688
 3138SOL    HW110313   5.524   5.605   3.735
 3138SOL    HW210314   5.367   5.593   3.693
 3139SOL     OW10315   2.656   5.013   1.600
 3139SOL    HW110316   2.736   5.051   1.646
 3139SOL    HW210317   2.577   5.016   1.662
 3140SOL     OW10318   0.199   0.096   6.498
 3140SOL    HW110319   0.217   0.027   6.569
 3140SOL    HW210320   0.121   0.151   6.525
 3141SOL     OW10321   6.436   2.472   6.038
 3141SOL    HW110322   6.523   2.438   6.075
 3141SOL    HW210323   6.368   2.475   6.111
 3142SOL     OW10324   5.051   1.137   2.639
 3142SOL    HW110325   4.966   1.100   2.601
 3142SOL    HW210326   5.042   1.237   2.647
 3143SOL     OW10327   6.104   0.936   0.230
 3143SOL    HW110328   6.107   0.836   0.240
 3143SOL    HW210329   6.022   0.961   0.179
 3144SOL     OW10330   3.978   3.765   6.312
 3144SOL    HW110331   4.054   3.746   6.375
 3144SOL    HW210332   3.918   3.834   6.352
 3145SOL     OW10333   0.731   6.184   1.339
 3145SOL    HW110334   0.757   6.105   1.284
 3145SOL    HW210335   0.632   6.189   1.345
 3146SOL     OW10336   0.676   0.186   5.105
 3146SOL    HW110337   0.613   0.112   5.078
 3146SOL    HW210338   0.740   0.203   5.030
 3147SOL     OW10339   3.989   5.131   6.903
 3147SOL    HW110340   3.905   5.162   6.948
 3147SOL    HW210341   3.995   5.032   6.908
 3148SOL     OW10342   6.873   4.914   2.692
 3148SOL    HW110343   6.923   4.929   2.777
 3148SOL    HW210344   6.787   4.867   2.712
 3149SOL     OW10345   2.964   1.537   0.454
 3149SOL    HW110346   3.051   1.577   0.483
 3149SOL    HW210347   2.917   1.500   0.534
 3150SOL     OW10348   6.757   5.867   4.724
 3150SOL    HW110349   6.842   5.866   4.776
 3150SOL    HW210350   6.758   5.796   4.655
 3151SOL     OW10351   6.440   1.678   5.572
 3151SOL    HW110352   6.382   1.715   5.500
 3151SOL    HW210353   6.465   1.584   5.550
 3152SOL     OW10354   1.151   3.206   6.304
 3152SOL    HW110355   1.236   3.208   6.357
 3152SOL    HW210356   1.076   3.241   6.360
 3153SOL     OW10357   6.731   5.300   1.165
 3153SOL    HW110358   6.657   5.296   1.232
 3153SOL    HW210359   6.763   5.208   1.144
 3154SOL     OW10360   5.168   1.790   0.086
 3154SOL    HW110361   5.126   1.876   0.114
 3154SOL    HW210362   5.211   1.745   0.164
 3155SOL     OW10363   0.587   5.055   1.111
 3155SOL    HW110364   0.500   5.060   1.160
 3155SOL    HW210365   0.610   5.146   1.076
 3156SOL     OW10366   3.638   4.167   1.878
 3156SOL    HW110367   3.607   4.258   1.907
 3156SOL    HW210368   3.719   4.141   1.930
 3157SOL     OW10369   0.835   1.650   5.358
 3157SOL    HW110370   0.792   1.733   5.322
 3157SOL    HW210371   0.933   1.666   5.371
 3158SOL     OW10372   2.057   1.015   5.791
 3158SOL    HW110373   2.031   0.919   5.799
 3158SOL    HW210374   1.975   1.072   5.796
 3159SOL     OW10375   6.303   6.890   0.363
 3159SOL    HW110376   6.371   6.961   0.380
 3159SOL    HW210377   6.212   6.924   0.386
 3160SOL     OW10378   1.761   0.880   6.488
 3160SOL    HW110379   1.741   0.801   6.546
 3160SOL    HW210380   1.789   0.957   6.546
 3161SOL     OW10381   2.063   2.770   2.782
 3161SOL    HW110382   2.002   2.823   2.724
 3161SOL    HW210383   2.054   2.673   2.761
 3162SOL     OW10384   1.834   5.661   0.961
 3162SOL    HW110385   1.760   5.618   1.013
 3162SOL    HW210386   1.844   5.756   0.990
 3163SOL     OW10387   3.893   3.818   0.085
 3163SOL    HW110388   3.992   3.811   0.073
 3163SOL    HW210389   3.871   3.906   0.127
 3164SOL     OW10390   2.735   6.135   3.039
 3164SOL    HW110391   2.712   6.201   2.968
 3164SOL    HW210392   2.785   6.182   3.112
 3165SOL     OW10393   0.973   6.254   6.873
 3165SOL    HW110394   1.027   6.337   6.889
 3165SOL    HW210395   1.006   6.207   6.792
 3166SOL     OW10396   4.298   0.796   5.215
 3166SOL    HW110397   4.377   0.824   5.271
 3166SOL    HW210398   4.303   0.698   5.196
 3167SOL     OW10399   5.836   3.610   0.811
 3167SOL    HW110400   5.935   3.612   0.795
 3167SOL    HW210401   5.799   3.522   0.780
 3168SOL     OW10402   4.995   1.838   0.728
 3168SOL    HW110403   4.958   1.874   0.813
 3168SOL    HW210404   5.032   1.913   0.673
 3169SOL     OW10405   1.727   4.371   1.683
 3169SOL    HW110406   1.743   4.383   1.781
 3169SOL    HW210407   1.687   4.281   1.666
 3170SOL     OW10408   3.015   5.120   3.566
 3170SOL    HW110409   3.088   5.183   3.540
 3170SOL    HW210410   3.035   5.029   3.531
 3171SOL     OW10411   5.132   2.940   3.352
 3171SOL    HW110412   5.124   2.974   3.258
 3171SOL    HW210413   5.149   2.841   3.350
 3172SOL     OW10414   0.491   4.636   1.344
 3172SOL    HW110415   0.440   4.561   1.386
 3172SOL    HW210416   0.588   4.626   1.363
 3173SOL     OW10417   3.948   2.316   0.379
 3173SOL    HW110418   3.963   2.254   0.455
 3173SOL    HW210419   3.850   2.325   0.363
 3174SOL     OW10420   2.836   3.737   5.211
 3174SOL    HW110421   2.777   3.813   5.240
 3174SOL    HW210422   2.923   3.774   5.179
 3175SOL     OW10423   6.688   0.352   4.282
 3175SOL    HW110424   6.755   0.356   4.356
 3175SOL    HW210425   6.640   0.440   4.275
 3176SOL     OW10426   1.226   4.594   5.285
 3176SOL    HW110427   1.207   4.620   5.190
 3176SOL    HW210428   1.316   4.630   5.311
 3177SOL     OW10429   5.800   3.412   3.777
 3177SOL    HW110430   5.797   3.346   3.852
 3177SOL    HW210431   5.710   3.454   3.765
 3178SOL     OW10432   6.562   0.477   1.369
 3178SOL    HW110433   6.505   0.423   1.307
 3178SOL    HW210434   6.548   0.445   1.463
 3179SOL     OW10435   1.090   1.889   2.096
 3179SOL    HW110436   1.023   1.816   2.108
 3179SOL    HW210437   1.178   1.850   2.066
 3180SOL     OW10438   6.484   5.995   6.980
 3180SOL    HW110439   6.469   5.946   0.046
 3180SOL    HW210440   6.483   5.931   6.903
 3181SOL     OW10441   0.782   0.530   4.877
 3181SOL    HW110442   0.874   0.568   4.877
 3181SOL    HW210443   0.763   0.490   4.787
 3182SOL     OW10444   2.875   0.643   0.791
 3182SOL    HW110445   2.964   0.599   0.791
 3182SOL    HW210446   2.851   0.673   0.883
 3183SOL     OW10447   4.529   4.485   1.764
 3183SOL    HW110448   4.532   4.422   1.686
 3183SOL    HW210449   4.524   4.433   1.849
 3184SOL     OW10450   0.535   1.967   5.331
 3184SOL    HW110451   0.540   2.001   5.425
 3184SOL    HW210452   0.458   2.009   5.284
 3185SOL     OW10453   0.554   5.502   6.081
 3185SOL    HW110454   0.651   5.480   6.085
 3185SOL    HW210455   0.505   5.449   6.151
 3186SOL     OW10456   0.165   1.445   6.398
 3186SOL    HW110457   0.231   1.467   6.469
 3186SOL    HW210458   0.074   1.473   6.428
 3187SOL     OW10459   4.063   6.021   2.599
 3187SOL    HW110460   4.084   6.112   2.635
 3187SOL    HW210461   3.992   6.028   2.529
 3188SOL     OW10462   2.042   4.493   5.745
 3188SOL    HW110463   2.108   4.500   5.819
 3188SOL    HW210464   1.952   4.524   5.776
 3189SOL     OW10465   3.562   1.650   6.945
 3189SOL    HW110466   3.463   1.656   6.954
 3189SOL    HW210467   3.594   1.716   6.877
 3190SOL     OW10468   6.478   5.442   4.431
 3190SOL    HW110469   6.530   5.494   4.499
 3190SOL    HW210470   6.384   5.476   4.428
 3191SOL     OW10471   4.537   5.830   2.158
 3191SOL    HW110472   4.484   5.856   2.078
 3191SOL    HW210473   4.594   5.751   2.135
 3192SOL     OW10474   6.115   2.574   2.325
 3192SOL    HW110475   6.056   2.655   2.333
 3192SOL    HW210476   6.141   2.563   2.229
 3193SOL     OW10477   4.013   0.438   5.398
 3193SOL    HW110478   3.944   0.389   5.345
 3193SOL    HW210479   4.096   0.382   5.404
 3194SOL     OW10480   1.056   1.033   6.295
 3194SOL    HW110481   1.019   1.074   6.212
 3194SOL    HW210482   1.148   1.068   6.311
 3195SOL     OW10483   0.350   1.852   1.853
 3195SOL    HW110484   0.389   1.891   1.770
 3195SOL    HW210485   0.392   1.896   1.933
 3196SOL     OW10486   6.295   6.889   5.048
 3196SOL    HW110487   6.387   6.927   5.036
 3196SOL    HW210488   6.229   6.964   5.054
 3197SOL     OW10489   1.897   1.123   6.309
 3197SOL    HW110490   1.889   1.051   6.378
 3197SOL    HW210491   1.849   1.096   6.226
 3198SOL     OW10492   6.574   3.079   3.480
 3198SOL    HW110493   6.663   3.047   3.447
 3198SOL    HW210494   6.545   3.158   3.426
 3199SOL     OW10495   5.550   4.081   3.001
 3199SOL    HW110496   5.517   4.133   2.922
 3199SOL    HW210497   5.567   3.986   2.973
 3200SOL     OW10498   5.277   3.533   4.222
 3200SOL    HW110499   5.274   3.462   4.151
 3200SOL    HW210500   5.360   3.586   4.212
 3201SOL     OW10501   5.890   4.209   2.739
 3201SOL    HW110502   5.797   4.227   2.706
 3201SOL    HW210503   5.892   4.216   2.838
 3202SOL     OW10504   1.216   4.641   0.330
 3202SOL    HW110505   1.220   4.628   0.231
 3202SOL    HW210506   1.141   4.702   0.353
 3203SOL     OW10507   3.877   6.861   1.156
 3203SOL    HW110508   3.954   6.798   1.164
 3203SOL    HW210509   3.894   6.941   1.214
 3204SOL     OW10510   2.549   1.386   3.763
 3204SOL    HW110511   2.603   1.303   3.749
 3204SOL    HW210512   2.574   1.454   3.693
 3205SOL     OW10513   5.585   3.160   5.497
 3205SOL    HW110514   5.666   3.218   5.481
 3205SOL    HW210515   5.503   3.211   5.474
 3206SOL     OW10516   2.756   3.130   1.384
 3206SOL    HW110517   2.693   3.134   1.462
 3206SOL    HW210518   2.780   3.034   1.366
 3207SOL     OW10519   1.079   6.363   5.419
 3207SOL    HW110520   1.013   6.401   5.485
 3207SOL    HW210521   1.079   6.264   5.425
 3208SOL     OW10522   6.059   5.695   5.923
 3208SOL    HW110523   6.049   5.621   5.858
 3208SOL    HW210524   6.103   5.773   5.879
 3209SOL     OW10525   5.028   5.794   6.459
 3209SOL    HW110526   5.116   5.768   6.418
 3209SOL    HW210527   4.953   5.753   6.406
 3210SOL     OW10528   6.968   5.411   1.782
 3210SOL    HW110529   6.934   5.480   1.717
 3210SOL    HW210530   6.938   5.435   1.874
 3211SOL     OW10531   1.035   5.440   6.656
 3211SOL    HW110532   1.042   5.351   6.610
 3211SOL    HW210533   1.108   5.500   6.623
 3212SOL     OW10534   2.170   6.732   2.839
 3212SOL    HW110535   2.082   6.767   2.871
 3212SOL    HW210536   2.237   6.806   2.838
 3213SOL     OW10537   1.614   0.477   6.029
 3213SOL    HW110538   1.690   0.513   6.082
 3213SOL    HW210539   1.572   0.401   6.079
 3214SOL     OW10540   3.380   1.144   2.967
 3214SOL    HW110541   3.320   1.195   2.905
 3214SOL    HW210542   3.363   1.172   3.061
 3215SOL     OW10543   1.663   2.833   0.724
 3215SOL    HW110544   1.637   2.817   0.629
 3215SOL    HW210545   1.675   2.931   0.740
 3216SOL     OW10546   5.548   4.363   0.785
 3216SOL    HW110547   5.483   4.296   0.821
 3216SOL    HW210548   5.574   4.338   0.692
 3217SOL     OW10549   0.997   5.299   3.000
 3217SOL    HW110550   0.908   5.344   3.013
 3217SOL    HW210551   1.027   5.261   3.087
 3218SOL     OW10552   6.066   1.255   2.987
 3218SOL    HW110553   6.054   1.160   2.956
 3218SOL    HW210554   6.146   1.294   2.943
 3219SOL     OW10555   5.991   0.429   5.537
 3219SOL    HW110556   5.900   0.471   5.528
 3219SOL    HW210557   6.026   0.448   5.629
 3220SOL     OW10558   6.610   4.882   6.715
 3220SOL    HW110559   6.645   4.968   6.677
 3220SOL    HW210560   6.548   4.840   6.650
 3221SOL     OW10561   3.820   0.421   1.697
 3221SOL    HW110562   3.918   0.441   1.709
 3221SOL    HW210563   3.780   0.398   1.786
 3222SOL     OW10564   2.955   1.466   2.956
 3222SOL    HW110565   2.885   1.510   3.013
 3222SOL    HW210566   2.943   1.367   2.959
 3223SOL     OW10567   1.494   0.202   1.245
 3223SOL    HW110568   1.588   0.213   1.277
 3223SOL    HW210569   1.458   0.290   1.216
 3224SOL     OW10570   4.345   2.232   4.215
 3224SOL    HW110571   4.366   2.302   4.147
 3224SOL    HW210572   4.337   2.275   4.305
 3225SOL     OW10573   4.038   0.615   4.418
 3225SOL    HW110574   4.016   0.558   4.497
 3225SOL    HW210575   4.124   0.584   4.377
 3226SOL     OW10576   0.384   0.007   1.299
 3226SOL    HW110577   0.290   0.036   1.278
 3226SOL    HW210578   0.431   0.080   1.348
 3227SOL     OW10579   4.940   3.477   5.496
 3227SOL    HW110580   4.940   3.423   5.581
 3227SOL    HW210581   4.872   3.439   5.433
 3228SOL     OW10582   1.914   4.270   0.531
 3228SOL    HW110583   1.948   4.358   0.563
 3228SOL    HW210584   1.978   4.198   0.556
 3229SOL     OW10585   1.659   1.331   0.615
 3229SOL    HW110586   1.561   1.330   0.635
 3229SOL    HW210587   1.706   1.388   0.682
 3230SOL     OW10588   2.371   5.575   5.963
 3230SOL    HW110589   2.346   5.645   6.029
 3230SOL    HW210590   2.405   5.494   6.011
 3231SOL     OW10591   2.676   1.161   1.572
 3231SOL    HW110592   2.689   1.131   1.667
 3231SOL    HW210593   2.731   1.102   1.512
 3232SOL     OW10594   4.197   6.060   4.296
 3232SOL    HW110595   4.108   6.106   4.297
 3232SOL    HW210596   4.261   6.114   4.242
 3233SOL     OW10597   0.599   2.745   0.288
 3233SOL    HW110598   0.507   2.746   0.326
 3233SOL    HW210599   0.634   2.839   0.283
 3234SOL     OW10600   2.874   2.439   0.568
 3234SOL    HW110601   2.967   2.475   0.570
 3234SOL    HW210602   2.811   2.507   0.606
 3235SOL     OW10603   0.157   6.903   2.212
 3235SOL    HW110604   0.078   6.894   2.152
 3235SOL    HW210605   0.131   6.877   2.305
 3236SOL     OW10606   3.115   3.379   0.458
 3236SOL    HW110607   3.101   3.290   0.415
 3236SOL    HW210608   3.040   3.440   0.432
 3237SOL     OW10609   6.100   0.943   5.355
 3237SOL    HW110610   6.071   0.865   5.412
 3237SOL    HW210611   6.144   0.909   5.272
 3238SOL     OW10612   6.843   5.751   1.304
 3238SOL    HW110613   6.866   5.797   1.218
 3238SOL    HW210614   6.769   5.685   1.287
 3239SOL     OW10615   6.678   0.067   4.234
 3239SOL    HW110616   6.715   0.060   4.141
 3239SOL    HW210617   6.642   0.159   4.249
 3240SOL     OW10618   0.604   1.051   6.733
 3240SOL    HW110619   0.593   0.963   6.779
 3240SOL    HW210620   0.564   1.123   6.790
 3241SOL     OW10621   5.908   1.353   5.961
 3241SOL    HW110622   5.958   1.272   5.990
 3241SOL    HW210623   5.971   1.431   5.958
 3242SOL     OW10624   5.185   4.906   5.287
 3242SOL    HW110625   5.137   4.950   5.363
 3242SOL    HW210626   5.275   4.949   5.275
 3243SOL     OW10627   5.075   5.066   5.483
 3243SOL    HW110628   5.029   5.043   5.569
 3243SOL    HW210629   5.170   5.092   5.501
 3244SOL     OW10630   5.383   5.955   0.184
 3244SOL    HW110631   5.408   5.991   0.274
 3244SOL    HW210632   5.313   6.014   0.143
 3245SOL     OW10633   3.984   1.300   4.223
 3245SOL    HW110634   3.925   1.351   4.161
 3245SOL    HW210635   3.982   1.203   4.198
 3246SOL     OW10636   6.937   1.129   2.437
 3246SOL    HW110637   0.017   1.144   2.436
 3246SOL    HW210638   6.894   1.198   2.494
 3247SOL     OW10639   0.495   4.145   3.292
 3247SOL    HW110640   0.553   4.065   3.285
 3247SOL    HW210641   0.487   4.189   3.202
 3248SOL     OW10642   5.217   2.201   3.554
 3248SOL    HW110643   5.218   2.240   3.462
 3248SOL    HW210644   5.279   2.252   3.613
 3249SOL     OW10645   3.297   3.597   3.631
 3249SOL    HW110646   3.249   3.615   3.717
 3249SOL    HW210647   3.269   3.507   3.596
 3250SOL     OW10648   5.120   5.199   2.571
 3250SOL    HW110649   5.053   5.181   2.643
 3250SOL    HW210650   5.212   5.187   2.607
 3251SOL     OW10651   2.921   1.205   3.789
 3251SOL    HW110652   2.837   1.162   3.757
 3251SOL    HW210653   2.930   1.190   3.888
 3252SOL     OW10654   2.190   1.307   4.111
 3252SOL    HW110655   2.123   1.250   4.157
 3252SOL    HW210656   2.261   1.249   4.070
 3253SOL     OW10657   6.693   3.711   1.136
 3253SOL    HW110658   6.637   3.778   1.088
 3253SOL    HW210659   6.714   3.744   1.228
 3254SOL     OW10660   5.810   0.745   0.536
 3254SOL    HW110661   5.826   0.656   0.579
 3254SOL    HW210662   5.717   0.776   0.556
 3255SOL     OW10663   5.371   4.728   0.996
 3255SOL    HW110664   5.356   4.696   1.090
 3255SOL    HW210665   5.463   4.703   0.967
 3256SOL     OW10666   4.981   2.197   0.921
 3256SOL    HW110667   4.960   2.218   1.016
 3256SOL    HW210668   4.928   2.117   0.891
 3257SOL     OW10669   2.750   1.978   2.815
 3257SOL    HW110670   2.801   1.916   2.874
 3257SOL    HW210671   2.743   1.938   2.723
 3258SOL     OW10672   2.212   5.851   3.262
 3258SOL    HW110673   2.296   5.886   3.305
 3258SOL    HW210674   2.231   5.828   3.166
 3259SOL     OW10675   4.737   4.148   3.729
 3259SOL    HW110676   4.752   4.218   3.799
 3259SOL    HW210677   4.740   4.058   3.771
 3260SOL     OW10678   1.346   4.004   1.680
 3260SOL    HW110679   1.362   3.934   1.749
 3260SOL    HW210680   1.249   4.030   1.680
 3261SOL     OW10681   4.693   0.018   2.958
 3261SOL    HW110682   4.776   6.987   2.931
 3261SOL    HW210683   4.635   6.976   3.013
 3262SOL     OW10684   3.366   2.118   2.248
 3262SOL    HW110685   3.465   2.104   2.245
 3262SOL    HW210686   3.336   2.122   2.343
 3263SOL     OW10687   1.401   1.373   2.420
 3263SOL    HW110688   1.379   1.468   2.442
 3263SOL    HW210689   1.463   1.336   2.489
 3264SOL     OW10690   2.498   5.540   0.350
 3264SOL    HW110691   2.447   5.509   0.430
 3264SOL    HW210692   2.456   5.502   0.267
 3265SOL     OW10693   6.047   5.159   5.700
 3265SOL    HW110694   6.078   5.187   5.609
 3265SOL    HW210695   6.023   5.062   5.698
 3266SOL     OW10696   3.217   4.764   6.893
 3266SOL    HW110697   3.216   4.699   6.817
 3266SOL    HW210698   3.125   4.802   6.906
 3267SOL     OW10699   4.146   0.114   0.310
 3267SOL    HW110700   4.201   0.032   0.293
 3267SOL    HW210701   4.103   0.107   0.400
 3268SOL     OW10702   6.739   4.857   2.065
 3268SOL    HW110703   6.833   4.826   2.047
 3268SOL    HW210704   6.688   4.783   2.110
 3269SOL     OW10705   1.726   4.985   2.351
 3269SOL    HW110706   1.766   5.006   2.262
 3269SOL    HW210707   1.799   4.982   2.420
 3270SOL     OW10708   0.748   2.375   5.583
 3270SOL    HW110709   0.777   2.304   5.519
 3270SOL    HW210710   0.729   2.335   5.672
 3271SOL     OW10711   0.452   3.768   2.288
 3271SOL    HW110712   0.528   3.788   2.350
 3271SOL    HW210713   0.368   3.755   2.341
 3272SOL     OW10714   4.592   6.420   0.106
 3272SOL    HW110715   4.621   6.473   0.026
 3272SOL    HW210716   4.538   6.341   0.075
 3273SOL     OW10717   4.717   2.846   6.839
 3273SOL    HW110718   4.627   2.889   6.846
 3273SOL    HW210719   4.748   2.846   6.744
 3274SOL     OW10720   5.140   0.820   0.024
 3274SOL    HW110721   5.162   0.730   7.004
 3274SOL    HW210722   5.054   0.853   7.004
 3275SOL     OW10723   4.864   0.103   1.269
 3275SOL    HW110724   4.768   0.087   1.290
 3275SOL    HW210725   4.912   0.135   1.351
 3276SOL     OW10726   4.676   6.863   0.021
 3276SOL    HW110727   4.607   6.828   0.085
 3276SOL    HW210728   4.699   6.792   6.973
 3277SOL     OW10729   3.400   1.843   2.123
 3277SOL    HW110730   3.369   1.929   2.163
 3277SOL    HW210731   3.451   1.790   2.191
 3278SOL     OW10732   6.734   0.423   6.837
 3278SOL    HW110733   6.660   0.445   6.772
 3278SOL    HW210734   6.783   0.342   6.805
 3279SOL     OW10735   3.895   6.795   0.872
 3279SOL    HW110736   3.838   6.810   0.953
 3279SOL    HW210737   3.976   6.742   0.897
 3280SOL     OW10738   5.350   3.510   4.762
 3280SOL    HW110739   5.307   3.599   4.750
 3280SOL    HW210740   5.287   3.449   4.809
 3281SOL     OW10741   6.205   4.087   2.030
 3281SOL    HW110742   6.220   4.066   1.933
 3281SOL    HW210743   6.137   4.159   2.038
 3282SOL     OW10744   0.357   4.376   5.105
 3282SOL    HW110745   0.453   4.374   5.078
 3282SOL    HW210746   0.304   4.424   5.035
 3283SOL     OW10747   3.835   1.154   1.426
 3283SOL    HW110748   3.815   1.197   1.339
 3283SOL    HW210749   3.930   1.173   1.452
 3284SOL     OW10750   1.510   5.510   5.027
 3284SOL    HW110751   1.492   5.547   4.936
 3284SOL    HW210752   1.589   5.557   5.067
 3285SOL     OW10753   4.982   1.417   4.754
 3285SOL    HW110754   5.045   1.494   4.762
 3285SOL    HW210755   4.924   1.413   4.835
 3286SOL     OW10756   3.160   1.746   1.351
 3286SOL    HW110757   3.107   1.792   1.279
 3286SOL    HW210758   3.206   1.815   1.407
 3287SOL     OW10759   2.538   0.015   6.815
 3287SOL    HW110760   2.555   0.113   6.825
 3287SOL    HW210761   2.463   0.000   6.752
 3288SOL     OW10762   1.603   6.353   1.155
 3288SOL    HW110763   1.608   6.254   1.137
 3288SOL    HW210764   1.572   6.400   1.072
 3289SOL     OW10765   3.833   1.694   6.748
 3289SOL    HW110766   3.906   1.661   6.809
 3289SOL    HW210767   3.788   1.773   6.788
 3290SOL     OW10768   6.791   4.934   0.248
 3290SOL    HW110769   6.697   4.957   0.222
 3290SOL    HW210770   6.829   4.869   0.182
 3291SOL     OW10771   4.922   6.873   5.289
 3291SOL    HW110772   4.916   6.959   5.239
 3291SOL    HW210773   4.841   6.818   5.273
 3292SOL     OW10774   0.187   1.832   1.522
 3292SOL    HW110775   0.279   1.868   1.540
 3292SOL    HW210776   0.121   1.879   1.581
 3293SOL     OW10777   6.526   5.174   3.195
 3293SOL    HW110778   6.438   5.165   3.241
 3293SOL    HW210779   6.547   5.271   3.182
 3294SOL     OW10780   4.976   2.705   4.995
 3294SOL    HW110781   4.918   2.785   4.979
 3294SOL    HW210782   4.962   2.672   5.089
 3295SOL     OW10783   1.684   2.918   2.033
 3295SOL    HW110784   1.623   2.878   1.964
 3295SOL    HW210785   1.629   2.968   2.100
 3296SOL     OW10786   0.775   0.005   6.272
 3296SOL    HW110787   0.830   6.952   6.316
 3296SOL    HW210788   0.834   0.064   6.217
 3297SOL     OW10789   3.196   1.891   4.766
 3297SOL    HW110790   3.108   1.845   4.764
 3297SOL    HW210791   3.246   1.873   4.681
 3298SOL     OW10792   5.721   4.293   5.473
 3298SOL    HW110793   5.761   4.382   5.495
 3298SOL    HW210794   5.760   4.259   5.387
 3299SOL     OW10795   3.181   4.893   4.730
 3299SOL    HW110796   3.111   4.964   4.736
 3299SOL    HW210797   3.215   4.871   4.821
 3300SOL     OW10798   2.053   6.966   4.863
 3300SOL    HW110799   2.081   0.035   4.824
 3300SOL    HW210800   2.012   6.981   4.953
 3301SOL     OW10801   2.276   2.909   2.936
 3301SOL    HW110802   2.314   2.856   3.011
 3301SOL    HW210803   2.220   2.849   2.878
 3302SOL     OW10804   2.535   4.703   5.878
 3302SOL    HW110805   2.511   4.606   5.886
 3302SOL    HW210806   2.574   4.720   5.788
 3303SOL     OW10807   3.254   3.262   0.669
 3303SOL    HW110808   3.217   3.289   0.580
 3303SOL    HW210809   3.219   3.171   0.694
 3304SOL     OW10810   2.592   4.913   6.009
 3304SOL    HW110811   2.580   4.834   5.949
 3304SOL    HW210812   2.507   4.930   6.059
 3305SOL     OW10813   3.454   0.999   0.864
 3305SOL    HW110814   3.377   1.059   0.844
 3305SOL    HW210815   3.453   0.921   0.801
 3306SOL     OW10816   1.950   0.788   0.113
 3306SOL    HW110817   1.908   0.705   0.075
 3306SOL    HW210818   1.973   0.772   0.209
 3307SOL     OW10819   1.399   0.062   4.593
 3307SOL    HW110820   1.375   0.118   4.673
 3307SOL    HW210821   1.446   0.119   4.526
 3308SOL     OW10822   3.479   4.352   1.097
 3308SOL    HW110823   3.403   4.414   1.119
 3308SOL    HW210824   3.538   4.342   1.177
 3309SOL     OW10825   5.531   3.834   3.700
 3309SOL    HW110826   5.435   3.821   3.723
 3309SOL    HW210827   5.539   3.871   3.608
 3310SOL     OW10828   6.505   5.293   5.037
 3310SOL    HW110829   6.573   5.365   5.053
 3310SOL    HW210830   6.539   5.207   5.074
 3311SOL     OW10831   3.325   3.562   0.336
 3311SOL    HW110832   3.265   3.492   0.374
 3311SOL    HW210833   3.275   3.648   0.327
 3312SOL     OW10834   4.894   2.776   5.718
 3312SOL    HW110835   4.840   2.709   5.666
 3312SOL    HW210836   4.870   2.868   5.689
 3313SOL     OW10837   1.048   0.766   3.654
 3313SOL    HW110838   1.067   0.694   3.588
 3313SOL    HW210839   1.133   0.795   3.697
 3314SOL     OW10840   1.838   5.972   2.424
 3314SOL    HW110841   1.846   6.067   2.395
 3314SOL    HW210842   1.850   5.912   2.345
 3315SOL     OW10843   6.983   4.857   5.128
 3315SOL    HW110844   6.969   4.799   5.047
 3315SOL    HW210845   0.058   4.847   5.160
 3316SOL     OW10846   3.210   1.777   6.615
 3316SOL    HW110847   3.150   1.849   6.650
 3316SOL    HW210848   3.228   1.793   6.518
 3317SOL     OW10849   5.488   2.233   2.525
 3317SOL    HW110850   5.505   2.159   2.460
 3317SOL    HW210851   5.534   2.316   2.495
 3318SOL     OW10852   3.161   2.155   0.424
 3318SOL    HW110853   3.173   2.224   0.495
 3318SOL    HW210854   3.120   2.073   0.464
 3319SOL     OW10855   6.981   6.570   3.016
 3319SOL    HW110856   6.912   6.621   2.965
 3319SOL    HW210857   7.004   6.618   3.100
 3320SOL     OW10858   5.982   0.222   1.010
 3320SOL    HW110859   6.045   0.298   0.996
 3320SOL    HW210860   5.907   0.227   0.944
 3321SOL     OW10861   5.423   1.616   6.929
 3321SOL    HW110862   5.429   1.715   6.944
 3321SOL    HW210863   5.509   1.583   6.892
 3322SOL     OW10864   6.807   3.840   1.360
 3322SOL    HW110865   6.846   3.932   1.363
 3322SOL    HW210866   6.778   3.813   1.453
 3323SOL     OW10867   1.758   1.366   2.101
 3323SOL    HW110868   1.839   1.412   2.065
 3323SOL    HW210869   1.698   1.435   2.143
 3324SOL     OW10870   5.287   5.376   5.573
 3324SOL    HW110871   5.354   5.427   5.627
 3324SOL    HW210872   5.195   5.408   5.593
 3325SOL     OW10873   1.768   3.736   6.741
 3325SOL    HW110874   1.679   3.721   6.783
 3325SOL    HW210875   1.840   3.714   6.807
 3326SOL     OW10876   5.436   1.507   2.654
 3326SOL    HW110877   5.409   1.508   2.558
 3326SOL    HW210878   5.378   1.570   2.706
 3327SOL     OW10879   1.778   5.722   1.496
 3327SOL    HW110880   1.766   5.755   1.590
 3327SOL    HW210881   1.846   5.779   1.450
 3328SOL     OW10882   4.459   2.100   0.525
 3328SOL    HW110883   4.411   2.024   0.568
 3328SOL    HW210884   4.405   2.183   0.534
 3329SOL     OW10885   6.010   5.531   5.712
 3329SOL    HW110886   6.065   5.491   5.638
 3329SOL    HW210887   5.916   5.498   5.705
 3330SOL     OW10888   5.971   3.291   2.328
 3330SOL    HW110889   6.037   3.221   2.303
 3330SOL    HW210890   5.981   3.370   2.266
 3331SOL     OW10891   1.687   2.131   1.343
 3331SOL    HW110892   1.785   2.124   1.361
 3331SOL    HW210893   1.636   2.108   1.425
 3332SOL     OW10894   6.079   4.500   0.746
 3332SOL    HW110895   6.041   4.592   0.755
 3332SOL    HW210896   6.016   4.443   0.693
 3333SOL     OW10897   3.898   5.087   6.033
 3333SOL    HW110898   3.995   5.106   6.020
 3333SOL    HW210899   3.846   5.125   5.957
 3334SOL     OW10900   2.753   4.107   1.709
 3334SOL    HW110901   2.753   4.011   1.679
 3334SOL    HW210902   2.659   4.143   1.704
 3335SOL     OW10903   5.288   4.551   5.712
 3335SOL    HW110904   5.344   4.473   5.739
 3335SOL    HW210905   5.299   4.568   5.614
 3336SOL     OW10906   3.440   4.963   6.168
 3336SOL    HW110907   3.517   4.931   6.224
 3336SOL    HW210908   3.421   5.059   6.188
 3337SOL     OW10909   3.577   2.665   1.433
 3337SOL    HW110910   3.613   2.633   1.521
 3337SOL    HW210911   3.502   2.729   1.448
 3338SOL     OW10912   0.401   3.988   0.567
 3338SOL    HW110913   0.305   3.992   0.540
 3338SOL    HW210914   0.408   3.972   0.665
 3339SOL     OW10915   6.408   5.749   6.759
 3339SOL    HW110916   6.342   5.722   6.829
 3339SOL    HW210917   6.480   5.680   6.754
 3340SOL     OW10918   3.159   6.269   1.867
 3340SOL    HW110919   3.224   6.223   1.806
 3340SOL    HW210920   3.176   6.240   1.962
 3341SOL     OW10921   0.732   0.764   2.463
 3341SOL    HW110922   0.778   0.801   2.382
 3341SOL    HW210923   0.789   0.692   2.503
 3342SOL     OW10924   2.184   6.881   3.711
 3342SOL    HW110925   2.108   6.855   3.651
 3342SOL    HW210926   2.186   6.821   3.791
 3343SOL     OW10927   5.324   3.104   0.937
 3343SOL    HW110928   5.351   3.190   0.893
 3343SOL    HW210929   5.385   3.085   1.014
 3344SOL     OW10930   5.908   3.292   6.052
 3344SOL    HW110931   5.991   3.247   6.085
 3344SOL    HW210932   5.899   3.276   5.954
 3345SOL     OW10933   3.007   3.529   5.568
 3345SOL    HW110934   3.046   3.448   5.524
 3345SOL    HW210935   3.046   3.539   5.660
 3346SOL     OW10936   0.097   0.104   1.543
 3346SOL    HW110937   0.101   0.030   1.610
 3346SOL    HW210938   0.186   0.149   1.537
 3347SOL     OW10939   5.864   3.699   4.940
 3347SOL    HW110940   5.894   3.674   5.032
 3347SOL    HW210941   5.782   3.647   4.916
 3348SOL     OW10942   3.950   3.057   4.225
 3348SOL    HW110943   3.887   3.026   4.296
 3348SOL    HW210944   3.927   3.013   4.138
 3349SOL     OW10945   6.237   3.574   4.231
 3349SOL    HW110946   6.218   3.661   4.277
 3349SOL    HW210947   6.325   3.578   4.185
 3350SOL     OW10948   1.366   1.096   0.890
 3350SOL    HW110949   1.413   1.152   0.959
 3350SOL    HW210950   1.379   0.999   0.910
 3351SOL     OW10951   5.279   2.081   0.990
 3351SOL    HW110952   5.193   2.112   0.950
 3351SOL    HW210953   5.268   2.071   1.089
 3352SOL     OW10954   0.729   3.161   0.747
 3352SOL    HW110955   0.809   3.153   0.806
 3352SOL    HW210956   0.700   3.256   0.743
 3353SOL     OW10957   1.994   0.296   6.636
 3353SOL    HW110958   2.061   0.286   6.710
 3353SOL    HW210959   2.038   0.276   6.549
 3354SOL     OW10960   6.972   2.754   3.939
 3354SOL    HW110961   6.905   2.770   4.011
 3354SOL    HW210962   6.945   2.806   3.857
 3355SOL     OW10963   6.612   1.206   2.062
 3355SOL    HW110964   6.540   1.236   2.125
 3355SOL    HW210965   6.572   1.152   1.988
 3356SOL     OW10966   2.898   3.643   0.040
 3356SOL    HW110967   2.810   3.687   0.056
 3356SOL    HW210968   2.893   3.547   0.068
 3357SOL     OW10969   3.071   5.284   1.878
 3357SOL    HW110970   3.015   5.306   1.799
 3357SOL    HW210971   3.068   5.360   1.944
 3358SOL     OW10972   4.929   5.977   2.669
 3358SOL    HW110973   4.986   5.954   2.590
 3358SOL    HW210974   4.920   5.897   2.728
 3359SOL     OW10975   1.279   0.124   2.668
 3359SOL    HW110976   1.362   0.090   2.625
 3359SOL    HW210977   1.300   0.157   2.760
 3360SOL     OW10978   0.428   0.782   0.070
 3360SOL    HW110979   0.405   0.750   0.161
 3360SOL    HW210980   0.350   0.830   0.030
 3361SOL     OW10981   6.097   6.310   2.913
 3361SOL    HW110982   6.179   6.278   2.865
 3361SOL    HW210983   6.023   6.243   2.901
 3362SOL     OW10984   2.325   1.461   5.045
 3362SOL    HW110985   2.253   1.478   4.978
 3362SOL    HW210986   2.412   1.497   5.009
 3363SOL     OW10987   0.063   1.803   6.897
 3363SOL    HW110988   0.004   1.826   6.820
 3363SOL    HW210989   0.007   1.769   6.973
 3364SOL     OW10990   2.205   5.161   6.078
 3364SOL    HW110991   2.236   5.066   6.066
 3364SOL    HW210992   2.109   5.161   6.106
 3365SOL     OW10993   6.147   2.758   4.635
 3365SOL    HW110994   6.164   2.819   4.558
 3365SOL    HW210995   6.230   2.750   4.691
 3366SOL     OW10996   5.375   0.334   5.647
 3366SOL    HW110997   5.284   0.375   5.652
 3366SOL    HW210998   5.395   0.309   5.552
 3367SOL     OW10999   1.252   1.909   2.945
 3367SOL    HW111000   1.247   1.894   3.044
 3367SOL    HW211001   1.162   1.897   2.904
 3368SOL     OW11002   6.578   5.648   6.043
 3368SOL    HW111003   6.571   5.696   5.955
 3368SOL    HW211004   6.501   5.675   6.101
 3369SOL     OW11005   3.919   0.624   6.885
 3369SOL    HW111006   4.008   0.589   6.916
 3369SOL    HW211007   3.930   0.669   6.796
 3370SOL     OW11008   6.034   6.333   5.206
 3370SOL    HW111009   6.089   6.412   5.235
 3370SOL    HW211010   5.998   6.350   5.114
 3371SOL     OW11011   0.835   5.173   2.601
 3371SOL    HW111012   0.788   5.111   2.539
 3371SOL    HW211013   0.847   5.129   2.690
 3372SOL     OW11014   1.171   0.442   2.941
 3372SOL    HW111015   1.084   0.394   2.954
 3372SOL    HW211016   1.166   0.499   2.860
 3373SOL     OW11017   6.282   2.051   5.233
 3373SOL    HW111018   6.307   2.057   5.137
 3373SOL    HW211019   6.365   2.046   5.289
 3374SOL     OW11020   2.822   5.331   5.927
 3374SOL    HW111021   2.873   5.415   5.946
 3374SOL    HW211022   2.734   5.355   5.884
 3375SOL     OW11023   4.505   4.509   5.453
 3375SOL    HW111024   4.428   4.481   5.509
 3375SOL    HW211025   4.585   4.526   5.511
 3376SOL     OW11026   3.230   3.126   2.316
 3376SOL    HW111027   3.266   3.159   2.229
 3376SOL    HW211028   3.146   3.075   2.301
 3377SOL     OW11029   1.478   6.768   5.482
 3377SOL    HW111030   1.563   6.765   5.535
 3377SOL    HW211031   1.490   6.830   5.404
 3378SOL     OW11032   0.093   1.298   1.307
 3378SOL    HW111033   0.180   1.249   1.308
 3378SOL    HW211034   0.110   1.396   1.316
 3379SOL     OW11035   0.459   4.541   5.903
 3379SOL    HW111036   0.465   4.560   5.805
 3379SOL    HW211037   0.545   4.501   5.935
 3380SOL     OW11038   6.755   4.398   6.756
 3380SOL    HW111039   6.778   4.441   6.843
 3380SOL    HW211040   6.837   4.395   6.698
 3381SOL     OW11041   3.135   2.552   0.461
 3381SOL    HW111042   3.225   2.514   0.441
 3381SOL    HW211043   3.129   2.575   0.558
 3382SOL     OW11044   0.151   1.644   1.155
 3382SOL    HW111045   0.170   1.618   1.060
 3382SOL    HW211046   0.054   1.627   1.175
 3383SOL     OW11047   6.104   4.871   2.766
 3383SOL    HW111048   6.151   4.954   2.738
 3383SOL    HW211049   6.074   4.820   2.685
 3384SOL     OW11050   3.727   3.047   4.423
 3384SOL    HW111051   3.632   3.019   4.409
 3384SOL    HW211052   3.734   3.102   4.506
 3385SOL     OW11053   6.472   3.685   3.686
 3385SOL    HW111054   6.560   3.655   3.724
 3385SOL    HW211055   6.405   3.694   3.759
 3386SOL     OW11056   6.523   4.602   4.863
 3386SOL    HW111057   6.424   4.604   4.851
 3386SOL    HW211058   6.556   4.509   4.853
 3387SOL     OW11059   2.177   2.026   3.061
 3387SOL    HW111060   2.144   1.994   2.972
 3387SOL    HW211061   2.277   2.016   3.065
 3388SOL     OW11062   5.266   2.033   1.275
 3388SOL    HW111063   5.357   2.008   1.305
 3388SOL    HW211064   5.198   1.997   1.339
 3389SOL     OW11065   4.993   4.432   3.562
 3389SOL    HW111066   4.909   4.481   3.586
 3389SOL    HW211067   4.976   4.334   3.562
 3390SOL     OW11068   4.980   3.131   5.556
 3390SOL    HW111069   4.980   3.218   5.606
 3390SOL    HW211070   4.893   3.083   5.572
 3391SOL     OW11071   3.549   1.836   5.251
 3391SOL    HW111072   3.471   1.890   5.219
 3391SOL    HW211073   3.630   1.894   5.256
 3392SOL     OW11074   2.651   0.547   3.951
 3392SOL    HW111075   2.690   0.492   4.025
 3392SOL    HW211076   2.675   0.507   3.863
 3393SOL     OW11077   6.289   6.475   6.720
 3393SOL    HW111078   6.283   6.378   6.743
 3393SOL    HW211079   6.309   6.485   6.623
 3394SOL     OW11080   6.091   2.636   1.575
 3394SOL    HW111081   6.066   2.637   1.478
 3394SOL    HW211082   6.184   2.601   1.586
 3395SOL     OW11083   0.957   3.130   4.667
 3395SOL    HW111084   0.980   3.103   4.573
 3395SOL    HW211085   0.859   3.122   4.681
 3396SOL     OW11086   0.211   3.697   3.765
 3396SOL    HW111087   0.174   3.611   3.732
 3396SOL    HW211088   0.222   3.693   3.865
 3397SOL     OW11089   3.617   6.482   5.784
 3397SOL    HW111090   3.608   6.399   5.840
 3397SOL    HW211091   3.548   6.481   5.712
 3398SOL     OW11092   1.322   0.332   4.048
 3398SOL    HW111093   1.324   0.237   4.016
 3398SOL    HW211094   1.393   0.384   4.000
 3399SOL     OW11095   5.066   5.142   4.050
 3399SOL    HW111096   5.116   5.186   3.975
 3399SOL    HW211097   4.973   5.122   4.021
 3400SOL     OW11098   4.930   2.378   6.753
 3400SOL    HW111099   4.838   2.340   6.762
 3400SOL    HW211100   4.986   2.317   6.697
 3401SOL     OW11101   6.116   3.862   0.709
 3401SOL    HW111102   6.131   3.944   0.654
 3401SOL    HW211103   6.100   3.888   0.805
 3402SOL     OW11104   5.024   5.852   1.330
 3402SOL    HW111105   5.010   5.939   1.379
 3402SOL    HW211106   4.945   5.792   1.346
 3403SOL     OW11107   3.558   0.410   4.941
 3403SOL    HW111108   3.635   0.447   4.889
 3403SOL    HW211109   3.475   0.416   4.885
 3404SOL     OW11110   4.928   1.466   1.056
 3404SOL    HW111111   4.921   1.563   1.031
 3404SOL    HW211112   4.839   1.434   1.089
 3405SOL     OW11113   6.147   4.022   6.459
 3405SOL    HW111114   6.223   4.087   6.453
 3405SOL    HW211115   6.113   4.000   6.368
 3406SOL     OW11116   2.231   3.940   2.253
 3406SOL    HW111117   2.141   3.912   2.285
 3406SOL    HW211118   2.254   3.890   2.170
 3407SOL     OW11119   1.160   5.469   1.868
 3407SOL    HW111120   1.225   5.545   1.871
 3407SOL    HW211121   1.096   5.484   1.792
 3408SOL     OW11122   5.272   4.628   2.568
 3408SOL    HW111123   5.186   4.577   2.565
 3408SOL    HW211124   5.348   4.566   2.586
 3409SOL     OW11125   3.613   7.000   5.965
 3409SOL    HW111126   3.571   6.971   6.051
 3409SOL    HW211127   3.656   6.922   5.921
 3410SOL     OW11128   6.459   6.230   0.355
 3410SOL    HW111129   6.470   6.147   0.411
 3410SOL    HW211130   6.492   6.212   0.262
 3411SOL     OW11131   4.638   1.832   2.624
 3411SOL    HW111132   4.630   1.797   2.717
 3411SOL    HW211133   4.614   1.930   2.623
 3412SOL     OW11134   3.537   3.919   6.927
 3412SOL    HW111135   3.539   3.824   6.957
 3412SOL    HW211136   3.536   3.980   7.007
 3413SOL     OW11137   3.847   1.568   3.224
 3413SOL    HW111138   3.779   1.520   3.169
 3413SOL    HW211139   3.929   1.512   3.233
 3414SOL     OW11140   2.956   2.333   5.309
 3414SOL    HW111141   2.887   2.302   5.243
 3414SOL    HW211142   3.045   2.338   5.264
 3415SOL     OW11143   0.569   4.570   4.447
 3415SOL    HW111144   0.597   4.536   4.537
 3415SOL    HW211145   0.643   4.555   4.381
 3416SOL     OW11146   0.398   4.420   5.595
 3416SOL    HW111147   0.487   4.441   5.555
 3416SOL    HW211148   0.350   4.355   5.537
 3417SOL     OW11149   6.967   6.586   2.524
 3417SOL    HW111150   7.006   6.503   2.564
 3417SOL    HW211151   6.872   6.569   2.498
 3418SOL     OW11152   2.323   0.768   5.143
 3418SOL    HW111153   2.265   0.847   5.127
 3418SOL    HW211154   2.330   0.751   5.241
 3419SOL     OW11155   4.126   4.637   0.163
 3419SOL    HW111156   4.113   4.575   0.086
 3419SOL    HW211157   4.039   4.651   0.210
 3420SOL     OW11158   4.676   2.199   4.121
 3420SOL    HW111159   4.663   2.221   4.218
 3420SOL    HW211160   4.592   2.162   4.083
 3421SOL     OW11161   0.210   6.307   5.398
 3421SOL    HW111162   0.304   6.341   5.395
 3421SOL    HW211163   0.155   6.368   5.455
 3422SOL     OW11164   3.489   0.574   1.546
 3422SOL    HW111165   3.452   0.483   1.563
 3422SOL    HW211166   3.567   0.566   1.483
 3423SOL     OW11167   2.634   1.095   0.809
 3423SOL    HW111168   2.581   1.175   0.839
 3423SOL    HW211169   2.714   1.085   0.868
 3424SOL     OW11170   4.226   1.236   2.584
 3424SOL    HW111171   4.233   1.324   2.631
 3424SOL    HW211172   4.226   1.162   2.651
 3425SOL     OW11173   4.818   4.260   1.989
 3425SOL    HW111174   4.722   4.288   1.977
 3425SOL    HW211175   4.877   4.315   1.930
 3426SOL     OW11176   4.033   3.320   0.323
 3426SOL    HW111177   4.099   3.389   0.292
 3426SOL    HW211178   4.037   3.314   0.423
 3427SOL     OW11179   0.012   0.561   0.062
 3427SOL    HW111180   7.011   0.585   6.985
 3427SOL    HW211181   6.954   0.589   0.119
 3428SOL     OW11182   4.015   4.829   2.642
 3428SOL    HW111183   4.095   4.769   2.643
 3428SOL    HW211184   3.980   4.837   2.549
 3429SOL     OW11185   1.240   3.132   0.037
 3429SOL    HW111186   1.195   3.219   0.017
 3429SOL    HW211187   1.325   3.149   0.087
 3430SOL     OW11188   1.473   6.927   0.346
 3430SOL    HW111189   1.391   6.876   0.322
 3430SOL    HW211190   1.450   0.005   0.356
 3431SOL     OW11191   1.686   6.347   1.423
 3431SOL    HW111192   1.602   6.367   1.473
 3431SOL    HW211193   1.672   6.369   1.326
 3432SOL     OW11194   3.245   1.481   5.817
 3432SOL    HW111195   3.311   1.475   5.742
 3432SOL    HW211196   3.191   1.565   5.807
 3433SOL     OW11197   3.444   0.986   5.591
 3433SOL    HW111198   3.375   1.053   5.621
 3433SOL    HW211199   3.415   0.946   5.504
 3434SOL     OW11200   4.277   2.610   1.351
 3434SOL    HW111201   4.278   2.704   1.385
 3434SOL    HW211202   4.194   2.596   1.297
 3435SOL     OW11203   6.805   2.543   1.969
 3435SOL    HW111204   6.796   2.632   2.014
 3435SOL    HW211205   6.749   2.476   2.016
 3436SOL     OW11206   4.651   0.084   4.719
 3436SOL    HW111207   4.577   0.022   4.695
 3436SOL    HW211208   4.686   0.127   4.635
 3437SOL     OW11209   4.088   0.261   4.992
 3437SOL    HW111210   4.065   0.172   5.030
 3437SOL    HW211211   4.028   0.331   5.031
 3438SOL     OW11212   1.735   2.520   6.586
 3438SOL    HW111213   1.714   2.547   6.680
 3438SOL    HW211214   1.666   2.558   6.524
 3439SOL     OW11215   2.534   6.427   4.824
 3439SOL    HW111216   2.613   6.382   4.782
 3439SOL    HW211217   2.515   6.513   4.776
 3440SOL     OW11218   4.545   3.078   1.245
 3440SOL    HW111219   4.506   3.132   1.320
 3440SOL    HW211220   4.475   3.063   1.175
 3441SOL     OW11221   3.924   0.001   4.320
 3441SOL    HW111222   3.883   6.964   4.248
 3441SOL    HW211223   3.971   6.960   4.385
 3442SOL     OW11224   2.106   5.237   3.647
 3442SOL    HW111225   2.140   5.329   3.625
 3442SOL    HW211226   2.165   5.196   3.717
 3443SOL     OW11227   5.823   1.972   3.005
 3443SOL    HW111228   5.871   1.945   3.088
 3443SOL    HW211229   5.792   1.890   2.956
 3444SOL     OW11230   5.037   5.624   6.708
 3444SOL    HW111231   5.068   5.550   6.648
 3444SOL    HW211232   5.047   5.712   6.662
 3445SOL     OW11233   6.299   4.228   4.324
 3445SOL    HW111234   6.318   4.326   4.313
 3445SOL    HW211235   6.380   4.183   4.362
 3446SOL     OW11236   4.180   0.096   3.426
 3446SOL    HW111237   4.196   0.184   3.382
 3446SOL    HW211238   4.099   0.053   3.385
 3447SOL     OW11239   5.859   5.444   0.487
 3447SOL    HW111240   5.779   5.475   0.436
 3447SOL    HW211241   5.875   5.505   0.565
 3448SOL     OW11242   3.119   0.746   1.169
 3448SOL    HW111243   3.161   0.657   1.184
 3448SOL    HW211244   3.097   0.788   1.257
 3449SOL     OW11245   0.005   0.350   1.916
 3449SOL    HW111246   0.100   0.357   1.884
 3449SOL    HW211247   0.003   0.301   2.003
 3450SOL     OW11248   1.162   1.601   1.601
 3450SOL    HW111249   1.205   1.511   1.601
 3450SOL    HW211250   1.128   1.622   1.693
 3451SOL     OW11251   1.347   5.702   4.008
 3451SOL    HW111252   1.400   5.718   3.925
 3451SOL    HW211253   1.279   5.775   4.019
 3452SOL     OW11254   6.643   0.887   6.844
 3452SOL    HW111255   6.716   0.882   6.911
 3452SOL    HW211256   6.670   0.948   6.769
 3453SOL     OW11257   4.944   5.652   4.833
 3453SOL    HW111258   4.992   5.618   4.914
 3453SOL    HW211259   4.955   5.588   4.757
 3454SOL     OW11260   1.458   1.264   1.060
 3454SOL    HW111261   1.398   1.302   1.130
 3454SOL    HW211262   1.482   1.336   0.994
 3455SOL     OW11263   1.643   3.117   4.111
 3455SOL    HW111264   1.559   3.161   4.140
 3455SOL    HW211265   1.626   3.063   4.028
 3456SOL     OW11266   6.021   6.702   1.489
 3456SOL    HW111267   5.978   6.625   1.443
 3456SOL    HW211268   6.066   6.760   1.421
 3457SOL     OW11269   2.732   4.935   3.876
 3457SOL    HW111270   2.645   4.942   3.827
 3457SOL    HW211271   2.792   4.870   3.829
 3458SOL     OW11272   5.815   6.729   0.028
 3458SOL    HW111273   5.719   6.703   0.035
 3458SOL    HW211274   5.868   6.653   7.008
 3459SOL     OW11275   0.452   3.779   3.470
 3459SOL    HW111276   0.498   3.757   3.556
 3459SOL    HW211277   0.397   3.861   3.481
 3460SOL     OW11278   2.889   2.745   0.036
 3460SOL    HW111279   2.953   2.748   6.977
 3460SOL    HW211280   2.925   2.684   0.106
 3461SOL     OW11281   3.863   5.572   3.916
 3461SOL    HW111282   3.886   5.475   3.928
 3461SOL    HW211283   3.946   5.624   3.897
 3462SOL     OW11284   5.508   3.047   3.113
 3462SOL    HW111285   5.432   3.012   3.168
 3462SOL    HW211286   5.592   3.001   3.138
 3463SOL     OW11287   1.537   3.137   1.824
 3463SOL    HW111288   1.473   3.212   1.809
 3463SOL    HW211289   1.486   3.051   1.830
 3464SOL     OW11290   5.579   2.795   6.650
 3464SOL    HW111291   5.493   2.744   6.659
 3464SOL    HW211292   5.587   2.832   6.558
 3465SOL     OW11293   2.184   3.631   1.723
 3465SOL    HW111294   2.224   3.571   1.792
 3465SOL    HW211295   2.146   3.712   1.767
 3466SOL     OW11296   5.678   4.507   5.776
 3466SOL    HW111297   5.597   4.456   5.804
 3466SOL    HW211298   5.760   4.462   5.812
 3467SOL     OW11299   3.174   1.945   0.845
 3467SOL    HW111300   3.269   1.915   0.855
 3467SOL    HW211301   3.153   1.956   0.748
 3468SOL     OW11302   4.648   1.124   1.749
 3468SOL    HW111303   4.636   1.025   1.746
 3468SOL    HW211304   4.746   1.146   1.754
 3469SOL     OW11305   4.439   0.051   6.160
 3469SOL    HW111306   4.343   0.062   6.133
 3469SOL    HW211307   4.496   0.112   6.107
 3470SOL     OW11308   0.235   2.727   0.982
 3470SOL    HW111309   0.288   2.737   1.066
 3470SOL    HW211310   0.154   2.671   1.000
 3471SOL     OW11311   4.601   4.306   3.525
 3471SOL    HW111312   4.664   4.262   3.590
 3471SOL    HW211313   4.607   4.259   3.437
 3472SOL     OW11314   4.446   2.430   3.015
 3472SOL    HW111315   4.457   2.462   3.109
 3472SOL    HW211316   4.365   2.372   3.008
 3473SOL     OW11317   0.200   3.556   4.035
 3473SOL    HW111318   0.237   3.629   4.094
 3473SOL    HW211319   0.241   3.469   4.061
 3474SOL     OW11320   0.501   3.936   4.250
 3474SOL    HW111321   0.582   3.910   4.198
 3474SOL    HW211322   0.514   3.913   4.347
 3475SOL     OW11323   6.904   4.654   4.642
 3475SOL    HW111324   6.981   4.700   4.600
 3475SOL    HW211325   6.838   4.722   4.675
 3476SOL     OW11326   2.029   2.061   3.549
 3476SOL    HW111327   2.051   1.965   3.529
 3476SOL    HW211328   2.042   2.116   3.466
 3477SOL     OW11329   0.323   3.651   1.545
 3477SOL    HW111330   0.264   3.715   1.497
 3477SOL    HW211331   0.321   3.562   1.500
 3478SOL     OW11332   2.372   0.007   0.044
 3478SOL    HW111333   2.414   0.074   0.106
 3478SOL    HW211334   2.442   6.991   7.000
 3479SOL     OW11335   0.575   3.079   3.752
 3479SOL    HW111336   0.597   2.996   3.803
 3479SOL    HW211337   0.502   3.129   3.798
 3480SOL     OW11338   1.088   6.089   6.501
 3480SOL    HW111339   1.006   6.034   6.486
 3480SOL    HW211340   1.148   6.081   6.421
 3481SOL     OW11341   5.471   0.687   0.243
 3481SOL    HW111342   5.466   0.593   0.275
 3481SOL    HW211343   5.535   0.694   0.167
 3482SOL     OW11344   6.069   2.352   4.370
 3482SOL    HW111345   6.088   2.278   4.305
 3482SOL    HW211346   6.103   2.438   4.334
 3483SOL     OW11347   4.772   2.426   3.468
 3483SOL    HW111348   4.850   2.485   3.489
 3483SOL    HW211349   4.705   2.478   3.414
 3484SOL     OW11350   1.737   3.507   6.322
 3484SOL    HW111351   1.761   3.572   6.394
 3484SOL    HW211352   1.819   3.457   6.294
 3485SOL     OW11353   6.963   1.829   5.087
 3485SOL    HW111354   6.878   1.846   5.037
 3485SOL    HW211355   6.996   1.737   5.066
 3486SOL     OW11356   1.842   6.515   4.540
 3486SOL    HW111357   1.908   6.488   4.610
 3486SOL    HW211358   1.882   6.499   4.449
 3487SOL     OW11359   6.259   1.370   6.589
 3487SOL    HW111360   6.339   1.317   6.615
 3487SOL    HW211361   6.271   1.465   6.618
 3488SOL     OW11362   5.429   0.729   4.851
 3488SOL    HW111363   5.385   0.721   4.762
 3488SOL    HW211364   5.368   0.775   4.915
 3489SOL     OW11365   3.069   6.543   1.149
 3489SOL    HW111366   3.127   6.552   1.068
 3489SOL    HW211367   3.115   6.584   1.227
 3490SOL     OW11368   4.012   4.593   1.030
 3490SOL    HW111369   3.996   4.549   1.118
 3490SOL    HW211370   3.974   4.536   0.957
 3491SOL     OW11371   5.080   3.834   0.321
 3491SOL    HW111372   5.124   3.920   0.294
 3491SOL    HW211373   5.078   3.828   0.421
 3492SOL     OW11374   6.826   4.058   2.344
 3492SOL    HW111375   6.795   4.152   2.327
 3492SOL    HW211376   6.790   4.026   2.431
 3493SOL     OW11377   6.504   3.584   4.141
 3493SOL    HW111378   6.562   3.625   4.212
 3493SOL    HW211379   6.546   3.499   4.109
 3494SOL     OW11380   3.305   1.974   2.519
 3494SOL    HW111381   3.263   1.919   2.447
 3494SOL    HW211382   3.299   1.926   2.606
 3495SOL     OW11383   1.061   4.113   2.499
 3495SOL    HW111384   1.006   4.030   2.488
 3495SOL    HW211385   1.044   4.152   2.589
 3496SOL     OW11386   5.896   4.577   0.395
 3496SOL    HW111387   5.835   4.637   0.343
 3496SOL    HW211388   5.858   4.562   0.487
 3497SOL     OW11389   3.485   0.945   3.274
 3497SOL    HW111390   3.469   0.920   3.179
 3497SOL    HW211391   3.583   0.942   3.294
 3498SOL     OW11392   2.645   1.469   2.067
 3498SOL    HW111393   2.642   1.497   1.971
 3498SOL    HW211394   2.624   1.547   2.125
 3499SOL     OW11395   5.945   6.067   5.521
 3499SOL    HW111396   6.015   6.131   5.552
 3499SOL    HW211397   5.902   6.023   5.600
 3500SOL     OW11398   1.497   1.910   4.107
 3500SOL    HW111399   1.540   1.918   4.197
 3500SOL    HW211400   1.551   1.850   4.049
 3501SOL     OW11401   2.683   6.786   6.803
 3501SOL    HW111402   2.645   6.878   6.813
 3501SOL    HW211403   2.663   6.752   6.712
 3502SOL     OW11404   5.946   3.021   1.820
 3502SOL    HW111405   5.860   2.981   1.789
 3502SOL    HW211406   5.981   2.970   1.899
 3503SOL     OW11407   0.034   5.711   5.912
 3503SOL    HW111408   6.992   5.762   5.851
 3503SOL    HW211409   0.080   5.638   5.859
 3504SOL     OW11410   1.938   0.584   1.914
 3504SOL    HW111411   1.929   0.558   1.819
 3504SOL    HW211412   2.008   0.528   1.958
 3505SOL     OW11413   5.777   5.682   5.856
 3505SOL    HW111414   5.775   5.589   5.820
 3505SOL    HW211415   5.866   5.700   5.898
 3506SOL     OW11416   5.965   4.443   5.174
 3506SOL    HW111417   5.941   4.459   5.078
 3506SOL    HW211418   6.064   4.431   5.182
 3507SOL     OW11419   2.437   0.143   0.838
 3507SOL    HW111420   2.354   0.121   0.788
 3507SOL    HW211421   2.461   0.239   0.823
 3508SOL     OW11422   3.003   2.458   6.084
 3508SOL    HW111423   3.076   2.526   6.087
 3508SOL    HW211424   3.029   2.379   6.140
 3509SOL     OW11425   4.802   6.847   0.401
 3509SOL    HW111426   4.800   6.760   0.350
 3509SOL    HW211427   4.714   6.893   0.390
 3510SOL     OW11428   2.212   1.321   1.525
 3510SOL    HW111429   2.252   1.388   1.463
 3510SOL    HW211430   2.252   1.231   1.506
 3511SOL     OW11431   2.136   4.596   1.115
 3511SOL    HW111432   2.147   4.533   1.193
 3511SOL    HW211433   2.189   4.679   1.133
 3512SOL     OW11434   0.534   3.663   7.015
 3512SOL    HW111435   0.435   3.675   7.018
 3512SOL    HW211436   0.579   3.750   0.019
 3513SOL     OW11437   6.475   2.225   1.149
 3513SOL    HW111438   6.554   2.200   1.205
 3513SOL    HW211439   6.395   2.173   1.179
 3514SOL     OW11440   5.377   0.771   2.384
 3514SOL    HW111441   5.472   0.797   2.403
 3514SOL    HW211442   5.374   0.719   2.299
 3515SOL     OW11443   5.527   5.982   3.827
 3515SOL    HW111444   5.616   6.023   3.851
 3515SOL    HW211445   5.458   6.013   3.893
 3516SOL     OW11446   4.835   0.130   1.005
 3516SOL    HW111447   4.816   0.227   0.991
 3516SOL    HW211448   4.836   0.110   1.103
 3517SOL     OW11449   0.145   0.820   1.184
 3517SOL    HW111450   0.229   0.788   1.141
 3517SOL    HW211451   0.167   0.875   1.264
 3518SOL     OW11452   5.498   1.801   4.765
 3518SOL    HW111453   5.550   1.879   4.729
 3518SOL    HW211454   5.438   1.766   4.693
 3519SOL     OW11455   2.809   1.111   6.611
 3519SOL    HW111456   2.779   1.187   6.669
 3519SOL    HW211457   2.905   1.124   6.588
 3520SOL     OW11458   3.442   5.659   6.127
 3520SOL    HW111459   3.514   5.724   6.153
 3520SOL    HW211460   3.416   5.604   6.206
 3521SOL     OW11461   3.413   2.820   6.702
 3521SOL    HW111462   3.413   2.909   6.749
 3521SOL    HW211463   3.395   2.748   6.768
 3522SOL     OW11464   6.493   5.452   6.399
 3522SOL    HW111465   6.592   5.455   6.384
 3522SOL    HW211466   6.474   5.414   6.490
 3523SOL     OW11467   1.088   4.756   5.451
 3523SOL    HW111468   1.114   4.682   5.389
 3523SOL    HW211469   1.109   4.844   5.409
 3524SOL     OW11470   5.600   1.901   2.635
 3524SOL    HW111471   5.609   1.974   2.703
 3524SOL    HW211472   5.687   1.851   2.628
 3525SOL     OW11473   6.048   3.783   3.966
 3525SOL    HW111474   6.135   3.833   3.960
 3525SOL    HW211475   6.011   3.770   3.874
 3526SOL     OW11476   1.491   6.068   3.120
 3526SOL    HW111477   1.506   5.973   3.093
 3526SOL    HW211478   1.552   6.091   3.196
 3527SOL     OW11479   6.042   2.808   5.932
 3527SOL    HW111480   6.042   2.712   5.903
 3527SOL    HW211481   6.124   2.852   5.896
 3528SOL     OW11482   2.440   5.977   4.933
 3528SOL    HW111483   2.519   5.918   4.950
 3528SOL    HW211484   2.377   5.931   4.870
 3529SOL     OW11485   4.359   6.242   6.565
 3529SOL    HW111486   4.419   6.169   6.534
 3529SOL    HW211487   4.315   6.286   6.486
 3530SOL     OW11488   0.111   5.063   2.069
 3530SOL    HW111489   0.170   4.983   2.076
 3530SOL    HW211490   0.127   5.110   1.982
 3531SOL     OW11491   5.285   2.363   1.551
 3531SOL    HW111492   5.194   2.325   1.540
 3531SOL    HW211493   5.346   2.293   1.589
 3532SOL     OW11494   2.596   0.750   2.170
 3532SOL    HW111495   2.639   0.832   2.207
 3532SOL    HW211496   2.564   0.769   2.077
 3533SOL     OW11497   0.367   1.781   2.721
 3533SOL    HW111498   0.459   1.807   2.749
 3533SOL    HW211499   0.338   1.840   2.645
 3534SOL     OW11500   1.014   2.633   2.148
 3534SOL    HW111501   0.962   2.611   2.065
 3534SOL    HW211502   1.080   2.561   2.166
 3535SOL     OW11503   2.613   5.317   5.363
 3535SOL    HW111504   2.619   5.228   5.318
 3535SOL    HW211505   2.551   5.311   5.441
 3536SOL     OW11506   3.706   1.787   3.177
 3536SOL    HW111507   3.610   1.769   3.200
 3536SOL    HW211508   3.764   1.716   3.217
 3537SOL     OW11509   1.068   5.832   2.507
 3537SOL    HW111510   1.041   5.903   2.573
 3537SOL    HW211511   1.139   5.869   2.447
 3538SOL     OW11512   3.171   5.738   5.468
 3538SOL    HW111513   3.146   5.658   5.523
 3538SOL    HW211514   3.148   5.721   5.372
 3539SOL     OW11515   3.895   3.810   4.527
 3539SOL    HW111516   3.859   3.726   4.567
 3539SOL    HW211517   3.882   3.808   4.428
 3540SOL     OW11518   2.169   2.313   4.084
 3540SOL    HW111519   2.159   2.216   4.105
 3540SOL    HW211520   2.079   2.357   4.086
 3541SOL     OW11521   2.993   2.932   5.276
 3541SOL    HW111522   2.906   2.976   5.296
 3541SOL    HW211523   2.980   2.833   5.271
 3542SOL     OW11524   1.858   5.109   3.111
 3542SOL    HW111525   1.936   5.048   3.119
 3542SOL    HW211526   1.890   5.202   3.094
 3543SOL     OW11527   5.529   2.705   4.041
 3543SOL    HW111528   5.470   2.770   3.992
 3543SOL    HW211529   5.477   2.624   4.065
 3544SOL     OW11530   1.708   4.456   6.849
 3544SOL    HW111531   1.639   4.400   6.895
 3544SOL    HW211532   1.799   4.427   6.878
 3545SOL     OW11533   3.790   6.329   6.194
 3545SOL    HW111534   3.855   6.402   6.215
 3545SOL    HW211535   3.836   6.256   6.143
 3546SOL     OW11536   0.381   5.755   3.414
 3546SOL    HW111537   0.442   5.697   3.360
 3546SOL    HW211538   0.435   5.804   3.483
 3547SOL     OW11539   4.105   5.470   4.127
 3547SOL    HW111540   4.090   5.563   4.095
 3547SOL    HW211541   4.203   5.456   4.144
 3548SOL     OW11542   5.097   2.298   5.565
 3548SOL    HW111543   5.114   2.330   5.472
 3548SOL    HW211544   5.030   2.224   5.563
 3549SOL     OW11545   6.703   4.832   4.717
 3549SOL    HW111546   6.631   4.793   4.776
 3549SOL    HW211547   6.722   4.925   4.746
 3550SOL     OW11548   5.326   2.367   3.054
 3550SOL    HW111549   5.352   2.338   2.962
 3550SOL    HW211550   5.326   2.467   3.060
 3551SOL     OW11551   3.823   6.271   3.466
 3551SOL    HW111552   3.752   6.201   3.469
 3551SOL    HW211553   3.802   6.342   3.533
 3552SOL     OW11554   5.169   5.202   3.127
 3552SOL    HW111555   5.254   5.168   3.087
 3552SOL    HW211556   5.098   5.205   3.057
 3553SOL     OW11557   5.229   2.741   2.342
 3553SOL    HW111558   5.319   2.781   2.324
 3553SOL    HW211559   5.175   2.740   2.258
 3554SOL     OW11560   3.942   3.791   6.818
 3554SOL    HW111561   3.913   3.859   6.750
 3554SOL    HW211562   3.867   3.772   6.881
 3555SOL     OW11563   0.740   3.553   2.800
 3555SOL    HW111564   0.831   3.595   2.799
 3555SOL    HW211565   0.706   3.550   2.894
 3556SOL     OW11566   3.484   0.383   5.486
 3556SOL    HW111567   3.567   0.435   5.504
 3556SOL    HW211568   3.404   0.434   5.516
 3557SOL     OW11569   1.051   0.660   4.883
 3557SOL    HW111570   1.147   0.641   4.863
 3557SOL    HW211571   1.022   0.742   4.832
 3558SOL     OW11572   0.162   5.680   1.654
 3558SOL    HW111573   0.143   5.589   1.617
 3558SOL    HW211574   0.251   5.680   1.699
 3559SOL     OW11575   0.240   0.175   5.052
 3559SOL    HW111576   0.156   0.183   4.999
 3559SOL    HW211577   0.320   0.182   4.992
 3560SOL     OW11578   1.585   5.829   1.351
 3560SOL    HW111579   1.650   5.775   1.404
 3560SOL    HW211580   1.580   5.922   1.390
 3561SOL     OW11581   5.127   4.781   6.210
 3561SOL    HW111582   5.104   4.684   6.217
 3561SOL    HW211583   5.142   4.819   6.301
 3562SOL     OW11584   5.328   0.281   4.057
 3562SOL    HW111585   5.281   0.265   3.971
 3562SOL    HW211586   5.363   0.375   4.059
 3563SOL     OW11587   5.409   1.445   1.534
 3563SOL    HW111588   5.501   1.407   1.547
 3563SOL    HW211589   5.416   1.540   1.503
 3564SOL     OW11590   0.729   4.061   4.836
 3564SOL    HW111591   0.734   3.965   4.861
 3564SOL    HW211592   0.800   4.112   4.886
 3565SOL     OW11593   2.820   6.543   4.654
 3565SOL    HW111594   2.874   6.475   4.704
 3565SOL    HW211595   2.782   6.610   4.718
 3566SOL     OW11596   6.893   3.014   5.729
 3566SOL    HW111597   6.957   3.091   5.729
 3566SOL    HW211598   6.807   3.043   5.771
 3567SOL     OW11599   0.824   2.731   0.775
 3567SOL    HW111600   0.797   2.664   0.705
 3567SOL    HW211601   0.746   2.791   0.795
 3568SOL     OW11602   4.645   4.917   2.740
 3568SOL    HW111603   4.687   4.978   2.807
 3568SOL    HW211604   4.652   4.958   2.649
 3569SOL     OW11605   3.178   3.097   4.532
 3569SOL    HW111606   3.126   3.175   4.567
 3569SOL    HW211607   3.174   3.022   4.599
 3570SOL     OW11608   6.107   1.862   5.493
 3570SOL    HW111609   6.050   1.944   5.495
 3570SOL    HW211610   6.180   1.873   5.426
 3571SOL     OW11611   1.726   0.572   5.010
 3571SOL    HW111612   1.799   0.640   5.009
 3571SOL    HW211613   1.704   0.547   5.104
 3572SOL     OW11614   5.313   4.346   2.366
 3572SOL    HW111615   5.341   4.389   2.452
 3572SOL    HW211616   5.213   4.341   2.361
 3573SOL     OW11617   6.594   4.377   2.118
 3573SOL    HW111618   6.669   4.353   2.178
 3573SOL    HW211619   6.518   4.413   2.172
 3574SOL     OW11620   2.789   2.993   6.131
 3574SOL    HW111621   2.827   2.907   6.162
 3574SOL    HW211622   2.815   3.066   6.194
 3575SOL     OW11623   5.098   6.200   1.068
 3575SOL    HW111624   5.073   6.294   1.088
 3575SOL    HW211625   5.068   6.176   0.976
 3576SOL     OW11626   0.162   2.976   6.820
 3576SOL    HW111627   0.133   2.896   6.768
 3576SOL    HW211628   0.138   2.963   6.917
 3577SOL     OW11629   2.288   2.514   5.120
 3577SOL    HW111630   2.333   2.477   5.201
 3577SOL    HW211631   2.219   2.581   5.147
 3578SOL     OW11632   2.935   2.792   0.565
 3578SOL    HW111633   2.866   2.752   0.504
 3578SOL    HW211634   2.980   2.719   0.616
 3579SOL     OW11635   0.206   3.505   2.601
 3579SOL    HW111636   0.174   3.410   2.601
 3579SOL    HW211637   0.305   3.507   2.616
 3580SOL     OW11638   0.760   3.053   1.136
 3580SOL    HW111639   0.843   2.999   1.147
 3580SOL    HW211640   0.774   3.120   1.062
 3581SOL     OW11641   0.695   0.341   3.119
 3581SOL    HW111642   0.617   0.290   3.155
 3581SOL    HW211643   0.755   0.368   3.194
 3582SOL     OW11644   3.067   4.231   5.713
 3582SOL    HW111645   3.008   4.302   5.753
 3582SOL    HW211646   3.023   4.191   5.633
 3583SOL     OW11647   0.561   4.536   0.593
 3583SOL    HW111648   0.520   4.512   0.681
 3583SOL    HW211649   0.661   4.529   0.600
 3584SOL     OW11650   5.546   4.615   5.536
 3584SOL    HW111651   5.544   4.709   5.571
 3584SOL    HW211652   5.596   4.557   5.600
 3585SOL     OW11653   2.441   2.428   4.495
 3585SOL    HW111654   2.444   2.434   4.395
 3585SOL    HW211655   2.534   2.417   4.530
 3586SOL     OW11656   6.424   2.935   3.942
 3586SOL    HW111657   6.480   2.909   4.021
 3586SOL    HW211658   6.484   2.953   3.864
 3587SOL     OW11659   3.602   6.517   6.228
 3587SOL    HW111660   3.666   6.458   6.179
 3587SOL    HW211661   3.593   6.485   6.323
 3588SOL     OW11662   6.380   4.038   4.711
 3588SOL    HW111663   6.427   4.080   4.634
 3588SOL    HW211664   6.288   4.009   4.683
 3589SOL     OW11665   0.204   0.217   5.975
 3589SOL    HW111666   0.196   0.271   6.058
 3589SOL    HW211667   0.299   0.220   5.942
 3590SOL     OW11668   7.011   4.073   0.113
 3590SOL    HW111669   7.010   4.144   0.183
 3590SOL    HW211670   6.921   4.031   0.105
 3591SOL     OW11671   5.443   2.114   6.517
 3591SOL    HW111672   5.487   2.049   6.455
 3591SOL    HW211673   5.374   2.167   6.468
 3592SOL     OW11674   0.862   0.539   2.085
 3592SOL    HW111675   0.878   0.591   2.168
 3592SOL    HW211676   0.943   0.543   2.026
 3593SOL     OW11677   6.195   3.488   6.044
 3593SOL    HW111678   6.254   3.563   6.073
 3593SOL    HW211679   6.127   3.522   5.979
 3594SOL     OW11680   4.068   5.664   5.022
 3594SOL    HW111681   4.036   5.693   4.932
 3594SOL    HW211682   4.094   5.744   5.076
 3595SOL     OW11683   5.697   5.831   6.849
 3595SOL    HW111684   5.601   5.805   6.861
 3595SOL    HW211685   5.703   5.931   6.839
 3596SOL     OW11686   3.608   1.458   3.096
 3596SOL    HW111687   3.634   1.370   3.057
 3596SOL    HW211688   3.510   1.473   3.081
 3597SOL     OW11689   1.878   3.049   4.911
 3597SOL    HW111690   1.852   3.143   4.887
 3597SOL    HW211691   1.966   3.050   4.958
 3598SOL     OW11692   1.351   5.615   5.239
 3598SOL    HW111693   1.400   5.542   5.190
 3598SOL    HW211694   1.312   5.679   5.173
 3599SOL     OW11695   4.476   1.484   5.861
 3599SOL    HW111696   4.412   1.541   5.913
 3599SOL    HW211697   4.569   1.516   5.879
 3600SOL     OW11698   3.421   3.670   0.554
 3600SOL    HW111699   3.395   3.617   0.473
 3600SOL    HW211700   3.453   3.608   0.626
 3601SOL     OW11701   4.962   1.029   5.291
 3601SOL    HW111702   5.029   0.959   5.264
 3601SOL    HW211703   4.930   1.011   5.384
 3602SOL     OW11704   2.070   2.430   1.776
 3602SOL    HW111705   2.010   2.365   1.824
 3602SOL    HW211706   2.164   2.396   1.780
 3603SOL     OW11707   3.300   0.757   5.696
 3603SOL    HW111708   3.377   0.803   5.651
 3603SOL    HW211709   3.221   0.818   5.698
 3604SOL     OW11710   6.767   0.709   3.706
 3604SOL    HW111711   6.769   0.613   3.732
 3604SOL    HW211712   6.740   0.765   3.784
 3605SOL     OW11713   1.125   5.204   3.233
 3605SOL    HW111714   1.100   5.127   3.292
 3605SOL    HW211715   1.224   5.215   3.234
 3606SOL     OW11716   1.903   6.576   1.877
 3606SOL    HW111717   1.983   6.608   1.928
 3606SOL    HW211718   1.932   6.538   1.789
 3607SOL     OW11719   5.156   2.754   2.779
 3607SOL    HW111720   5.182   2.847   2.752
 3607SOL    HW211721   5.076   2.759   2.839
 3608SOL     OW11722   4.131   2.085   4.109
 3608SOL    HW111723   4.138   1.985   4.098
 3608SOL    HW211724   4.204   2.116   4.170
 3609SOL     OW11725   2.350   6.797   4.431
 3609SOL    HW111726   2.324   6.701   4.434
 3609SOL    HW211727   2.430   6.809   4.372
 3610SOL     OW11728   2.538   0.090   5.409
 3610SOL    HW111729   2.634   0.116   5.422
 3610SOL    HW211730   2.534   0.006   5.355
 3611SOL     OW11731   4.572   4.555   3.673
 3611SOL    HW111732   4.665   4.587   3.652
 3611SOL    HW211733   4.566   4.457   3.656
 3612SOL     OW11734   5.397   1.223   6.549
 3612SOL    HW111735   5.381   1.309   6.597
 3612SOL    HW211736   5.438   1.241   6.460
 3613SOL     OW11737   3.343   5.078   1.237
 3613SOL    HW111738   3.325   5.097   1.333
 3613SOL    HW211739   3.441   5.066   1.222
 3614SOL     OW11740   3.421   4.140   6.457
 3614SOL    HW111741   3.326   4.168   6.446
 3614SOL    HW211742   3.474   4.216   6.495
 3615SOL     OW11743   6.506   2.881   5.385
 3615SOL    HW111744   6.557   2.820   5.324
 3615SOL    HW211745   6.474   2.830   5.465
 3616SOL     OW11746   1.927   1.715   6.970
 3616SOL    HW111747   1.924   1.751   6.877
 3616SOL    HW211748   1.837   1.679   6.994
 3617SOL     OW11749   4.212   0.109   5.616
 3617SOL    HW111750   4.230   0.033   5.678
 3617SOL    HW211751   4.114   0.128   5.614
 3618SOL     OW11752   1.648   4.143   5.032
 3618SOL    HW111753   1.733   4.095   5.014
 3618SOL    HW211754   1.571   4.083   5.011
 3619SOL     OW11755   5.966   2.822   1.137
 3619SOL    HW111756   5.880   2.795   1.094
 3619SOL    HW211757   5.977   2.921   1.130
 3620SOL     OW11758   6.339   6.702   4.856
 3620SOL    HW111759   6.435   6.682   4.875
 3620SOL    HW211760   6.298   6.747   4.935
 3621SOL     OW11761   3.963   3.048   3.867
 3621SOL    HW111762   4.053   3.036   3.910
 3621SOL    HW211763   3.936   3.144   3.873
 3622SOL     OW11764   0.929   6.682   0.652
 3622SOL    HW111765   0.940   6.735   0.568
 3622SOL    HW211766   0.965   6.734   0.729
 3623SOL     OW11767   1.389   5.489   6.032
 3623SOL    HW111768   1.405   5.397   6.067
 3623SOL    HW211769   1.440   5.555   6.088
 3624SOL     OW11770   3.095   0.649   1.717
 3624SOL    HW111771   3.160   0.718   1.683
 3624SOL    HW211772   3.135   0.601   1.794
 3625SOL     OW11773   6.398   3.164   6.603
 3625SOL    HW111774   6.304   3.186   6.630
 3625SOL    HW211775   6.412   3.066   6.610
 3626SOL     OW11776   0.600   2.420   5.119
 3626SOL    HW111777   0.507   2.392   5.097
 3626SOL    HW211778   0.665   2.354   5.080
 3627SOL     OW11779   4.257   2.943   1.221
 3627SOL    HW111780   4.284   2.887   1.143
 3627SOL    HW211781   4.179   3.000   1.195
 3628SOL     OW11782   0.589   1.185   2.215
 3628SOL    HW111783   0.641   1.180   2.300
 3628SOL    HW211784   0.582   1.281   2.186
 3629SOL     OW11785   1.129   1.277   4.502
 3629SOL    HW111786   1.174   1.333   4.433
 3629SOL    HW211787   1.135   1.322   4.591
 3630SOL     OW11788   6.949   2.710   3.518
 3630SOL    HW111789   6.988   2.743   3.432
 3630SOL    HW211790   6.931   2.788   3.578
 3631SOL     OW11791   1.636   6.491   2.685
 3631SOL    HW111792   1.544   6.507   2.719
 3631SOL    HW211793   1.660   6.562   2.618
 3632SOL     OW11794   4.608   3.222   0.978
 3632SOL    HW111795   4.657   3.173   1.050
 3632SOL    HW211796   4.561   3.301   1.019
 3633SOL     OW11797   3.870   2.901   5.968
 3633SOL    HW111798   3.946   2.947   5.922
 3633SOL    HW211799   3.898   2.872   6.059
 3634SOL     OW11800   3.182   5.280   5.569
 3634SOL    HW111801   3.123   5.354   5.603
 3634SOL    HW211802   3.256   5.319   5.514
 3635SOL     OW11803   3.018   1.042   1.550
 3635SOL    HW111804   3.043   1.117   1.488
 3635SOL    HW211805   3.064   1.054   1.638
 3636SOL     OW11806   1.058   5.702   6.957
 3636SOL    HW111807   0.975   5.674   6.908
 3636SOL    HW211808   1.050   5.798   6.983
 3637SOL     OW11809   0.080   3.152   6.617
 3637SOL    HW111810   0.112   3.083   6.681
 3637SOL    HW211811   0.147   3.164   6.544
 3638SOL     OW11812   6.167   4.917   2.332
 3638SOL    HW111813   6.100   4.884   2.265
 3638SOL    HW211814   6.259   4.903   2.295
 3639SOL     OW11815   3.714   4.144   4.578
 3639SOL    HW111816   3.663   4.166   4.661
 3639SOL    HW211817   3.653   4.149   4.499
 3640SOL     OW11818   5.409   2.427   0.274
 3640SOL    HW111819   5.408   2.327   0.276
 3640SOL    HW211820   5.425   2.458   0.180
 3641SOL     OW11821   6.985   4.266   1.640
 3641SOL    HW111822   7.014   4.331   1.710
 3641SOL    HW211823   0.032   4.266   1.565
 3642SOL     OW11824   5.856   2.289   6.496
 3642SOL    HW111825   5.816   2.251   6.579
 3642SOL    HW211826   5.954   2.304   6.511
 3643SOL     OW11827   3.922   5.748   5.632
 3643SOL    HW111828   3.882   5.822   5.578
 3643SOL    HW211829   3.857   5.718   5.701
 3644SOL     OW11830   3.424   0.966   1.799
 3644SOL    HW111831   3.467   0.990   1.886
 3644SOL    HW211832   3.454   1.031   1.729
 3645SOL     OW11833   1.810   3.929   4.219
 3645SOL    HW111834   1.763   4.017   4.232
 3645SOL    HW211835   1.810   3.878   4.305
 3646SOL     OW11836   2.612   4.687   4.845
 3646SOL    HW111837   2.694   4.668   4.900
 3646SOL    HW211838   2.531   4.653   4.893
 3647SOL     OW11839   2.481   0.520   0.412
 3647SOL    HW111840   2.577   0.532   0.439
 3647SOL    HW211841   2.469   0.431   0.368
 3648SOL     OW11842   4.380   5.367   3.578
 3648SOL    HW111843   4.324   5.449   3.591
 3648SOL    HW211844   4.405   5.358   3.482
 3649SOL     OW11845   5.669   3.357   0.456
 3649SOL    HW111846   5.690   3.438   0.401
 3649SOL    HW211847   5.570   3.341   0.456
 3650SOL     OW11848   5.224   4.881   0.342
 3650SOL    HW111849   5.154   4.906   0.409
 3650SOL    HW211850   5.295   4.827   0.387
 3651SOL     OW11851   1.247   2.234   5.975
 3651SOL    HW111852   1.218   2.327   5.997
 3651SOL    HW211853   1.333   2.238   5.923
 3652SOL     OW11854   5.046   1.646   1.958
 3652SOL    HW111855   5.051   1.607   2.050
 3652SOL    HW211856   4.978   1.596   1.905
 3653SOL     OW11857   0.640   1.401   1.539
 3653SOL    HW111858   0.644   1.305   1.567
 3653SOL    HW211859   0.698   1.414   1.459
 3654SOL     OW11860   5.800   0.179   0.475
 3654SOL    HW111861   5.791   0.127   0.390
 3654SOL    HW211862   5.710   0.211   0.504
 3655SOL     OW11863   1.969   2.130   4.442
 3655SOL    HW111864   1.943   2.195   4.514
 3655SOL    HW211865   1.985   2.041   4.482
 3656SOL     OW11866   0.376   5.740   1.297
 3656SOL    HW111867   0.312   5.722   1.223
 3656SOL    HW211868   0.366   5.672   1.368
 3657SOL     OW11869   4.863   6.268   4.580
 3657SOL    HW111870   4.814   6.193   4.535
 3657SOL    HW211871   4.867   6.250   4.678
 3658SOL     OW11872   1.480   5.393   6.401
 3658SOL    HW111873   1.514   5.455   6.329
 3658SOL    HW211874   1.552   5.327   6.424
 3659SOL     OW11875   6.514   2.048   6.174
 3659SOL    HW111876   6.524   2.057   6.273
 3659SOL    HW211877   6.544   1.956   6.146
 3660SOL     OW11878   5.779   5.407   6.023
 3660SOL    HW111879   5.772   5.318   6.069
 3660SOL    HW211880   5.715   5.471   6.066
 3661SOL     OW11881   6.953   1.591   4.746
 3661SOL    HW111882   6.904   1.506   4.763
 3661SOL    HW211883   0.033   1.575   4.755
 3662SOL     OW11884   3.499   0.985   5.247
 3662SOL    HW111885   3.584   1.005   5.296
 3662SOL    HW211886   3.464   0.896   5.276
 3663SOL     OW11887   2.364   2.412   6.382
 3663SOL    HW111888   2.440   2.452   6.332
 3663SOL    HW211889   2.279   2.458   6.355
 3664SOL     OW11890   4.048   1.913   2.192
 3664SOL    HW111891   4.007   2.003   2.174
 3664SOL    HW211892   4.072   1.869   2.105
 3665SOL     OW11893   1.164   5.917   5.577
 3665SOL    HW111894   1.147   5.833   5.526
 3665SOL    HW211895   1.259   5.918   5.608
 3666SOL     OW11896   2.336   1.843   4.913
 3666SOL    HW111897   2.333   1.853   5.012
 3666SOL    HW211898   2.328   1.933   4.870
 3667SOL     OW11899   2.292   0.758   2.768
 3667SOL    HW111900   2.194   0.773   2.774
 3667SOL    HW211901   2.316   0.728   2.675
 3668SOL     OW11902   0.467   0.489   1.467
 3668SOL    HW111903   0.505   0.516   1.378
 3668SOL    HW211904   0.537   0.438   1.518
 3669SOL     OW11905   7.006   1.322   4.095
 3669SOL    HW111906   0.005   1.417   4.072
 3669SOL    HW211907   0.042   1.262   4.037
 3670SOL     OW11908   3.627   5.381   1.645
 3670SOL    HW111909   3.596   5.300   1.695
 3670SOL    HW211910   3.548   5.435   1.617
 3671SOL     OW11911   0.262   0.366   3.499
 3671SOL    HW111912   0.238   0.442   3.560
 3671SOL    HW211913   0.197   0.363   3.423
 3672SOL     OW11914   4.363   0.125   3.097
 3672SOL    HW111915   4.449   0.158   3.137
 3672SOL    HW211916   4.341   0.180   3.016
 3673SOL     OW11917   4.689   6.312   1.296
 3673SOL    HW111918   4.735   6.226   1.274
 3673SOL    HW211919   4.713   6.381   1.228
 3674SOL     OW11920   1.666   5.231   6.068
 3674SOL    HW111921   1.689   5.141   6.029
 3674SOL    HW211922   1.569   5.232   6.092
 3675SOL     OW11923   0.333   1.338   4.028
 3675SOL    HW111924   0.315   1.421   3.975
 3675SOL    HW211925   0.369   1.363   4.118
 3676SOL     OW11926   4.337   1.777   3.508
 3676SOL    HW111927   4.242   1.756   3.531
 3676SOL    HW211928   4.343   1.799   3.411
 3677SOL     OW11929   2.215   0.529   3.715
 3677SOL    HW111930   2.287   0.559   3.779
 3677SOL    HW211931   2.250   0.534   3.621
 3678SOL     OW11932   1.489   0.486   3.852
 3678SOL    HW111933   1.551   0.546   3.802
 3678SOL    HW211934   1.419   0.451   3.790
 3679SOL     OW11935   4.665   1.157   2.042
 3679SOL    HW111936   4.740   1.218   2.067
 3679SOL    HW211937   4.664   1.145   1.942
 3680SOL     OW11938   4.231   1.037   3.978
 3680SOL    HW111939   4.249   1.023   3.880
 3680SOL    HW211940   4.263   1.127   4.005
 3681SOL     OW11941   1.494   6.852   4.735
 3681SOL    HW111942   1.466   6.929   4.678
 3681SOL    HW211943   1.416   6.792   4.750
 3682SOL     OW11944   5.539   2.370   1.289
 3682SOL    HW111945   5.569   2.312   1.214
 3682SOL    HW211946   5.544   2.319   1.375
 3683SOL     OW11947   6.647   0.708   6.285
 3683SOL    HW111948   6.635   0.622   6.236
 3683SOL    HW211949   6.563   0.730   6.335
 3684SOL     OW11950   2.075   6.730   5.354
 3684SOL    HW111951   2.099   6.805   5.292
 3684SOL    HW211952   2.013   6.764   5.425
 3685SOL     OW11953   2.080   6.116   5.649
 3685SOL    HW111954   2.162   6.077   5.606
 3685SOL    HW211955   2.003   6.054   5.636
 3686SOL     OW11956   0.354   4.127   3.926
 3686SOL    HW111957   0.432   4.152   3.869
 3686SOL    HW211958   0.331   4.204   3.986
 3687SOL     OW11959   5.234   5.733   3.632
 3687SOL    HW111960   5.285   5.813   3.666
 3687SOL    HW211961   5.220   5.741   3.534
 3688SOL     OW11962   5.738   3.358   0.760
 3688SOL    HW111963   5.701   3.325   0.673
 3688SOL    HW211964   5.774   3.280   0.812
 3689SOL     OW11965   1.743   0.354   5.816
 3689SOL    HW111966   1.747   0.255   5.826
 3689SOL    HW211967   1.675   0.391   5.879
 3690SOL     OW11968   4.605   5.020   0.738
 3690SOL    HW111969   4.653   5.031   0.825
 3690SOL    HW211970   4.670   5.028   0.663
 3691SOL     OW11971   2.183   2.376   0.137
 3691SOL    HW111972   2.153   2.403   0.046
 3691SOL    HW211973   2.150   2.283   0.157
 3692SOL     OW11974   1.002   3.384   6.431
 3692SOL    HW111975   1.056   3.456   6.389
 3692SOL    HW211976   1.017   3.384   6.530
 3693SOL     OW11977   0.430   1.508   2.588
 3693SOL    HW111978   0.441   1.585   2.651
 3693SOL    HW211979   0.378   1.538   2.508
 3694SOL     OW11980   6.843   0.069   1.616
 3694SOL    HW111981   6.796   0.110   1.538
 3694SOL    HW211982   6.941   0.089   1.611
 3695SOL     OW11983   6.767   2.871   2.853
 3695SOL    HW111984   6.762   2.865   2.754
 3695SOL    HW211985   6.696   2.814   2.894
 3696SOL     OW11986   5.053   0.978   4.697
 3696SOL    HW111987   5.057   1.038   4.777
 3696SOL    HW211988   5.143   0.972   4.655
 3697SOL     OW11989   6.495   6.599   3.353
 3697SOL    HW111990   6.482   6.515   3.406
 3697SOL    HW211991   6.438   6.672   3.391
 3698SOL     OW11992   2.248   0.755   3.067
 3698SOL    HW111993   2.270   0.765   2.970
 3698SOL    HW211994   2.227   0.845   3.105
 3699SOL     OW11995   2.416   2.385   3.545
 3699SOL    HW111996   2.339   2.371   3.607
 3699SOL    HW211997   2.501   2.360   3.591
 3700SOL     OW11998   0.709   5.073   5.175
 3700SOL    HW111999   0.738   5.048   5.267
 3700SOL    HW212000   0.736   5.001   5.110
 3701SOL     OW12001   1.387   0.427   2.600
 3701SOL    HW112002   1.455   0.361   2.632
 3701SOL    HW212003   1.379   0.421   2.500
 3702SOL     OW12004   5.317   4.465   3.943
 3702SOL    HW112005   5.357   4.439   4.031
 3702SOL    HW212006   5.389   4.486   3.878
 3703SOL     OW12007   1.363   2.152   4.234
 3703SOL    HW112008   1.413   2.100   4.164
 3703SOL    HW212009   1.418   2.155   4.317
 3704SOL     OW12010   0.087   2.007   0.806
 3704SOL    HW112011   0.185   2.025   0.800
 3704SOL    HW212012   0.037   2.093   0.801
 3705SOL     OW12013   4.898   4.367   3.147
 3705SOL    HW112014   4.880   4.459   3.181
 3705SOL    HW212015   4.812   4.317   3.138
 3706SOL     OW12016   0.648   3.728   0.421
 3706SOL    HW112017   0.699   3.686   0.496
 3706SOL    HW212018   0.712   3.767   0.355
 3707SOL     OW12019   1.721   5.107   3.445
 3707SOL    HW112020   1.774   5.128   3.528
 3707SOL    HW212021   1.744   5.015   3.414
 3708SOL     OW12022   3.613   7.009   0.867
 3708SOL    HW112023   3.575   0.055   0.801
 3708SOL    HW212024   3.675   6.946   0.820
 3709SOL     OW12025   1.562   0.651   2.574
 3709SOL    HW112026   1.622   0.636   2.496
 3709SOL    HW212027   1.491   0.581   2.577
 3710SOL     OW12028   6.841   5.034   5.556
 3710SOL    HW112029   6.841   4.938   5.528
 3710SOL    HW212030   6.896   5.045   5.638
 3711SOL     OW12031   1.383   5.724   4.792
 3711SOL    HW112032   1.339   5.716   4.702
 3711SOL    HW212033   1.466   5.779   4.783
 3712SOL     OW12034   1.843   5.443   5.011
 3712SOL    HW112035   1.836   5.452   4.912
 3712SOL    HW212036   1.809   5.526   5.055
 3713SOL     OW12037   6.308   6.212   4.728
 3713SOL    HW112038   6.274   6.244   4.817
 3713SOL    HW212039   6.327   6.291   4.670
 3714SOL     OW12040   0.659   4.700   0.089
 3714SOL    HW112041   0.733   4.659   0.036
 3714SOL    HW212042   0.686   4.792   0.118
 3715SOL     OW12043   6.492   5.703   3.748
 3715SOL    HW112044   6.441   5.667   3.826
 3715SOL    HW212045   6.488   5.638   3.672
 3716SOL     OW12046   5.081   5.525   3.817
 3716SOL    HW112047   5.109   5.555   3.908
 3716SOL    HW212048   5.114   5.591   3.749
 3717SOL     OW12049   4.304   1.186   1.251
 3717SOL    HW112050   4.368   1.225   1.318
 3717SOL    HW212051   4.269   1.259   1.192
 3718SOL     OW12052   6.860   6.798   6.098
 3718SOL    HW112053   6.878   6.824   6.193
 3718SOL    HW212054   6.863   6.698   6.090
 3719SOL     OW12055   4.230   4.005   6.220
 3719SOL    HW112056   4.257   3.913   6.244
 3719SOL    HW212057   4.143   4.002   6.169
 3720SOL     OW12058   0.159   2.924   1.524
 3720SOL    HW112059   0.209   2.936   1.610
 3720SOL    HW212060   0.140   2.827   1.510
 3721SOL     OW12061   6.235   4.720   6.589
 3721SOL    HW112062   6.257   4.789   6.520
 3721SOL    HW212063   6.202   4.766   6.672
 3722SOL     OW12064   4.415   6.656   2.752
 3722SOL    HW112065   4.353   6.733   2.767
 3722SOL    HW212066   4.387   6.579   2.809
 3723SOL     OW12067   4.853   4.875   6.905
 3723SOL    HW112068   4.863   4.831   6.994
 3723SOL    HW212069   4.789   4.951   6.912
 3724SOL     OW12070   1.404   5.047   5.468
 3724SOL    HW112071   1.335   5.103   5.421
 3724SOL    HW212072   1.495   5.070   5.434
 3725SOL     OW12073   0.762   6.354   6.490
 3725SOL    HW112074   0.861   6.349   6.497
 3725SOL    HW212075   0.720   6.312   6.570
 3726SOL     OW12076   5.552   3.577   3.903
 3726SOL    HW112077   5.567   3.673   3.879
 3726SOL    HW212078   5.468   3.544   3.859
 3727SOL     OW12079   0.017   3.232   4.613
 3727SOL    HW112080   0.098   3.174   4.612
 3727SOL    HW212081   6.957   3.180   4.581
 3728SOL     OW12082   2.875   3.378   0.182
 3728SOL    HW112083   2.960   3.327   0.197
 3728SOL    HW212084   2.808   3.319   0.137
 3729SOL     OW12085   0.775   0.052   5.766
 3729SOL    HW112086   0.873   0.072   5.764
 3729SOL    HW212087   0.760   6.974   5.744
 3730SOL     OW12088   3.585   5.664   5.405
 3730SOL    HW112089   3.651   5.695   5.336
 3730SOL    HW212090   3.630   5.602   5.469
 3731SOL     OW12091   0.467   2.255   6.291
 3731SOL    HW112092   0.504   2.164   6.312
 3731SOL    HW212093   0.492   2.319   6.364
 3732SOL     OW12094   2.940   1.774   0.247
 3732SOL    HW112095   2.858   1.803   0.198
 3732SOL    HW212096   3.021   1.798   0.195
 3733SOL     OW12097   1.832   1.826   3.703
 3733SOL    HW112098   1.783   1.752   3.657
 3733SOL    HW212099   1.931   1.812   3.692
 3734SOL     OW12100   4.077   6.989   0.847
 3734SOL    HW112101   3.996   6.931   0.841
 3734SOL    HW212102   4.107   6.993   0.943
 3735SOL     OW12103   4.189   6.845   2.289
 3735SOL    HW112104   4.198   6.941   2.317
 3735SOL    HW212105   4.131   6.796   2.354
 3736SOL     OW12106   6.935   1.069   1.025
 3736SOL    HW112107   7.004   1.084   0.954
 3736SOL    HW212108   6.909   0.972   1.027
 3737SOL     OW12109   0.128   2.490   3.247
 3737SOL    HW112110   0.072   2.419   3.292
 3737SOL    HW212111   0.164   2.553   3.317
 3738SOL     OW12112   6.819   6.877   0.929
 3738SOL    HW112113   6.784   6.837   1.014
 3738SOL    HW212114   6.846   6.972   0.946
 3739SOL     OW12115   3.004   4.839   0.984
 3739SOL    HW112116   3.095   4.863   0.953
 3739SOL    HW212117   3.010   4.789   1.070
 3740SOL     OW12118   5.509   5.484   6.791
 3740SOL    HW112119   5.474   5.541   6.716
 3740SOL    HW212120   5.460   5.506   6.875
 3741SOL     OW12121   5.144   3.222   0.473
 3741SOL    HW112122   5.183   3.166   0.400
 3741SOL    HW212123   5.218   3.267   0.523
 3742SOL     OW12124   3.438   5.867   0.102
 3742SOL    HW112125   3.363   5.927   0.132
 3742SOL    HW212126   3.466   5.809   0.178
 3743SOL     OW12127   4.234   3.432   1.733
 3743SOL    HW112128   4.176   3.497   1.783
 3743SOL    HW212129   4.195   3.340   1.740
 3744SOL     OW12130   0.113   6.820   2.465
 3744SOL    HW112131   0.053   6.743   2.486
 3744SOL    HW212132   0.200   6.809   2.514
 3745SOL     OW12133   4.854   4.199   2.299
 3745SOL    HW112134   4.864   4.225   2.203
 3745SOL    HW212135   4.824   4.104   2.304
 3746SOL     OW12136   6.372   0.445   4.308
 3746SOL    HW112137   6.296   0.496   4.268
 3746SOL    HW212138   6.366   0.447   4.407
 3747SOL     OW12139   3.963   6.765   5.736
 3747SOL    HW112140   3.977   6.830   5.662
 3747SOL    HW212141   3.953   6.672   5.698
 3748SOL     OW12142   5.305   1.846   2.566
 3748SOL    HW112143   5.397   1.879   2.586
 3748SOL    HW212144   5.307   1.786   2.486
 3749SOL     OW12145   0.339   6.133   3.046
 3749SOL    HW112146   0.271   6.206   3.036
 3749SOL    HW212147   0.328   6.089   3.135
 3750SOL     OW12148   5.753   3.995   0.521
 3750SOL    HW112149   5.794   4.081   0.552
 3750SOL    HW212150   5.737   3.999   0.423
 3751SOL     OW12151   1.924   3.841   1.721
 3751SOL    HW112152   1.835   3.838   1.675
 3751SOL    HW212153   1.945   3.935   1.746
 3752SOL     OW12154   1.142   6.479   6.818
 3752SOL    HW112155   1.230   6.522   6.838
 3752SOL    HW212156   1.095   6.530   6.745
 3753SOL     OW12157   7.006   6.259   4.659
 3753SOL    HW112158   6.944   6.333   4.636
 3753SOL    HW212159   0.078   6.278   4.621
 3754SOL     OW12160   6.121   6.016   1.863
 3754SOL    HW112161   6.215   6.034   1.892
 3754SOL    HW212162   6.121   5.991   1.766
 3755SOL     OW12163   5.106   3.912   3.412
 3755SOL    HW112164   5.130   3.855   3.334
 3755SOL    HW212165   5.159   3.997   3.410
 3756SOL     OW12166   2.458   1.533   6.599
 3756SOL    HW112167   2.495   1.564   6.686
 3756SOL    HW212168   2.527   1.546   6.527
 3757SOL     OW12169   2.762   5.726   6.502
 3757SOL    HW112170   2.827   5.800   6.484
 3757SOL    HW212171   2.674   5.747   6.462
 3758SOL     OW12172   2.044   1.117   4.303
 3758SOL    HW112173   2.118   1.122   4.370
 3758SOL    HW212174   1.958   1.097   4.350
 3759SOL     OW12175   5.069   4.478   6.140
 3759SOL    HW112176   5.066   4.394   6.193
 3759SOL    HW212177   4.981   4.493   6.095
 3760SOL     OW12178   1.599   2.464   4.818
 3760SOL    HW112179   1.586   2.519   4.900
 3760SOL    HW212180   1.583   2.521   4.737
 3761SOL     OW12181   0.929   6.515   4.517
 3761SOL    HW112182   0.900   6.600   4.560
 3761SOL    HW212183   0.967   6.535   4.426
 3762SOL     OW12184   0.290   4.178   0.284
 3762SOL    HW112185   0.307   4.256   0.344
 3762SOL    HW212186   0.375   4.129   0.269
 3763SOL     OW12187   6.603   2.949   6.412
 3763SOL    HW112188   6.532   2.953   6.482
 3763SOL    HW212189   6.560   2.934   6.322
 3764SOL     OW12190   2.501   6.661   3.576
 3764SOL    HW112191   2.542   6.709   3.654
 3764SOL    HW212192   2.473   6.570   3.604
 3765SOL     OW12193   5.473   0.742   3.090
 3765SOL    HW112194   5.410   0.677   3.132
 3765SOL    HW212195   5.430   0.832   3.086
 3766SOL     OW12196   0.497   0.829   4.494
 3766SOL    HW112197   0.441   0.748   4.476
 3766SOL    HW212198   0.527   0.868   4.407
 3767SOL     OW12199   1.609   5.252   0.057
 3767SOL    HW112200   1.547   5.174   0.064
 3767SOL    HW212201   1.696   5.229   0.101
 3768SOL     OW12202   5.004   6.561   0.203
 3768SOL    HW112203   4.911   6.593   0.220
 3768SOL    HW212204   5.006   6.503   0.122
 3769SOL     OW12205   4.605   6.478   5.443
 3769SOL    HW112206   4.654   6.393   5.460
 3769SOL    HW212207   4.561   6.474   5.353
 3770SOL     OW12208   2.130   1.520   6.946
 3770SOL    HW112209   2.105   1.443   6.888
 3770SOL    HW212210   2.063   1.594   6.935
 3771SOL     OW12211   5.728   1.726   6.186
 3771SOL    HW112212   5.679   1.804   6.225
 3771SOL    HW212213   5.744   1.658   6.257
 3772SOL     OW12214   5.530   0.833   1.516
 3772SOL    HW112215   5.559   0.739   1.497
 3772SOL    HW212216   5.581   0.870   1.593
 3773SOL     OW12217   6.372   2.398   6.482
 3773SOL    HW112218   6.353   2.333   6.407
 3773SOL    HW212219   6.427   2.474   6.447
 3774SOL     OW12220   0.131   0.972   0.167
 3774SOL    HW112221   0.147   0.900   0.099
 3774SOL    HW212222   0.156   1.060   0.128
 3775SOL     OW12223   6.172   3.610   3.533
 3775SOL    HW112224   6.261   3.634   3.493
 3775SOL    HW212225   6.114   3.569   3.463
 3776SOL     OW12226   2.310   2.871   1.485
 3776SOL    HW112227   2.281   2.795   1.428
 3776SOL    HW212228   2.369   2.932   1.432
 3777SOL     OW12229   2.523   4.974   4.244
 3777SOL    HW112230   2.550   4.878   4.247
 3777SOL    HW212231   2.502   5.006   4.336
 3778SOL     OW12232   3.001   5.516   1.692
 3778SOL    HW112233   3.029   5.582   1.761
 3778SOL    HW212234   3.042   5.540   1.604
 3779SOL     OW12235   2.799   4.664   7.011
 3779SOL    HW112236   2.709   4.703   6.992
 3779SOL    HW212237   2.850   4.655   6.925
 3780SOL     OW12238   3.136   6.182   4.998
 3780SOL    HW112239   3.078   6.124   4.941
 3780SOL    HW212240   3.231   6.172   4.970
 3781SOL     OW12241   3.072   6.129   4.495
 3781SOL    HW112242   3.001   6.176   4.442
 3781SOL    HW212243   3.050   6.032   4.503
 3782SOL     OW12244   2.242   1.561   4.312
 3782SOL    HW112245   2.324   1.589   4.262
 3782SOL    HW212246   2.232   1.462   4.308
 3783SOL     OW12247   5.029   6.234   4.869
 3783SOL    HW112248   4.971   6.152   4.868
 3783SOL    HW212249   4.998   6.294   4.943
 3784SOL     OW12250   5.602   1.137   3.068
 3784SOL    HW112251   5.664   1.099   3.000
 3784SOL    HW212252   5.557   1.218   3.031
 3785SOL     OW12253   2.249   2.272   1.175
 3785SOL    HW112254   2.259   2.368   1.148
 3785SOL    HW212255   2.185   2.226   1.114
 3786SOL     OW12256   3.118   5.456   2.692
 3786SOL    HW112257   3.134   5.371   2.743
 3786SOL    HW212258   3.076   5.435   2.604
 3787SOL     OW12259   4.399   1.400   3.367
 3787SOL    HW112260   4.440   1.475   3.420
 3787SOL    HW212261   4.304   1.422   3.347
 3788SOL     OW12262   5.557   3.016   2.510
 3788SOL    HW112263   5.551   2.924   2.547
 3788SOL    HW212264   5.466   3.059   2.514
 3789SOL     OW12265   1.632   5.046   4.207
 3789SOL    HW112266   1.725   5.060   4.243
 3789SOL    HW212267   1.638   5.009   4.114
 3790SOL     OW12268   2.097   3.271   3.998
 3790SOL    HW112269   2.037   3.194   4.020
 3790SOL    HW212270   2.113   3.326   4.080
 3791SOL     OW12271   4.994   6.531   1.629
 3791SOL    HW112272   4.938   6.532   1.712
 3791SOL    HW212273   5.018   6.437   1.606
 3792SOL     OW12274   6.325   6.708   5.498
 3792SOL    HW112275   6.331   6.668   5.589
 3792SOL    HW212276   6.386   6.788   5.493
 3793SOL     OW12277   2.108   1.434   2.890
 3793SOL    HW112278   2.198   1.409   2.925
 3793SOL    HW212279   2.048   1.354   2.891
 3794SOL     OW12280   4.277   5.842   2.043
 3794SOL    HW112281   4.247   5.761   2.093
 3794SOL    HW212282   4.266   5.923   2.100
 3795SOL     OW12283   5.194   0.437   6.682
 3795SOL    HW112284   5.168   0.354   6.731
 3795SOL    HW212285   5.276   0.419   6.627
 3796SOL     OW12286   1.300   1.966   1.625
 3796SOL    HW112287   1.266   1.994   1.535
 3796SOL    HW212288   1.229   1.913   1.672
 3797SOL     OW12289   1.452   4.789   2.843
 3797SOL    HW112290   1.419   4.854   2.774
 3797SOL    HW212291   1.377   4.727   2.867
 3798SOL     OW12292   2.479   5.100   2.641
 3798SOL    HW112293   2.499   5.047   2.559
 3798SOL    HW212294   2.429   5.043   2.707
 3799SOL     OW12295   1.668   1.347   5.461
 3799SOL    HW112296   1.712   1.360   5.550
 3799SOL    HW212297   1.620   1.259   5.461
 3800SOL     OW12298   4.735   2.389   4.606
 3800SOL    HW112299   4.781   2.463   4.556
 3800SOL    HW212300   4.639   2.413   4.621
 3801SOL     OW12301   6.871   6.519   6.022
 3801SOL    HW112302   6.945   6.457   5.997
 3801SOL    HW212303   6.784   6.470   6.017
 3802SOL     OW12304   1.221   2.239   5.232
 3802SOL    HW112305   1.207   2.200   5.141
 3802SOL    HW212306   1.171   2.185   5.299
 3803SOL     OW12307   3.527   0.495   1.228
 3803SOL    HW112308   3.530   0.593   1.247
 3803SOL    HW212309   3.599   0.471   1.163
 3804SOL     OW12310   4.440   1.971   4.270
 3804SOL    HW112311   4.408   1.905   4.202
 3804SOL    HW212312   4.396   2.059   4.253
 3805SOL     OW12313   2.972   4.252   1.722
 3805SOL    HW112314   2.950   4.343   1.757
 3805SOL    HW212315   2.887   4.205   1.699
 3806SOL     OW12316   2.796   2.369   0.161
 3806SOL    HW112317   2.711   2.344   0.114
 3806SOL    HW212318   2.799   2.322   0.250
 3807SOL     OW12319   1.006   0.040   3.788
 3807SOL    HW112320   1.099   0.055   3.753
 3807SOL    HW212321   0.978   0.120   3.842
 3808SOL     OW12322   3.683   6.765   1.733
 3808SOL    HW112323   3.591   6.786   1.699
 3808SOL    HW212324   3.750   6.823   1.688
 3809SOL     OW12325   5.565   1.181   6.867
 3809SOL    HW112326   5.650   1.144   6.830
 3809SOL    HW212327   5.548   1.272   6.830
 3810SOL     OW12328   3.171   3.030   5.103
 3810SOL    HW112329   3.105   2.988   5.165
 3810SOL    HW212330   3.228   2.959   5.061
 3811SOL     OW12331   0.541   4.711   4.879
 3811SOL    HW112332   0.543   4.625   4.829
 3811SOL    HW212333   0.619   4.767   4.851
 3812SOL     OW12334   5.890   1.719   5.281
 3812SOL    HW112335   5.953   1.785   5.321
 3812SOL    HW212336   5.835   1.677   5.353
 3813SOL     OW12337   3.120   5.389   0.045
 3813SOL    HW112338   3.025   5.397   0.073
 3813SOL    HW212339   3.165   5.319   0.100
 3814SOL     OW12340   6.916   6.182   2.025
 3814SOL    HW112341   6.975   6.121   1.972
 3814SOL    HW212342   6.969   6.224   2.099
 3815SOL     OW12343   5.377   2.125   1.665
 3815SOL    HW112344   5.473   2.143   1.645
 3815SOL    HW212345   5.347   2.045   1.613
 3816SOL     OW12346   0.562   0.386   1.845
 3816SOL    HW112347   0.516   0.407   1.932
 3816SOL    HW212348   0.539   0.293   1.817
 3817SOL     OW12349   4.505   1.970   4.563
 3817SOL    HW112350   4.463   1.984   4.474
 3817SOL    HW212351   4.453   1.900   4.613
 3818SOL     OW12352   4.940   6.278   2.673
 3818SOL    HW112353   4.944   6.185   2.710
 3818SOL    HW212354   4.930   6.344   2.748
 3819SOL     OW12355   5.206   5.138   0.221
 3819SOL    HW112356   5.218   5.059   0.281
 3819SOL    HW212357   5.147   5.205   0.265
 3820SOL     OW12358   5.053   6.062   3.838
 3820SOL    HW112359   4.970   6.008   3.854
 3820SOL    HW212360   5.106   6.019   3.765
 3821SOL     OW12361   1.458   3.447   1.516
 3821SOL    HW112362   1.504   3.388   1.450
 3821SOL    HW212363   1.520   3.467   1.592
 3822SOL     OW12364   2.701   5.202   1.166
 3822SOL    HW112365   2.606   5.220   1.191
 3822SOL    HW212366   2.736   5.277   1.110
 3823SOL     OW12367   3.374   2.784   5.731
 3823SOL    HW112368   3.444   2.730   5.685
 3823SOL    HW212369   3.284   2.748   5.708
 3824SOL     OW12370   6.191   2.017   5.777
 3824SOL    HW112371   6.254   2.053   5.846
 3824SOL    HW212372   6.222   1.927   5.747
 3825SOL     OW12373   0.213   6.530   6.089
 3825SOL    HW112374   0.176   6.444   6.055
 3825SOL    HW212375   0.170   6.551   6.177
 3826SOL     OW12376   6.960   3.505   1.434
 3826SOL    HW112377   6.934   3.410   1.418
 3826SOL    HW212378   6.980   3.550   1.347
 3827SOL     OW12379   3.997   3.297   0.594
 3827SOL    HW112380   3.945   3.382   0.589
 3827SOL    HW212381   3.968   3.244   0.674
 3828SOL     OW12382   5.218   2.211   2.420
 3828SOL    HW112383   5.308   2.199   2.464
 3828SOL    HW212384   5.215   2.300   2.375
 3829SOL     OW12385   2.697   5.153   4.075
 3829SOL    HW112386   2.727   5.076   4.019
 3829SOL    HW212387   2.656   5.118   4.159
 3830SOL     OW12388   2.709   0.336   4.895
 3830SOL    HW112389   2.796   0.328   4.845
 3830SOL    HW212390   2.724   0.383   4.981
 3831SOL     OW12391   4.017   1.772   2.607
 3831SOL    HW112392   3.947   1.839   2.584
 3831SOL    HW212393   3.982   1.680   2.587
 3832SOL     OW12394   6.624   0.847   1.853
 3832SOL    HW112395   6.572   0.932   1.863
 3832SOL    HW212396   6.656   0.839   1.758
 3833SOL     OW12397   0.513   5.037   0.044
 3833SOL    HW112398   0.427   4.998   0.013
 3833SOL    HW212399   0.529   5.014   0.140
 3834SOL     OW12400   3.312   1.524   0.710
 3834SOL    HW112401   3.385   1.460   0.683
 3834SOL    HW212402   3.237   1.473   0.752
 3835SOL     OW12403   3.590   5.391   5.586
 3835SOL    HW112404   3.670   5.345   5.546
 3835SOL    HW212405   3.548   5.331   5.654
 3836SOL     OW12406   1.343   3.889   6.192
 3836SOL    HW112407   1.345   3.795   6.157
 3836SOL    HW212408   1.382   3.951   6.124
 3837SOL     OW12409   3.859   3.785   0.447
 3837SOL    HW112410   3.954   3.810   0.465
 3837SOL    HW212411   3.857   3.697   0.398
 3838SOL     OW12412   6.632   2.510   4.700
 3838SOL    HW112413   6.586   2.479   4.783
 3838SOL    HW212414   6.701   2.579   4.723
 3839SOL     OW12415   5.779   5.911   5.688
 3839SOL    HW112416   5.823   5.916   5.778
 3839SOL    HW212417   5.742   5.819   5.675
 3840SOL     OW12418   1.648   1.246   4.024
 3840SOL    HW112419   1.634   1.241   3.925
 3840SOL    HW212420   1.719   1.182   4.051
 3841SOL     OW12421   0.610   3.438   5.499
 3841SOL    HW112422   0.657   3.419   5.585
 3841SOL    HW212423   0.647   3.380   5.426
 3842SOL     OW12424   0.671   5.113   6.743
 3842SOL    HW112425   0.766   5.082   6.739
 3842SOL    HW212426   0.621   5.059   6.810
 3843SOL     OW12427   6.018   3.053   0.753
 3843SOL    HW112428   5.923   3.056   0.784
 3843SOL    HW212429   6.079   3.058   0.832
 3844SOL     OW12430   1.791   5.010   6.334
 3844SOL    HW112431   1.811   4.955   6.415
 3844SOL    HW212432   1.693   5.006   6.314
 3845SOL     OW12433   3.103   4.040   3.541
 3845SOL    HW112434   3.039   3.985   3.594
 3845SOL    HW212435   3.194   4.035   3.583
 3846SOL     OW12436   0.184   4.980   4.703
 3846SOL    HW112437   0.208   4.914   4.774
 3846SOL    HW212438   0.150   5.064   4.746
 3847SOL     OW12439   0.600   6.926   6.618
 3847SOL    HW112440   0.660   6.988   6.669
 3847SOL    HW212441   0.552   6.866   6.682
 3848SOL     OW12442   2.414   5.080   1.343
 3848SOL    HW112443   2.487   5.073   1.410
 3848SOL    HW212444   2.369   5.169   1.352
 3849SOL     OW12445   1.281   1.916   5.443
 3849SOL    HW112446   1.318   1.881   5.529
 3849SOL    HW212447   1.352   1.969   5.396
 3850SOL     OW12448   3.359   4.091   1.906
 3850SOL    HW112449   3.298   4.131   1.838
 3850SOL    HW212450   3.454   4.117   1.886
 3851SOL     OW12451   2.178   3.138   2.818
 3851SOL    HW112452   2.223   3.065   2.868
 3851SOL    HW212453   2.188   3.224   2.869
 3852SOL     OW12454   3.989   1.058   4.813
 3852SOL    HW112455   4.026   1.007   4.735
 3852SOL    HW212456   4.035   1.147   4.819
 3853SOL     OW12457   0.922   3.418   1.512
 3853SOL    HW112458   0.926   3.330   1.559
 3853SOL    HW212459   0.925   3.404   1.413
 3854SOL     OW12460   1.434   3.585   4.355
 3854SOL    HW112461   1.531   3.563   4.364
 3854SOL    HW212462   1.383   3.502   4.334
 3855SOL     OW12463   6.629   3.056   5.813
 3855SOL    HW112464   6.581   3.091   5.894
 3855SOL    HW212465   6.586   3.092   5.730
 3856SOL     OW12466   0.481   6.276   5.757
 3856SOL    HW112467   0.386   6.264   5.786
 3856SOL    HW212468   0.484   6.307   5.662
 3857SOL     OW12469   0.823   6.509   4.889
 3857SOL    HW112470   0.889   6.584   4.884
 3857SOL    HW212471   0.870   6.423   4.868
 3858SOL     OW12472   2.502   5.714   6.804
 3858SOL    HW112473   2.537   5.717   6.898
 3858SOL    HW212474   2.577   5.732   6.740
 3859SOL     OW12475   0.554   3.238   2.345
 3859SOL    HW112476   0.646   3.202   2.330
 3859SOL    HW212477   0.525   3.218   2.439
 3860SOL     OW12478   2.386   0.175   5.811
 3860SOL    HW112479   2.413   0.094   5.863
 3860SOL    HW212480   2.467   0.222   5.776
 3861SOL     OW12481   4.735   4.665   0.825
 3861SOL    HW112482   4.641   4.653   0.790
 3861SOL    HW212483   4.793   4.591   0.789
 3862SOL     OW12484   1.155   5.719   5.851
 3862SOL    HW112485   1.123   5.769   5.770
 3862SOL    HW212486   1.227   5.655   5.823
 3863SOL     OW12487   3.268   3.754   1.388
 3863SOL    HW112488   3.319   3.827   1.432
 3863SOL    HW212489   3.234   3.786   1.299
 3864SOL     OW12490   3.270   2.057   0.195
 3864SOL    HW112491   3.226   1.968   0.187
 3864SOL    HW212492   3.233   2.106   0.274
 3865SOL     OW12493   4.758   0.332   2.349
 3865SOL    HW112494   4.747   0.341   2.250
 3865SOL    HW212495   4.669   0.314   2.391
 3866SOL     OW12496   4.047   6.808   6.678
 3866SOL    HW112497   3.957   6.779   6.711
 3866SOL    HW212498   4.071   6.895   6.720
 3867SOL     OW12499   1.846   3.417   3.391
 3867SOL    HW112500   1.926   3.408   3.331
 3867SOL    HW212501   1.808   3.509   3.381
 3868SOL     OW12502   1.487   6.070   2.771
 3868SOL    HW112503   1.477   5.987   2.826
 3868SOL    HW212504   1.427   6.141   2.805
 3869SOL     OW12505   0.987   2.934   3.341
 3869SOL    HW112506   0.913   2.903   3.401
 3869SOL    HW212507   0.970   3.028   3.313
 3870SOL     OW12508   2.647   4.653   0.339
 3870SOL    HW112509   2.706   4.578   0.311
 3870SOL    HW212510   2.647   4.724   0.268
 3871SOL     OW12511   2.547   0.276   3.113
 3871SOL    HW112512   2.565   0.209   3.041
 3871SOL    HW212513   2.577   0.239   3.201
 3872SOL     OW12514   3.629   4.080   0.403
 3872SOL    HW112515   3.644   4.051   0.497
 3872SOL    HW212516   3.679   4.164   0.385
 3873SOL     OW12517   4.666   4.992   2.489
 3873SOL    HW112518   4.670   5.080   2.442
 3873SOL    HW212519   4.715   4.923   2.435
 3874SOL     OW12520   4.278   0.411   6.250
 3874SOL    HW112521   4.186   0.381   6.276
 3874SOL    HW212522   4.290   0.398   6.151
 3875SOL     OW12523   1.282   5.034   1.195
 3875SOL    HW112524   1.264   5.089   1.276
 3875SOL    HW212525   1.308   5.093   1.119
 3876SOL     OW12526   4.895   3.741   3.028
 3876SOL    HW112527   4.903   3.654   2.981
 3876SOL    HW212528   4.876   3.813   2.962
 3877SOL     OW12529   5.674   1.095   2.174
 3877SOL    HW112530   5.577   1.095   2.149
 3877SOL    HW212531   5.683   1.096   2.274
 3878SOL     OW12532   2.861   6.254   5.762
 3878SOL    HW112533   2.779   6.201   5.742
 3878SOL    HW212534   2.848   6.304   5.848
 3879SOL     OW12535   3.858   6.206   1.531
 3879SOL    HW112536   3.891   6.168   1.444
 3879SOL    HW212537   3.759   6.198   1.535
 3880SOL     OW12538   5.328   3.254   4.139
 3880SOL    HW112539   5.237   3.215   4.152
 3880SOL    HW212540   5.397   3.188   4.169
 3881SOL     OW12541   1.583   3.729   0.481
 3881SOL    HW112542   1.566   3.773   0.392
 3881SOL    HW212543   1.679   3.701   0.486
 3882SOL     OW12544   0.497   0.392   6.294
 3882SOL    HW112545   0.554   0.396   6.212
 3882SOL    HW212546   0.493   0.297   6.326
 3883SOL     OW12547   3.452   0.582   5.922
 3883SOL    HW112548   3.380   0.545   5.980
 3883SOL    HW212549   3.414   0.651   5.860
 3884SOL     OW12550   1.330   4.740   6.172
 3884SOL    HW112551   1.269   4.779   6.103
 3884SOL    HW212552   1.391   4.673   6.128
 3885SOL     OW12553   6.830   1.557   4.480
 3885SOL    HW112554   6.845   1.574   4.578
 3885SOL    HW212555   6.895   1.489   4.448
 3886SOL     OW12556   6.671   5.956   5.327
 3886SOL    HW112557   6.755   5.933   5.278
 3886SOL    HW212558   6.602   5.989   5.262
 3887SOL     OW12559   4.591   2.777   5.547
 3887SOL    HW112560   4.510   2.830   5.524
 3887SOL    HW212561   4.571   2.718   5.626
 3888SOL     OW12562   6.228   2.184   0.802
 3888SOL    HW112563   6.168   2.146   0.731
 3888SOL    HW212564   6.196   2.274   0.828
 3889SOL     OW12565   0.885   5.886   6.430
 3889SOL    HW112566   0.858   5.852   6.520
 3889SOL    HW212567   0.804   5.922   6.383
 3890SOL     OW12568   5.960   3.737   2.468
 3890SOL    HW112569   5.888   3.683   2.510
 3890SOL    HW212570   5.932   3.833   2.466
 3891SOL     OW12571   5.548   4.881   5.632
 3891SOL    HW112572   5.612   4.928   5.572
 3891SOL    HW212573   5.597   4.843   5.710
 3892SOL     OW12574   5.363   6.900   3.339
 3892SOL    HW112575   5.289   6.942   3.286
 3892SOL    HW212576   5.437   6.874   3.277
 3893SOL     OW12577   2.905   6.064   3.870
 3893SOL    HW112578   2.970   6.084   3.944
 3893SOL    HW212579   2.847   5.987   3.896
 3894SOL     OW12580   5.236   4.292   0.424
 3894SOL    HW112581   5.136   4.300   0.431
 3894SOL    HW212582   5.259   4.235   0.345
 3895SOL     OW12583   2.242   1.919   5.944
 3895SOL    HW112584   2.300   1.897   5.866
 3895SOL    HW212585   2.183   1.997   5.922
 3896SOL     OW12586   6.762   2.303   5.871
 3896SOL    HW112587   6.856   2.297   5.904
 3896SOL    HW212588   6.740   2.399   5.852
 3897SOL     OW12589   3.500   6.300   2.025
 3897SOL    HW112590   3.585   6.279   2.074
 3897SOL    HW212591   3.521   6.330   1.932
 3898SOL     OW12592   3.768   4.051   4.300
 3898SOL    HW112593   3.679   4.096   4.291
 3898SOL    HW212594   3.800   4.057   4.394
 3899SOL     OW12595   4.386   1.439   4.799
 3899SOL    HW112596   4.408   1.432   4.896
 3899SOL    HW212597   4.425   1.523   4.762
 3900SOL     OW12598   6.679   2.480   3.810
 3900SOL    HW112599   6.595   2.475   3.755
 3900SOL    HW212600   6.756   2.447   3.755
 3901SOL     OW12601   2.162   5.840   5.254
 3901SOL    HW112602   2.140   5.846   5.157
 3901SOL    HW212603   2.154   5.746   5.285
 3902SOL     OW12604   4.407   5.150   1.361
 3902SOL    HW112605   4.437   5.055   1.372
 3902SOL    HW212606   4.479   5.202   1.316
 3903SOL     OW12607   3.524   3.025   5.878
 3903SOL    HW112608   3.462   2.987   5.810
 3903SOL    HW212609   3.605   3.063   5.832
 3904SOL     OW12610   2.057   6.213   0.783
 3904SOL    HW112611   2.051   6.297   0.729
 3904SOL    HW212612   1.999   6.221   0.864
 3905SOL     OW12613   0.029   0.126   5.363
 3905SOL    HW112614   0.093   0.064   5.319
 3905SOL    HW212615   6.981   0.158   5.295
 3906SOL     OW12616   0.574   5.710   5.005
 3906SOL    HW112617   0.539   5.651   5.078
 3906SOL    HW212618   0.520   5.795   5.001
 3907SOL     OW12619   1.021   0.959   4.737
 3907SOL    HW112620   1.091   0.923   4.675
 3907SOL    HW212621   0.972   1.033   4.692
 3908SOL     OW12622   1.830   0.311   4.540
 3908SOL    HW112623   1.748   0.298   4.484
 3908SOL    HW212624   1.897   0.241   4.517
 3909SOL     OW12625   6.020   2.434   0.556
 3909SOL    HW112626   5.937   2.427   0.610
 3909SOL    HW212627   6.042   2.345   0.517
 3910SOL     OW12628   3.525   3.139   0.753
 3910SOL    HW112629   3.450   3.202   0.731
 3910SOL    HW212630   3.516   3.109   0.848
 3911SOL     OW12631   6.331   0.791   0.692
 3911SOL    HW112632   6.403   0.754   0.634
 3911SOL    HW212633   6.337   0.891   0.693
 3912SOL     OW12634   3.786   2.847   0.092
 3912SOL    HW112635   3.828   2.936   0.073
 3912SOL    HW212636   3.720   2.857   0.166
 3913SOL     OW12637   4.528   5.723   1.597
 3913SOL    HW112638   4.461   5.761   1.661
 3913SOL    HW212639   4.551   5.630   1.625
 3914SOL     OW12640   6.983   1.134   0.467
 3914SOL    HW112641   7.012   1.227   0.443
 3914SOL    HW212642   6.988   1.076   0.385
 3915SOL     OW12643   4.719   5.965   5.665
 3915SOL    HW112644   4.658   6.005   5.733
 3915SOL    HW212645   4.814   5.987   5.688
 3916SOL     OW12646   2.468   1.950   2.793
 3916SOL    HW112647   2.439   1.856   2.772
 3916SOL    HW212648   2.562   1.950   2.827
 3917SOL     OW12649   3.571   4.361   1.342
 3917SOL    HW112650   3.608   4.445   1.382
 3917SOL    HW212651   3.477   4.347   1.375
 3918SOL     OW12652   5.036   1.170   0.324
 3918SOL    HW112653   5.000   1.219   0.245
 3918SOL    HW212654   4.992   1.080   0.330
 3919SOL     OW12655   4.368   6.264   2.424
 3919SOL    HW112656   4.407   6.230   2.510
 3919SOL    HW212657   4.321   6.350   2.440
 3920SOL     OW12658   2.866   1.508   5.263
 3920SOL    HW112659   2.835   1.598   5.293
 3920SOL    HW212660   2.942   1.518   5.198
 3921SOL     OW12661   6.945   3.044   6.142
 3921SOL    HW112662   6.938   3.119   6.076
 3921SOL    HW212663   6.935   3.079   6.235
 3922SOL     OW12664   4.755   4.153   2.931
 3922SOL    HW112665   4.726   4.134   2.837
 3922SOL    HW212666   4.695   4.222   2.972
 3923SOL     OW12667   5.001   1.047   1.499
 3923SOL    HW112668   4.950   1.133   1.499
 3923SOL    HW212669   5.046   1.035   1.410
 3924SOL     OW12670   5.610   5.183   4.338
 3924SOL    HW112671   5.622   5.151   4.244
 3924SOL    HW212672   5.654   5.118   4.401
 3925SOL     OW12673   4.923   4.037   1.151
 3925SOL    HW112674   4.938   4.134   1.134
 3925SOL    HW212675   5.011   3.990   1.153
 3926SOL     OW12676   0.748   5.712   5.558
 3926SOL    HW112677   0.714   5.624   5.592
 3926SOL    HW212678   0.698   5.736   5.475
 3927SOL     OW12679   5.480   2.460   5.754
 3927SOL    HW112680   5.436   2.399   5.819
 3927SOL    HW212681   5.431   2.457   5.666
 3928SOL     OW12682   3.410   5.867   2.033
 3928SOL    HW112683   3.463   5.860   2.117
 3928SOL    HW212684   3.467   5.906   1.961
 3929SOL     OW12685   0.761   1.886   5.221
 3929SOL    HW112686   0.777   1.892   5.123
 3929SOL    HW212687   0.665   1.908   5.241
 3930SOL     OW12688   2.254   4.660   3.783
 3930SOL    HW112689   2.246   4.660   3.883
 3930SOL    HW212690   2.297   4.575   3.752
 3931SOL     OW12691   1.953   2.222   1.496
 3931SOL    HW112692   2.040   2.259   1.462
 3931SOL    HW212693   1.967   2.183   1.587
 3932SOL     OW12694   2.431   4.966   3.963
 3932SOL    HW112695   2.451   5.004   4.053
 3932SOL    HW212696   2.455   4.869   3.962
 3933SOL     OW12697   1.902   6.171   1.417
 3933SOL    HW112698   1.827   6.228   1.385
 3933SOL    HW212699   1.905   6.086   1.364
 3934SOL     OW12700   0.187   0.422   1.674
 3934SOL    HW112701   0.235   0.481   1.609
 3934SOL    HW212702   0.196   0.327   1.646
 3935SOL     OW12703   6.472   3.544   5.862
 3935SOL    HW112704   6.411   3.484   5.811
 3935SOL    HW212705   6.417   3.609   5.916
 3936SOL     OW12706   6.467   4.434   5.578
 3936SOL    HW112707   6.518   4.436   5.491
 3936SOL    HW212708   6.401   4.359   5.576
 3937SOL     OW12709   0.483   6.178   1.686
 3937SOL    HW112710   0.509   6.270   1.714
 3937SOL    HW212711   0.399   6.151   1.735
 3938SOL     OW12712   1.134   3.336   1.751
 3938SOL    HW112713   1.107   3.422   1.707
 3938SOL    HW212714   1.060   3.304   1.809
 3939SOL     OW12715   1.128   0.845   3.109
 3939SOL    HW112716   1.182   0.863   3.191
 3939SOL    HW212717   1.031   0.854   3.131
 3940SOL     OW12718   3.192   6.074   0.556
 3940SOL    HW112719   3.217   6.022   0.474
 3940SOL    HW212720   3.092   6.085   0.558
 3941SOL     OW12721   5.620   5.717   2.258
 3941SOL    HW112722   5.540   5.756   2.304
 3941SOL    HW212723   5.596   5.692   2.164
 3942SOL     OW12724   6.886   5.837   5.190
 3942SOL    HW112725   6.873   5.783   5.107
 3942SOL    HW212726   6.913   5.930   5.164
 3943SOL     OW12727   1.608   2.958   0.455
 3943SOL    HW112728   1.666   3.003   0.523
 3943SOL    HW212729   1.658   2.948   0.369
 3944SOL     OW12730   5.184   3.175   6.582
 3944SOL    HW112731   5.145   3.086   6.605
 3944SOL    HW212732   5.182   3.187   6.483
 3945SOL     OW12733   5.631   0.644   3.307
 3945SOL    HW112734   5.610   0.681   3.217
 3945SOL    HW212735   5.547   0.611   3.351
 3946SOL     OW12736   0.771   3.114   0.075
 3946SOL    HW112737   0.694   3.093   0.135
 3946SOL    HW212738   0.856   3.105   0.126
 3947SOL     OW12739   6.189   5.368   2.101
 3947SOL    HW112740   6.211   5.378   2.004
 3947SOL    HW212741   6.270   5.338   2.151
 3948SOL     OW12742   1.709   3.084   5.711
 3948SOL    HW112743   1.645   3.081   5.788
 3948SOL    HW212744   1.660   3.068   5.626
 3949SOL     OW12745   5.724   0.525   1.851
 3949SOL    HW112746   5.762   0.596   1.792
 3949SOL    HW212747   5.749   0.435   1.814
 3950SOL     OW12748   3.074   4.401   1.533
 3950SOL    HW112749   3.027   4.326   1.580
 3950SOL    HW212750   3.032   4.488   1.558
 3951SOL     OW12751   0.849   2.662   4.520
 3951SOL    HW112752   0.825   2.732   4.587
 3951SOL    HW212753   0.929   2.611   4.553
 3952SOL     OW12754   5.548   3.790   0.233
 3952SOL    HW112755   5.630   3.848   0.234
 3952SOL    HW212756   5.503   3.794   0.322
 3953SOL     OW12757   3.350   3.383   6.869
 3953SOL    HW112758   3.341   3.447   6.946
 3953SOL    HW212759   3.320   3.292   6.899
 3954SOL     OW12760   0.463   2.379   5.904
 3954SOL    HW112761   0.408   2.458   5.929
 3954SOL    HW212762   0.435   2.300   5.958
 3955SOL     OW12763   0.116   3.668   0.487
 3955SOL    HW112764   0.099   3.742   0.422
 3955SOL    HW212765   0.215   3.652   0.494
 3956SOL     OW12766   6.824   2.931   5.485
 3956SOL    HW112767   6.847   2.979   5.570
 3956SOL    HW212768   6.737   2.884   5.495
 3957SOL     OW12769   0.933   1.383   3.468
 3957SOL    HW112770   0.893   1.344   3.386
 3957SOL    HW212771   0.978   1.311   3.521
 3958SOL     OW12772   5.819   5.788   0.484
 3958SOL    HW112773   5.827   5.888   0.490
 3958SOL    HW212774   5.723   5.762   0.494
 3959SOL     OW12775   2.815   5.826   0.830
 3959SOL    HW112776   2.758   5.748   0.801
 3959SOL    HW212777   2.792   5.906   0.775
 3960SOL     OW12778   5.284   3.372   1.206
 3960SOL    HW112779   5.199   3.425   1.202
 3960SOL    HW212780   5.269   3.288   1.259
 3961SOL     OW12781   5.553   0.388   1.583
 3961SOL    HW112782   5.622   0.460   1.581
 3961SOL    HW212783   5.502   0.387   1.497
 3962SOL     OW12784   0.852   6.582   5.845
 3962SOL    HW112785   0.941   6.581   5.890
 3962SOL    HW212786   0.795   6.509   5.882
 3963SOL     OW12787   4.510   5.329   3.326
 3963SOL    HW112788   4.552   5.410   3.367
 3963SOL    HW212789   4.574   5.252   3.333
 3964SOL     OW12790   5.720   6.538   6.232
 3964SOL    HW112791   5.692   6.442   6.241
 3964SOL    HW212792   5.817   6.543   6.209
 3965SOL     OW12793   3.990   2.654   6.911
 3965SOL    HW112794   3.925   2.607   6.971
 3965SOL    HW212795   3.951   2.742   6.884
 3966SOL     OW12796   6.074   3.429   5.356
 3966SOL    HW112797   6.094   3.400   5.262
 3966SOL    HW212798   6.025   3.355   5.403
 3967SOL     OW12799   1.619   6.729   6.828
 3967SOL    HW112800   1.646   6.751   6.922
 3967SOL    HW212801   1.695   6.747   6.766
 3968SOL     OW12802   5.588   0.336   1.157
 3968SOL    HW112803   5.649   0.260   1.182
 3968SOL    HW212804   5.523   0.351   1.231
 3969SOL     OW12805   0.673   6.274   2.063
 3969SOL    HW112806   0.683   6.208   1.988
 3969SOL    HW212807   0.640   6.227   2.144
 3970SOL     OW12808   4.721   4.299   4.137
 3970SOL    HW112809   4.801   4.323   4.193
 3970SOL    HW212810   4.712   4.200   4.134
 3971SOL     OW12811   1.430   6.104   3.721
 3971SOL    HW112812   1.462   6.091   3.627
 3971SOL    HW212813   1.416   6.201   3.738
 3972SOL     OW12814   1.312   0.446   0.535
 3972SOL    HW112815   1.294   0.478   0.442
 3972SOL    HW212816   1.238   0.477   0.595
 3973SOL     OW12817   3.799   2.897   2.586
 3973SOL    HW112818   3.713   2.894   2.534
 3973SOL    HW212819   3.804   2.817   2.646
 3974SOL     OW12820   5.767   0.738   6.073
 3974SOL    HW112821   5.828   0.807   6.035
 3974SOL    HW212822   5.682   0.782   6.103
 3975SOL     OW12823   6.935   6.085   5.536
 3975SOL    HW112824   6.958   6.079   5.439
 3975SOL    HW212825   6.963   6.174   5.572
 3976SOL     OW12826   1.323   3.045   6.521
 3976SOL    HW112827   1.374   2.972   6.566
 3976SOL    HW212828   1.387   3.113   6.485
 3977SOL     OW12829   4.102   6.369   6.131
 3977SOL    HW112830   4.038   6.360   6.055
 3977SOL    HW212831   4.182   6.312   6.114
 3978SOL     OW12832   5.973   4.080   6.680
 3978SOL    HW112833   5.936   4.173   6.679
 3978SOL    HW212834   6.053   4.076   6.620
 3979SOL     OW12835   0.879   6.905   3.371
 3979SOL    HW112836   0.862   6.993   3.417
 3979SOL    HW212837   0.856   6.831   3.434
 3980SOL     OW12838   4.914   3.551   4.800
 3980SOL    HW112839   4.996   3.503   4.832
 3980SOL    HW212840   4.862   3.585   4.879
 3981SOL     OW12841   6.325   2.173   5.528
 3981SOL    HW112842   6.346   2.270   5.545
 3981SOL    HW212843   6.230   2.155   5.553
 3982SOL     OW12844   2.815   2.063   3.985
 3982SOL    HW112845   2.902   2.083   4.029
 3982SOL    HW212846   2.754   2.141   3.994
 3983SOL     OW12847   3.767   6.540   4.213
 3983SOL    HW112848   3.732   6.499   4.297
 3983SOL    HW212849   3.724   6.496   4.134
 3984SOL     OW12850   1.475   0.236   1.620
 3984SOL    HW112851   1.408   0.306   1.644
 3984SOL    HW212852   1.523   0.207   1.703
 3985SOL     OW12853   1.389   3.402   1.827
 3985SOL    HW112854   1.397   3.494   1.788
 3985SOL    HW212855   1.295   3.369   1.816
 3986SOL     OW12856   0.812   2.768   2.011
 3986SOL    HW112857   0.757   2.695   2.054
 3986SOL    HW212858   0.834   2.742   1.917
 3987SOL     OW12859   2.270   4.355   6.395
 3987SOL    HW112860   2.242   4.451   6.407
 3987SOL    HW212861   2.261   4.329   6.299
 3988SOL     OW12862   4.641   1.783   6.912
 3988SOL    HW112863   4.679   1.760   7.001
 3988SOL    HW212864   4.647   1.882   6.898
 3989SOL     OW12865   4.066   1.075   6.701
 3989SOL    HW112866   4.091   1.080   6.604
 3989SOL    HW212867   4.148   1.085   6.758
 3990SOL     OW12868   1.527   2.506   3.669
 3990SOL    HW112869   1.622   2.483   3.692
 3990SOL    HW212870   1.505   2.468   3.579
 3991SOL     OW12871   0.002   1.399   4.394
 3991SOL    HW112872   0.041   1.378   4.304
 3991SOL    HW212873   0.068   1.377   4.465
 3992SOL     OW12874   5.171   3.780   6.290
 3992SOL    HW112875   5.156   3.785   6.388
 3992SOL    HW212876   5.209   3.691   6.266
 3993SOL     OW12877   1.515   1.545   3.450
 3993SOL    HW112878   1.569   1.476   3.403
 3993SOL    HW212879   1.537   1.544   3.548
 3994SOL     OW12880   2.554   1.792   3.727
 3994SOL    HW112881   2.554   1.795   3.627
 3994SOL    HW212882   2.561   1.885   3.764
 3995SOL     OW12883   1.491   3.829   1.875
 3995SOL    HW112884   1.579   3.818   1.921
 3995SOL    HW212885   1.420   3.779   1.924
 3996SOL     OW12886   5.852   6.713   3.576
 3996SOL    HW112887   5.803   6.646   3.633
 3996SOL    HW212888   5.789   6.751   3.508
 3997SOL     OW12889   5.604   3.808   2.944
 3997SOL    HW112890   5.619   3.712   2.964
 3997SOL    HW212891   5.512   3.821   2.907
 3998SOL     OW12892   5.546   2.712   3.149
 3998SOL    HW112893   5.560   2.772   3.228
 3998SOL    HW212894   5.493   2.760   3.080
 3999SOL     OW12895   4.916   2.529   1.316
 3999SOL    HW112896   4.998   2.473   1.323
 3999SOL    HW212897   4.893   2.543   1.219
 4000SOL     OW12898   3.307   5.248   2.525
 4000SOL    HW112899   3.379   5.307   2.489
 4000SOL    HW212900   3.236   5.235   2.455
 4001SOL     OW12901   1.284   4.605   4.424
 4001SOL    HW112902   1.360   4.626   4.485
 4001SOL    HW212903   1.199   4.596   4.477
 4002SOL     OW12904   3.317   4.081   3.717
 4002SOL    HW112905   3.385   4.021   3.761
 4002SOL    HW212906   3.363   4.161   3.678
 4003SOL     OW12907   2.373   1.307   5.597
 4003SOL    HW112908   2.291   1.251   5.606
 4003SOL    HW212909   2.409   1.298   5.504
 4004SOL     OW12910   1.064   3.852   3.432
 4004SOL    HW112911   1.150   3.810   3.404
 4004SOL    HW212912   1.048   3.834   3.529
 4005SOL     OW12913   4.895   2.980   0.928
 4005SOL    HW112914   4.908   3.079   0.921
 4005SOL    HW212915   4.973   2.933   0.885
 4006SOL     OW12916   4.959   4.949   3.299
 4006SOL    HW112917   5.036   4.983   3.244
 4006SOL    HW212918   4.992   4.888   3.370
 4007SOL     OW12919   6.823   1.252   3.259
 4007SOL    HW112920   6.875   1.202   3.328
 4007SOL    HW212921   6.844   1.216   3.169
 4008SOL     OW12922   3.330   0.699   0.955
 4008SOL    HW112923   3.313   0.702   1.053
 4008SOL    HW212924   3.404   0.634   0.937
 4009SOL     OW12925   4.644   2.118   0.739
 4009SOL    HW112926   4.711   2.160   0.678
 4009SOL    HW212927   4.557   2.106   0.690
 4010SOL     OW12928   2.879   5.069   1.752
 4010SOL    HW112929   2.851   5.123   1.832
 4010SOL    HW212930   2.893   4.974   1.779
 4011SOL     OW12931   4.920   5.787   0.068
 4011SOL    HW112932   4.845   5.732   0.106
 4011SOL    HW212933   4.882   5.870   0.028
 4012SOL     OW12934   4.551   0.200   2.477
 4012SOL    HW112935   4.590   0.176   2.565
 4012SOL    HW212936   4.494   0.125   2.444
 4013SOL     OW12937   0.275   1.253   6.257
 4013SOL    HW112938   0.250   1.337   6.305
 4013SOL    HW212939   0.209   1.235   6.185
 4014SOL     OW12940   2.980   5.358   2.474
 4014SOL    HW112941   2.892   5.339   2.517
 4014SOL    HW212942   3.009   5.279   2.420
 4015SOL     OW12943   4.086   4.796   5.903
 4015SOL    HW112944   4.033   4.722   5.944
 4015SOL    HW212945   4.079   4.791   5.803
 4016SOL     OW12946   4.155   5.637   5.650
 4016SOL    HW112947   4.227   5.684   5.598
 4016SOL    HW212948   4.068   5.683   5.635
 4017SOL     OW12949   0.606   4.856   5.700
 4017SOL    HW112950   0.592   4.848   5.799
 4017SOL    HW212951   0.618   4.952   5.676
 4018SOL     OW12952   4.559   6.520   2.112
 4018SOL    HW112953   4.523   6.428   2.130
 4018SOL    HW212954   4.648   6.530   2.156
 4019SOL     OW12955   5.205   3.432   3.426
 4019SOL    HW112956   5.130   3.474   3.477
 4019SOL    HW212957   5.292   3.471   3.455
 4020SOL     OW12958   6.497   4.999   4.163
 4020SOL    HW112959   6.573   5.044   4.209
 4020SOL    HW212960   6.411   5.046   4.186
 4021SOL     OW12961   4.348   3.759   6.234
 4021SOL    HW112962   4.399   3.814   6.169
 4021SOL    HW212963   4.403   3.747   6.317
 4022SOL     OW12964   2.436   1.106   1.450
 4022SOL    HW112965   2.461   1.046   1.374
 4022SOL    HW212966   2.518   1.140   1.495
 4023SOL     OW12967   0.194   1.616   5.052
 4023SOL    HW112968   0.253   1.696   5.063
 4023SOL    HW212969   0.205   1.580   4.959
 4024SOL     OW12970   0.377   5.703   4.698
 4024SOL    HW112971   0.410   5.609   4.694
 4024SOL    HW212972   0.436   5.762   4.644
 4025SOL     OW12973   0.266   5.498   3.893
 4025SOL    HW112974   0.254   5.469   3.798
 4025SOL    HW212975   0.180   5.487   3.942
 4026SOL     OW12976   6.412   6.404   3.577
 4026SOL    HW112977   6.460   6.337   3.634
 4026SOL    HW212978   6.367   6.471   3.636
 4027SOL     OW12979   2.691   3.947   5.829
 4027SOL    HW112980   2.691   4.036   5.785
 4027SOL    HW212981   2.719   3.877   5.763
 4028SOL     OW12982   4.704   1.433   2.768
 4028SOL    HW112983   4.728   1.337   2.753
 4028SOL    HW212984   4.700   1.452   2.866
 4029SOL     OW12985   1.764   5.556   6.833
 4029SOL    HW112986   1.828   5.571   6.907
 4029SOL    HW212987   1.689   5.623   6.839
 4030SOL     OW12988   0.115   1.305   2.625
 4030SOL    HW112989   0.027   1.316   2.671
 4030SOL    HW212990   0.113   1.353   2.537
 4031SOL     OW12991   6.211   6.319   1.509
 4031SOL    HW112992   6.154   6.384   1.559
 4031SOL    HW212993   6.257   6.258   1.574
 4032SOL     OW12994   5.772   0.861   1.662
 4032SOL    HW112995   5.863   0.842   1.624
 4032SOL    HW212996   5.781   0.889   1.757
 4033SOL     OW12997   1.954   2.922   2.568
 4033SOL    HW112998   1.939   2.868   2.486
 4033SOL    HW212999   2.044   2.966   2.563
 4034SOL     OW13000   0.170   2.762   5.141
 4034SOL    HW113001   0.257   2.727   5.174
 4034SOL    HW213002   0.140   2.837   5.200
 4035SOL     OW13003   5.101   1.920   1.566
 4035SOL    HW113004   5.087   1.980   1.644
 4035SOL    HW213005   5.017   1.915   1.512
 4036SOL     OW13006   2.425   5.597   2.779
 4036SOL    HW113007   2.407   5.501   2.758
 4036SOL    HW213008   2.446   5.607   2.876
 4037SOL     OW13009   2.406   0.780   6.074
 4037SOL    HW113010   2.472   0.764   6.147
 4037SOL    HW213011   2.326   0.827   6.111
 4038SOL     OW13012   3.490   3.783   5.770
 4038SOL    HW113013   3.487   3.730   5.685
 4038SOL    HW213014   3.476   3.721   5.848
 4039SOL     OW13015   6.118   5.224   1.751
 4039SOL    HW113016   6.147   5.158   1.682
 4039SOL    HW213017   6.146   5.192   1.841
 4040SOL     OW13018   3.605   5.633   4.961
 4040SOL    HW113019   3.534   5.586   4.908
 4040SOL    HW213020   3.569   5.655   5.052
 4041SOL     OW13021   2.942   6.047   0.519
 4041SOL    HW113022   2.925   6.029   0.422
 4041SOL    HW213023   2.862   6.021   0.572
 4042SOL     OW13024   6.160   0.778   3.839
 4042SOL    HW113025   6.240   0.831   3.867
 4042SOL    HW213026   6.135   0.801   3.746
 4043SOL     OW13027   5.172   3.597   6.730
 4043SOL    HW113028   5.208   3.645   6.810
 4043SOL    HW213029   5.213   3.506   6.725
 4044SOL     OW13030   4.111   5.028   3.796
 4044SOL    HW113031   4.138   5.068   3.709
 4044SOL    HW213032   4.184   5.043   3.863
 4045SOL     OW13033   5.196   6.951   5.406
 4045SOL    HW113034   5.197   6.899   5.492
 4045SOL    HW213035   5.117   6.923   5.352
 4046SOL     OW13036   6.663   2.079   2.269
 4046SOL    HW113037   6.581   2.136   2.277
 4046SOL    HW213038   6.637   1.983   2.261
 4047SOL     OW13039   2.924   3.317   6.711
 4047SOL    HW113040   3.023   3.331   6.711
 4047SOL    HW213041   2.894   3.294   6.804
 4048SOL     OW13042   4.458   1.690   2.080
 4048SOL    HW113043   4.418   1.643   2.002
 4048SOL    HW213044   4.555   1.707   2.063
 4049SOL     OW13045   3.917   4.750   6.514
 4049SOL    HW113046   3.964   4.756   6.426
 4049SOL    HW213047   3.985   4.745   6.587
 4050SOL     OW13048   0.274   5.396   2.945
 4050SOL    HW113049   0.254   5.373   2.850
 4050SOL    HW213050   0.309   5.316   2.992
 4051SOL     OW13051   5.160   0.845   5.167
 4051SOL    HW113052   5.175   0.881   5.075
 4051SOL    HW213053   5.233   0.782   5.191
 4052SOL     OW13054   6.327   2.041   3.875
 4052SOL    HW113055   6.393   2.096   3.825
 4052SOL    HW213056   6.245   2.028   3.819
 4053SOL     OW13057   1.287   5.733   4.513
 4053SOL    HW113058   1.236   5.807   4.469
 4053SOL    HW213059   1.370   5.713   4.460
 4054SOL     OW13060   4.898   4.108   0.799
 4054SOL    HW113061   4.950   4.192   0.814
 4054SOL    HW213062   4.953   4.029   0.825
 4055SOL     OW13063   0.888   3.905   1.067
 4055SOL    HW113064   0.940   3.906   1.153
 4055SOL    HW213065   0.931   3.968   1.002
 4056SOL     OW13066   5.011   3.243   0.923
 4056SOL    HW113067   5.076   3.205   0.988
 4056SOL    HW213068   4.979   3.332   0.956
 4057SOL     OW13069   6.657   3.283   6.594
 4057SOL    HW113070   6.561   3.255   6.598
 4057SOL    HW213071   6.690   3.302   6.686
 4058SOL     OW13072   2.716   6.058   5.956
 4058SOL    HW113073   2.707   6.158   5.951
 4058SOL    HW213074   2.633   6.016   5.920
 4059SOL     OW13075   1.018   1.769   4.199
 4059SOL    HW113076   0.952   1.716   4.146
 4059SOL    HW213077   1.108   1.763   4.157
 4060SOL     OW13078   6.196   5.857   5.072
 4060SOL    HW113079   6.100   5.874   5.053
 4060SOL    HW213080   6.212   5.862   5.171
 4061SOL     OW13081   2.052   5.420   1.459
 4061SOL    HW113082   2.104   5.504   1.466
 4061SOL    HW213083   1.975   5.423   1.524
 4062SOL     OW13084   2.029   1.850   1.999
 4062SOL    HW113085   1.938   1.819   2.027
 4062SOL    HW213086   2.061   1.922   2.060
 4063SOL     OW13087   5.698   1.718   0.400
 4063SOL    HW113088   5.621   1.655   0.397
 4063SOL    HW213089   5.749   1.712   0.314
 4064SOL     OW13090   1.839   1.954   5.276
 4064SOL    HW113091   1.886   2.005   5.203
 4064SOL    HW213092   1.762   1.904   5.237
 4065SOL     OW13093   2.138   0.103   0.768
 4065SOL    HW113094   2.040   0.095   0.747
 4065SOL    HW213095   2.156   0.192   0.810
 4066SOL     OW13096   0.281   4.041   3.438
 4066SOL    HW113097   0.352   4.089   3.386
 4066SOL    HW213098   0.191   4.076   3.410
 4067SOL     OW13099   5.166   5.103   1.769
 4067SOL    HW113100   5.127   5.194   1.778
 4067SOL    HW213101   5.100   5.042   1.724
 4068SOL     OW13102   1.826   2.834   5.097
 4068SOL    HW113103   1.839   2.906   5.028
 4068SOL    HW213104   1.914   2.815   5.141
 4069SOL     OW13105   3.955   0.020   6.955
 4069SOL    HW113106   3.887   0.020   6.881
 4069SOL    HW213107   3.908   0.011   0.024
 4070SOL     OW13108   1.283   2.935   2.911
 4070SOL    HW113109   1.300   2.867   2.982
 4070SOL    HW213110   1.309   3.026   2.945
 4071SOL     OW13111   0.796   0.635   4.088
 4071SOL    HW113112   0.774   0.577   4.010
 4071SOL    HW213113   0.881   0.604   4.130
 4072SOL     OW13114   1.888   5.536   3.490
 4072SOL    HW113115   1.979   5.495   3.492
 4072SOL    HW213116   1.883   5.609   3.559
 4073SOL     OW13117   3.009   4.965   0.125
 4073SOL    HW113118   2.954   4.980   0.044
 4073SOL    HW213119   3.003   4.869   0.152
 4074SOL     OW13120   0.816   5.773   2.700
 4074SOL    HW113121   0.751   5.705   2.667
 4074SOL    HW213122   0.827   5.765   2.799
 4075SOL     OW13123   5.373   0.113   0.667
 4075SOL    HW113124   5.309   0.130   0.591
 4075SOL    HW213125   5.328   0.133   0.753
 4076SOL     OW13126   3.291   3.508   5.017
 4076SOL    HW113127   3.242   3.488   4.932
 4076SOL    HW213128   3.322   3.423   5.058
 4077SOL     OW13129   4.030   2.007   1.804
 4077SOL    HW113130   3.990   2.096   1.782
 4077SOL    HW213131   4.130   2.014   1.804
 4078SOL     OW13132   2.912   5.127   2.801
 4078SOL    HW113133   2.998   5.077   2.790
 4078SOL    HW213134   2.925   5.203   2.865
 4079SOL     OW13135   1.034   2.755   4.059
 4079SOL    HW113136   1.125   2.783   4.090
 4079SOL    HW213137   0.967   2.782   4.128
 4080SOL     OW13138   5.753   1.110   5.037
 4080SOL    HW113139   5.715   1.127   5.128
 4080SOL    HW213140   5.720   1.022   5.002
 4081SOL     OW13141   1.527   3.392   3.319
 4081SOL    HW113142   1.572   3.481   3.317
 4081SOL    HW213143   1.595   3.320   3.309
 4082SOL     OW13144   1.101   3.030   0.950
 4082SOL    HW113145   1.194   3.009   0.920
 4082SOL    HW213146   1.037   3.018   0.874
 4083SOL     OW13147   5.606   2.326   4.501
 4083SOL    HW113148   5.681   2.263   4.480
 4083SOL    HW213149   5.633   2.386   4.576
 4084SOL     OW13150   6.699   1.833   4.194
 4084SOL    HW113151   6.759   1.754   4.202
 4084SOL    HW213152   6.614   1.806   4.148
 4085SOL     OW13153   3.528   6.202   0.203
 4085SOL    HW113154   3.449   6.263   0.199
 4085SOL    HW213155   3.578   6.205   0.116
 4086SOL     OW13156   1.829   5.271   1.087
 4086SOL    HW113157   1.753   5.336   1.085
 4086SOL    HW213158   1.824   5.216   1.170
 4087SOL     OW13159   2.138   1.910   3.306
 4087SOL    HW113160   2.176   1.913   3.214
 4087SOL    HW213161   2.188   1.843   3.360
 4088SOL     OW13162   6.576   1.828   0.961
 4088SOL    HW113163   6.485   1.802   0.992
 4088SOL    HW213164   6.628   1.866   1.037
 4089SOL     OW13165   1.125   0.799   4.164
 4089SOL    HW113166   1.154   0.840   4.251
 4089SOL    HW213167   1.205   0.773   4.111
 4090SOL     OW13168   2.083   4.076   6.367
 4090SOL    HW113169   2.042   4.010   6.304
 4090SOL    HW213170   2.028   4.082   6.450
 4091SOL     OW13171   4.862   6.186   0.216
 4091SOL    HW113172   4.852   6.094   0.254
 4091SOL    HW213173   4.958   6.214   0.220
 4092SOL     OW13174   0.719   2.657   5.041
 4092SOL    HW113175   0.664   2.582   5.077
 4092SOL    HW213176   0.659   2.727   5.003
 4093SOL     OW13177   5.393   1.246   3.578
 4093SOL    HW113178   5.488   1.276   3.588
 4093SOL    HW213179   5.353   1.288   3.497
 4094SOL     OW13180   1.958   4.140   5.202
 4094SOL    HW113181   2.035   4.203   5.189
 4094SOL    HW213182   1.897   4.176   5.273
 4095SOL     OW13183   1.200   2.836   5.968
 4095SOL    HW113184   1.246   2.861   6.053
 4095SOL    HW213185   1.261   2.853   5.891
 4096SOL     OW13186   4.633   4.771   6.557
 4096SOL    HW113187   4.639   4.870   6.545
 4096SOL    HW213188   4.591   4.730   6.476
 4097SOL     OW13189   3.374   3.517   5.711
 4097SOL    HW113190   3.359   3.580   5.635
 4097SOL    HW213191   3.322   3.433   5.697
 4098SOL     OW13192   0.625   2.773   3.279
 4098SOL    HW113193   0.637   2.840   3.353
 4098SOL    HW213194   0.609   2.683   3.318
 4099SOL     OW13195   3.162   5.967   2.029
 4099SOL    HW113196   3.244   5.934   1.982
 4099SOL    HW213197   3.176   6.063   2.056
 4100SOL     OW13198   4.241   5.587   3.675
 4100SOL    HW113199   4.143   5.607   3.676
 4100SOL    HW213200   4.275   5.586   3.769
 4101SOL     OW13201   5.765   1.462   5.733
 4101SOL    HW113202   5.760   1.547   5.785
 4101SOL    HW213203   5.808   1.391   5.789
 4102SOL     OW13204   5.909   1.025   0.550
 4102SOL    HW113205   5.906   0.927   0.567
 4102SOL    HW213206   5.841   1.050   0.482
 4103SOL     OW13207   0.362   0.887   2.275
 4103SOL    HW113208   0.284   0.933   2.232
 4103SOL    HW213209   0.413   0.953   2.330
 4104SOL     OW13210   1.637   4.527   2.604
 4104SOL    HW113211   1.557   4.546   2.547
 4104SOL    HW213212   1.714   4.583   2.573
 4105SOL     OW13213   3.850   5.402   0.292
 4105SOL    HW113214   3.809   5.402   0.383
 4105SOL    HW213215   3.884   5.493   0.270
 4106SOL     OW13216   0.150   3.888   4.755
 4106SOL    HW113217   0.117   3.822   4.688
 4106SOL    HW213218   0.244   3.867   4.780
 4107SOL     OW13219   0.657   6.811   1.609
 4107SOL    HW113220   0.741   6.801   1.663
 4107SOL    HW213221   0.605   6.725   1.612
 4108SOL     OW13222   6.413   3.588   6.495
 4108SOL    HW113223   6.490   3.653   6.495
 4108SOL    HW213224   6.440   3.505   6.544
 4109SOL     OW13225   4.047   6.554   3.828
 4109SOL    HW113226   4.145   6.564   3.810
 4109SOL    HW213227   4.026   6.587   3.920
 4110SOL     OW13228   5.090   3.451   6.104
 4110SOL    HW113229   5.054   3.376   6.159
 4110SOL    HW213230   5.157   3.502   6.157
 4111SOL     OW13231   4.253   2.542   6.897
 4111SOL    HW113232   4.153   2.547   6.895
 4111SOL    HW213233   4.289   2.555   6.805
 4112SOL     OW13234   3.851   1.731   4.204
 4112SOL    HW113235   3.846   1.640   4.164
 4112SOL    HW213236   3.855   1.800   4.131
 4113SOL     OW13237   3.348   5.170   5.187
 4113SOL    HW113238   3.440   5.130   5.179
 4113SOL    HW213239   3.355   5.270   5.180
 4114SOL     OW13240   3.239   1.739   4.157
 4114SOL    HW113241   3.215   1.705   4.248
 4114SOL    HW213242   3.325   1.790   4.163
 4115SOL     OW13243   4.704   5.622   2.070
 4115SOL    HW113244   4.766   5.629   1.992
 4115SOL    HW213245   4.744   5.563   2.139
 4116SOL     OW13246   3.733   2.000   1.830
 4116SOL    HW113247   3.825   1.969   1.805
 4116SOL    HW213248   3.740   2.069   1.903
 4117SOL     OW13249   0.974   5.065   1.072
 4117SOL    HW113250   0.899   5.104   1.126
 4117SOL    HW213251   1.061   5.101   1.106
 4118SOL     OW13252   1.329   6.825   0.730
 4118SOL    HW113253   1.286   6.736   0.745
 4118SOL    HW213254   1.424   6.811   0.701
 4119SOL     OW13255   3.519   0.578   4.090
 4119SOL    HW113256   3.456   0.555   4.015
 4119SOL    HW213257   3.612   0.587   4.054
 4120SOL     OW13258   3.860   6.931   1.588
 4120SOL    HW113259   3.856   0.009   1.565
 4120SOL    HW213260   3.916   6.883   1.522
 4121SOL     OW13261   6.980   2.863   4.649
 4121SOL    HW113262   6.963   2.775   4.693
 4121SOL    HW213263   6.933   2.935   4.700
 4122SOL     OW13264   0.479   6.551   5.172
 4122SOL    HW113265   0.449   6.456   5.162
 4122SOL    HW213266   0.575   6.553   5.199
 4123SOL     OW13267   5.757   4.195   5.958
 4123SOL    HW113268   5.675   4.219   6.011
 4123SOL    HW213269   5.731   4.129   5.887
 4124SOL     OW13270   5.294   6.648   3.828
 4124SOL    HW113271   5.207   6.606   3.800
 4124SOL    HW213272   5.287   6.679   3.923
 4125SOL     OW13273   4.568   0.845   1.719
 4125SOL    HW113274   4.469   0.859   1.709
 4125SOL    HW213275   4.585   0.790   1.801
 4126SOL     OW13276   1.974   4.259   4.432
 4126SOL    HW113277   1.914   4.299   4.363
 4126SOL    HW213278   2.039   4.328   4.464
 4127SOL     OW13279   5.514   3.014   4.853
 4127SOL    HW113280   5.498   2.922   4.817
 4127SOL    HW213281   5.591   3.012   4.917
 4128SOL     OW13282   1.600   3.562   2.468
 4128SOL    HW113283   1.531   3.620   2.425
 4128SOL    HW213284   1.558   3.476   2.497
 4129SOL     OW13285   5.919   2.307   5.859
 4129SOL    HW113286   5.918   2.403   5.832
 4129SOL    HW213287   5.839   2.260   5.821
 4130SOL     OW13288   6.792   4.388   6.358
 4130SOL    HW113289   6.740   4.330   6.421
 4130SOL    HW213290   6.729   4.449   6.310
 4131SOL     OW13291   0.054   5.154   3.895
 4131SOL    HW113292   0.047   5.101   3.980
 4131SOL    HW213293   6.980   5.177   3.863
 4132SOL     OW13294   4.998   3.360   3.249
 4132SOL    HW113295   4.941   3.441   3.241
 4132SOL    HW213296   5.084   3.384   3.296
 4133SOL     OW13297   2.752   0.954   1.376
 4133SOL    HW113298   2.667   0.909   1.348
 4133SOL    HW213299   2.803   0.893   1.436
 4134SOL     OW13300   2.369   1.469   0.347
 4134SOL    HW113301   2.412   1.455   0.437
 4134SOL    HW213302   2.274   1.439   0.351
 4135SOL     OW13303   1.740   0.803   2.741
 4135SOL    HW113304   1.747   0.780   2.838
 4135SOL    HW213305   1.688   0.732   2.693
 4136SOL     OW13306   0.140   2.354   3.924
 4136SOL    HW113307   0.136   2.432   3.986
 4136SOL    HW213308   0.088   2.374   3.841
 4137SOL     OW13309   3.573   3.998   6.288
 4137SOL    HW113310   3.498   4.033   6.345
 4137SOL    HW213311   3.590   4.061   6.212
 4138SOL     OW13312   4.358   4.802   4.276
 4138SOL    HW113313   4.302   4.793   4.193
 4138SOL    HW213314   4.440   4.745   4.267
 4139SOL     OW13315   1.832   1.825   6.299
 4139SOL    HW113316   1.736   1.809   6.274
 4139SOL    HW213317   1.883   1.854   6.219
 4140SOL     OW13318   3.753   1.013   5.352
 4140SOL    HW113319   3.734   1.106   5.383
 4140SOL    HW213320   3.850   1.003   5.331
 4141SOL     OW13321   5.350   5.007   0.931
 4141SOL    HW113322   5.385   4.914   0.938
 4141SOL    HW213323   5.402   5.058   0.863
 4142SOL     OW13324   6.877   4.287   1.248
 4142SOL    HW113325   6.792   4.336   1.266
 4142SOL    HW213326   6.954   4.339   1.286
 4143SOL     OW13327   6.572   2.889   0.950
 4143SOL    HW113328   6.507   2.813   0.952
 4143SOL    HW213329   6.587   2.921   1.044
 4144SOL     OW13330   5.392   1.386   1.838
 4144SOL    HW113331   5.471   1.347   1.789
 4144SOL    HW213332   5.322   1.411   1.771
 4145SOL     OW13333   1.511   7.014   1.486
 4145SOL    HW113334   1.417   6.981   1.496
 4145SOL    HW213335   1.518   0.087   1.526
 4146SOL     OW13336   5.211   0.120   6.471
 4146SOL    HW113337   5.176   0.198   6.419
 4146SOL    HW213338   5.293   0.084   6.427
 4147SOL     OW13339   3.358   2.283   6.053
 4147SOL    HW113340   3.378   2.369   6.101
 4147SOL    HW213341   3.437   2.258   5.996
 4148SOL     OW13342   6.770   0.248   3.785
 4148SOL    HW113343   6.691   0.306   3.769
 4148SOL    HW213344   6.782   0.185   3.708
 4149SOL     OW13345   6.440   3.425   1.024
 4149SOL    HW113346   6.446   3.496   0.955
 4149SOL    HW213347   6.531   3.410   1.065
 4150SOL     OW13348   5.342   0.543   6.373
 4150SOL    HW113349   5.387   0.594   6.447
 4150SOL    HW213350   5.406   0.534   6.296
 4151SOL     OW13351   0.109   6.167   0.873
 4151SOL    HW113352   0.136   6.253   0.831
 4151SOL    HW213353   0.061   6.110   0.805
 4152SOL     OW13354   4.274   4.616   2.049
 4152SOL    HW113355   4.287   4.695   1.989
 4152SOL    HW213356   4.261   4.534   1.994
 4153SOL     OW13357   6.186   5.170   6.319
 4153SOL    HW113358   6.105   5.185   6.376
 4153SOL    HW213359   6.160   5.122   6.236
 4154SOL     OW13360   6.072   3.188   4.923
 4154SOL    HW113361   6.019   3.115   4.966
 4154SOL    HW213362   6.144   3.219   4.985
 4155SOL     OW13363   0.969   3.417   2.285
 4155SOL    HW113364   0.913   3.342   2.319
 4155SOL    HW213365   0.955   3.498   2.343
 4156SOL     OW13366   5.490   6.649   5.466
 4156SOL    HW113367   5.586   6.656   5.438
 4156SOL    HW213368   5.465   6.553   5.477
 4157SOL     OW13369   4.006   0.967   3.645
 4157SOL    HW113370   4.087   0.912   3.665
 4157SOL    HW213371   4.030   1.064   3.649
 4158SOL     OW13372   0.521   5.003   3.257
 4158SOL    HW113373   0.509   5.102   3.252
 4158SOL    HW213374   0.457   4.958   3.195
 4159SOL     OW13375   1.055   3.024   4.416
 4159SOL    HW113376   0.998   2.956   4.370
 4159SOL    HW213377   1.142   2.983   4.442
 4160SOL     OW13378   6.037   0.409   0.735
 4160SOL    HW113379   5.967   0.337   0.738
 4160SOL    HW213380   5.995   0.494   0.702
 4161SOL     OW13381   1.389   1.277   6.786
 4161SOL    HW113382   1.310   1.262   6.846
 4161SOL    HW213383   1.458   1.332   6.834
 4162SOL     OW13384   5.921   6.682   4.686
 4162SOL    HW113385   6.003   6.740   4.682
 4162SOL    HW213386   5.942   6.593   4.646
 4163SOL     OW13387   5.542   1.534   3.563
 4163SOL    HW113388   5.558   1.470   3.638
 4163SOL    HW213389   5.630   1.560   3.522
 4164SOL     OW13390   1.839   1.138   6.898
 4164SOL    HW113391   1.906   1.164   6.967
 4164SOL    HW213392   1.789   1.057   6.929
 4165SOL     OW13393   3.783   6.483   0.888
 4165SOL    HW113394   3.807   6.391   0.919
 4165SOL    HW213395   3.835   6.505   0.806
 4166SOL     OW13396   4.238   3.107   0.666
 4166SOL    HW113397   4.238   3.195   0.618
 4166SOL    HW213398   4.321   3.056   0.642
 4167SOL     OW13399   2.336   2.348   1.837
 4167SOL    HW113400   2.403   2.422   1.840
 4167SOL    HW213401   2.366   2.278   1.773
 4168SOL     OW13402   0.456   5.391   1.255
 4168SOL    HW113403   0.485   5.295   1.262
 4168SOL    HW213404   0.417   5.421   1.341
 4169SOL     OW13405   4.884   3.781   3.502
 4169SOL    HW113406   4.971   3.822   3.476
 4169SOL    HW213407   4.887   3.754   3.598
 4170SOL     OW13408   3.876   2.646   5.727
 4170SOL    HW113409   3.958   2.697   5.700
 4170SOL    HW213410   3.860   2.658   5.825
 4171SOL     OW13411   5.182   3.930   1.139
 4171SOL    HW113412   5.209   3.941   1.235
 4171SOL    HW213413   5.224   4.001   1.084
 4172SOL     OW13414   0.477   1.947   1.109
 4172SOL    HW113415   0.386   1.931   1.148
 4172SOL    HW213416   0.546   1.904   1.167
 4173SOL     OW13417   5.250   2.772   4.744
 4173SOL    HW113418   5.347   2.750   4.736
 4173SOL    HW213419   5.226   2.783   4.840
 4174SOL     OW13420   4.595   0.764   3.368
 4174SOL    HW113421   4.633   0.739   3.458
 4174SOL    HW213422   4.646   0.841   3.331
 4175SOL     OW13423   3.375   6.884   3.428
 4175SOL    HW113424   3.296   6.830   3.461
 4175SOL    HW213425   3.436   6.902   3.505
 4176SOL     OW13426   4.618   0.154   2.728
 4176SOL    HW113427   4.638   0.102   2.811
 4176SOL    HW213428   4.639   0.251   2.743
 4177SOL     OW13429   0.225   6.294   3.700
 4177SOL    HW113430   0.163   6.372   3.698
 4177SOL    HW213431   0.291   6.306   3.774
 4178SOL     OW13432   3.454   1.818   6.078
 4178SOL    HW113433   3.388   1.744   6.089
 4178SOL    HW213434   3.526   1.788   6.015
 4179SOL     OW13435   5.214   3.546   5.324
 4179SOL    HW113436   5.177   3.571   5.413
 4179SOL    HW213437   5.141   3.545   5.256
 4180SOL     OW13438   5.026   4.446   1.251
 4180SOL    HW113439   4.973   4.415   1.330
 4180SOL    HW213440   5.124   4.435   1.271
 4181SOL     OW13441   0.843   1.786   6.560
 4181SOL    HW113442   0.786   1.759   6.638
 4181SOL    HW213443   0.787   1.837   6.494
 4182SOL     OW13444   6.397   0.332   2.549
 4182SOL    HW113445   6.307   0.375   2.536
 4182SOL    HW213446   6.465   0.380   2.493
 4183SOL     OW13447   2.222   1.437   1.976
 4183SOL    HW113448   2.270   1.403   1.895
 4183SOL    HW213449   2.189   1.359   2.030
 4184SOL     OW13450   3.743   5.716   0.410
 4184SOL    HW113451   3.773   5.798   0.460
 4184SOL    HW213452   3.813   5.690   0.344
 4185SOL     OW13453   0.280   0.102   3.558
 4185SOL    HW113454   0.296   0.195   3.526
 4185SOL    HW213455   0.296   0.038   3.482
 4186SOL     OW13456   2.293   3.659   0.944
 4186SOL    HW113457   2.272   3.592   1.016
 4186SOL    HW213458   2.381   3.635   0.901
 4187SOL     OW13459   3.631   3.562   6.376
 4187SOL    HW113460   3.582   3.644   6.347
 4187SOL    HW213461   3.606   3.485   6.318
 4188SOL     OW13462   4.679   0.571   3.975
 4188SOL    HW113463   4.684   0.488   4.031
 4188SOL    HW213464   4.584   0.602   3.970
 4189SOL     OW13465   2.447   1.776   4.683
 4189SOL    HW113466   2.415   1.835   4.757
 4189SOL    HW213467   2.434   1.822   4.595
 4190SOL     OW13468   3.223   1.308   0.029
 4190SOL    HW113469   3.147   1.254   0.067
 4190SOL    HW213470   3.299   1.248   0.006
 4191SOL     OW13471   6.575   2.686   2.806
 4191SOL    HW113472   6.483   2.700   2.844
 4191SOL    HW213473   6.608   2.595   2.832
 4192SOL     OW13474   5.790   1.104   3.318
 4192SOL    HW113475   5.831   1.195   3.323
 4192SOL    HW213476   5.730   1.098   3.238
 4193SOL     OW13477   2.148   6.906   2.511
 4193SOL    HW113478   2.142   6.920   2.610
 4193SOL    HW213479   2.110   6.986   2.464
 4194SOL     OW13480   6.853   1.617   4.183
 4194SOL    HW113481   6.953   1.619   4.176
 4194SOL    HW213482   6.827   1.558   4.260
 4195SOL     OW13483   5.703   0.617   1.521
 4195SOL    HW113484   5.757   0.694   1.552
 4195SOL    HW213485   5.710   0.609   1.421
 4196SOL     OW13486   5.109   2.550   4.020
 4196SOL    HW113487   5.133   2.480   3.953
 4196SOL    HW213488   5.036   2.516   4.079
 4197SOL     OW13489   4.678   4.262   4.764
 4197SOL    HW113490   4.706   4.179   4.716
 4197SOL    HW213491   4.701   4.253   4.861
 4198SOL     OW13492   5.975   3.859   0.083
 4198SOL    HW113493   6.048   3.911   0.039
 4198SOL    HW213494   6.001   3.763   0.089
 4199SOL     OW13495   3.169   3.460   4.768
 4199SOL    HW113496   3.071   3.455   4.790
 4199SOL    HW213497   3.180   3.475   4.670
 4200SOL     OW13498   1.974   0.338   6.965
 4200SOL    HW113499   1.957   0.241   6.947
 4200SOL    HW213500   2.071   0.358   6.951
 4201SOL     OW13501   5.596   0.061   3.841
 4201SOL    HW113502   5.526   0.039   3.773
 4201SOL    HW213503   5.661   7.005   3.848
 4202SOL     OW13504   5.472   4.964   5.297
 4202SOL    HW113505   5.491   4.866   5.303
 4202SOL    HW213506   5.422   4.993   5.379
 4203SOL     OW13507   5.321   5.454   3.117
 4203SOL    HW113508   5.403   5.456   3.059
 4203SOL    HW213509   5.273   5.368   3.104
 4204SOL     OW13510   3.242   2.935   1.279
 4204SOL    HW113511   3.294   2.900   1.357
 4204SOL    HW213512   3.171   2.997   1.312
 4205SOL     OW13513   3.198   5.236   4.131
 4205SOL    HW113514   3.136   5.307   4.098
 4205SOL    HW213515   3.287   5.247   4.089
 4206SOL     OW13516   4.812   0.380   4.845
 4206SOL    HW113517   4.864   0.387   4.760
 4206SOL    HW213518   4.816   0.285   4.877
 4207SOL     OW13519   1.238   0.775   1.850
 4207SOL    HW113520   1.270   0.728   1.767
 4207SOL    HW213521   1.141   0.799   1.839
 4208SOL     OW13522   1.170   2.937   0.428
 4208SOL    HW113523   1.262   2.968   0.454
 4208SOL    HW213524   1.110   3.017   0.417
 4209SOL     OW13525   2.538   6.955   5.186
 4209SOL    HW113526   2.580   7.007   5.110
 4209SOL    HW213527   2.537   6.858   5.163
 4210SOL     OW13528   4.204   3.092   0.957
 4210SOL    HW113529   4.145   3.018   0.990
 4210SOL    HW213530   4.239   3.069   0.867
 4211SOL     OW13531   4.526   4.740   3.922
 4211SOL    HW113532   4.542   4.665   3.857
 4211SOL    HW213533   4.459   4.710   3.990
 4212SOL     OW13534   6.335   1.457   2.917
 4212SOL    HW113535   6.338   1.358   2.899
 4212SOL    HW213536   6.406   1.503   2.864
 4213SOL     OW13537   1.806   1.068   2.137
 4213SOL    HW113538   1.773   1.058   2.231
 4213SOL    HW213539   1.782   1.159   2.103
 4214SOL     OW13540   0.905   3.262   5.059
 4214SOL    HW113541   0.991   3.215   5.044
 4214SOL    HW213542   0.886   3.323   4.982
 4215SOL     OW13543   0.594   5.157   4.881
 4215SOL    HW113544   0.628   5.238   4.929
 4215SOL    HW213545   0.640   5.148   4.793
 4216SOL     OW13546   1.030   2.816   4.941
 4216SOL    HW113547   1.054   2.726   4.979
 4216SOL    HW213548   0.992   2.873   5.014
 4217SOL     OW13549   0.044   0.968   3.202
 4217SOL    HW113550   0.010   0.880   3.168
 4217SOL    HW213551   0.139   0.981   3.174
 4218SOL     OW13552   4.075   0.050   1.983
 4218SOL    HW113553   4.085   6.983   1.932
 4218SOL    HW213554   4.005   0.106   1.939
 4219SOL     OW13555   4.503   5.717   4.161
 4219SOL    HW113556   4.517   5.778   4.239
 4219SOL    HW213557   4.589   5.706   4.111
 4220SOL     OW13558   6.236   3.220   4.254
 4220SOL    HW113559   6.213   3.217   4.351
 4220SOL    HW213560   6.153   3.211   4.199
 4221SOL     OW13561   5.447   5.681   6.601
 4221SOL    HW113562   5.390   5.700   6.521
 4221SOL    HW213563   5.543   5.701   6.579
 4222SOL     OW13564   4.900   2.795   1.569
 4222SOL    HW113565   4.892   2.806   1.668
 4222SOL    HW213566   4.822   2.742   1.536
 4223SOL     OW13567   3.324   4.067   2.185
 4223SOL    HW113568   3.225   4.052   2.177
 4223SOL    HW213569   3.361   4.093   2.096
 4224SOL     OW13570   4.405   2.407   4.818
 4224SOL    HW113571   4.476   2.478   4.827
 4224SOL    HW213572   4.336   2.420   4.890
 4225SOL     OW13573   6.049   6.724   5.155
 4225SOL    HW113574   6.143   6.747   5.130
 4225SOL    HW213575   5.986   6.786   5.107
 4226SOL     OW13576   0.085   1.561   4.065
 4226SOL    HW113577   0.169   1.559   4.120
 4226SOL    HW213578   0.107   1.581   3.970
 4227SOL     OW13579   4.572   4.612   0.349
 4227SOL    HW113580   4.542   4.677   0.279
 4227SOL    HW213581   4.671   4.601   0.344
 4228SOL     OW13582   6.294   5.166   3.306
 4228SOL    HW113583   6.236   5.179   3.226
 4228SOL    HW213584   6.258   5.220   3.382
 4229SOL     OW13585   4.688   4.955   5.441
 4229SOL    HW113586   4.717   5.019   5.512
 4229SOL    HW213587   4.679   5.003   5.354
 4230SOL     OW13588   3.708   0.742   4.746
 4230SOL    HW113589   3.700   0.840   4.766
 4230SOL    HW213590   3.660   0.722   4.660
 4231SOL     OW13591   4.467   7.018   5.316
 4231SOL    HW113592   4.511   6.974   5.394
 4231SOL    HW213593   4.533   0.010   5.242
 4232SOL     OW13594   2.331   4.929   2.801
 4232SOL    HW113595   2.308   4.841   2.760
 4232SOL    HW213596   2.317   4.924   2.900
 4233SOL     OW13597   6.804   6.432   0.123
 4233SOL    HW113598   6.764   6.519   0.151
 4233SOL    HW213599   6.733   6.362   0.117
 4234SOL     OW13600   2.965   4.732   6.241
 4234SOL    HW113601   3.062   4.726   6.216
 4234SOL    HW213602   2.957   4.749   6.339
 4235SOL     OW13603   6.227   3.409   5.703
 4235SOL    HW113604   6.161   3.461   5.756
 4235SOL    HW213605   6.232   3.447   5.610
 4236SOL     OW13606   1.431   2.992   4.344
 4236SOL    HW113607   1.521   2.967   4.379
 4236SOL    HW213608   1.381   3.045   4.413
 4237SOL     OW13609   5.140   3.381   4.898
 4237SOL    HW113610   5.108   3.390   4.993
 4237SOL    HW213611   5.169   3.287   4.881
 4238SOL     OW13612   4.108   5.735   4.019
 4238SOL    HW113613   4.076   5.782   4.101
 4238SOL    HW213614   4.145   5.801   3.955
 4239SOL     OW13615   4.971   5.938   5.744
 4239SOL    HW113616   5.013   5.859   5.789
 4239SOL    HW213617   4.996   6.022   5.793
 4240SOL     OW13618   2.595   4.615   6.690
 4240SOL    HW113619   2.517   4.564   6.725
 4240SOL    HW213620   2.652   4.555   6.634
 4241SOL     OW13621   4.179   0.554   0.491
 4241SOL    HW113622   4.137   0.644   0.485
 4241SOL    HW213623   4.194   0.530   0.587
 4242SOL     OW13624   2.016   0.591   3.063
 4242SOL    HW113625   2.047   0.505   3.103
 4242SOL    HW213626   2.093   0.654   3.054
 4243SOL     OW13627   1.149   3.200   2.292
 4243SOL    HW113628   1.123   3.293   2.320
 4243SOL    HW213629   1.247   3.197   2.272
 4244SOL     OW13630   4.632   6.915   1.101
 4244SOL    HW113631   4.685   6.873   1.175
 4244SOL    HW213632   4.621   6.848   1.028
 4245SOL     OW13633   6.896   3.168   1.050
 4245SOL    HW113634   6.902   3.268   1.046
 4245SOL    HW213635   6.848   3.135   0.969
 4246SOL     OW13636   5.320   1.959   3.001
 4246SOL    HW113637   5.267   1.978   3.083
 4246SOL    HW213638   5.401   1.904   3.025
 4247SOL     OW13639   1.659   5.136   5.412
 4247SOL    HW113640   1.733   5.167   5.352
 4247SOL    HW213641   1.681   5.159   5.506
 4248SOL     OW13642   1.932   0.904   3.261
 4248SOL    HW113643   1.878   0.977   3.304
 4248SOL    HW213644   1.948   0.831   3.327
 4249SOL     OW13645   6.598   0.059   5.268
 4249SOL    HW113646   6.544   0.007   5.334
 4249SOL    HW213647   6.577   0.157   5.277
 4250SOL     OW13648   0.123   5.585   4.283
 4250SOL    HW113649   0.197   5.643   4.250
 4250SOL    HW213650   0.152   5.539   4.367
 4251SOL     OW13651   5.821   1.621   5.529
 4251SOL    HW113652   5.770   1.558   5.588
 4251SOL    HW213653   5.919   1.599   5.534
 4252SOL     OW13654   6.603   0.056   6.911
 4252SOL    HW113655   6.675   0.046   6.979
 4252SOL    HW213656   6.642   0.078   6.822
 4253SOL     OW13657   4.324   5.596   2.618
 4253SOL    HW113658   4.358   5.678   2.664
 4253SOL    HW213659   4.227   5.583   2.638
 4254SOL     OW13660   1.800   3.074   6.819
 4254SOL    HW113661   1.701   3.087   6.808
 4254SOL    HW213662   1.824   3.082   6.916
 4255SOL     OW13663   0.983   3.861   2.542
 4255SOL    HW113664   1.031   3.808   2.612
 4255SOL    HW213665   0.887   3.832   2.538
 4256SOL     OW13666   0.602   5.393   1.606
 4256SOL    HW113667   0.564   5.319   1.551
 4256SOL    HW213668   0.702   5.394   1.597
 4257SOL     OW13669   5.807   0.575   4.966
 4257SOL    HW113670   5.805   0.668   5.001
 4257SOL    HW213671   5.714   0.537   4.965
 4258SOL     OW13672   3.909   5.742   6.978
 4258SOL    HW113673   3.813   5.717   6.984
 4258SOL    HW213674   3.917   5.835   6.943
 4259SOL     OW13675   1.069   0.073   2.321
 4259SOL    HW113676   1.166   0.094   2.316
 4259SOL    HW213677   1.030   0.115   2.403
 4260SOL     OW13678   5.206   0.764   4.370
 4260SOL    HW113679   5.116   0.807   4.362
 4260SOL    HW213680   5.230   0.721   4.284
 4261SOL     OW13681   2.076   0.121   3.814
 4261SOL    HW113682   2.115   0.186   3.750
 4261SOL    HW213683   2.110   0.029   3.794
 4262SOL     OW13684   1.500   4.080   6.884
 4262SOL    HW113685   1.555   4.041   6.811
 4262SOL    HW213686   1.482   4.011   6.954
 4263SOL     OW13687   2.602   2.509   3.881
 4263SOL    HW113688   2.643   2.593   3.847
 4263SOL    HW213689   2.502   2.515   3.874
 4264SOL     OW13690   5.386   1.104   4.760
 4264SOL    HW113691   5.349   1.196   4.752
 4264SOL    HW213692   5.452   1.088   4.687
 4265SOL     OW13693   3.850   0.919   0.405
 4265SOL    HW113694   3.774   0.952   0.461
 4265SOL    HW213695   3.814   0.885   0.318
 4266SOL     OW13696   1.576   6.518   0.915
 4266SOL    HW113697   1.657   6.521   0.857
 4266SOL    HW213698   1.580   6.592   0.981
 4267SOL     OW13699   1.428   4.324   4.928
 4267SOL    HW113700   1.445   4.314   4.830
 4267SOL    HW213701   1.515   4.317   4.978
 4268SOL     OW13702   1.255   4.200   6.454
 4268SOL    HW113703   1.325   4.229   6.519
 4268SOL    HW213704   1.224   4.278   6.401
 4269SOL     OW13705   2.845   1.477   4.585
 4269SOL    HW113706   2.858   1.509   4.491
 4269SOL    HW213707   2.751   1.496   4.614
 4270SOL     OW13708   3.978   2.596   0.393
 4270SOL    HW113709   3.948   2.501   0.394
 4270SOL    HW213710   4.026   2.615   0.307
 4271SOL     OW13711   6.946   0.812   1.005
 4271SOL    HW113712   6.988   0.762   0.929
 4271SOL    HW213713   7.011   0.818   1.081
 4272SOL     OW13714   6.830   1.244   6.277
 4272SOL    HW113715   6.803   1.280   6.366
 4272SOL    HW213716   6.777   1.289   6.205
 4273SOL     OW13717   3.732   5.405   4.643
 4273SOL    HW113718   3.759   5.336   4.575
 4273SOL    HW213719   3.774   5.383   4.731
 4274SOL     OW13720   0.051   1.288   1.931
 4274SOL    HW113721   0.014   1.257   2.018
 4274SOL    HW213722   7.009   1.259   1.857
 4275SOL     OW13723   0.237   2.965   3.760
 4275SOL    HW113724   0.252   3.010   3.848
 4275SOL    HW213725   0.237   2.866   3.773
 4276SOL     OW13726   2.093   5.696   4.333
 4276SOL    HW113727   2.073   5.762   4.260
 4276SOL    HW213728   2.135   5.615   4.294
 4277SOL     OW13729   6.215   5.344   3.499
 4277SOL    HW113730   6.254   5.338   3.591
 4277SOL    HW213731   6.267   5.410   3.445
 4278SOL     OW13732   1.182   6.686   1.859
 4278SOL    HW113733   1.086   6.710   1.847
 4278SOL    HW213734   1.236   6.768   1.878
 4279SOL     OW13735   1.865   1.810   3.314
 4279SOL    HW113736   1.809   1.844   3.390
 4279SOL    HW213737   1.948   1.865   3.307
 4280SOL     OW13738   0.819   6.679   6.166
 4280SOL    HW113739   0.800   6.718   6.256
 4280SOL    HW213740   0.758   6.721   6.098
 4281SOL     OW13741   4.165   5.788   3.413
 4281SOL    HW113742   4.178   5.705   3.360
 4281SOL    HW213743   4.133   5.764   3.505
 4282SOL     OW13744   3.565   4.007   1.202
 4282SOL    HW113745   3.587   3.916   1.237
 4282SOL    HW213746   3.587   4.075   1.273
 4283SOL     OW13747   4.814   1.505   3.762
 4283SOL    HW113748   4.836   1.451   3.843
 4283SOL    HW213749   4.898   1.521   3.709
 4284SOL     OW13750   4.714   5.701   5.786
 4284SOL    HW113751   4.733   5.795   5.756
 4284SOL    HW213752   4.787   5.670   5.847
 4285SOL     OW13753   2.993   0.402   5.502
 4285SOL    HW113754   2.932   0.370   5.429
 4285SOL    HW213755   3.032   0.323   5.550
 4286SOL     OW13756   5.507   0.709   6.539
 4286SOL    HW113757   5.496   0.698   6.638
 4286SOL    HW213758   5.553   0.796   6.521
 4287SOL     OW13759   4.710   0.629   0.034
 4287SOL    HW113760   4.650   0.563   0.077
 4287SOL    HW213761   4.774   0.582   6.993
 4288SOL     OW13762   6.698   6.603   2.493
 4288SOL    HW113763   6.655   6.543   2.560
 4288SOL    HW213764   6.632   6.670   2.460
 4289SOL     OW13765   0.637   3.423   4.547
 4289SOL    HW113766   0.541   3.396   4.534
 4289SOL    HW213767   0.641   3.508   4.600
 4290SOL     OW13768   0.224   1.067   3.611
 4290SOL    HW113769   0.260   1.090   3.701
 4290SOL    HW213770   0.219   0.967   3.601
 4291SOL     OW13771   5.214   3.187   6.318
 4291SOL    HW113772   5.302   3.153   6.352
 4291SOL    HW213773   5.172   3.119   6.258
 4292SOL     OW13774   5.903   2.174   0.850
 4292SOL    HW113775   5.952   2.229   0.917
 4292SOL    HW213776   5.836   2.231   0.801
 4293SOL     OW13777   3.403   4.273   0.036
 4293SOL    HW113778   3.401   4.272   6.954
 4293SOL    HW213779   3.477   4.332   0.067
 4294SOL     OW13780   2.495   1.997   6.490
 4294SOL    HW113781   2.435   1.982   6.568
 4294SOL    HW213782   2.450   2.054   6.422
 4295SOL     OW13783   3.744   6.082   3.051
 4295SOL    HW113784   3.786   6.059   2.964
 4295SOL    HW213785   3.670   6.148   3.037
 4296SOL     OW13786   2.750   6.126   2.031
 4296SOL    HW113787   2.785   6.162   1.944
 4296SOL    HW213788   2.776   6.188   2.105
 4297SOL     OW13789   5.973   4.747   0.777
 4297SOL    HW113790   6.043   4.789   0.834
 4297SOL    HW213791   5.958   4.803   0.695
 4298SOL     OW13792   3.327   6.574   0.063
 4298SOL    HW113793   3.387   6.569   0.143
 4298SOL    HW213794   3.372   6.529   7.004
 4299SOL     OW13795   1.230   2.822   0.016
 4299SOL    HW113796   1.253   2.919   0.009
 4299SOL    HW213797   1.253   2.776   6.949
 4300SOL     OW13798   3.039   1.278   0.836
 4300SOL    HW113799   3.008   1.316   0.923
 4300SOL    HW213800   3.139   1.271   0.837
 4301SOL     OW13801   2.840   6.591   1.561
 4301SOL    HW113802   2.822   6.689   1.561
 4301SOL    HW213803   2.936   6.575   1.539
 4302SOL     OW13804   2.028   5.483   6.099
 4302SOL    HW113805   1.931   5.497   6.121
 4302SOL    HW213806   2.070   5.572   6.079
 4303SOL     OW13807   6.211   4.273   3.463
 4303SOL    HW113808   6.177   4.364   3.440
 4303SOL    HW213809   6.223   4.265   3.562
 4304SOL     OW13810   3.541   3.785   1.518
 4304SOL    HW113811   3.517   3.880   1.495
 4304SOL    HW213812   3.480   3.752   1.590
 4305SOL     OW13813   1.688   0.544   5.272
 4305SOL    HW113814   1.622   0.470   5.257
 4305SOL    HW213815   1.739   0.526   5.357
 4306SOL     OW13816   5.389   3.221   4.993
 4306SOL    HW113817   5.418   3.145   4.934
 4306SOL    HW213818   5.308   3.194   5.045
 4307SOL     OW13819   6.926   1.497   5.350
 4307SOL    HW113820   6.907   1.468   5.443
 4307SOL    HW213821   7.017   1.466   5.323
 4308SOL     OW13822   4.991   5.360   7.006
 4308SOL    HW113823   4.896   5.388   6.992
 4308SOL    HW213824   5.051   5.439   6.993
 4309SOL     OW13825   1.404   2.997   0.617
 4309SOL    HW113826   1.366   2.913   0.656
 4309SOL    HW213827   1.471   2.974   0.546
 4310SOL     OW13828   0.010   1.718   2.989
 4310SOL    HW113829   7.011   1.816   2.992
 4310SOL    HW213830   0.053   1.689   3.074
 4311SOL     OW13831   0.921   0.563   2.601
 4311SOL    HW113832   0.851   0.504   2.642
 4311SOL    HW213833   1.003   0.562   2.659
 4312SOL     OW13834   0.635   4.840   2.672
 4312SOL    HW113835   0.609   4.750   2.637
 4312SOL    HW213836   0.734   4.853   2.662
 4313SOL     OW13837   5.990   1.913   0.227
 4313SOL    HW113838   5.927   1.941   0.300
 4313SOL    HW213839   6.080   1.952   0.244
 4314SOL     OW13840   6.554   2.138   5.362
 4314SOL    HW113841   6.639   2.160   5.410
 4314SOL    HW213842   6.476   2.173   5.414
 4315SOL     OW13843   2.787   1.585   4.332
 4315SOL    HW113844   2.837   1.665   4.298
 4315SOL    HW213845   2.756   1.529   4.255
 4316SOL     OW13846   5.353   0.056   1.523
 4316SOL    HW113847   5.281   0.005   1.571
 4316SOL    HW213848   5.312   0.126   1.466
 4317SOL     OW13849   4.438   0.871   5.913
 4317SOL    HW113850   4.448   0.854   5.815
 4317SOL    HW213851   4.366   0.812   5.950
 4318SOL     OW13852   0.476   1.164   4.307
 4318SOL    HW113853   0.537   1.100   4.260
 4318SOL    HW213854   0.382   1.131   4.301
 4319SOL     OW13855   1.336   4.574   2.469
 4319SOL    HW113856   1.305   4.562   2.563
 4319SOL    HW213857   1.277   4.640   2.422
 4320SOL     OW13858   3.419   6.186   0.646
 4320SOL    HW113859   3.398   6.244   0.725
 4320SOL    HW213860   3.335   6.142   0.615
 4321SOL     OW13861   6.485   6.769   2.314
 4321SOL    HW113862   6.439   6.700   2.370
 4321SOL    HW213863   6.472   6.859   2.356
 4322SOL     OW13864   0.855   3.033   5.436
 4322SOL    HW113865   0.811   2.944   5.448
 4322SOL    HW213866   0.946   3.030   5.477
 4323SOL     OW13867   3.990   5.165   6.576
 4323SOL    HW113868   4.069   5.108   6.553
 4323SOL    HW213869   3.949   5.201   6.493
 4324SOL     OW13870   6.632   4.221   5.834
 4324SOL    HW113871   6.616   4.122   5.830
 4324SOL    HW213872   6.634   4.258   5.741
 4325SOL     OW13873   2.527   0.575   2.371
 4325SOL    HW113874   2.603   0.513   2.388
 4325SOL    HW213875   2.555   0.644   2.304
 4326SOL     OW13876   4.572   2.491   2.768
 4326SOL    HW113877   4.512   2.494   2.849
 4326SOL    HW213878   4.529   2.434   2.698
 4327SOL     OW13879   3.170   5.578   4.116
 4327SOL    HW113880   3.257   5.574   4.166
 4327SOL    HW213881   3.187   5.609   4.022
 4328SOL     OW13882   5.735   6.322   4.810
 4328SOL    HW113883   5.663   6.263   4.847
 4328SOL    HW213884   5.711   6.418   4.825
 4329SOL     OW13885   6.716   2.047   5.789
 4329SOL    HW113886   6.703   2.145   5.803
 4329SOL    HW213887   6.638   2.010   5.738
 4330SOL     OW13888   2.927   4.845   5.090
 4330SOL    HW113889   2.985   4.814   5.165
 4330SOL    HW213890   2.889   4.765   5.043
 4331SOL     OW13891   6.149   0.776   2.226
 4331SOL    HW113892   6.134   0.860   2.173
 4331SOL    HW213893   6.091   0.703   2.190
 4332SOL     OW13894   0.229   5.043   2.763
 4332SOL    HW113895   0.136   5.062   2.732
 4332SOL    HW213896   0.291   5.115   2.730
 4333SOL     OW13897   3.505   2.115   5.586
 4333SOL    HW113898   3.474   2.085   5.676
 4333SOL    HW213899   3.431   2.104   5.520
 4334SOL     OW13900   0.390   2.471   4.157
 4334SOL    HW113901   0.344   2.418   4.228
 4334SOL    HW213902   0.334   2.470   4.074
 4335SOL     OW13903   2.595   3.676   1.444
 4335SOL    HW113904   2.512   3.645   1.398
 4335SOL    HW213905   2.671   3.678   1.379
 4336SOL     OW13906   2.884   4.974   5.557
 4336SOL    HW113907   2.913   4.992   5.464
 4336SOL    HW213908   2.959   4.994   5.620
 4337SOL     OW13909   1.513   5.422   3.751
 4337SOL    HW113910   1.604   5.405   3.788
 4337SOL    HW213911   1.508   5.514   3.713
 4338SOL     OW13912   4.219   0.712   5.982
 4338SOL    HW113913   4.278   0.635   6.007
 4338SOL    HW213914   4.195   0.706   5.885
 4339SOL     OW13915   3.982   3.217   5.993
 4339SOL    HW113916   3.917   3.199   5.919
 4339SOL    HW213917   3.935   3.267   6.066
 4340SOL     OW13918   0.083   3.467   0.870
 4340SOL    HW113919   0.117   3.545   0.922
 4340SOL    HW213920   7.015   3.490   0.827
 4341SOL     OW13921   6.877   6.870   2.633
 4341SOL    HW113922   6.946   6.807   2.668
 4341SOL    HW213923   6.808   6.820   2.581
 4342SOL     OW13924   5.607   3.962   2.639
 4342SOL    HW113925   5.552   4.019   2.578
 4342SOL    HW213926   5.579   3.866   2.630
 4343SOL     OW13927   4.331   0.452   5.971
 4343SOL    HW113928   4.429   0.463   5.956
 4343SOL    HW213929   4.288   0.416   5.888
 4344SOL     OW13930   0.601   3.384   3.762
 4344SOL    HW113931   0.558   3.381   3.672
 4344SOL    HW213932   0.679   3.321   3.764
 4345SOL     OW13933   2.882   3.412   2.208
 4345SOL    HW113934   2.907   3.377   2.118
 4345SOL    HW213935   2.782   3.414   2.217
 4346SOL     OW13936   1.154   3.433   2.082
 4346SOL    HW113937   1.192   3.341   2.070
 4346SOL    HW213938   1.082   3.430   2.151
 4347SOL     OW13939   5.936   5.044   1.192
 4347SOL    HW113940   5.963   5.050   1.288
 4347SOL    HW213941   5.837   5.036   1.186
 4348SOL     OW13942   5.337   5.871   4.342
 4348SOL    HW113943   5.265   5.848   4.277
 4348SOL    HW213944   5.339   5.970   4.356
 4349SOL     OW13945   0.078   3.382   4.820
 4349SOL    HW113946   0.071   3.319   4.898
 4349SOL    HW213947   0.078   3.330   4.735
 4350SOL     OW13948   4.363   1.220   4.642
 4350SOL    HW113949   4.444   1.161   4.636
 4350SOL    HW213950   4.384   1.301   4.697
 4351SOL     OW13951   1.090   6.517   0.478
 4351SOL    HW113952   1.175   6.549   0.519
 4351SOL    HW213953   1.012   6.557   0.527
 4352SOL     OW13954   3.345   3.850   0.969
 4352SOL    HW113955   3.438   3.844   1.003
 4352SOL    HW213956   3.321   3.947   0.957
 4353SOL     OW13957   3.182   3.007   0.755
 4353SOL    HW113958   3.207   2.988   0.850
 4353SOL    HW213959   3.090   2.972   0.737
 4354SOL     OW13960   5.414   6.954   3.694
 4354SOL    HW113961   5.452   6.866   3.665
 4354SOL    HW213962   5.394   6.951   3.792
 4355SOL     OW13963   1.097   6.276   3.356
 4355SOL    HW113964   1.186   6.250   3.319
 4355SOL    HW213965   1.067   6.208   3.423
 4356SOL     OW13966   5.743   2.538   5.714
 4356SOL    HW113967   5.764   2.497   5.625
 4356SOL    HW213968   5.673   2.483   5.760
 4357SOL     OW13969   6.319   0.946   2.487
 4357SOL    HW113970   6.348   0.854   2.512
 4357SOL    HW213971   6.334   0.961   2.389
 4358SOL     OW13972   1.450   6.660   6.601
 4358SOL    HW113973   1.485   6.700   6.686
 4358SOL    HW213974   1.527   6.638   6.540
 4359SOL     OW13975   2.070   1.718   0.305
 4359SOL    HW113976   2.106   1.775   0.379
 4359SOL    HW213977   1.971   1.708   0.316
 4360SOL     OW13978   1.334   3.368   3.577
 4360SOL    HW113979   1.269   3.345   3.504
 4360SOL    HW213980   1.410   3.420   3.539
 4361SOL     OW13981   6.870   1.357   0.869
 4361SOL    HW113982   6.851   1.290   0.798
 4361SOL    HW213983   6.832   1.445   0.843
 4362SOL     OW13984   1.358   5.810   3.762
 4362SOL    HW113985   1.261   5.825   3.742
 4362SOL    HW213986   1.401   5.898   3.785
 4363SOL     OW13987   4.784   1.507   1.863
 4363SOL    HW113988   4.760   1.431   1.923
 4363SOL    HW213989   4.754   1.593   1.904
 4364SOL     OW13990   3.939   3.862   2.672
 4364SOL    HW113991   4.010   3.849   2.602
 4364SOL    HW213992   3.869   3.792   2.661
 4365SOL     OW13993   3.058   1.928   1.676
 4365SOL    HW113994   3.102   1.912   1.588
 4365SOL    HW213995   3.041   2.026   1.688
 4366SOL     OW13996   4.017   6.312   4.980
 4366SOL    HW113997   3.938   6.369   5.001
 4366SOL    HW213998   3.995   6.252   4.903
 4367SOL     OW13999   2.185   5.505   3.705
 4367SOL    HW114000   2.272   5.543   3.671
 4367SOL    HW214001   2.116   5.577   3.705
 4368SOL     OW14002   4.936   4.422   2.848
 4368SOL    HW114003   4.965   4.385   2.936
 4368SOL    HW214004   4.841   4.395   2.830
 4369SOL     OW14005   4.227   4.776   3.406
 4369SOL    HW114006   4.257   4.701   3.465
 4369SOL    HW214007   4.183   4.737   3.325
 4370SOL     OW14008   3.937   4.310   1.522
 4370SOL    HW114009   3.858   4.249   1.512
 4370SOL    HW214010   4.020   4.262   1.497
 4371SOL     OW14011   3.309   1.309   1.328
 4371SOL    HW114012   3.322   1.220   1.372
 4371SOL    HW214013   3.382   1.371   1.356
 4372SOL     OW14014   2.157   3.045   4.603
 4372SOL    HW114015   2.171   3.143   4.613
 4372SOL    HW214016   2.060   3.024   4.608
 4373SOL     OW14017   4.343   1.329   5.696
 4373SOL    HW114018   4.312   1.384   5.618
 4373SOL    HW214019   4.393   1.388   5.760
 4374SOL     OW14020   1.990   1.266   1.680
 4374SOL    HW114021   1.915   1.332   1.674
 4374SOL    HW214022   2.067   1.297   1.624
 4375SOL     OW14023   4.363   0.928   3.407
 4375SOL    HW114024   4.405   1.018   3.418
 4375SOL    HW214025   4.434   0.858   3.405
 4376SOL     OW14026   0.301   6.774   1.309
 4376SOL    HW114027   0.340   6.755   1.399
 4376SOL    HW214028   0.311   6.871   1.288
 4377SOL     OW14029   5.685   6.921   6.415
 4377SOL    HW114030   5.669   7.010   6.459
 4377SOL    HW214031   5.613   6.857   6.442
 4378SOL     OW14032   2.167   5.424   2.855
 4378SOL    HW114033   2.237   5.406   2.786
 4378SOL    HW214034   2.123   5.512   2.836
 4379SOL     OW14035   1.117   0.492   1.972
 4379SOL    HW114036   1.092   0.515   1.877
 4379SOL    HW214037   1.155   0.400   1.975
 4380SOL     OW14038   1.479   5.792   5.423
 4380SOL    HW114039   1.426   5.723   5.374
 4380SOL    HW214040   1.487   5.875   5.367
 4381SOL     OW14041   3.396   6.168   4.928
 4381SOL    HW114042   3.431   6.261   4.922
 4381SOL    HW214043   3.435   6.112   4.855
 4382SOL     OW14044   4.923   3.747   3.813
 4382SOL    HW114045   4.887   3.838   3.831
 4382SOL    HW214046   4.921   3.693   3.897
 4383SOL     OW14047   0.835   3.148   5.970
 4383SOL    HW114048   0.847   3.233   6.022
 4383SOL    HW214049   0.794   3.078   6.029
 4384SOL     OW14050   3.501   5.904   0.670
 4384SOL    HW114051   3.559   5.874   0.746
 4384SOL    HW214052   3.510   6.003   0.658
 4385SOL     OW14053   0.741   2.151   2.320
 4385SOL    HW114054   0.712   2.152   2.224
 4385SOL    HW214055   0.812   2.220   2.334
 4386SOL     OW14056   0.941   3.267   6.725
 4386SOL    HW114057   0.999   3.195   6.686
 4386SOL    HW214058   0.860   3.225   6.767
 4387SOL     OW14059   0.062   3.358   1.869
 4387SOL    HW114060   0.150   3.369   1.915
 4387SOL    HW214061   0.056   3.421   1.791
 4388SOL     OW14062   3.528   0.924   5.852
 4388SOL    HW114063   3.505   0.954   5.759
 4388SOL    HW214064   3.612   0.970   5.882
 4389SOL     OW14065   5.257   2.626   3.054
 4389SOL    HW114066   5.163   2.608   3.024
 4389SOL    HW214067   5.298   2.695   2.993
 4390SOL     OW14068   4.829   2.860   2.241
 4390SOL    HW114069   4.887   2.813   2.175
 4390SOL    HW214070   4.763   2.917   2.192
 4391SOL     OW14071   1.498   5.437   0.647
 4391SOL    HW114072   1.566   5.439   0.721
 4391SOL    HW214073   1.533   5.381   0.572
 4392SOL     OW14074   4.937   3.168   4.234
 4392SOL    HW114075   4.994   3.175   4.316
 4392SOL    HW214076   4.965   3.236   4.167
 4393SOL     OW14077   4.844   6.295   2.963
 4393SOL    HW114078   4.875   6.202   2.980
 4393SOL    HW214079   4.803   6.332   3.047
 4394SOL     OW14080   5.257   0.100   2.697
 4394SOL    HW114081   5.251   0.111   2.796
 4394SOL    HW214082   5.167   0.113   2.656
 4395SOL     OW14083   5.782   1.814   2.027
 4395SOL    HW114084   5.708   1.869   1.989
 4395SOL    HW214085   5.763   1.717   2.011
 4396SOL     OW14086   1.112   0.543   4.531
 4396SOL    HW114087   1.176   0.500   4.467
 4396SOL    HW214088   1.141   0.637   4.548
 4397SOL     OW14089   6.306   0.258   5.488
 4397SOL    HW114090   6.403   0.264   5.509
 4397SOL    HW214091   6.291   0.275   5.391
 4398SOL     OW14092   0.256   4.131   4.650
 4398SOL    HW114093   0.256   4.051   4.710
 4398SOL    HW214094   0.237   4.102   4.556
 4399SOL     OW14095   2.091   1.360   1.084
 4399SOL    HW114096   2.090   1.394   0.990
 4399SOL    HW214097   2.048   1.270   1.088
 4400SOL     OW14098   3.216   6.294   4.625
 4400SOL    HW114099   3.159   6.230   4.574
 4400SOL    HW214100   3.312   6.270   4.613
 4401SOL     OW14101   5.365   6.165   4.431
 4401SOL    HW114102   5.427   6.224   4.482
 4401SOL    HW214103   5.288   6.139   4.489
 4402SOL     OW14104   0.538   6.607   2.788
 4402SOL    HW114105   0.489   6.524   2.813
 4402SOL    HW214106   0.637   6.589   2.786
 4403SOL     OW14107   0.669   0.523   3.613
 4403SOL    HW114108   0.723   0.570   3.683
 4403SOL    HW214109   0.729   0.498   3.537
 4404SOL     OW14110   0.934   4.058   3.568
 4404SOL    HW114111   0.965   4.045   3.662
 4404SOL    HW214112   1.000   4.017   3.505
 4405SOL     OW14113   3.334   4.219   5.489
 4405SOL    HW114114   3.347   4.123   5.511
 4405SOL    HW214115   3.255   4.255   5.539
 4406SOL     OW14116   5.837   4.273   1.476
 4406SOL    HW114117   5.767   4.208   1.504
 4406SOL    HW214118   5.926   4.227   1.474
 4407SOL     OW14119   6.028   0.191   6.929
 4407SOL    HW114120   6.076   0.218   6.846
 4407SOL    HW214121   5.936   0.159   6.905
 4408SOL     OW14122   4.523   6.708   6.260
 4408SOL    HW114123   4.517   6.771   6.183
 4408SOL    HW214124   4.601   6.647   6.248
 4409SOL     OW14125   3.596   0.836   1.515
 4409SOL    HW114126   3.647   0.781   1.581
 4409SOL    HW214127   3.590   0.930   1.548
 4410SOL     OW14128   2.268   5.205   1.866
 4410SOL    HW114129   2.313   5.245   1.946
 4410SOL    HW214130   2.186   5.257   1.845
 4411SOL     OW14131   4.095   3.612   2.896
 4411SOL    HW114132   4.074   3.688   2.957
 4411SOL    HW214133   4.115   3.530   2.949
 4412SOL     OW14134   3.933   1.381   6.586
 4412SOL    HW114135   3.841   1.373   6.625
 4412SOL    HW214136   3.999   1.400   6.658
 4413SOL     OW14137   4.344   6.413   4.351
 4413SOL    HW114138   4.400   6.413   4.433
 4413SOL    HW214139   4.260   6.465   4.367
 4414SOL     OW14140   3.989   4.836   1.908
 4414SOL    HW114141   3.933   4.849   1.989
 4414SOL    HW214142   3.931   4.804   1.833
 4415SOL     OW14143   5.287   2.429   6.742
 4415SOL    HW114144   5.326   2.517   6.715
 4415SOL    HW214145   5.208   2.444   6.802
 4416SOL     OW14146   3.302   0.241   4.070
 4416SOL    HW114147   3.389   0.253   4.118
 4416SOL    HW214148   3.235   0.304   4.108
 4417SOL     OW14149   0.018   6.340   2.601
 4417SOL    HW114150   0.087   6.275   2.635
 4417SOL    HW214151   6.953   6.330   2.654
 4418SOL     OW14152   3.545   0.096   3.624
 4418SOL    HW114153   3.620   0.066   3.566
 4418SOL    HW214154   3.480   0.021   3.638
 4419SOL     OW14155   0.488   5.280   6.656
 4419SOL    HW114156   0.567   5.231   6.694
 4419SOL    HW214157   0.506   5.378   6.655
 4420SOL     OW14158   5.125   1.679   6.315
 4420SOL    HW114159   5.172   1.595   6.286
 4420SOL    HW214160   5.069   1.660   6.395
 4421SOL     OW14161   1.265   1.393   3.419
 4421SOL    HW114162   1.183   1.446   3.399
 4421SOL    HW214163   1.342   1.456   3.432
 4422SOL     OW14164   1.872   4.097   6.045
 4422SOL    HW114165   1.924   4.019   6.080
 4422SOL    HW214166   1.828   4.072   5.959
 4423SOL     OW14167   1.536   1.829   6.247
 4423SOL    HW114168   1.473   1.751   6.256
 4423SOL    HW214169   1.498   1.908   6.295
 4424SOL     OW14170   6.700   0.354   3.019
 4424SOL    HW114171   6.650   0.331   2.935
 4424SOL    HW214172   6.728   0.450   3.016
 4425SOL     OW14173   4.489   4.585   6.384
 4425SOL    HW114174   4.413   4.620   6.330
 4425SOL    HW214175   4.460   4.503   6.434
 4426SOL     OW14176   0.527   0.467   5.623
 4426SOL    HW114177   0.561   0.373   5.625
 4426SOL    HW214178   0.427   0.467   5.630
 4427SOL     OW14179   1.156   0.258   3.415
 4427SOL    HW114180   1.065   0.272   3.454
 4427SOL    HW214181   1.168   0.162   3.391
 4428SOL     OW14182   2.531   5.339   3.908
 4428SOL    HW114183   2.591   5.265   3.937
 4428SOL    HW214184   2.559   5.373   3.819
 4429SOL     OW14185   3.670   6.673   3.411
 4429SOL    HW114186   3.742   6.640   3.350
 4429SOL    HW214187   3.637   6.761   3.379
 4430SOL     OW14188   2.280   0.662   2.192
 4430SOL    HW114189   2.256   0.750   2.233
 4430SOL    HW214190   2.353   0.619   2.246
 4431SOL     OW14191   2.453   1.955   3.169
 4431SOL    HW114192   2.537   1.984   3.123
 4431SOL    HW214193   2.456   1.985   3.265
 4432SOL     OW14194   3.015   3.755   3.055
 4432SOL    HW114195   3.046   3.662   3.035
 4432SOL    HW214196   3.023   3.772   3.154
 4433SOL     OW14197   6.244   0.189   2.248
 4433SOL    HW114198   6.315   0.256   2.268
 4433SOL    HW214199   6.173   0.193   2.318
 4434SOL     OW14200   6.219   2.593   4.293
 4434SOL    HW114201   6.167   2.678   4.285
 4434SOL    HW214202   6.285   2.587   4.218
 4435SOL     OW14203   3.440   3.061   1.684
 4435SOL    HW114204   3.446   3.160   1.671
 4435SOL    HW214205   3.500   3.034   1.759
 4436SOL     OW14206   4.991   1.860   6.793
 4436SOL    HW114207   4.899   1.828   6.768
 4436SOL    HW214208   5.051   1.781   6.807
 4437SOL     OW14209   3.453   0.937   4.522
 4437SOL    HW114210   3.442   0.891   4.434
 4437SOL    HW214211   3.510   1.018   4.510
 4438SOL     OW14212   4.352   3.102   0.045
 4438SOL    HW114213   4.282   3.160   0.003
 4438SOL    HW214214   4.344   3.107   0.144
 4439SOL     OW14215   2.169   6.105   2.214
 4439SOL    HW114216   2.173   6.200   2.183
 4439SOL    HW214217   2.149   6.103   2.312
 4440SOL     OW14218   1.082   7.007   6.714
 4440SOL    HW114219   1.104   7.009   6.812
 4440SOL    HW214220   1.024   0.066   6.691
 4441SOL     OW14221   5.804   2.812   3.080
 4441SOL    HW114222   5.732   2.747   3.105
 4441SOL    HW214223   5.777   2.859   2.996
 4442SOL     OW14224   3.347   6.129   3.481
 4442SOL    HW114225   3.438   6.101   3.451
 4442SOL    HW214226   3.278   6.071   3.437
 4443SOL     OW14227   2.371   1.583   5.674
 4443SOL    HW114228   2.361   1.495   5.627
 4443SOL    HW214229   2.447   1.577   5.739
 4444SOL     OW14230   5.700   0.646   0.929
 4444SOL    HW114231   5.662   0.736   0.907
 4444SOL    HW214232   5.626   0.583   0.952
 4445SOL     OW14233   1.081   0.754   6.327
 4445SOL    HW114234   1.053   0.716   6.239
 4445SOL    HW214235   1.072   0.854   6.324
 4446SOL     OW14236   6.578   0.345   2.750
 4446SOL    HW114237   6.664   0.361   2.701
 4446SOL    HW214238   6.503   0.338   2.684
 4447SOL     OW14239   5.801   2.355   5.517
 4447SOL    HW114240   5.748   2.286   5.567
 4447SOL    HW214241   5.798   2.335   5.419
 4448SOL     OW14242   2.427   3.865   6.881
 4448SOL    HW114243   2.458   3.951   6.922
 4448SOL    HW214244   2.475   3.789   6.925
 4449SOL     OW14245   1.401   1.596   5.201
 4449SOL    HW114246   1.401   1.593   5.301
 4449SOL    HW214247   1.319   1.644   5.169
 4450SOL     OW14248   3.947   3.537   3.390
 4450SOL    HW114249   4.008   3.585   3.327
 4450SOL    HW214250   3.986   3.539   3.482
 4451SOL     OW14251   6.645   4.657   2.195
 4451SOL    HW114252   6.608   4.591   2.129
 4451SOL    HW214253   6.711   4.612   2.255
 4452SOL     OW14254   6.317   6.266   6.398
 4452SOL    HW114255   6.290   6.260   6.302
 4452SOL    HW214256   6.363   6.353   6.415
 4453SOL     OW14257   5.303   2.436   1.088
 4453SOL    HW114258   5.384   2.406   1.139
 4453SOL    HW214259   5.308   2.401   0.995
 4454SOL     OW14260   5.462   3.069   1.543
 4454SOL    HW114261   5.538   3.100   1.486
 4454SOL    HW214262   5.378   3.072   1.490
 4455SOL     OW14263   3.898   1.538   2.486
 4455SOL    HW114264   3.895   1.593   2.403
 4455SOL    HW214265   3.919   1.443   2.463
 4456SOL     OW14266   1.441   5.078   3.442
 4456SOL    HW114267   1.438   5.099   3.344
 4456SOL    HW214268   1.531   5.102   3.478
 4457SOL     OW14269   5.348   2.284   5.934
 4457SOL    HW114270   5.279   2.355   5.917
 4457SOL    HW214271   5.305   2.194   5.930
 4458SOL     OW14272   3.757   2.361   6.237
 4458SOL    HW114273   3.701   2.442   6.256
 4458SOL    HW214274   3.842   2.390   6.193
 4459SOL     OW14275   4.823   6.553   4.563
 4459SOL    HW114276   4.911   6.573   4.519
 4459SOL    HW214277   4.814   6.455   4.577
 4460SOL     OW14278   2.951   1.895   6.441
 4460SOL    HW114279   2.864   1.888   6.392
 4460SOL    HW214280   2.933   1.909   6.539
 4461SOL     OW14281   2.071   0.158   2.382
 4461SOL    HW114282   2.008   0.212   2.325
 4461SOL    HW214283   2.158   0.207   2.391
 4462SOL     OW14284   6.952   5.197   1.332
 4462SOL    HW114285   0.020   5.247   1.336
 4462SOL    HW214286   6.887   5.248   1.275
 4463SOL     OW14287   1.317   3.637   6.079
 4463SOL    HW114288   1.318   3.661   5.982
 4463SOL    HW214289   1.404   3.596   6.104
 4464SOL     OW14290   5.526   3.632   6.593
 4464SOL    HW114291   5.444   3.579   6.571
 4464SOL    HW214292   5.531   3.712   6.533
 4465SOL     OW14293   1.375   6.251   2.069
 4465SOL    HW114294   1.438   6.257   2.146
 4465SOL    HW214295   1.291   6.204   2.098
 4466SOL     OW14296   0.829   1.735   3.021
 4466SOL    HW114297   0.884   1.787   3.086
 4466SOL    HW214298   0.739   1.717   3.059
 4467SOL     OW14299   1.137   6.760   3.693
 4467SOL    HW114300   1.080   6.840   3.709
 4467SOL    HW214301   1.233   6.785   3.704
 4468SOL     OW14302   1.265   2.740   0.270
 4468SOL    HW114303   1.234   2.810   0.334
 4468SOL    HW214304   1.271   2.780   0.178
 4469SOL     OW14305   4.062   0.141   0.572
 4469SOL    HW114306   4.065   0.085   0.654
 4469SOL    HW214307   4.043   0.236   0.596
 4470SOL     OW14308   5.053   3.729   1.005
 4470SOL    HW114309   4.956   3.750   0.996
 4470SOL    HW214310   5.098   3.801   1.057
 4471SOL     OW14311   6.629   3.083   1.159
 4471SOL    HW114312   6.626   3.146   1.236
 4471SOL    HW214313   6.720   3.085   1.118
 4472SOL     OW14314   1.881   4.165   2.253
 4472SOL    HW114315   1.818   4.148   2.178
 4472SOL    HW214316   1.837   4.221   2.323
 4473SOL     OW14317   6.650   6.834   4.320
 4473SOL    HW114318   6.649   6.778   4.237
 4473SOL    HW214319   6.677   6.927   4.296
 4474SOL     OW14320   4.614   0.432   2.819
 4474SOL    HW114321   4.668   0.501   2.771
 4474SOL    HW214322   4.521   0.465   2.833
 4475SOL     OW14323   1.911   3.960   0.253
 4475SOL    HW114324   1.974   3.982   0.327
 4475SOL    HW214325   1.948   3.884   0.199
 4476SOL     OW14326   5.060   6.396   2.205
 4476SOL    HW114327   4.998   6.363   2.277
 4476SOL    HW214328   5.027   6.364   2.116
 4477SOL     OW14329   1.337   1.397   0.627
 4477SOL    HW114330   1.364   1.490   0.604
 4477SOL    HW214331   1.242   1.396   0.657
 4478SOL     OW14332   2.192   6.669   2.381
 4478SOL    HW114333   2.233   6.684   2.291
 4478SOL    HW214334   2.173   6.757   2.425
 4479SOL     OW14335   1.285   0.002   5.472
 4479SOL    HW114336   1.245   6.979   5.554
 4479SOL    HW214337   1.216   0.009   5.401
 4480SOL     OW14338   0.814   4.737   4.333
 4480SOL    HW114339   0.741   4.806   4.332
 4480SOL    HW214340   0.781   4.654   4.287
 4481SOL     OW14341   1.303   6.464   4.399
 4481SOL    HW114342   1.290   6.527   4.475
 4481SOL    HW214343   1.307   6.370   4.433
 4482SOL     OW14344   0.379   4.709   3.958
 4482SOL    HW114345   0.373   4.628   3.900
 4482SOL    HW214346   0.321   4.697   4.039
 4483SOL     OW14347   5.369   3.107   2.081
 4483SOL    HW114348   5.273   3.124   2.057
 4483SOL    HW214349   5.424   3.105   1.997
 4484SOL     OW14350   4.083   2.750   5.611
 4484SOL    HW114351   4.160   2.687   5.612
 4484SOL    HW214352   4.063   2.777   5.517
 4485SOL     OW14353   5.390   1.709   6.453
 4485SOL    HW114354   5.449   1.759   6.389
 4485SOL    HW214355   5.300   1.698   6.413
 4486SOL     OW14356   6.381   2.976   4.591
 4486SOL    HW114357   6.312   3.049   4.585
 4486SOL    HW214358   6.459   3.009   4.645
 4487SOL     OW14359   3.082   3.520   6.194
 4487SOL    HW114360   3.020   3.475   6.259
 4487SOL    HW214361   3.028   3.564   6.122
 4488SOL     OW14362   6.569   1.646   4.563
 4488SOL    HW114363   6.500   1.693   4.508
 4488SOL    HW214364   6.657   1.650   4.516
 4489SOL     OW14365   5.756   6.766   4.228
 4489SOL    HW114366   5.784   6.858   4.200
 4489SOL    HW214367   5.817   6.733   4.301
 4490SOL     OW14368   6.621   2.107   2.728
 4490SOL    HW114369   6.632   2.027   2.786
 4490SOL    HW214370   6.688   2.105   2.654
 4491SOL     OW14371   0.817   3.559   2.505
 4491SOL    HW114372   0.790   3.652   2.531
 4491SOL    HW214373   0.756   3.525   2.434
 4492SOL     OW14374   4.887   3.058   0.225
 4492SOL    HW114375   4.844   3.013   0.146
 4492SOL    HW214376   4.864   3.155   0.224
 4493SOL     OW14377   5.836   5.639   4.367
 4493SOL    HW114378   5.858   5.541   4.370
 4493SOL    HW214379   5.740   5.651   4.345
 4494SOL     OW14380   6.407   4.152   5.182
 4494SOL    HW114381   6.374   4.243   5.157
 4494SOL    HW214382   6.330   4.088   5.184
 4495SOL     OW14383   4.548   5.954   1.845
 4495SOL    HW114384   4.638   5.919   1.819
 4495SOL    HW214385   4.525   6.032   1.787
 4496SOL     OW14386   4.696   3.601   5.571
 4496SOL    HW114387   4.748   3.541   5.510
 4496SOL    HW214388   4.599   3.576   5.566
 4497SOL     OW14389   6.116   5.063   0.417
 4497SOL    HW114390   6.119   5.018   0.328
 4497SOL    HW214391   6.199   5.042   0.468
 4498SOL     OW14392   6.942   3.236   0.092
 4498SOL    HW114393   6.962   3.307   0.024
 4498SOL    HW214394   0.007   3.212   0.140
 4499SOL     OW14395   0.018   2.782   5.982
 4499SOL    HW114396   0.027   2.861   6.042
 4499SOL    HW214397   0.025   2.810   5.887
 4500SOL     OW14398   3.077   3.603   4.487
 4500SOL    HW114399   3.016   3.638   4.557
 4500SOL    HW214400   3.085   3.503   4.496
 4501SOL     OW14401   6.808   4.523   5.637
 4501SOL    HW114402   6.727   4.566   5.677
 4501SOL    HW214403   6.881   4.518   5.706
 4502SOL     OW14404   0.694   2.647   7.011
 4502SOL    HW114405   0.679   2.668   6.914
 4502SOL    HW214406   0.630   2.698   0.048
 4503SOL     OW14407   0.993   1.512   3.698
 4503SOL    HW114408   0.917   1.561   3.741
 4503SOL    HW214409   0.958   1.459   3.620
 4504SOL     OW14410   5.350   2.254   4.335
 4504SOL    HW114411   5.444   2.262   4.366
 4504SOL    HW214412   5.348   2.240   4.236
 4505SOL     OW14413   1.608   6.422   5.505
 4505SOL    HW114414   1.552   6.502   5.484
 4505SOL    HW214415   1.685   6.449   5.562
 4506SOL     OW14416   3.841   0.362   5.177
 4506SOL    HW114417   3.775   0.436   5.169
 4506SOL    HW214418   3.793   0.275   5.186
 4507SOL     OW14419   5.777   4.500   0.612
 4507SOL    HW114420   5.684   4.533   0.599
 4507SOL    HW214421   5.777   4.429   0.684
 4508SOL     OW14422   1.279   3.716   6.942
 4508SOL    HW114423   1.375   3.689   6.942
 4508SOL    HW214424   1.264   3.783   7.014
 4509SOL     OW14425   3.024   1.739   4.481
 4509SOL    HW114426   2.956   1.769   4.414
 4509SOL    HW214427   3.100   1.803   4.483
 4510SOL     OW14428   4.781   6.648   5.206
 4510SOL    HW114429   4.809   6.583   5.277
 4510SOL    HW214430   4.684   6.634   5.184
 4511SOL     OW14431   6.429   2.644   0.937
 4511SOL    HW114432   6.436   2.548   0.908
 4511SOL    HW214433   6.344   2.657   0.987
 4512SOL     OW14434   2.820   5.814   0.070
 4512SOL    HW114435   2.825   5.882   7.015
 4512SOL    HW214436   2.868   5.850   0.151
 4513SOL     OW14437   4.962   0.548   1.909
 4513SOL    HW114438   4.939   0.645   1.911
 4513SOL    HW214439   5.046   0.532   1.959
 4514SOL     OW14440   2.441   1.226   5.308
 4514SOL    HW114441   2.347   1.194   5.293
 4514SOL    HW214442   2.481   1.255   5.221
 4515SOL     OW14443   0.373   5.020   0.903
 4515SOL    HW114444   0.429   5.073   0.967
 4515SOL    HW214445   0.368   4.925   0.934
 4516SOL     OW14446   0.870   1.119   4.978
 4516SOL    HW114447   0.802   1.087   5.044
 4516SOL    HW214448   0.877   1.053   4.903
 4517SOL     OW14449   3.700   6.779   5.832
 4517SOL    HW114450   3.783   6.805   5.782
 4517SOL    HW214451   3.704   6.682   5.854
 4518SOL     OW14452   0.896   2.336   3.746
 4518SOL    HW114453   0.953   2.322   3.828
 4518SOL    HW214454   0.800   2.321   3.769
 4519SOL     OW14455   0.128   3.200   3.934
 4519SOL    HW114456   0.201   3.249   3.886
 4519SOL    HW214457   0.040   3.219   3.891
 4520SOL     OW14458   0.155   4.418   3.274
 4520SOL    HW114459   0.243   4.455   3.303
 4520SOL    HW214460   0.162   4.385   3.180
 4521SOL     OW14461   5.307   2.702   6.719
 4521SOL    HW114462   5.214   2.688   6.682
 4521SOL    HW214463   5.308   2.783   6.777
 4522SOL     OW14464   6.099   6.992   4.246
 4522SOL    HW114465   6.190   7.017   4.280
 4522SOL    HW214466   6.030   0.006   4.310
 4523SOL     OW14467   3.157   4.182   6.426
 4523SOL    HW114468   3.117   4.273   6.439
 4523SOL    HW214469   3.103   4.132   6.358
 4524SOL     OW14470   5.098   0.431   4.758
 4524SOL    HW114471   5.137   0.444   4.667
 4524SOL    HW214472   5.094   0.519   4.805
 4525SOL     OW14473   6.236   1.584   4.895
 4525SOL    HW114474   6.311   1.524   4.923
 4525SOL    HW214475   6.269   1.678   4.887
 4526SOL     OW14476   4.774   6.774   0.679
 4526SOL    HW114477   4.742   6.822   0.597
 4526SOL    HW214478   4.862   6.730   0.659
 4527SOL     OW14479   5.061   0.661   2.271
 4527SOL    HW114480   5.118   0.722   2.325
 4527SOL    HW214481   5.118   0.589   2.231
 4528SOL     OW14482   5.823   0.227   0.740
 4528SOL    HW114483   5.737   0.186   0.772
 4528SOL    HW214484   5.838   0.201   0.644
 4529SOL     OW14485   3.340   0.100   3.153
 4529SOL    HW114486   3.294   0.020   3.190
 4529SOL    HW214487   3.300   0.183   3.192
 4530SOL     OW14488   0.506   3.083   5.926
 4530SOL    HW114489   0.468   2.991   5.911
 4530SOL    HW214490   0.596   3.089   5.883
 4531SOL     OW14491   0.367   3.300   4.323
 4531SOL    HW114492   0.439   3.251   4.275
 4531SOL    HW214493   0.286   3.241   4.331
 4532SOL     OW14494   6.430   1.284   0.943
 4532SOL    HW114495   6.480   1.232   0.874
 4532SOL    HW214496   6.345   1.236   0.966
 4533SOL     OW14497   2.244   5.531   3.102
 4533SOL    HW114498   2.247   5.628   3.078
 4533SOL    HW214499   2.227   5.477   3.020
 4534SOL     OW14500   5.978   3.664   5.203
 4534SOL    HW114501   5.972   3.738   5.269
 4534SOL    HW214502   5.994   3.577   5.251
 4535SOL     OW14503   4.936   3.185   2.181
 4535SOL    HW114504   4.902   3.185   2.275
 4535SOL    HW214505   4.869   3.141   2.121
 4536SOL     OW14506   5.866   0.890   4.561
 4536SOL    HW114507   5.943   0.953   4.573
 4536SOL    HW214508   5.865   0.858   4.466
 4537SOL     OW14509   3.818   2.859   6.815
 4537SOL    HW114510   3.757   2.841   6.892
 4537SOL    HW214511   3.874   2.940   6.835
 4538SOL     OW14512   3.224   1.322   2.837
 4538SOL    HW114513   3.166   1.245   2.810
 4538SOL    HW214514   3.219   1.394   2.768
 4539SOL     OW14515   2.162   1.968   2.706
 4539SOL    HW114516   2.221   2.045   2.681
 4539SOL    HW214517   2.212   1.882   2.693
 4540SOL     OW14518   3.766   3.597   4.641
 4540SOL    HW114519   3.672   3.581   4.611
 4540SOL    HW214520   3.823   3.518   4.618
 4541SOL     OW14521   4.859   2.078   1.400
 4541SOL    HW114522   4.855   2.163   1.347
 4541SOL    HW214523   4.773   2.066   1.450
 4542SOL     OW14524   6.062   6.761   2.548
 4542SOL    HW114525   6.061   6.679   2.489
 4542SOL    HW214526   6.066   6.843   2.490
 4543SOL     OW14527   5.828   1.528   0.999
 4543SOL    HW114528   5.813   1.627   0.992
 4543SOL    HW214529   5.861   1.493   0.912
 4544SOL     OW14530   3.393   5.435   6.605
 4544SOL    HW114531   3.390   5.437   6.705
 4544SOL    HW214532   3.307   5.396   6.570
 4545SOL     OW14533   3.984   2.400   5.615
 4545SOL    HW114534   4.005   2.412   5.518
 4545SOL    HW214535   3.925   2.475   5.646
 4546SOL     OW14536   1.048   6.353   6.501
 4546SOL    HW114537   1.127   6.396   6.459
 4546SOL    HW214538   1.059   6.254   6.499
 4547SOL     OW14539   5.154   2.544   1.683
 4547SOL    HW114540   5.193   2.570   1.771
 4547SOL    HW214541   5.207   2.468   1.645
 4548SOL     OW14542   0.673   3.952   3.675
 4548SOL    HW114543   0.763   3.994   3.661
 4548SOL    HW214544   0.676   3.858   3.643
 4549SOL     OW14545   6.814   3.133   2.962
 4549SOL    HW114546   6.905   3.122   3.002
 4549SOL    HW214547   6.780   3.044   2.933
 4550SOL     OW14548   0.939   5.647   3.721
 4550SOL    HW114549   0.980   5.557   3.708
 4550SOL    HW214550   0.912   5.684   3.631
 4551SOL     OW14551   1.026   2.489   5.610
 4551SOL    HW114552   1.041   2.583   5.577
 4551SOL    HW214553   0.930   2.464   5.596
 4552SOL     OW14554   0.297   3.603   4.701
 4552SOL    HW114555   0.275   3.505   4.703
 4552SOL    HW214556   0.329   3.628   4.610
 4553SOL     OW14557   4.299   5.052   0.390
 4553SOL    HW114558   4.272   5.010   0.303
 4553SOL    HW214559   4.372   4.998   0.431
 4554SOL     OW14560   4.892   6.702   2.879
 4554SOL    HW114561   4.832   6.691   2.958
 4554SOL    HW214562   4.951   6.781   2.892
 4555SOL     OW14563   5.050   2.491   6.378
 4555SOL    HW114564   5.068   2.590   6.384
 4555SOL    HW214565   4.957   2.477   6.344
 4556SOL     OW14566   4.145   0.695   3.429
 4556SOL    HW114567   4.123   0.741   3.343
 4556SOL    HW214568   4.166   0.764   3.499
 4557SOL     OW14569   5.311   6.986   6.075
 4557SOL    HW114570   5.353   0.031   6.139
 4557SOL    HW214571   5.305   6.895   6.117
 4558SOL     OW14572   6.731   3.349   6.894
 4558SOL    HW114573   6.816   3.358   6.841
 4558SOL    HW214574   6.706   3.253   6.901
 4559SOL     OW14575   1.780   6.649   1.469
 4559SOL    HW114576   1.724   6.584   1.519
 4559SOL    HW214577   1.721   6.709   1.415
 4560SOL     OW14578   5.178   3.153   2.905
 4560SOL    HW114579   5.113   3.182   2.835
 4560SOL    HW214580   5.131   3.145   2.993
 4561SOL     OW14581   3.462   0.345   6.739
 4561SOL    HW114582   3.505   0.381   6.655
 4561SOL    HW214583   3.475   0.246   6.742
 4562SOL     OW14584   2.969   4.907   6.847
 4562SOL    HW114585   2.929   4.976   6.786
 4562SOL    HW214586   2.927   4.818   6.829
 4563SOL     OW14587   5.747   1.845   6.484
 4563SOL    HW114588   5.667   1.896   6.454
 4563SOL    HW214589   5.830   1.897   6.462
 4564SOL     OW14590   1.717   6.300   0.592
 4564SOL    HW114591   1.798   6.322   0.537
 4564SOL    HW214592   1.709   6.200   0.601
 4565SOL     OW14593   0.867   0.857   5.240
 4565SOL    HW114594   0.786   0.852   5.181
 4565SOL    HW214595   0.896   0.953   5.247
 4566SOL     OW14596   6.878   0.936   6.992
 4566SOL    HW114597   6.930   0.969   6.913
 4566SOL    HW214598   6.924   0.854   0.010
 4567SOL     OW14599   6.818   1.279   1.124
 4567SOL    HW114600   6.793   1.261   1.029
 4567SOL    HW214601   6.875   1.204   1.158
 4568SOL     OW14602   3.124   4.588   5.706
 4568SOL    HW114603   3.139   4.682   5.736
 4568SOL    HW214604   3.062   4.543   5.770
 4569SOL     OW14605   0.862   1.235   4.260
 4569SOL    HW114606   0.794   1.240   4.334
 4569SOL    HW214607   0.953   1.218   4.300
 4570SOL     OW14608   0.225   5.786   3.975
 4570SOL    HW114609   0.258   5.698   3.942
 4570SOL    HW214610   0.137   5.773   4.022
 4571SOL     OW14611   3.434   3.243   4.353
 4571SOL    HW114612   3.479   3.227   4.265
 4571SOL    HW214613   3.390   3.158   4.383
 4572SOL     OW14614   1.578   6.744   1.079
 4572SOL    HW114615   1.556   6.842   1.082
 4572SOL    HW214616   1.630   6.719   1.161
 4573SOL     OW14617   5.629   5.965   0.800
 4573SOL    HW114618   5.656   6.048   0.751
 4573SOL    HW214619   5.543   5.982   0.849
 4574SOL     OW14620   6.926   4.659   1.712
 4574SOL    HW114621   6.828   4.644   1.717
 4574SOL    HW214622   6.965   4.655   1.804
 4575SOL     OW14623   6.853   0.457   2.184
 4575SOL    HW114624   6.884   0.450   2.089
 4575SOL    HW214625   6.771   0.400   2.196
 4576SOL     OW14626   3.521   5.315   6.287
 4576SOL    HW114627   3.520   5.236   6.348
 4576SOL    HW214628   3.427   5.336   6.259
 4577SOL     OW14629   1.328   3.318   3.139
 4577SOL    HW114630   1.412   3.321   3.193
 4577SOL    HW214631   1.350   3.302   3.043
 4578SOL     OW14632   7.006   3.786   4.170
 4578SOL    HW114633   0.067   3.729   4.146
 4578SOL    HW214634   0.010   3.844   4.247
 4579SOL     OW14635   5.684   2.113   3.414
 4579SOL    HW114636   5.592   2.127   3.378
 4579SOL    HW214637   5.683   2.042   3.484
 4580SOL     OW14638   6.427   6.378   0.765
 4580SOL    HW114639   6.490   6.388   0.688
 4580SOL    HW214640   6.444   6.290   0.810
 4581SOL     OW14641   3.190   5.182   3.306
 4581SOL    HW114642   3.115   5.138   3.258
 4581SOL    HW214643   3.156   5.263   3.354
 4582SOL     OW14644   5.434   6.223   3.097
 4582SOL    HW114645   5.352   6.279   3.103
 4582SOL    HW214646   5.515   6.281   3.101
 4583SOL     OW14647   3.266   1.853   5.653
 4583SOL    HW114648   3.350   1.855   5.598
 4583SOL    HW214649   3.237   1.946   5.673
 4584SOL     OW14650   0.629   5.332   5.148
 4584SOL    HW114651   0.698   5.366   5.085
 4584SOL    HW214652   0.650   5.237   5.172
 4585SOL     OW14653   3.274   6.092   2.983
 4585SOL    HW114654   3.303   6.155   3.055
 4585SOL    HW214655   3.226   6.142   2.912
 4586SOL     OW14656   3.612   6.011   1.877
 4586SOL    HW114657   3.675   6.087   1.891
 4586SOL    HW214658   3.663   5.929   1.851
 4587SOL     OW14659   2.711   3.423   1.255
 4587SOL    HW114660   2.796   3.467   1.283
 4587SOL    HW214661   2.708   3.330   1.291
 4588SOL     OW14662   3.879   3.509   5.218
 4588SOL    HW114663   3.974   3.531   5.198
 4588SOL    HW214664   3.874   3.422   5.267
 4589SOL     OW14665   6.400   2.187   4.454
 4589SOL    HW114666   6.401   2.266   4.393
 4589SOL    HW214667   6.362   2.213   4.543
 4590SOL     OW14668   4.344   5.176   2.748
 4590SOL    HW114669   4.437   5.207   2.764
 4590SOL    HW214670   4.329   5.089   2.795
 4591SOL     OW14671   5.311   5.776   5.484
 4591SOL    HW114672   5.326   5.727   5.570
 4591SOL    HW214673   5.390   5.834   5.465
 4592SOL     OW14674   4.093   2.376   6.663
 4592SOL    HW114675   4.025   2.330   6.606
 4592SOL    HW214676   4.096   2.332   6.753
 4593SOL     OW14677   3.760   6.638   2.427
 4593SOL    HW114678   3.712   6.719   2.393
 4593SOL    HW214679   3.710   6.601   2.506
 4594SOL     OW14680   2.198   1.612   2.198
 4594SOL    HW114681   2.104   1.603   2.231
 4594SOL    HW214682   2.214   1.548   2.124
 4595SOL     OW14683   4.346   3.120   6.614
 4595SOL    HW114684   4.264   3.128   6.556
 4595SOL    HW214685   4.412   3.060   6.569
 4596SOL     OW14686   5.628   0.095   1.758
 4596SOL    HW114687   5.686   0.047   1.824
 4596SOL    HW214688   5.652   0.192   1.756
 4597SOL     OW14689   5.118   3.831   6.549
 4597SOL    HW114690   5.129   3.753   6.611
 4597SOL    HW214691   5.133   3.916   6.599
 4598SOL     OW14692   2.351   5.358   6.883
 4598SOL    HW114693   2.380   5.407   6.800
 4598SOL    HW214694   2.252   5.345   6.880
 4599SOL     OW14695   1.626   4.883   1.453
 4599SOL    HW114696   1.593   4.903   1.360
 4599SOL    HW214697   1.626   4.784   1.468
 4600SOL     OW14698   3.180   5.538   0.634
 4600SOL    HW114699   3.153   5.564   0.727
 4600SOL    HW214700   3.112   5.573   0.570
 4601SOL     OW14701   1.969   0.261   5.164
 4601SOL    HW114702   1.929   0.307   5.243
 4601SOL    HW214703   2.031   0.323   5.117
 4602SOL     OW14704   1.317   0.145   2.292
 4602SOL    HW114705   1.322   0.081   2.216
 4602SOL    HW214706   1.392   0.126   2.357
 4603SOL     OW14707   3.222   6.707   1.369
 4603SOL    HW114708   3.205   6.713   1.467
 4603SOL    HW214709   3.319   6.692   1.353
 4604SOL     OW14710   3.364   0.088   1.997
 4604SOL    HW114711   3.415   0.089   2.083
 4604SOL    HW214712   3.368   0.179   1.955
 4605SOL     OW14713   5.216   0.229   4.872
 4605SOL    HW114714   5.167   0.149   4.836
 4605SOL    HW214715   5.184   0.312   4.827
 4606SOL     OW14716   6.487   6.390   5.152
 4606SOL    HW114717   6.541   6.469   5.180
 4606SOL    HW214718   6.549   6.315   5.127
 4607SOL     OW14719   3.298   1.607   1.622
 4607SOL    HW114720   3.248   1.637   1.704
 4607SOL    HW214721   3.262   1.519   1.592
 4608SOL     OW14722   2.075   3.951   5.683
 4608SOL    HW114723   2.121   4.039   5.672
 4608SOL    HW214724   2.067   3.906   5.594
 4609SOL     OW14725   4.718   6.571   6.907
 4609SOL    HW114726   4.808   6.532   6.927
 4609SOL    HW214727   4.718   6.611   6.815
 4610SOL     OW14728   0.314   3.126   6.431
 4610SOL    HW114729   0.363   3.192   6.374
 4610SOL    HW214730   0.380   3.062   6.471
 4611SOL     OW14731   0.661   3.898   0.027
 4611SOL    HW114732   0.690   3.977   0.080
 4611SOL    HW214733   0.729   3.877   6.975
 4612SOL     OW14734   2.249   6.748   6.688
 4612SOL    HW114735   2.258   6.708   6.779
 4612SOL    HW214736   2.315   6.706   6.626
 4613SOL     OW14737   3.134   5.572   2.324
 4613SOL    HW114738   3.226   5.577   2.364
 4613SOL    HW214739   3.070   5.533   2.389
 4614SOL     OW14740   1.546   5.268   0.417
 4614SOL    HW114741   1.643   5.287   0.407
 4614SOL    HW214742   1.504   5.262   0.326
 4615SOL     OW14743   1.422   2.287   0.248
 4615SOL    HW114744   1.385   2.329   0.165
 4615SOL    HW214745   1.448   2.359   0.312
 4616SOL     OW14746   5.473   1.293   6.294
 4616SOL    HW114747   5.413   1.373   6.281
 4616SOL    HW214748   5.563   1.313   6.256
 4617SOL     OW14749   0.267   2.523   1.511
 4617SOL    HW114750   0.188   2.585   1.511
 4617SOL    HW214751   0.273   2.477   1.600
 4618SOL     OW14752   1.275   2.024   6.142
 4618SOL    HW114753   1.196   1.965   6.158
 4618SOL    HW214754   1.245   2.112   6.106
 4619SOL     OW14755   4.136   0.443   3.363
 4619SOL    HW114756   4.146   0.540   3.385
 4619SOL    HW214757   4.040   0.421   3.350
 4620SOL     OW14758   2.737   4.495   6.497
 4620SOL    HW114759   2.773   4.401   6.500
 4620SOL    HW214760   2.794   4.550   6.437
 4621SOL     OW14761   0.683   0.116   5.389
 4621SOL    HW114762   0.681   0.151   5.295
 4621SOL    HW214763   0.695   0.017   5.388
 4622SOL     OW14764   1.444   3.868   0.659
 4622SOL    HW114765   1.487   3.795   0.605
 4622SOL    HW214766   1.513   3.935   0.684
 4623SOL     OW14767   6.887   5.173   1.628
 4623SOL    HW114768   6.929   5.255   1.667
 4623SOL    HW214769   6.873   5.188   1.530
 4624SOL     OW14770   5.112   0.348   4.234
 4624SOL    HW114771   5.140   0.306   4.320
 4624SOL    HW214772   5.173   0.317   4.161
 4625SOL     OW14773   1.047   4.162   6.632
 4625SOL    HW114774   0.969   4.105   6.607
 4625SOL    HW214775   1.101   4.182   6.550
 4626SOL     OW14776   6.810   5.033   1.063
 4626SOL    HW114777   6.878   5.019   0.991
 4626SOL    HW214778   6.822   4.963   1.133
 4627SOL     OW14779   3.498   6.072   5.645
 4627SOL    HW114780   3.468   5.985   5.606
 4627SOL    HW214781   3.423   6.138   5.640
 4628SOL     OW14782   6.763   4.458   1.912
 4628SOL    HW114783   6.705   4.415   1.982
 4628SOL    HW214784   6.754   4.407   1.827
 4629SOL     OW14785   1.984   4.548   5.315
 4629SOL    HW114786   2.023   4.476   5.372
 4629SOL    HW214787   1.929   4.507   5.242
 4630SOL     OW14788   2.575   5.841   2.695
 4630SOL    HW114789   2.530   5.758   2.728
 4630SOL    HW214790   2.653   5.862   2.754
 4631SOL     OW14791   2.874   6.401   2.666
 4631SOL    HW114792   2.936   6.480   2.667
 4631SOL    HW214793   2.783   6.432   2.639
 4632SOL     OW14794   5.064   5.523   4.291
 4632SOL    HW114795   5.032   5.438   4.249
 4632SOL    HW214796   4.994   5.594   4.279
 4633SOL     OW14797   6.803   2.024   4.381
 4633SOL    HW114798   6.728   2.053   4.441
 4633SOL    HW214799   6.772   1.951   4.321
 4634SOL     OW14800   3.307   4.733   0.769
 4634SOL    HW114801   3.212   4.702   0.776
 4634SOL    HW214802   3.330   4.790   0.848
 4635SOL     OW14803   5.098   3.407   2.114
 4635SOL    HW114804   5.053   3.318   2.112
 4635SOL    HW214805   5.070   3.460   2.034
 4636SOL     OW14806   3.152   5.375   0.383
 4636SOL    HW114807   3.102   5.461   0.393
 4636SOL    HW214808   3.088   5.298   0.388
 4637SOL     OW14809   1.208   1.024   5.248
 4637SOL    HW114810   1.231   0.937   5.203
 4637SOL    HW214811   1.276   1.043   5.319
 4638SOL     OW14812   4.900   3.367   5.721
 4638SOL    HW114813   4.815   3.332   5.760
 4638SOL    HW214814   4.963   3.392   5.794
 4639SOL     OW14815   0.213   3.851   5.667
 4639SOL    HW114816   0.199   3.762   5.623
 4639SOL    HW214817   0.299   3.849   5.719
 4640SOL     OW14818   5.611   4.321   2.852
 4640SOL    HW114819   5.616   4.341   2.949
 4640SOL    HW214820   5.659   4.392   2.800
 4641SOL     OW14821   2.203   4.852   4.632
 4641SOL    HW114822   2.176   4.760   4.603
 4641SOL    HW214823   2.169   4.869   4.725
 4642SOL     OW14824   5.969   6.038   4.418
 4642SOL    HW114825   5.921   6.042   4.506
 4642SOL    HW214826   6.045   6.103   4.419
 4643SOL     OW14827   3.923   2.256   1.757
 4643SOL    HW114828   3.992   2.327   1.774
 4643SOL    HW214829   3.834   2.286   1.791
 4644SOL     OW14830   1.963   5.992   4.827
 4644SOL    HW114831   1.972   6.063   4.896
 4644SOL    HW214832   1.894   6.019   4.760
 4645SOL     OW14833   2.010   6.280   4.638
 4645SOL    HW114834   1.937   6.212   4.633
 4645SOL    HW214835   2.096   6.235   4.663
 4646SOL     OW14836   3.182   0.522   1.935
 4646SOL    HW114837   3.242   0.595   1.969
 4646SOL    HW214838   3.146   0.471   2.013
 4647SOL     OW14839   6.181   0.584   4.198
 4647SOL    HW114840   6.185   0.583   4.098
 4647SOL    HW214841   6.086   0.579   4.228
 4648SOL     OW14842   2.281   5.763   2.613
 4648SOL    HW114843   2.356   5.711   2.655
 4648SOL    HW214844   2.229   5.809   2.684
 4649SOL     OW14845   5.175   0.361   5.373
 4649SOL    HW114846   5.088   0.374   5.421
 4649SOL    HW214847   5.166   0.395   5.279
 4650SOL     OW14848   5.114   4.960   2.411
 4650SOL    HW114849   5.133   5.040   2.469
 4650SOL    HW214850   5.199   4.910   2.395
 4651SOL     OW14851   0.423   2.219   1.840
 4651SOL    HW114852   0.501   2.174   1.796
 4651SOL    HW214853   0.354   2.242   1.771
 4652SOL     OW14854   6.790   0.148   5.816
 4652SOL    HW114855   6.833   0.135   5.727
 4652SOL    HW214856   6.855   0.188   5.880
 4653SOL     OW14857   0.218   6.465   6.858
 4653SOL    HW114858   0.250   6.448   6.765
 4653SOL    HW214859   0.126   6.505   6.854
 4654SOL     OW14860   1.263   0.572   0.307
 4654SOL    HW114861   1.332   0.635   0.270
 4654SOL    HW214862   1.177   0.621   0.317
 4655SOL     OW14863   0.547   4.613   3.205
 4655SOL    HW114864   0.498   4.574   3.283
 4655SOL    HW214865   0.617   4.676   3.239
 4656SOL     OW14866   1.200   0.629   3.913
 4656SOL    HW114867   1.286   0.578   3.919
 4656SOL    HW214868   1.215   0.716   3.867
 4657SOL     OW14869   5.269   0.007   1.089
 4657SOL    HW114870   5.276   0.091   1.035
 4657SOL    HW214871   5.201   6.965   1.048
 4658SOL     OW14872   4.941   0.202   2.783
 4658SOL    HW114873   4.903   0.249   2.862
 4658SOL    HW214874   4.947   0.265   2.706
 4659SOL     OW14875   1.976   2.576   4.897
 4659SOL    HW114876   1.903   2.551   4.833
 4659SOL    HW214877   2.003   2.671   4.882
 4660SOL     OW14878   0.133   1.244   5.974
 4660SOL    HW114879   0.084   1.291   6.047
 4660SOL    HW214880   0.093   1.269   5.885
 4661SOL     OW14881   3.167   3.678   3.843
 4661SOL    HW114882   3.079   3.725   3.846
 4661SOL    HW214883   3.214   3.689   3.931
 4662SOL     OW14884   4.922   0.409   5.475
 4662SOL    HW114885   4.880   0.498   5.494
 4662SOL    HW214886   4.900   0.382   5.381
 4663SOL     OW14887   0.301   2.230   2.402
 4663SOL    HW114888   0.224   2.245   2.465
 4663SOL    HW214889   0.283   2.278   2.316
 4664SOL     OW14890   3.524   2.573   0.255
 4664SOL    HW114891   3.441   2.535   0.215
 4664SOL    HW214892   3.500   2.623   0.338
 4665SOL     OW14893   5.039   0.066   0.000
 4665SOL    HW114894   5.068   0.161   0.010
 4665SOL    HW214895   4.959   0.049   0.059
 4666SOL     OW14896   2.388   1.401   0.647
 4666SOL    HW114897   2.301   1.354   0.629
 4666SOL    HW214898   2.433   1.359   0.726
 4667SOL     OW14899   0.042   5.509   6.459
 4667SOL    HW114900   0.113   5.441   6.472
 4667SOL    HW214901   0.049   5.547   6.366
 4668SOL     OW14902   6.466   1.667   4.148
 4668SOL    HW114903   6.402   1.693   4.220
 4668SOL    HW214904   6.533   1.603   4.185
 4669SOL     OW14905   1.145   0.222   0.730
 4669SOL    HW114906   1.186   0.256   0.646
 4669SOL    HW214907   1.080   0.149   0.709
 4670SOL     OW14908   2.760   2.039   4.296
 4670SOL    HW114909   2.668   2.078   4.286
 4670SOL    HW214910   2.786   2.040   4.393
 4671SOL     OW14911   5.304   3.500   1.767
 4671SOL    HW114912   5.250   3.418   1.787
 4671SOL    HW214913   5.347   3.491   1.678
 4672SOL     OW14914   2.116   3.771   6.453
 4672SOL    HW114915   2.164   3.824   6.384
 4672SOL    HW214916   2.178   3.749   6.528
 4673SOL     OW14917   3.831   1.260   2.467
 4673SOL    HW114918   3.798   1.234   2.557
 4673SOL    HW214919   3.807   1.189   2.401
 4674SOL     OW14920   4.451   5.725   5.056
 4674SOL    HW114921   4.411   5.744   5.145
 4674SOL    HW214922   4.551   5.732   5.062
 4675SOL     OW14923   0.972   4.130   0.175
 4675SOL    HW114924   0.873   4.115   0.166
 4675SOL    HW214925   0.995   4.142   0.272
 4676SOL     OW14926   1.501   5.492   3.223
 4676SOL    HW114927   1.421   5.468   3.278
 4676SOL    HW214928   1.584   5.465   3.271
 4677SOL     OW14929   1.841   2.898   0.274
 4677SOL    HW114930   1.907   2.918   0.347
 4677SOL    HW214931   1.861   2.808   0.236
 4678SOL     OW14932   2.034   4.697   2.927
 4678SOL    HW114933   2.007   4.771   2.866
 4678SOL    HW214934   2.120   4.722   2.973
 4679SOL     OW14935   5.092   6.988   1.621
 4679SOL    HW114936   5.067   0.066   1.613
 4679SOL    HW214937   5.091   6.961   1.717
 4680SOL     OW14938   2.368   1.338   1.770
 4680SOL    HW114939   2.307   1.343   1.691
 4680SOL    HW214940   2.440   1.272   1.753
 4681SOL     OW14941   5.616   4.105   1.537
 4681SOL    HW114942   5.545   4.047   1.497
 4681SOL    HW214943   5.585   4.140   1.625
 4682SOL     OW14944   4.155   3.536   6.531
 4682SOL    HW114945   4.230   3.470   6.531
 4682SOL    HW214946   4.189   3.626   6.502
 4683SOL     OW14947   6.224   4.211   3.791
 4683SOL    HW114948   6.227   4.193   3.890
 4683SOL    HW214949   6.311   4.184   3.751
 4684SOL     OW14950   4.369   6.112   0.076
 4684SOL    HW114951   4.344   6.015   0.072
 4684SOL    HW214952   4.466   6.122   0.052
 4685SOL     OW14953   2.809   3.739   5.679
 4685SOL    HW114954   2.780   3.663   5.737
 4685SOL    HW214955   2.874   3.707   5.611
 4686SOL     OW14956   2.869   6.040   0.247
 4686SOL    HW114957   2.915   6.128   0.232
 4686SOL    HW214958   2.774   6.057   0.272
 4687SOL     OW14959   2.949   0.643   2.814
 4687SOL    HW114960   2.852   0.620   2.809
 4687SOL    HW214961   2.991   0.593   2.890
 4688SOL     OW14962   5.573   3.176   5.799
 4688SOL    HW114963   5.584   3.242   5.724
 4688SOL    HW214964   5.560   3.084   5.760
 4689SOL     OW14965   5.542   0.784   0.637
 4689SOL    HW114966   5.490   0.816   0.558
 4689SOL    HW214967   5.531   0.685   0.646
 4690SOL     OW14968   2.642   1.363   0.542
 4690SOL    HW114969   2.640   1.264   0.526
 4690SOL    HW214970   2.563   1.389   0.598
 4691SOL     OW14971   6.161   4.880   0.916
 4691SOL    HW114972   6.196   4.852   1.006
 4691SOL    HW214973   6.221   4.950   0.877
 4692SOL     OW14974   6.438   4.120   2.837
 4692SOL    HW114975   6.428   4.175   2.754
 4692SOL    HW214976   6.377   4.156   2.908
 4693SOL     OW14977   2.023   0.905   3.924
 4693SOL    HW114978   2.059   0.933   3.834
 4693SOL    HW214979   1.990   0.811   3.918
 4694SOL     OW14980   2.334   1.402   0.041
 4694SOL    HW114981   2.361   1.466   0.112
 4694SOL    HW214982   2.248   1.433   7.018
 4695SOL     OW14983   1.256   5.795   1.299
 4695SOL    HW114984   1.329   5.806   1.232
 4695SOL    HW214985   1.287   5.827   1.389
 4696SOL     OW14986   1.042   4.941   6.390
 4696SOL    HW114987   1.025   4.844   6.374
 4696SOL    HW214988   1.039   4.990   6.302
 4697SOL     OW14989   2.776   4.672   0.991
 4697SOL    HW114990   2.868   4.711   0.983
 4697SOL    HW214991   2.716   4.738   1.037
 4698SOL     OW14992   4.568   0.881   2.912
 4698SOL    HW114993   4.630   0.808   2.941
 4698SOL    HW214994   4.591   0.907   2.818
 4699SOL     OW14995   1.050   0.391   2.418
 4699SOL    HW114996   1.144   0.425   2.425
 4699SOL    HW214997   1.033   0.327   2.493
 4700SOL     OW14998   5.954   2.142   2.811
 4700SOL    HW114999   5.957   2.071   2.881
 4700SOL    HW215000   5.860   2.160   2.785
 4701SOL     OW15001   3.120   1.680   1.813
 4701SOL    HW115002   3.114   1.758   1.750
 4701SOL    HW215003   3.033   1.669   1.861
 4702SOL     OW15004   5.466   4.927   6.338
 4702SOL    HW115005   5.462   4.872   6.254
 4702SOL    HW215006   5.380   4.977   6.348
 4703SOL     OW15007   1.073   4.598   3.349
 4703SOL    HW115008   1.103   4.641   3.434
 4703SOL    HW215009   1.151   4.590   3.287
 4704SOL     OW15010   0.621   5.333   5.421
 4704SOL    HW115011   0.554   5.401   5.452
 4704SOL    HW215012   0.639   5.345   5.324
 4705SOL     OW15013   3.204   2.835   1.958
 4705SOL    HW115014   3.250   2.846   2.046
 4705SOL    HW215015   3.137   2.761   1.965
 4706SOL     OW15016   1.350   0.866   0.500
 4706SOL    HW115017   1.336   0.864   0.401
 4706SOL    HW215018   1.349   0.961   0.531
 4707SOL     OW15019   1.264   0.397   1.627
 4707SOL    HW115020   1.195   0.452   1.674
 4707SOL    HW215021   1.219   0.338   1.560
 4708SOL     OW15022   0.564   2.674   4.111
 4708SOL    HW115023   0.658   2.642   4.100
 4708SOL    HW215024   0.503   2.595   4.117
 4709SOL     OW15025   4.524   4.129   5.276
 4709SOL    HW115026   4.580   4.142   5.194
 4709SOL    HW215027   4.568   4.062   5.336
 4710SOL     OW15028   5.468   6.414   4.074
 4710SOL    HW115029   5.409   6.409   3.994
 4710SOL    HW215030   5.481   6.322   4.111
 4711SOL     OW15031   6.185   3.188   3.182
 4711SOL    HW115032   6.094   3.158   3.213
 4711SOL    HW215033   6.178   3.220   3.087
 4712SOL     OW15034   4.256   4.225   5.315
 4712SOL    HW115035   4.258   4.307   5.258
 4712SOL    HW215036   4.347   4.182   5.314
 4713SOL     OW15037   5.861   4.362   1.211
 4713SOL    HW115038   5.870   4.335   1.307
 4713SOL    HW215039   5.803   4.444   1.204
 4714SOL     OW15040   6.459   0.892   6.141
 4714SOL    HW115041   6.556   0.866   6.148
 4714SOL    HW215042   6.402   0.812   6.159
 4715SOL     OW15043   6.077   1.828   1.756
 4715SOL    HW115044   6.114   1.735   1.747
 4715SOL    HW215045   6.058   1.865   1.665
 4716SOL     OW15046   3.746   4.601   5.752
 4716SOL    HW115047   3.781   4.674   5.694
 4716SOL    HW215048   3.669   4.557   5.706
 4717SOL     OW15049   2.954   5.042   5.311
 4717SOL    HW115050   2.954   5.139   5.288
 4717SOL    HW215051   2.937   4.988   5.228
 4718SOL     OW15052   5.541   4.406   1.467
 4718SOL    HW115053   5.542   4.329   1.530
 4718SOL    HW215054   5.551   4.372   1.373
 4719SOL     OW15055   6.434   3.347   3.633
 4719SOL    HW115056   6.369   3.389   3.697
 4719SOL    HW215057   6.511   3.310   3.685
 4720SOL     OW15058   2.811   4.345   6.749
 4720SOL    HW115059   2.905   4.368   6.773
 4720SOL    HW215060   2.810   4.267   6.687
 4721SOL     OW15061   6.443   3.594   2.643
 4721SOL    HW115062   6.344   3.580   2.647
 4721SOL    HW215063   6.489   3.518   2.688
 4722SOL     OW15064   0.973   4.326   6.298
 4722SOL    HW115065   0.878   4.316   6.327
 4722SOL    HW215066   1.011   4.411   6.336
 4723SOL     OW15067   3.808   3.925   6.441
 4723SOL    HW115068   3.823   3.966   6.531
 4723SOL    HW215069   3.714   3.943   6.412
 4724SOL     OW15070   0.974   6.623   4.254
 4724SOL    HW115071   1.067   6.617   4.221
 4724SOL    HW215072   0.910   6.626   4.177
 4725SOL     OW15073   6.326   5.702   0.750
 4725SOL    HW115074   6.407   5.759   0.769
 4725SOL    HW215075   6.263   5.753   0.692
 4726SOL     OW15076   1.995   3.022   5.659
 4726SOL    HW115077   2.048   3.098   5.695
 4726SOL    HW215078   1.897   3.042   5.668
 4727SOL     OW15079   1.027   5.781   0.391
 4727SOL    HW115080   1.055   5.691   0.358
 4727SOL    HW215081   0.982   5.831   0.317
 4728SOL     OW15082   6.160   1.123   4.044
 4728SOL    HW115083   6.062   1.101   4.042
 4728SOL    HW215084   6.213   1.040   4.027
 4729SOL     OW15085   6.101   0.699   0.588
 4729SOL    HW115086   6.183   0.750   0.615
 4729SOL    HW215087   6.080   0.717   0.492
 4730SOL     OW15088   3.340   0.102   4.916
 4730SOL    HW115089   3.316   0.005   4.911
 4730SOL    HW215090   3.344   0.132   5.011
 4731SOL     OW15091   3.051   0.386   0.787
 4731SOL    HW115092   3.039   0.287   0.779
 4731SOL    HW215093   3.052   0.412   0.884
 4732SOL     OW15094   0.002   3.741   4.558
 4732SOL    HW115095   0.011   3.661   4.498
 4732SOL    HW215096   6.996   3.711   4.650
 4733SOL     OW15097   2.094   3.329   3.018
 4733SOL    HW115098   2.071   3.392   2.944
 4733SOL    HW215099   2.079   3.373   3.106
 4734SOL     OW15100   4.818   3.827   6.537
 4734SOL    HW115101   4.862   3.738   6.546
 4734SOL    HW215102   4.766   3.848   6.620
 4735SOL     OW15103   0.339   6.489   4.915
 4735SOL    HW115104   0.369   6.403   4.955
 4735SOL    HW215105   0.416   6.553   4.913
 4736SOL     OW15106   6.524   2.193   2.966
 4736SOL    HW115107   6.542   2.176   2.869
 4736SOL    HW215108   6.438   2.150   2.992
 4737SOL     OW15109   2.070   4.914   1.122
 4737SOL    HW115110   2.003   4.962   1.180
 4737SOL    HW215111   2.022   4.863   1.051
 4738SOL     OW15112   2.201   0.259   3.633
 4738SOL    HW115113   2.293   0.248   3.596
 4738SOL    HW215114   2.193   0.351   3.672
 4739SOL     OW15115   5.711   3.436   4.406
 4739SOL    HW115116   5.711   3.516   4.346
 4739SOL    HW215117   5.625   3.431   4.456
 4740SOL     OW15118   0.183   1.151   1.631
 4740SOL    HW115119   0.095   1.193   1.653
 4740SOL    HW215120   0.245   1.221   1.595
 4741SOL     OW15121   4.521   4.916   1.474
 4741SOL    HW115122   4.457   4.839   1.478
 4741SOL    HW215123   4.561   4.931   1.565
 4742SOL     OW15124   2.770   5.682   1.293
 4742SOL    HW115125   2.725   5.650   1.376
 4742SOL    HW215126   2.848   5.739   1.317
 4743SOL     OW15127   2.130   2.076   0.172
 4743SOL    HW115128   2.136   1.999   0.109
 4743SOL    HW215129   2.182   2.056   0.255
 4744SOL     OW15130   2.039   3.581   5.624
 4744SOL    HW115131   2.056   3.655   5.558
 4744SOL    HW215132   2.044   3.493   5.577
 4745SOL     OW15133   3.420   5.494   4.806
 4745SOL    HW115134   3.438   5.406   4.761
 4745SOL    HW215135   3.325   5.497   4.836
 4746SOL     OW15136   6.689   6.546   0.947
 4746SOL    HW115137   6.595   6.538   0.978
 4746SOL    HW215138   6.724   6.638   0.968
 4747SOL     OW15139   6.663   2.114   0.484
 4747SOL    HW115140   6.701   2.206   0.473
 4747SOL    HW215141   6.631   2.102   0.578
 4748SOL     OW15142   0.995   0.919   1.360
 4748SOL    HW115143   1.083   0.923   1.312
 4748SOL    HW215144   1.003   0.965   1.448
 4749SOL     OW15145   2.269   6.794   0.150
 4749SOL    HW115146   2.259   6.821   0.246
 4749SOL    HW215147   2.300   6.873   0.097
 4750SOL     OW15148   6.969   0.866   4.351
 4750SOL    HW115149   6.939   0.774   4.327
 4750SOL    HW215150   7.015   0.864   4.440
 4751SOL     OW15151   1.703   4.740   6.262
 4751SOL    HW115152   1.699   4.696   6.173
 4751SOL    HW215153   1.664   4.679   6.331
 4752SOL     OW15154   2.888   6.234   1.819
 4752SOL    HW115155   2.867   6.329   1.797
 4752SOL    HW215156   2.986   6.225   1.840
 4753SOL     OW15157   5.741   6.419   5.229
 4753SOL    HW115158   5.721   6.341   5.288
 4753SOL    HW215159   5.815   6.396   5.167
 4754SOL     OW15160   0.261   0.501   5.625
 4754SOL    HW115161   0.260   0.545   5.536
 4754SOL    HW215162   0.186   0.434   5.630
 4755SOL     OW15163   2.448   1.231   6.103
 4755SOL    HW115164   2.363   1.281   6.090
 4755SOL    HW215165   2.460   1.212   6.201
 4756SOL     OW15166   4.607   2.881   1.436
 4756SOL    HW115167   4.635   2.787   1.419
 4756SOL    HW215168   4.597   2.929   1.349
 4757SOL     OW15169   2.314   1.978   1.760
 4757SOL    HW115170   2.360   2.040   1.824
 4757SOL    HW215171   2.342   1.884   1.780
 4758SOL     OW15172   4.923   5.202   5.304
 4758SOL    HW115173   4.964   5.290   5.329
 4758SOL    HW215174   4.962   5.130   5.362
 4759SOL     OW15175   5.493   5.580   6.318
 4759SOL    HW115176   5.576   5.541   6.358
 4759SOL    HW215177   5.512   5.607   6.223
 4760SOL     OW15178   2.062   0.979   1.714
 4760SOL    HW115179   2.038   0.944   1.804
 4760SOL    HW215180   2.043   1.077   1.710
 4761SOL     OW15181   6.569   6.792   6.356
 4761SOL    HW115182   6.607   6.759   6.269
 4761SOL    HW215183   6.642   6.803   6.423
 4762SOL     OW15184   2.549   5.738   1.996
 4762SOL    HW115185   2.632   5.792   2.007
 4762SOL    HW215186   2.469   5.798   1.998
 4763SOL     OW15187   5.958   6.523   3.316
 4763SOL    HW115188   6.030   6.464   3.279
 4763SOL    HW215189   5.964   6.524   3.416
 4764SOL     OW15190   4.095   3.764   5.129
 4764SOL    HW115191   4.114   3.775   5.031
 4764SOL    HW215192   4.174   3.795   5.182
 4765SOL     OW15193   4.932   5.904   4.707
 4765SOL    HW115194   4.969   5.814   4.729
 4765SOL    HW215195   4.876   5.898   4.625
 4766SOL     OW15196   2.597   6.926   3.414
 4766SOL    HW115197   2.687   6.888   3.436
 4766SOL    HW215198   2.540   6.925   3.496
 4767SOL     OW15199   4.224   6.609   6.626
 4767SOL    HW115200   4.159   6.685   6.639
 4767SOL    HW215201   4.310   6.645   6.589
 4768SOL     OW15202   6.170   0.385   4.713
 4768SOL    HW115203   6.184   0.287   4.722
 4768SOL    HW215204   6.238   0.423   4.650
 4769SOL     OW15205   4.292   6.535   1.722
 4769SOL    HW115206   4.278   6.446   1.766
 4769SOL    HW215207   4.217   6.596   1.747
 4770SOL     OW15208   2.659   0.377   2.787
 4770SOL    HW115209   2.619   0.304   2.842
 4770SOL    HW215210   2.755   0.356   2.768
 4771SOL     OW15211   3.859   4.247   5.825
 4771SOL    HW115212   3.834   4.160   5.782
 4771SOL    HW215213   3.937   4.287   5.777
 4772SOL     OW15214   3.011   1.531   1.465
 4772SOL    HW115215   2.917   1.564   1.464
 4772SOL    HW215216   3.069   1.594   1.414
 4773SOL     OW15217   0.140   5.769   3.522
 4773SOL    HW115218   0.135   5.860   3.562
 4773SOL    HW215219   0.233   5.753   3.488
 4774SOL     OW15220   0.884   3.641   1.089
 4774SOL    HW115221   0.896   3.739   1.072
 4774SOL    HW215222   0.927   3.590   1.014
 4775SOL     OW15223   4.371   7.006   2.776
 4775SOL    HW115224   4.341   0.067   2.828
 4775SOL    HW215225   4.461   0.005   2.737
 4776SOL     OW15226   2.796   5.857   2.302
 4776SOL    HW115227   2.809   5.955   2.290
 4776SOL    HW215228   2.863   5.807   2.248
 4777SOL     OW15229   2.720   4.592   1.308
 4777SOL    HW115230   2.637   4.574   1.256
 4777SOL    HW215231   2.700   4.653   1.384
 4778SOL     OW15232   4.891   3.702   2.067
 4778SOL    HW115233   4.858   3.626   2.011
 4778SOL    HW215234   4.852   3.787   2.034
 4779SOL     OW15235   6.414   0.527   3.104
 4779SOL    HW115236   6.502   0.549   3.147
 4779SOL    HW215237   6.423   0.535   3.005
 4780SOL     OW15238   1.098   6.756   6.341
 4780SOL    HW115239   1.108   6.734   6.438
 4780SOL    HW215240   1.018   6.708   6.304
 4781SOL     OW15241   2.504   5.415   1.262
 4781SOL    HW115242   2.576   5.398   1.330
 4781SOL    HW215243   2.530   5.493   1.205
 4782SOL     OW15244   5.618   6.572   0.136
 4782SOL    HW115245   5.529   6.532   0.158
 4782SOL    HW215246   5.668   6.591   0.221
 4783SOL     OW15247   5.486   4.317   1.182
 4783SOL    HW115248   5.555   4.262   1.133
 4783SOL    HW215249   5.395   4.285   1.158
 4784SOL     OW15250   5.553   5.065   5.056
 4784SOL    HW115251   5.520   5.019   5.138
 4784SOL    HW215252   5.617   5.005   5.008
 4785SOL     OW15253   6.800   6.286   1.042
 4785SOL    HW115254   6.796   6.219   0.967
 4785SOL    HW215255   6.770   6.375   1.008
 4786SOL     OW15256   1.857   3.151   2.035
 4786SOL    HW115257   1.950   3.116   2.043
 4786SOL    HW215258   1.792   3.075   2.040
 4787SOL     OW15259   3.019   2.159   3.265
 4787SOL    HW115260   2.984   2.071   3.297
 4787SOL    HW215261   2.991   2.174   3.170
 4788SOL     OW15262   1.193   4.812   4.677
 4788SOL    HW115263   1.261   4.870   4.633
 4788SOL    HW215264   1.101   4.840   4.649
 4789SOL     OW15265   5.747   0.579   6.799
 4789SOL    HW115266   5.744   0.667   6.752
 4789SOL    HW215267   5.714   0.590   6.892
 4790SOL     OW15268   5.735   2.591   6.426
 4790SOL    HW115269   5.750   2.631   6.516
 4790SOL    HW215270   5.814   2.535   6.400
 4791SOL     OW15271   5.474   6.850   1.735
 4791SOL    HW115272   5.401   6.783   1.751
 4791SOL    HW215273   5.562   6.802   1.732
 4792SOL     OW15274   2.267   2.443   2.853
 4792SOL    HW115275   2.220   2.369   2.902
 4792SOL    HW215276   2.205   2.481   2.784
 4793SOL     OW15277   1.639   6.979   6.499
 4793SOL    HW115278   1.663   0.054   6.474
 4793SOL    HW215279   1.559   6.980   6.560
 4794SOL     OW15280   2.700   0.016   3.055
 4794SOL    HW115281   2.662   0.066   2.977
 4794SOL    HW215282   2.703   6.937   3.034
 4795SOL     OW15283   6.646   2.911   4.126
 4795SOL    HW115284   6.653   2.822   4.171
 4795SOL    HW215285   6.583   2.969   4.177
 4796SOL     OW15286   5.969   3.774   1.079
 4796SOL    HW115287   5.922   3.862   1.090
 4796SOL    HW215288   5.907   3.700   1.107
 4797SOL     OW15289   0.686   4.786   6.020
 4797SOL    HW115290   0.589   4.812   6.023
 4797SOL    HW215291   0.697   4.694   6.058
 4798SOL     OW15292   0.309   3.749   4.234
 4798SOL    HW115293   0.372   3.827   4.238
 4798SOL    HW215294   0.315   3.697   4.319
 4799SOL     OW15295   3.906   1.529   4.918
 4799SOL    HW115296   3.866   1.529   4.827
 4799SOL    HW215297   3.904   1.437   4.956
 4800SOL     OW15298   2.695   2.653   5.392
 4800SOL    HW115299   2.623   2.681   5.328
 4800SOL    HW215300   2.701   2.719   5.467
 4801SOL     OW15301   1.271   1.676   0.804
 4801SOL    HW115302   1.178   1.643   0.791
 4801SOL    HW215303   1.276   1.773   0.782
 4802SOL     OW15304   2.756   0.118   1.682
 4802SOL    HW115305   2.744   0.113   1.582
 4802SOL    HW215306   2.666   0.120   1.725
 4803SOL     OW15307   0.934   6.804   0.410
 4803SOL    HW115308   0.912   6.737   0.339
 4803SOL    HW215309   0.854   6.861   0.428
 4804SOL     OW15310   3.891   5.234   6.326
 4804SOL    HW115311   3.979   5.281   6.333
 4804SOL    HW215312   3.882   5.195   6.234
 4805SOL     OW15313   0.001   1.844   0.283
 4805SOL    HW115314   0.084   1.877   0.328
 4805SOL    HW215315   7.010   1.888   0.194
 4806SOL     OW15316   0.226   3.224   2.880
 4806SOL    HW115317   0.193   3.237   2.786
 4806SOL    HW215318   0.229   3.126   2.901
 4807SOL     OW15319   0.456   6.197   1.405
 4807SOL    HW115320   0.428   6.277   1.353
 4807SOL    HW215321   0.445   6.214   1.503
 4808SOL     OW15322   5.165   3.719   1.517
 4808SOL    HW115323   5.252   3.675   1.542
 4808SOL    HW215324   5.111   3.656   1.461
 4809SOL     OW15325   3.470   5.038   6.960
 4809SOL    HW115326   3.373   5.036   6.986
 4809SOL    HW215327   3.523   5.081   0.015
 4810SOL     OW15328   0.952   6.314   1.645
 4810SOL    HW115329   1.007   6.275   1.719
 4810SOL    HW215330   0.878   6.251   1.622
 4811SOL     OW15331   3.705   5.137   2.029
 4811SOL    HW115332   3.683   5.056   1.976
 4811SOL    HW215333   3.630   5.203   2.023
 4812SOL     OW15334   0.230   5.419   4.480
 4812SOL    HW115335   0.219   5.399   4.578
 4812SOL    HW215336   0.263   5.337   4.433
 4813SOL     OW15337   4.908   1.827   2.601
 4813SOL    HW115338   4.924   1.923   2.579
 4813SOL    HW215339   4.810   1.808   2.594
 4814SOL     OW15340   0.203   3.907   1.000
 4814SOL    HW115341   0.274   3.913   0.929
 4814SOL    HW215342   0.132   3.974   0.981
 4815SOL     OW15343   4.798   5.675   1.382
 4815SOL    HW115344   4.712   5.700   1.339
 4815SOL    HW215345   4.798   5.577   1.402
 4816SOL     OW15346   4.911   5.156   2.741
 4816SOL    HW115347   4.956   5.069   2.720
 4816SOL    HW215348   4.938   5.187   2.832
 4817SOL     OW15349   1.746   2.240   6.085
 4817SOL    HW115350   1.663   2.219   6.137
 4817SOL    HW215351   1.743   2.191   5.998
 4818SOL     OW15352   6.878   6.640   3.778
 4818SOL    HW115353   6.825   6.555   3.772
 4818SOL    HW215354   6.819   6.718   3.759
 4819SOL     OW15355   1.519   3.083   6.888
 4819SOL    HW115356   1.448   3.140   6.848
 4819SOL    HW215357   1.524   3.100   6.987
 4820SOL     OW15358   6.834   3.195   1.902
 4820SOL    HW115359   6.837   3.186   2.002
 4820SOL    HW215360   6.917   3.241   1.870
 4821SOL     OW15361   6.636   5.794   2.779
 4821SOL    HW115362   6.636   5.795   2.679
 4821SOL    HW215363   6.547   5.762   2.812
 4822SOL     OW15364   1.431   3.862   4.462
 4822SOL    HW115365   1.440   3.839   4.365
 4822SOL    HW215366   1.414   3.778   4.515
 4823SOL     OW15367   1.720   2.505   2.001
 4823SOL    HW115368   1.666   2.422   1.985
 4823SOL    HW215369   1.749   2.508   2.097
 4824SOL     OW15370   5.955   0.898   5.070
 4824SOL    HW115371   5.922   0.991   5.054
 4824SOL    HW215372   5.997   0.863   4.987
 4825SOL     OW15373   1.806   0.023   3.816
 4825SOL    HW115374   1.898   0.061   3.817
 4825SOL    HW215375   1.803   6.961   3.875
 4826SOL     OW15376   4.656   0.307   1.505
 4826SOL    HW115377   4.729   0.373   1.522
 4826SOL    HW215378   4.593   0.306   1.583
 4827SOL     OW15379   6.756   1.894   1.140
 4827SOL    HW115380   6.766   1.794   1.134
 4827SOL    HW215381   6.840   1.937   1.107
 4828SOL     OW15382   4.499   0.968   2.165
 4828SOL    HW115383   4.483   0.971   2.264
 4828SOL    HW215384   4.556   1.046   2.138
 4829SOL     OW15385   3.686   0.116   5.385
 4829SOL    HW115386   3.700   0.112   5.286
 4829SOL    HW215387   3.689   0.212   5.415
 4830SOL     OW15388   3.274   5.944   3.735
 4830SOL    HW115389   3.355   5.927   3.679
 4830SOL    HW215390   3.195   5.959   3.675
 4831SOL     OW15391   3.246   5.085   6.475
 4831SOL    HW115392   3.297   5.000   6.465
 4831SOL    HW215393   3.237   5.109   6.572
 4832SOL     OW15394   3.220   3.035   3.877
 4832SOL    HW115395   3.273   3.119   3.890
 4832SOL    HW215396   3.129   3.058   3.842
 4833SOL     OW15397   0.137   2.580   4.041
 4833SOL    HW115398   0.165   2.629   4.124
 4833SOL    HW215399   0.069   2.633   3.992
 4834SOL     OW15400   2.008   5.102   1.648
 4834SOL    HW115401   2.026   5.183   1.705
 4834SOL    HW215402   1.909   5.089   1.640
 4835SOL     OW15403   6.960   2.238   5.152
 4835SOL    HW115404   6.886   2.301   5.173
 4835SOL    HW215405   0.021   2.289   5.119
 4836SOL     OW15406   4.722   1.265   5.237
 4836SOL    HW115407   4.807   1.212   5.239
 4836SOL    HW215408   4.663   1.229   5.164
 4837SOL     OW15409   6.965   3.641   4.789
 4837SOL    HW115410   6.998   3.548   4.808
 4837SOL    HW215411   6.913   3.675   4.867
 4838SOL     OW15412   1.260   4.556   6.659
 4838SOL    HW115413   1.264   4.566   6.560
 4838SOL    HW215414   1.343   4.592   6.700
 4839SOL     OW15415   2.342   1.687   6.960
 4839SOL    HW115416   2.279   1.622   6.918
 4839SOL    HW215417   2.291   1.749   0.000
 4840SOL     OW15418   5.497   3.459   5.065
 4840SOL    HW115419   5.445   3.379   5.037
 4840SOL    HW215420   5.553   3.492   4.989
 4841SOL     OW15421   3.150   5.560   3.087
 4841SOL    HW115422   3.237   5.522   3.120
 4841SOL    HW215423   3.081   5.550   3.158
 4842SOL     OW15424   2.890   5.573   3.245
 4842SOL    HW115425   2.841   5.490   3.221
 4842SOL    HW215426   2.847   5.651   3.199
 4843SOL     OW15427   0.375   2.666   2.273
 4843SOL    HW115428   0.341   2.631   2.360
 4843SOL    HW215429   0.447   2.606   2.238
 4844SOL     OW15430   1.118   5.566   4.623
 4844SOL    HW115431   1.113   5.585   4.721
 4844SOL    HW215432   1.171   5.638   4.578
 4845SOL     OW15433   4.868   3.875   5.109
 4845SOL    HW115434   4.826   3.793   5.071
 4845SOL    HW215435   4.875   3.867   5.209
 4846SOL     OW15436   0.015   3.517   5.142
 4846SOL    HW115437   0.081   3.591   5.127
 4846SOL    HW215438   0.003   3.502   5.240
 4847SOL     OW15439   2.216   6.663   6.321
 4847SOL    HW115440   2.236   6.650   6.418
 4847SOL    HW215441   2.293   6.709   6.276
 4848SOL     OW15442   2.655   0.827   4.025
 4848SOL    HW115443   2.651   0.742   3.972
 4848SOL    HW215444   2.574   0.834   4.083
 4849SOL     OW15445   1.877   6.998   1.167
 4849SOL    HW115446   1.958   0.010   1.116
 4849SOL    HW215447   1.807   6.969   1.102
 4850SOL     OW15448   4.846   0.575   0.594
 4850SOL    HW115449   4.794   0.513   0.652
 4850SOL    HW215450   4.802   0.582   0.505
 4851SOL     OW15451   3.907   5.388   6.749
 4851SOL    HW115452   3.813   5.397   6.715
 4851SOL    HW215453   3.944   5.299   6.722
 4852SOL     OW15454   4.471   5.139   4.483
 4852SOL    HW115455   4.455   5.163   4.579
 4852SOL    HW215456   4.569   5.146   4.463
 4853SOL     OW15457   3.512   0.238   2.500
 4853SOL    HW115458   3.425   0.193   2.478
 4853SOL    HW215459   3.542   0.210   2.591
 4854SOL     OW15460   5.894   6.173   1.811
 4854SOL    HW115461   5.822   6.123   1.859
 4854SOL    HW215462   5.982   6.128   1.827
 4855SOL     OW15463   6.250   5.154   4.739
 4855SOL    HW115464   6.309   5.172   4.661
 4855SOL    HW215465   6.257   5.230   4.804
 4856SOL     OW15466   0.243   3.887   2.923
 4856SOL    HW115467   0.177   3.862   2.995
 4856SOL    HW215468   0.206   3.960   2.867
 4857SOL     OW15469   2.683   2.105   4.870
 4857SOL    HW115470   2.615   2.130   4.939
 4857SOL    HW215471   2.770   2.085   4.915
 4858SOL     OW15472   0.334   5.835   4.240
 4858SOL    HW115473   0.315   5.875   4.150
 4858SOL    HW215474   0.310   5.900   4.311
 4859SOL     OW15475   0.615   5.827   2.370
 4859SOL    HW115476   0.539   5.820   2.305
 4859SOL    HW215477   0.582   5.867   2.456
 4860SOL     OW15478   4.558   5.637   0.904
 4860SOL    HW115479   4.630   5.609   0.966
 4860SOL    HW215480   4.480   5.673   0.956
 4861SOL     OW15481   0.222   4.808   6.740
 4861SOL    HW115482   0.321   4.798   6.745
 4861SOL    HW215483   0.199   4.895   6.697
 4862SOL     OW15484   2.504   4.526   5.486
 4862SOL    HW115485   2.567   4.585   5.435
 4862SOL    HW215486   2.419   4.576   5.503
 4863SOL     OW15487   4.453   1.701   2.897
 4863SOL    HW115488   4.539   1.751   2.909
 4863SOL    HW215489   4.393   1.752   2.837
 4864SOL     OW15490   3.184   1.351   1.648
 4864SOL    HW115491   3.116   1.410   1.603
 4864SOL    HW215492   3.137   1.280   1.700
 4865SOL     OW15493   3.763   5.751   5.204
 4865SOL    HW115494   3.810   5.691   5.139
 4865SOL    HW215495   3.789   5.846   5.187
 4866SOL     OW15496   6.530   4.850   1.099
 4866SOL    HW115497   6.489   4.809   1.018
 4866SOL    HW215498   6.550   4.947   1.082
 4867SOL     OW15499   5.078   5.661   2.841
 4867SOL    HW115500   5.087   5.621   2.749
 4867SOL    HW215501   5.121   5.751   2.842
 4868SOL     OW15502   0.647   5.723   1.299
 4868SOL    HW115503   0.661   5.650   1.232
 4868SOL    HW215504   0.550   5.727   1.324
 4869SOL     OW15505   6.584   0.980   0.476
 4869SOL    HW115506   6.505   0.952   0.423
 4869SOL    HW215507   6.554   1.026   0.560
 4870SOL     OW15508   5.977   6.410   2.557
 4870SOL    HW115509   6.025   6.473   2.495
 4870SOL    HW215510   6.029   6.325   2.566
 4871SOL     OW15511   1.322   3.361   4.322
 4871SOL    HW115512   1.228   3.334   4.302
 4871SOL    HW215513   1.378   3.349   4.240
 4872SOL     OW15514   1.232   0.865   2.659
 4872SOL    HW115515   1.205   0.829   2.570
 4872SOL    HW215516   1.169   0.938   2.686
 4873SOL     OW15517   0.162   5.794   5.617
 4873SOL    HW115518   0.189   5.699   5.632
 4873SOL    HW215519   0.079   5.797   5.562
 4874SOL     OW15520   5.396   3.569   3.194
 4874SOL    HW115521   5.346   3.648   3.160
 4874SOL    HW215522   5.333   3.510   3.246
 4875SOL     OW15523   5.902   2.415   6.924
 4875SOL    HW115524   5.939   2.383   7.011
 4875SOL    HW215525   5.872   2.510   6.933
 4876SOL     OW15526   0.340   1.484   6.623
 4876SOL    HW115527   0.339   1.553   6.695
 4876SOL    HW215528   0.427   1.487   6.575
 4877SOL     OW15529   6.414   1.315   1.323
 4877SOL    HW115530   6.473   1.369   1.263
 4877SOL    HW215531   6.465   1.289   1.405
 4878SOL     OW15532   0.066   1.983   1.931
 4878SOL    HW115533   0.143   1.919   1.923
 4878SOL    HW215534   7.013   1.941   1.986
 4879SOL     OW15535   4.251   5.142   3.583
 4879SOL    HW115536   4.281   5.090   3.504
 4879SOL    HW215537   4.315   5.217   3.599
 4880SOL     OW15538   5.557   1.769   5.685
 4880SOL    HW115539   5.555   1.787   5.587
 4880SOL    HW215540   5.476   1.808   5.728
 4881SOL     OW15541   3.634   6.429   6.480
 4881SOL    HW115542   3.621   6.331   6.495
 4881SOL    HW215543   3.732   6.450   6.481
 4882SOL     OW15544   5.660   0.328   5.524
 4882SOL    HW115545   5.634   0.353   5.617
 4882SOL    HW215546   5.589   0.358   5.461
 4883SOL     OW15547   0.171   5.242   1.866
 4883SOL    HW115548   0.091   5.285   1.825
 4883SOL    HW215549   0.252   5.297   1.847
 4884SOL     OW15550   3.063   6.445   1.561
 4884SOL    HW115551   3.130   6.452   1.635
 4884SOL    HW215552   3.087   6.369   1.501
 4885SOL     OW15553   1.705   0.042   1.756
 4885SOL    HW115554   1.762   0.118   1.788
 4885SOL    HW215555   1.756   7.006   1.690
 4886SOL     OW15556   6.504   0.451   6.647
 4886SOL    HW115557   6.479   0.547   6.652
 4886SOL    HW215558   6.470   0.412   6.561
 4887SOL     OW15559   0.712   2.005   3.887
 4887SOL    HW115560   0.644   1.932   3.881
 4887SOL    HW215561   0.681   2.083   3.832
 4888SOL     OW15562   2.677   5.392   2.960
 4888SOL    HW115563   2.645   5.474   3.008
 4888SOL    HW215564   2.727   5.419   2.878
 4889SOL     OW15565   0.973   2.079   0.203
 4889SOL    HW115566   0.967   2.020   0.123
 4889SOL    HW215567   1.067   2.112   0.214
 4890SOL     OW15568   1.326   0.658   4.770
 4890SOL    HW115569   1.346   0.618   4.859
 4890SOL    HW215570   1.393   0.626   4.702
 4891SOL     OW15571   1.004   4.825   0.319
 4891SOL    HW115572   0.976   4.878   0.239
 4891SOL    HW215573   0.963   4.734   0.315
 4892SOL     OW15574   1.054   5.312   0.801
 4892SOL    HW115575   0.963   5.345   0.775
 4892SOL    HW215576   1.054   5.212   0.802
 4893SOL     OW15577   0.402   3.571   6.359
 4893SOL    HW115578   0.500   3.593   6.368
 4893SOL    HW215579   0.392   3.478   6.324
 4894SOL     OW15580   2.663   1.009   3.338
 4894SOL    HW115581   2.632   1.036   3.246
 4894SOL    HW215582   2.693   1.091   3.388
 4895SOL     OW15583   0.850   3.545   0.067
 4895SOL    HW115584   0.849   3.564   0.165
 4895SOL    HW215585   0.759   3.516   0.037
 4896SOL     OW15586   3.832   5.381   4.911
 4896SOL    HW115587   3.854   5.475   4.885
 4896SOL    HW215588   3.877   5.359   4.997
 4897SOL     OW15589   3.435   5.623   6.407
 4897SOL    HW115590   3.337   5.640   6.415
 4897SOL    HW215591   3.460   5.544   6.465
 4898SOL     OW15592   5.499   2.000   5.226
 4898SOL    HW115593   5.535   2.083   5.268
 4898SOL    HW215594   5.572   1.953   5.176
 4899SOL     OW15595   5.861   3.959   4.081
 4899SOL    HW115596   5.773   3.946   4.036
 4899SOL    HW215597   5.932   3.909   4.031
 4900SOL     OW15598   1.002   6.796   5.476
 4900SOL    HW115599   1.088   6.754   5.506
 4900SOL    HW215600   0.938   6.798   5.553
 4901SOL     OW15601   0.746   0.186   4.042
 4901SOL    HW115602   0.728   0.173   4.139
 4901SOL    HW215603   0.719   0.104   3.991
 4902SOL     OW15604   2.421   4.787   1.760
 4902SOL    HW115605   2.477   4.705   1.775
 4902SOL    HW215606   2.352   4.769   1.691
 4903SOL     OW15607   4.754   0.211   6.726
 4903SOL    HW115608   4.658   0.238   6.716
 4903SOL    HW215609   4.812   0.275   6.676
 4904SOL     OW15610   2.584   5.840   3.743
 4904SOL    HW115611   2.683   5.835   3.732
 4904SOL    HW215612   2.554   5.772   3.811
 4905SOL     OW15613   5.425   3.639   1.981
 4905SOL    HW115614   5.369   3.574   1.930
 4905SOL    HW215615   5.476   3.591   2.052
 4906SOL     OW15616   5.160   0.532   0.617
 4906SOL    HW115617   5.124   0.508   0.528
 4906SOL    HW215618   5.124   0.621   0.645
 4907SOL     OW15619   3.317   0.774   2.562
 4907SOL    HW115620   3.354   0.770   2.655
 4907SOL    HW215621   3.382   0.819   2.501
 4908SOL     OW15622   3.040   5.888   6.531
 4908SOL    HW115623   3.076   5.802   6.496
 4908SOL    HW215624   3.113   5.941   6.573
 4909SOL     OW15625   0.098   6.733   5.110
 4909SOL    HW115626   0.106   6.634   5.121
 4909SOL    HW215627   0.129   6.759   5.019
 4910SOL     OW15628   5.597   6.797   4.968
 4910SOL    HW115629   5.538   6.876   4.989
 4910SOL    HW215630   5.693   6.824   4.978
 4911SOL     OW15631   6.775   2.539   6.225
 4911SOL    HW115632   6.727   2.489   6.152
 4911SOL    HW215633   6.863   2.495   6.242
 4912SOL     OW15634   2.538   2.164   2.299
 4912SOL    HW115635   2.448   2.201   2.322
 4912SOL    HW215636   2.576   2.216   2.222
 4913SOL     OW15637   2.865   3.650   3.349
 4913SOL    HW115638   2.925   3.672   3.426
 4913SOL    HW215639   2.812   3.731   3.324
 4914SOL     OW15640   2.114   6.548   3.549
 4914SOL    HW115641   2.113   6.530   3.647
 4914SOL    HW215642   2.063   6.632   3.530
 4915SOL     OW15643   3.071   5.766   3.796
 4915SOL    HW115644   3.106   5.798   3.708
 4915SOL    HW215645   3.106   5.825   3.869
 4916SOL     OW15646   2.459   1.347   2.335
 4916SOL    HW115647   2.397   1.419   2.366
 4916SOL    HW215648   2.478   1.358   2.238
 4917SOL     OW15649   1.908   5.191   0.756
 4917SOL    HW115650   1.872   5.099   0.737
 4917SOL    HW215651   1.925   5.200   0.855
 4918SOL     OW15652   2.528   0.142   1.819
 4918SOL    HW115653   2.484   0.221   1.864
 4918SOL    HW215654   2.528   0.064   1.882
 4919SOL     OW15655   2.444   2.584   2.082
 4919SOL    HW115656   2.374   2.654   2.069
 4919SOL    HW215657   2.485   2.561   1.994
 4920SOL     OW15658   4.333   0.949   0.327
 4920SOL    HW115659   4.398   0.902   0.267
 4920SOL    HW215660   4.267   0.883   0.363
 4921SOL     OW15661   1.412   4.858   1.648
 4921SOL    HW115662   1.393   4.760   1.655
 4921SOL    HW215663   1.474   4.874   1.571
 4922SOL     OW15664   1.783   2.721   5.451
 4922SOL    HW115665   1.753   2.652   5.386
 4922SOL    HW215666   1.878   2.747   5.431
 4923SOL     OW15667   4.853   1.174   1.008
 4923SOL    HW115668   4.804   1.233   0.944
 4923SOL    HW215669   4.919   1.228   1.060
 4924SOL     OW15670   0.399   3.926   4.872
 4924SOL    HW115671   0.498   3.923   4.889
 4924SOL    HW215672   0.359   4.003   4.921
 4925SOL     OW15673   4.656   6.132   0.050
 4925SOL    HW115674   4.737   6.168   0.096
 4925SOL    HW215675   4.638   6.185   6.986
 4926SOL     OW15676   4.714   2.530   1.875
 4926SOL    HW115677   4.625   2.564   1.844
 4926SOL    HW215678   4.772   2.513   1.795
 4927SOL     OW15679   3.576   3.088   3.231
 4927SOL    HW115680   3.598   3.024   3.306
 4927SOL    HW215681   3.566   3.037   3.146
 4928SOL     OW15682   0.524   5.961   6.809
 4928SOL    HW115683   0.558   5.868   6.801
 4928SOL    HW215684   0.575   6.010   6.880
 4929SOL     OW15685   0.958   5.263   4.083
 4929SOL    HW115686   1.048   5.224   4.060
 4929SOL    HW215687   0.898   5.257   4.003
 4930SOL     OW15688   0.408   2.444   0.862
 4930SOL    HW115689   0.444   2.352   0.842
 4930SOL    HW215690   0.421   2.503   0.782
 4931SOL     OW15691   6.848   0.602   0.283
 4931SOL    HW115692   6.883   0.677   0.338
 4931SOL    HW215693   6.750   0.615   0.267
 4932SOL     OW15694   2.870   2.135   1.571
 4932SOL    HW115695   2.792   2.197   1.577
 4932SOL    HW215696   2.945   2.171   1.626
 4933SOL     OW15697   3.023   0.669   4.173
 4933SOL    HW115698   3.004   0.657   4.270
 4933SOL    HW215699   3.077   0.752   4.159
 4934SOL     OW15700   0.990   6.068   4.472
 4934SOL    HW115701   0.964   5.985   4.522
 4934SOL    HW215702   0.944   6.147   4.514
 4935SOL     OW15703   1.362   1.111   0.601
 4935SOL    HW115704   1.386   1.091   0.696
 4935SOL    HW215705   1.348   1.209   0.590
 4936SOL     OW15706   3.998   5.587   0.713
 4936SOL    HW115707   4.032   5.680   0.732
 4936SOL    HW215708   3.913   5.593   0.661
 4937SOL     OW15709   0.724   2.962   6.148
 4937SOL    HW115710   0.743   2.872   6.108
 4937SOL    HW215711   0.632   2.963   6.186
 4938SOL     OW15712   3.625   4.619   1.453
 4938SOL    HW115713   3.600   4.660   1.541
 4938SOL    HW215714   3.568   4.658   1.381
 4939SOL     OW15715   1.801   1.668   2.089
 4939SOL    HW115716   1.857   1.616   2.024
 4939SOL    HW215717   1.726   1.712   2.040
 4940SOL     OW15718   0.421   2.279   4.954
 4940SOL    HW115719   0.490   2.313   4.889
 4940SOL    HW215720   0.333   2.270   4.908
 4941SOL     OW15721   3.914   2.152   5.416
 4941SOL    HW115722   3.946   2.246   5.401
 4941SOL    HW215723   3.993   2.091   5.420
 4942SOL     OW15724   6.257   1.925   4.110
 4942SOL    HW115725   6.211   1.843   4.077
 4942SOL    HW215726   6.294   1.976   4.033
 4943SOL     OW15727   5.723   3.063   6.535
 4943SOL    HW115728   5.769   3.005   6.602
 4943SOL    HW215729   5.778   3.068   6.452
 4944SOL     OW15730   1.623   5.520   1.105
 4944SOL    HW115731   1.535   5.505   1.060
 4944SOL    HW215732   1.610   5.522   1.204
 4945SOL     OW15733   1.970   1.253   4.761
 4945SOL    HW115734   1.953   1.334   4.705
 4945SOL    HW215735   1.887   1.228   4.810
 4946SOL     OW15736   2.061   5.377   6.805
 4946SOL    HW115737   1.990   5.448   6.805
 4946SOL    HW215738   2.018   5.287   6.800
 4947SOL     OW15739   1.606   0.833   1.820
 4947SOL    HW115740   1.516   0.793   1.802
 4947SOL    HW215741   1.643   0.795   1.905
 4948SOL     OW15742   1.373   2.551   1.790
 4948SOL    HW115743   1.342   2.508   1.705
 4948SOL    HW215744   1.300   2.547   1.858
 4949SOL     OW15745   6.830   4.051   0.511
 4949SOL    HW115746   6.749   4.006   0.474
 4949SOL    HW215747   6.849   4.134   0.460
 4950SOL     OW15748   2.126   3.902   5.216
 4950SOL    HW115749   2.046   3.958   5.198
 4950SOL    HW215750   2.208   3.959   5.213
 4951SOL     OW15751   4.854   5.445   3.669
 4951SOL    HW115752   4.875   5.347   3.666
 4951SOL    HW215753   4.928   5.494   3.715
 4952SOL     OW15754   0.591   6.767   6.002
 4952SOL    HW115755   0.582   6.867   6.007
 4952SOL    HW215756   0.574   6.736   5.909
 4953SOL     OW15757   0.602   2.383   4.763
 4953SOL    HW115758   0.693   2.422   4.770
 4953SOL    HW215759   0.605   2.302   4.704
 4954SOL     OW15760   3.084   4.072   4.886
 4954SOL    HW115761   3.020   4.148   4.886
 4954SOL    HW215762   3.152   4.084   4.959
 4955SOL     OW15763   3.376   5.390   6.885
 4955SOL    HW115764   3.306   5.389   6.957
 4955SOL    HW215765   3.465   5.407   6.926
 4956SOL     OW15766   2.670   6.798   4.836
 4956SOL    HW115767   2.667   6.898   4.844
 4956SOL    HW215768   2.593   6.767   4.781
 4957SOL     OW15769   5.864   4.315   0.350
 4957SOL    HW115770   5.882   4.412   0.364
 4957SOL    HW215771   5.773   4.304   0.310
 4958SOL     OW15772   3.016   6.242   0.160
 4958SOL    HW115773   3.007   6.334   0.199
 4958SOL    HW215774   3.024   6.249   0.060
 4959SOL     OW15775   0.793   3.297   2.626
 4959SOL    HW115776   0.801   3.397   2.619
 4959SOL    HW215777   0.743   3.273   2.709
 4960SOL     OW15778   4.051   5.836   4.262
 4960SOL    HW115779   4.104   5.921   4.271
 4960SOL    HW215780   4.088   5.768   4.326
 4961SOL     OW15781   4.014   1.155   0.355
 4961SOL    HW115782   4.094   1.152   0.415
 4961SOL    HW215783   3.953   1.078   0.377
 4962SOL     OW15784   1.226   4.488   0.971
 4962SOL    HW115785   1.260   4.582   0.977
 4962SOL    HW215786   1.208   4.466   0.875
 4963SOL     OW15787   0.925   3.937   5.970
 4963SOL    HW115788   0.957   4.023   6.009
 4963SOL    HW215789   0.825   3.933   5.975
 4964SOL     OW15790   2.926   0.051   4.430
 4964SOL    HW115791   2.931   6.980   4.473
 4964SOL    HW215792   2.904   0.120   4.500
 4965SOL     OW15793   1.680   6.308   2.902
 4965SOL    HW115794   1.679   6.340   2.807
 4965SOL    HW215795   1.594   6.331   2.946
 4966SOL     OW15796   3.550   6.109   4.601
 4966SOL    HW115797   3.547   6.025   4.656
 4966SOL    HW215798   3.482   6.104   4.528
 4967SOL     OW15799   4.304   4.768   4.916
 4967SOL    HW115800   4.349   4.835   4.975
 4967SOL    HW215801   4.344   4.678   4.931
 4968SOL     OW15802   6.704   1.827   3.135
 4968SOL    HW115803   6.698   1.741   3.187
 4968SOL    HW215804   6.766   1.890   3.182
 4969SOL     OW15805   0.610   6.165   2.995
 4969SOL    HW115806   0.513   6.155   3.016
 4969SOL    HW215807   0.656   6.216   3.068
 4970SOL     OW15808   1.419   1.564   1.829
 4970SOL    HW115809   1.402   1.534   1.735
 4970SOL    HW215810   1.479   1.498   1.875
 4971SOL     OW15811   6.883   6.273   3.088
 4971SOL    HW115812   6.789   6.243   3.106
 4971SOL    HW215813   6.901   6.358   3.136
 4972SOL     OW15814   1.678   4.448   1.311
 4972SOL    HW115815   1.653   4.454   1.214
 4972SOL    HW215816   1.644   4.363   1.350
 4973SOL     OW15817   6.680   0.660   0.976
 4973SOL    HW115818   6.713   0.617   0.891
 4973SOL    HW215819   6.755   0.710   1.019
 4974SOL     OW15820   3.799   5.228   5.224
 4974SOL    HW115821   3.758   5.142   5.196
 4974SOL    HW215822   3.891   5.235   5.186
 4975SOL     OW15823   5.922   3.739   0.385
 4975SOL    HW115824   5.956   3.816   0.330
 4975SOL    HW215825   5.899   3.772   0.476
 4976SOL     OW15826   1.773   6.786   4.254
 4976SOL    HW115827   1.721   6.872   4.255
 4976SOL    HW215828   1.819   6.774   4.342
 4977SOL     OW15829   2.546   4.720   6.401
 4977SOL    HW115830   2.573   4.683   6.489
 4977SOL    HW215831   2.497   4.807   6.414
 4978SOL     OW15832   5.045   4.514   5.106
 4978SOL    HW115833   4.962   4.461   5.124
 4978SOL    HW215834   5.123   4.452   5.097
 4979SOL     OW15835   1.949   6.597   6.459
 4979SOL    HW115836   2.044   6.568   6.467
 4979SOL    HW215837   1.890   6.517   6.446
 4980SOL     OW15838   6.043   3.720   3.085
 4980SOL    HW115839   6.018   3.756   2.995
 4980SOL    HW215840   6.143   3.719   3.094
 4981SOL     OW15841   3.721   4.957   1.826
 4981SOL    HW115842   3.778   4.960   1.744
 4981SOL    HW215843   3.665   4.874   1.825
 4982SOL     OW15844   4.670   1.479   6.545
 4982SOL    HW115845   4.597   1.464   6.479
 4982SOL    HW215846   4.731   1.399   6.546
 4983SOL     OW15847   6.967   5.371   3.430
 4983SOL    HW115848   0.034   5.417   3.407
 4983SOL    HW215849   6.975   5.274   3.409
 4984SOL     OW15850   5.370   4.410   3.055
 4984SOL    HW115851   5.355   4.380   2.961
 4984SOL    HW215852   5.466   4.398   3.079
 4985SOL     OW15853   5.930   6.103   2.916
 4985SOL    HW115854   5.842   6.066   2.886
 4985SOL    HW215855   5.924   6.129   3.013
 4986SOL     OW15856   1.120   4.914   2.831
 4986SOL    HW115857   1.136   4.912   2.930
 4986SOL    HW215858   1.174   4.987   2.790
 4987SOL     OW15859   0.640   0.945   2.114
 4987SOL    HW115860   0.606   1.025   2.164
 4987SOL    HW215861   0.582   0.866   2.136
 4988SOL     OW15862   5.853   0.390   3.530
 4988SOL    HW115863   5.813   0.300   3.543
 4988SOL    HW215864   5.902   0.392   3.443
 4989SOL     OW15865   4.235   1.011   2.761
 4989SOL    HW115866   4.227   1.043   2.855
 4989SOL    HW215867   4.258   0.913   2.762
 4990SOL     OW15868   4.430   1.917   5.385
 4990SOL    HW115869   4.423   1.982   5.460
 4990SOL    HW215870   4.521   1.874   5.386
 4991SOL     OW15871   1.188   5.297   4.890
 4991SOL    HW115872   1.169   5.394   4.903
 4991SOL    HW215873   1.102   5.248   4.874
 4992SOL     OW15874   0.031   1.540   3.601
 4992SOL    HW115875   6.975   1.500   3.548
 4992SOL    HW215876   0.103   1.472   3.613
 4993SOL     OW15877   4.087   6.837   4.510
 4993SOL    HW115878   4.151   6.900   4.554
 4993SOL    HW215879   4.021   6.804   4.578
 4994SOL     OW15880   3.081   5.054   5.718
 4994SOL    HW115881   3.035   5.071   5.805
 4994SOL    HW215882   3.122   5.139   5.685
 4995SOL     OW15883   0.957   0.221   5.373
 4995SOL    HW115884   1.012   0.146   5.337
 4995SOL    HW215885   0.864   0.189   5.392
 4996SOL     OW15886   6.807   1.259   4.701
 4996SOL    HW115887   6.768   1.350   4.718
 4996SOL    HW215888   6.735   1.198   4.667
 4997SOL     OW15889   3.380   2.374   1.074
 4997SOL    HW115890   3.303   2.309   1.072
 4997SOL    HW215891   3.409   2.388   1.168
 4998SOL     OW15892   1.186   3.167   4.034
 4998SOL    HW115893   1.249   3.108   3.984
 4998SOL    HW215894   1.211   3.169   4.130
 4999SOL     OW15895   0.587   3.645   4.710
 4999SOL    HW115896   0.494   3.615   4.732
 4999SOL    HW215897   0.626   3.691   4.789
 5000SOL     OW15898   3.068   5.392   3.452
 5000SOL    HW115899   2.969   5.389   3.465
 5000SOL    HW215900   3.103   5.480   3.484
 5001SOL     OW15901   0.876   5.039   2.854
 5001SOL    HW115902   0.923   4.951   2.857
 5001SOL    HW215903   0.934   5.109   2.897
 5002SOL     OW15904   0.559   3.737   3.008
 5002SOL    HW115905   0.628   3.676   3.045
 5002SOL    HW215906   0.495   3.685   2.952
 5003SOL     OW15907   4.596   6.537   3.701
 5003SOL    HW115908   4.602   6.630   3.739
 5003SOL    HW215909   4.522   6.534   3.634
 5004SOL     OW15910   2.522   5.825   6.407
 5004SOL    HW115911   2.527   5.925   6.403
 5004SOL    HW215912   2.433   5.797   6.443
 5005SOL     OW15913   3.055   2.581   6.346
 5005SOL    HW115914   3.098   2.543   6.428
 5005SOL    HW215915   3.113   2.653   6.307
 5006SOL     OW15916   5.599   1.973   1.908
 5006SOL    HW115917   5.505   1.952   1.934
 5006SOL    HW215918   5.610   2.073   1.902
 5007SOL     OW15919   6.012   7.003   1.704
 5007SOL    HW115920   6.005   0.084   1.692
 5007SOL    HW215921   6.103   6.973   1.673
 5008SOL     OW15922   6.103   6.507   1.669
 5008SOL    HW115923   6.062   6.504   1.760
 5008SOL    HW215924   6.060   6.580   1.616
 5009SOL     OW15925   0.854   2.657   0.289
 5009SOL    HW115926   0.755   2.662   0.279
 5009SOL    HW215927   0.877   2.595   0.364
 5010SOL     OW15928   3.575   3.354   0.499
 5010SOL    HW115929   3.590   3.269   0.550
 5010SOL    HW215930   3.499   3.405   0.539
 5011SOL     OW15931   1.935   4.082   6.822
 5011SOL    HW115932   2.026   4.049   6.846
 5011SOL    HW215933   1.888   4.013   6.767
 5012SOL     OW15934   5.952   1.530   5.087
 5012SOL    HW115935   5.938   1.571   5.177
 5012SOL    HW215936   6.023   1.581   5.037
 5013SOL     OW15937   5.782   0.212   5.747
 5013SOL    HW115938   5.814   0.233   5.655
 5013SOL    HW215939   5.692   0.168   5.742
 5014SOL     OW15940   6.448   3.515   1.672
 5014SOL    HW115941   6.512   3.462   1.726
 5014SOL    HW215942   6.462   3.496   1.575
 5015SOL     OW15943   5.477   6.687   3.661
 5015SOL    HW115944   5.411   6.677   3.735
 5015SOL    HW215945   5.540   6.610   3.662
 5016SOL     OW15946   1.756   3.283   4.880
 5016SOL    HW115947   1.793   3.375   4.886
 5016SOL    HW215948   1.703   3.274   4.796
 5017SOL     OW15949   0.422   2.596   1.311
 5017SOL    HW115950   0.367   2.563   1.387
 5017SOL    HW215951   0.410   2.694   1.300
 5018SOL     OW15952   0.751   6.119   1.625
 5018SOL    HW115953   0.655   6.141   1.643
 5018SOL    HW215954   0.768   6.123   1.526
 5019SOL     OW15955   1.244   5.231   5.336
 5019SOL    HW115956   1.316   5.254   5.270
 5019SOL    HW215957   1.156   5.264   5.301
 5020SOL     OW15958   0.928   6.883   4.335
 5020SOL    HW115959   0.957   6.791   4.309
 5020SOL    HW215960   0.840   6.878   4.383
 5021SOL     OW15961   1.837   0.785   1.136
 5021SOL    HW115962   1.741   0.758   1.122
 5021SOL    HW215963   1.847   0.825   1.227
 5022SOL     OW15964   0.521   3.330   1.253
 5022SOL    HW115965   0.535   3.242   1.207
 5022SOL    HW215966   0.444   3.323   1.316
 5023SOL     OW15967   0.453   4.320   2.301
 5023SOL    HW115968   0.365   4.292   2.339
 5023SOL    HW215969   0.488   4.248   2.241
 5024SOL     OW15970   5.452   3.954   1.392
 5024SOL    HW115971   5.461   3.878   1.328
 5024SOL    HW215972   5.356   3.976   1.406
 5025SOL     OW15973   3.998   1.229   3.323
 5025SOL    HW115974   4.031   1.170   3.396
 5025SOL    HW215975   3.991   1.323   3.356
 5026SOL     OW15976   5.969   6.082   5.250
 5026SOL    HW115977   5.997   6.177   5.232
 5026SOL    HW215978   5.969   6.066   5.349
 5027SOL     OW15979   5.199   1.043   6.885
 5027SOL    HW115980   5.200   0.965   6.947
 5027SOL    HW215981   5.244   1.017   6.799
 5028SOL     OW15982   0.345   2.753   2.732
 5028SOL    HW115983   0.255   2.798   2.732
 5028SOL    HW215984   0.381   2.751   2.825
 5029SOL     OW15985   6.488   2.288   2.288
 5029SOL    HW115986   6.462   2.360   2.351
 5029SOL    HW215987   6.519   2.328   2.202
 5030SOL     OW15988   6.925   5.220   0.008
 5030SOL    HW115989   7.013   5.195   6.988
 5030SOL    HW215990   6.911   5.319   7.017
 5031SOL     OW15991   6.834   0.439   5.573
 5031SOL    HW115992   6.814   0.468   5.480
 5031SOL    HW215993   6.761   0.380   5.607
 5032SOL     OW15994   3.750   2.654   5.351
 5032SOL    HW115995   3.669   2.678   5.298
 5032SOL    HW215996   3.827   2.712   5.322
 5033SOL     OW15997   2.134   1.297   0.583
 5033SOL    HW115998   2.059   1.362   0.591
 5033SOL    HW215999   2.128   1.230   0.657
 5034SOL     OW16000   4.819   5.937   3.844
 5034SOL    HW116001   4.799   5.841   3.827
 5034SOL    HW216002   4.761   5.970   3.919
 5035SOL     OW16003   0.504   4.258   4.549
 5035SOL    HW116004   0.476   4.283   4.457
 5035SOL    HW216005   0.436   4.197   4.590
 5036SOL     OW16006   6.589   3.396   5.256
 5036SOL    HW116007   6.651   3.433   5.187
 5036SOL    HW216008   6.513   3.459   5.270
 5037SOL     OW16009   4.288   4.320   1.118
 5037SOL    HW116010   4.263   4.226   1.142
 5037SOL    HW216011   4.263   4.338   1.023
 5038SOL     OW16012   3.153   3.381   4.012
 5038SOL    HW116013   3.181   3.436   4.091
 5038SOL    HW216014   3.229   3.378   3.946
 5039SOL     OW16015   1.911   2.901   6.529
 5039SOL    HW116016   1.904   2.811   6.487
 5039SOL    HW216017   2.007   2.930   6.532
 5040SOL     OW16018   1.142   5.367   5.986
 5040SOL    HW116019   1.215   5.433   5.998
 5040SOL    HW216020   1.124   5.321   6.074
 5041SOL     OW16021   0.312   3.278   2.247
 5041SOL    HW116022   0.405   3.245   2.268
 5041SOL    HW216023   0.317   3.370   2.209
 5042SOL     OW16024   6.953   3.342   5.967
 5042SOL    HW116025   6.876   3.377   5.913
 5042SOL    HW216026   0.012   3.327   5.906
 5043SOL     OW16027   4.344   0.755   0.698
 5043SOL    HW116028   4.364   0.814   0.776
 5043SOL    HW216029   4.253   0.715   0.708
 5044SOL     OW16030   6.958   5.418   0.323
 5044SOL    HW116031   6.892   5.487   0.351
 5044SOL    HW216032   0.024   5.429   0.377
 5045SOL     OW16033   5.843   3.892   6.367
 5045SOL    HW116034   5.834   3.931   6.459
 5045SOL    HW216035   5.812   3.958   6.299
 5046SOL     OW16036   3.534   3.136   3.849
 5046SOL    HW116037   3.561   3.114   3.942
 5046SOL    HW216038   3.599   3.095   3.784
 5047SOL     OW16039   1.813   3.689   3.111
 5047SOL    HW116040   1.754   3.739   3.047
 5047SOL    HW216041   1.810   3.591   3.090
 5048SOL     OW16042   1.411   1.365   5.843
 5048SOL    HW116043   1.355   1.339   5.765
 5048SOL    HW216044   1.430   1.284   5.899
 5049SOL     OW16045   6.191   0.764   6.142
 5049SOL    HW116046   6.183   0.846   6.084
 5049SOL    HW216047   6.175   0.683   6.086
 5050SOL     OW16048   1.834   0.910   0.534
 5050SOL    HW116049   1.928   0.919   0.500
 5050SOL    HW216050   1.775   0.974   0.485
 5051SOL     OW16051   3.780   4.838   1.352
 5051SOL    HW116052   3.746   4.750   1.386
 5051SOL    HW216053   3.825   4.824   1.264
 5052SOL     OW16054   3.119   1.719   5.410
 5052SOL    HW116055   3.140   1.754   5.501
 5052SOL    HW216056   3.036   1.664   5.413
 5053SOL     OW16057   0.394   5.243   2.583
 5053SOL    HW116058   0.422   5.190   2.503
 5053SOL    HW216059   0.425   5.337   2.572
 5054SOL     OW16060   4.079   4.745   5.240
 5054SOL    HW116061   4.059   4.827   5.294
 5054SOL    HW216062   4.033   4.666   5.280
 5055SOL     OW16063   6.366   3.234   6.308
 5055SOL    HW116064   6.382   3.184   6.393
 5055SOL    HW216065   6.274   3.274   6.310
 5056SOL     OW16066   4.885   3.692   5.318
 5056SOL    HW116067   4.818   3.659   5.251
 5056SOL    HW216068   4.940   3.615   5.351
 5057SOL     OW16069   1.150   6.433   2.269
 5057SOL    HW116070   1.057   6.461   2.246
 5057SOL    HW216071   1.211   6.450   2.191
 5058SOL     OW16072   2.889   4.659   6.757
 5058SOL    HW116073   2.811   4.607   6.721
 5058SOL    HW216074   2.974   4.624   6.718
 5059SOL     OW16075   0.741   0.780   2.805
 5059SOL    HW116076   0.818   0.726   2.836
 5059SOL    HW216077   0.688   0.728   2.738
 5060SOL     OW16078   5.986   1.849   6.196
 5060SOL    HW116079   5.999   1.915   6.122
 5060SOL    HW216080   5.897   1.805   6.186
 5061SOL     OW16081   4.763   3.513   0.439
 5061SOL    HW116082   4.696   3.544   0.371
 5061SOL    HW216083   4.715   3.475   0.518
 5062SOL     OW16084   0.122   0.138   1.268
 5062SOL    HW116085   0.047   0.193   1.230
 5062SOL    HW216086   0.103   0.118   1.364
 5063SOL     OW16087   0.994   6.816   2.279
 5063SOL    HW116088   0.912   6.804   2.222
 5063SOL    HW216089   1.021   6.913   2.278
 5064SOL     OW16090   4.534   3.150   0.579
 5064SOL    HW116091   4.564   3.228   0.634
 5064SOL    HW216092   4.602   3.077   0.582
 5065SOL     OW16093   2.751   6.471   5.573
 5065SOL    HW116094   2.658   6.439   5.587
 5065SOL    HW216095   2.807   6.447   5.653
 5066SOL     OW16096   5.815   4.777   1.670
 5066SOL    HW116097   5.721   4.744   1.661
 5066SOL    HW216098   5.873   4.734   1.601
 5067SOL     OW16099   5.024   0.758   0.619
 5067SOL    HW116100   4.948   0.693   0.622
 5067SOL    HW216101   5.000   0.839   0.672
 5068SOL     OW16102   3.005   4.688   0.172
 5068SOL    HW116103   3.095   4.647   0.158
 5068SOL    HW216104   2.938   4.642   0.114
 5069SOL     OW16105   0.765   4.723   2.966
 5069SOL    HW116106   0.748   4.632   3.004
 5069SOL    HW216107   0.809   4.714   2.877
 5070SOL     OW16108   4.881   3.229   3.868
 5070SOL    HW116109   4.815   3.209   3.795
 5070SOL    HW216110   4.890   3.148   3.927
 5071SOL     OW16111   4.452   2.071   5.606
 5071SOL    HW116112   4.506   2.129   5.666
 5071SOL    HW216113   4.358   2.105   5.602
 5072SOL     OW16114   0.308   4.374   1.099
 5072SOL    HW116115   0.343   4.311   1.167
 5072SOL    HW216116   0.375   4.446   1.082
 5073SOL     OW16117   6.054   0.070   2.073
 5073SOL    HW116118   6.120   0.136   2.110
 5073SOL    HW216119   6.097   0.018   2.000
 5074SOL     OW16120   2.815   4.150   6.569
 5074SOL    HW116121   2.760   4.163   6.486
 5074SOL    HW216122   2.874   4.070   6.558
 5075SOL     OW16123   0.352   5.223   4.985
 5075SOL    HW116124   0.415   5.159   4.941
 5075SOL    HW216125   0.376   5.234   5.081
 5076SOL     OW16126   3.137   0.938   0.850
 5076SOL    HW116127   3.175   0.847   0.865
 5076SOL    HW216128   3.174   1.003   0.916
 5077SOL     OW16129   1.491   2.870   3.517
 5077SOL    HW116130   1.419   2.805   3.543
 5077SOL    HW216131   1.521   2.850   3.423
 5078SOL     OW16132   1.478   2.064   4.486
 5078SOL    HW116133   1.537   1.983   4.490
 5078SOL    HW216134   1.505   2.128   4.557
 5079SOL     OW16135   3.499   4.953   5.544
 5079SOL    HW116136   3.545   5.038   5.521
 5079SOL    HW216137   3.407   4.953   5.504
 5080SOL     OW16138   5.480   6.369   5.497
 5080SOL    HW116139   5.430   6.284   5.517
 5080SOL    HW216140   5.573   6.346   5.468
 5081SOL     OW16141   3.539   3.504   3.198
 5081SOL    HW116142   3.588   3.488   3.112
 5081SOL    HW216143   3.475   3.580   3.186
 5082SOL     OW16144   5.369   5.870   6.018
 5082SOL    HW116145   5.304   5.863   6.094
 5082SOL    HW216146   5.459   5.895   6.054
 5083SOL     OW16147   1.813   6.723   2.102
 5083SOL    HW116148   1.877   6.690   2.171
 5083SOL    HW216149   1.837   6.687   2.012
 5084SOL     OW16150   1.173   5.891   4.089
 5084SOL    HW116151   1.110   5.851   4.155
 5084SOL    HW216152   1.152   5.988   4.075
 5085SOL     OW16153   5.755   1.560   6.399
 5085SOL    HW116154   5.847   1.544   6.437
 5085SOL    HW216155   5.709   1.630   6.454
 5086SOL     OW16156   6.490   4.469   4.067
 5086SOL    HW116157   6.416   4.456   4.000
 5086SOL    HW216158   6.452   4.460   4.159
 5087SOL     OW16159   6.724   5.745   4.998
 5087SOL    HW116160   6.688   5.700   4.917
 5087SOL    HW216161   6.665   5.823   5.022
 5088SOL     OW16162   6.183   0.520   6.023
 5088SOL    HW116163   6.098   0.472   6.002
 5088SOL    HW216164   6.251   0.454   6.054
 5089SOL     OW16165   5.815   3.525   2.768
 5089SOL    HW116166   5.828   3.518   2.669
 5089SOL    HW216167   5.740   3.465   2.796
 5090SOL     OW16168   1.733   5.045   1.641
 5090SOL    HW116169   1.678   5.046   1.724
 5090SOL    HW216170   1.700   4.974   1.578
 5091SOL     OW16171   0.959   6.142   2.397
 5091SOL    HW116172   0.946   6.093   2.311
 5091SOL    HW216173   1.056   6.144   2.421
 5092SOL     OW16174   3.440   2.106   0.894
 5092SOL    HW116175   3.384   2.159   0.829
 5092SOL    HW216176   3.498   2.169   0.946
 5093SOL     OW16177   1.569   1.761   1.937
 5093SOL    HW116178   1.511   1.706   1.878
 5093SOL    HW216179   1.514   1.798   2.012
 5094SOL     OW16180   0.634   6.275   4.994
 5094SOL    HW116181   0.689   6.358   4.995
 5094SOL    HW216182   0.666   6.215   4.921
 5095SOL     OW16183   2.626   0.437   5.156
 5095SOL    HW116184   2.605   0.534   5.146
 5095SOL    HW216185   2.720   0.426   5.188
 5096SOL     OW16186   5.296   3.602   1.016
 5096SOL    HW116187   5.202   3.635   1.021
 5096SOL    HW216188   5.301   3.508   1.049
 5097SOL     OW16189   1.725   6.714   6.044
 5097SOL    HW116190   1.745   6.810   6.062
 5097SOL    HW216191   1.682   6.705   5.954
 5098SOL     OW16192   0.098   1.657   2.723
 5098SOL    HW116193   0.187   1.700   2.711
 5098SOL    HW216194   0.074   1.656   2.820
 5099SOL     OW16195   1.532   0.322   5.253
 5099SOL    HW116196   1.463   0.263   5.295
 5099SOL    HW216197   1.597   0.266   5.201
 5100SOL     OW16198   6.080   5.857   0.663
 5100SOL    HW116199   6.039   5.940   0.700
 5100SOL    HW216200   6.017   5.816   0.596
 5101SOL     OW16201   4.231   6.177   6.813
 5101SOL    HW116202   4.283   6.229   6.880
 5101SOL    HW216203   4.261   6.202   6.721
 5102SOL     OW16204   4.029   6.838   4.948
 5102SOL    HW116205   3.976   6.846   4.863
 5102SOL    HW216206   4.126   6.832   4.925
 5103SOL     OW16207   0.054   0.256   3.868
 5103SOL    HW116208   0.105   0.339   3.887
 5103SOL    HW216209   6.978   0.266   3.900
 5104SOL     OW16210   1.422   0.638   2.020
 5104SOL    HW116211   1.351   0.680   1.962
 5104SOL    HW216212   1.401   0.659   2.116
 5105SOL     OW16213   3.468   3.761   6.265
 5105SOL    HW116214   3.501   3.855   6.268
 5105SOL    HW216215   3.379   3.755   6.310
 5106SOL     OW16216   3.340   0.401   2.327
 5106SOL    HW116217   3.402   0.380   2.403
 5106SOL    HW216218   3.389   0.454   2.258
 5107SOL     OW16219   2.547   0.129   6.195
 5107SOL    HW116220   2.609   0.120   6.117
 5107SOL    HW216221   2.489   0.209   6.183
 5108SOL     OW16222   2.949   3.588   4.223
 5108SOL    HW116223   2.956   3.634   4.312
 5108SOL    HW216224   2.997   3.642   4.154
 5109SOL     OW16225   0.175   1.007   1.389
 5109SOL    HW116226   0.225   1.038   1.470
 5109SOL    HW216227   0.077   1.017   1.405
 5110SOL     OW16228   2.037   5.730   5.782
 5110SOL    HW116229   2.096   5.717   5.861
 5110SOL    HW216230   1.944   5.750   5.812
 5111SOL     OW16231   1.567   1.346   0.131
 5111SOL    HW116232   1.629   1.271   0.155
 5111SOL    HW216233   1.596   1.387   0.045
 5112SOL     OW16234   0.410   5.834   3.679
 5112SOL    HW116235   0.440   5.782   3.759
 5112SOL    HW216236   0.313   5.855   3.686
 5113SOL     OW16237   1.456   0.764   0.225
 5113SOL    HW116238   1.530   0.774   0.291
 5113SOL    HW216239   1.430   0.854   0.190
 5114SOL     OW16240   3.596   4.792   6.878
 5114SOL    HW116241   3.532   4.747   6.815
 5114SOL    HW216242   3.551   4.868   6.924
 5115SOL     OW16243   1.770   3.513   5.313
 5115SOL    HW116244   1.676   3.523   5.344
 5115SOL    HW216245   1.782   3.424   5.268
 5116SOL     OW16246   6.176   4.895   0.205
 5116SOL    HW116247   6.234   4.877   0.125
 5116SOL    HW216248   6.224   4.863   0.288
 5117SOL     OW16249   2.434   4.470   4.654
 5117SOL    HW116250   2.502   4.527   4.700
 5117SOL    HW216251   2.418   4.387   4.708
 5118SOL     OW16252   4.510   6.085   0.333
 5118SOL    HW116253   4.494   6.181   0.357
 5118SOL    HW216254   4.450   6.059   0.258
 5119SOL     OW16255   5.896   0.633   2.036
 5119SOL    HW116256   5.865   0.637   2.131
 5119SOL    HW216257   5.822   0.598   1.979
 5120SOL     OW16258   5.060   1.676   2.775
 5120SOL    HW116259   5.007   1.730   2.710
 5120SOL    HW216260   5.157   1.687   2.757
 5121SOL     OW16261   7.016   3.187   5.322
 5121SOL    HW116262   6.936   3.230   5.364
 5121SOL    HW216263   0.007   3.094   5.356
 5122SOL     OW16264   1.967   6.764   3.509
 5122SOL    HW116265   1.869   6.746   3.498
 5122SOL    HW216266   1.994   6.841   3.451
 5123SOL     OW16267   4.946   4.621   2.370
 5123SOL    HW116268   4.944   4.707   2.320
 5123SOL    HW216269   4.965   4.639   2.467
 5124SOL     OW16270   3.234   6.606   6.332
 5124SOL    HW116271   3.184   6.689   6.356
 5124SOL    HW216272   3.267   6.562   6.415
 5125SOL     OW16273   0.377   2.582   4.499
 5125SOL    HW116274   0.369   2.495   4.449
 5125SOL    HW216275   0.438   2.644   4.448
 5126SOL     OW16276   6.009   4.184   6.231
 5126SOL    HW116277   5.998   4.277   6.196
 5126SOL    HW216278   5.979   4.180   6.326
 5127SOL     OW16279   5.741   3.303   6.747
 5127SOL    HW116280   5.823   3.302   6.804
 5127SOL    HW216281   5.715   3.210   6.724
 5128SOL     OW16282   0.257   0.576   6.840
 5128SOL    HW116283   0.247   0.552   6.744
 5128SOL    HW216284   0.310   0.504   6.887
 5129SOL     OW16285   4.839   1.677   2.226
 5129SOL    HW116286   4.771   1.733   2.274
 5129SOL    HW216287   4.890   1.622   2.292
 5130SOL     OW16288   0.786   5.606   3.959
 5130SOL    HW116289   0.831   5.612   3.870
 5130SOL    HW216290   0.695   5.648   3.953
 5131SOL     OW16291   3.219   4.952   3.036
 5131SOL    HW116292   3.231   4.878   2.970
 5131SOL    HW216293   3.154   5.019   3.000
 5132SOL     OW16294   4.056   1.477   6.813
 5132SOL    HW116295   4.130   1.452   6.875
 5132SOL    HW216296   3.968   1.453   6.854
 5133SOL     OW16297   4.173   4.172   6.664
 5133SOL    HW116298   4.233   4.116   6.607
 5133SOL    HW216299   4.158   4.260   6.619
 5134SOL     OW16300   6.586   6.082   1.457
 5134SOL    HW116301   6.615   6.052   1.548
 5134SOL    HW216302   6.630   6.169   1.435
 5135SOL     OW16303   6.307   3.267   2.183
 5135SOL    HW116304   6.401   3.301   2.191
 5135SOL    HW216305   6.299   3.211   2.100
 5136SOL     OW16306   0.779   0.548   5.850
 5136SOL    HW116307   0.851   0.479   5.850
 5136SOL    HW216308   0.702   0.516   5.795
 5137SOL     OW16309   5.296   0.975   4.971
 5137SOL    HW116310   5.332   1.007   5.059
 5137SOL    HW216311   5.338   1.027   4.897
 5138SOL     OW16312   3.634   2.898   4.122
 5138SOL    HW116313   3.539   2.915   4.098
 5138SOL    HW216314   3.638   2.852   4.210
 5139SOL     OW16315   2.277   0.123   4.693
 5139SOL    HW116316   2.280   0.204   4.635
 5139SOL    HW216317   2.193   0.072   4.673
 5140SOL     OW16318   4.443   2.136   6.574
 5140SOL    HW116319   4.538   2.122   6.604
 5140SOL    HW216320   4.443   2.191   6.490
 5141SOL     OW16321   6.144   3.079   2.304
 5141SOL    HW116322   6.167   3.041   2.394
 5141SOL    HW216323   6.214   3.146   2.278
 5142SOL     OW16324   0.241   0.216   2.510
 5142SOL    HW116325   0.254   0.312   2.534
 5142SOL    HW216326   0.311   0.188   2.445
 5143SOL     OW16327   0.556   5.449   3.800
 5143SOL    HW116328   0.477   5.410   3.752
 5143SOL    HW216329   0.570   5.399   3.886
 5144SOL     OW16330   2.720   2.846   5.560
 5144SOL    HW116331   2.767   2.934   5.552
 5144SOL    HW216332   2.633   2.859   5.608
 5145SOL     OW16333   2.909   6.137   6.648
 5145SOL    HW116334   2.908   6.225   6.600
 5145SOL    HW216335   2.883   6.064   6.584
 5146SOL     OW16336   5.420   4.748   6.137
 5146SOL    HW116337   5.415   4.650   6.153
 5146SOL    HW216338   5.350   4.775   6.071
 5147SOL     OW16339   4.607   2.674   3.446
 5147SOL    HW116340   4.581   2.655   3.541
 5147SOL    HW216341   4.650   2.764   3.441
 5148SOL     OW16342   0.529   0.166   0.506
 5148SOL    HW116343   0.566   0.259   0.512
 5148SOL    HW216344   0.451   0.158   0.569
 5149SOL     OW16345   5.107   4.488   3.338
 5149SOL    HW116346   5.066   4.420   3.277
 5149SOL    HW216347   5.071   4.476   3.431
 5150SOL     OW16348   0.155   5.931   3.748
 5150SOL    HW116349   0.076   5.992   3.759
 5150SOL    HW216350   0.182   5.894   3.837
 5151SOL     OW16351   5.981   5.492   1.783
 5151SOL    HW116352   5.898   5.476   1.838
 5151SOL    HW216353   6.015   5.404   1.749
 5152SOL     OW16354   0.922   1.373   6.498
 5152SOL    HW116355   0.909   1.274   6.489
 5152SOL    HW216356   0.892   1.403   6.588
 5153SOL     OW16357   1.114   1.925   0.971
 5153SOL    HW116358   1.027   1.878   0.953
 5153SOL    HW216359   1.158   1.945   0.884
 5154SOL     OW16360   6.837   3.084   6.681
 5154SOL    HW116361   6.774   3.116   6.610
 5154SOL    HW216362   6.931   3.086   6.646
 5155SOL     OW16363   1.742   1.536   0.789
 5155SOL    HW116364   1.756   1.629   0.754
 5155SOL    HW216365   1.666   1.535   0.853
 5156SOL     OW16366   5.402   5.622   5.718
 5156SOL    HW116367   5.498   5.606   5.696
 5156SOL    HW216368   5.369   5.550   5.779
 5157SOL     OW16369   4.064   0.368   1.490
 5157SOL    HW116370   4.152   0.409   1.467
 5157SOL    HW216371   4.009   0.358   1.407
 5158SOL     OW16372   2.471   1.634   2.227
 5158SOL    HW116373   2.496   1.649   2.323
 5158SOL    HW216374   2.372   1.625   2.220
 5159SOL     OW16375   6.246   3.069   5.280
 5159SOL    HW116376   6.340   3.043   5.303
 5159SOL    HW216377   6.188   2.988   5.282
 5160SOL     OW16378   6.538   6.237   3.752
 5160SOL    HW116379   6.527   6.177   3.673
 5160SOL    HW216380   6.481   6.204   3.827
 5161SOL     OW16381   1.040   3.595   0.317
 5161SOL    HW116382   0.972   3.664   0.342
 5161SOL    HW216383   1.132   3.633   0.330
 5162SOL     OW16384   0.239   0.139   3.209
 5162SOL    HW116385   0.179   0.061   3.228
 5162SOL    HW216386   0.195   0.223   3.238
 5163SOL     OW16387   3.227   6.853   1.868
 5163SOL    HW116388   3.182   6.928   1.918
 5163SOL    HW216389   3.324   6.873   1.859
 5164SOL     OW16390   3.199   3.697   0.730
 5164SOL    HW116391   3.263   3.718   0.804
 5164SOL    HW216392   3.247   3.700   0.643
 5165SOL     OW16393   1.250   4.423   6.976
 5165SOL    HW116394   1.243   4.360   6.898
 5165SOL    HW216395   1.204   4.383   0.036
 5166SOL     OW16396   1.831   5.829   1.821
 5166SOL    HW116397   1.825   5.928   1.830
 5166SOL    HW216398   1.924   5.800   1.845
 5167SOL     OW16399   5.265   2.279   5.058
 5167SOL    HW116400   5.188   2.265   4.996
 5167SOL    HW216401   5.341   2.319   5.008
 5168SOL     OW16402   4.447   2.388   2.258
 5168SOL    HW116403   4.508   2.309   2.262
 5168SOL    HW216404   4.352   2.356   2.251
 5169SOL     OW16405   3.934   6.283   3.821
 5169SOL    HW116406   3.969   6.377   3.826
 5169SOL    HW216407   3.995   6.228   3.764
 5170SOL     OW16408   1.517   3.411   6.203
 5170SOL    HW116409   1.600   3.438   6.251
 5170SOL    HW216410   1.465   3.346   6.260
 5171SOL     OW16411   1.726   5.730   5.553
 5171SOL    HW116412   1.636   5.741   5.512
 5171SOL    HW216413   1.784   5.675   5.492
 5172SOL     OW16414   7.009   5.444   4.101
 5172SOL    HW116415   0.023   5.356   4.134
 5172SOL    HW216416   7.013   5.511   4.176
 5173SOL     OW16417   4.251   4.401   5.532
 5173SOL    HW116418   4.194   4.482   5.517
 5173SOL    HW216419   4.241   4.338   5.456
 5174SOL     OW16420   2.334   6.241   3.224
 5174SOL    HW116421   2.419   6.282   3.190
 5174SOL    HW216422   2.271   6.314   3.251
 5175SOL     OW16423   2.879   4.059   6.872
 5175SOL    HW116424   2.877   4.122   6.795
 5175SOL    HW216425   2.817   3.982   6.854
 5176SOL     OW16426   5.930   5.558   0.744
 5176SOL    HW116427   5.989   5.618   0.798
 5176SOL    HW216428   5.846   5.607   0.721
 5177SOL     OW16429   5.534   0.154   0.045
 5177SOL    HW116430   5.628   0.153   0.079
 5177SOL    HW216431   5.535   0.176   6.966
 5178SOL     OW16432   1.083   4.069   1.671
 5178SOL    HW116433   1.086   4.159   1.714
 5178SOL    HW216434   0.998   4.023   1.695
 5179SOL     OW16435   5.792   5.061   2.698
 5179SOL    HW116436   5.814   5.077   2.602
 5179SOL    HW216437   5.870   5.089   2.754
 5180SOL     OW16438   2.482   0.141   2.243
 5180SOL    HW116439   2.453   0.064   2.299
 5180SOL    HW216440   2.576   0.166   2.267
 5181SOL     OW16441   0.638   0.210   5.962
 5181SOL    HW116442   0.600   0.136   6.019
 5181SOL    HW216443   0.681   0.171   5.881
 5182SOL     OW16444   3.662   5.620   3.207
 5182SOL    HW116445   3.716   5.586   3.130
 5182SOL    HW216446   3.650   5.547   3.274
 5183SOL     OW16447   4.065   1.693   3.530
 5183SOL    HW116448   3.990   1.759   3.526
 5183SOL    HW216449   4.069   1.652   3.621
 5184SOL     OW16450   2.637   1.147   4.024
 5184SOL    HW116451   2.582   1.084   4.080
 5184SOL    HW216452   2.725   1.163   4.069
 5185SOL     OW16453   5.995   0.771   1.508
 5185SOL    HW116454   6.044   0.683   1.511
 5185SOL    HW216455   6.061   0.846   1.502
 5186SOL     OW16456   6.843   3.340   6.401
 5186SOL    HW116457   6.824   3.395   6.320
 5186SOL    HW216458   6.763   3.340   6.461
 5187SOL     OW16459   2.030   4.881   5.233
 5187SOL    HW116460   2.121   4.839   5.225
 5187SOL    HW216461   2.010   4.900   5.329
 5188SOL     OW16462   6.363   6.552   2.155
 5188SOL    HW116463   6.288   6.609   2.122
 5188SOL    HW216464   6.448   6.605   2.154
 5189SOL     OW16465   5.202   6.804   6.453
 5189SOL    HW116466   5.266   6.793   6.377
 5189SOL    HW216467   5.114   6.836   6.418
 5190SOL     OW16468   1.131   3.960   0.763
 5190SOL    HW116469   1.092   4.014   0.838
 5190SOL    HW216470   1.225   3.990   0.746
 5191SOL     OW16471   3.278   4.902   2.483
 5191SOL    HW116472   3.288   4.808   2.450
 5191SOL    HW216473   3.182   4.929   2.477
 5192SOL     OW16474   1.942   4.807   2.030
 5192SOL    HW116475   1.963   4.711   2.050
 5192SOL    HW216476   2.017   4.847   1.978
 5193SOL     OW16477   5.421   0.171   6.247
 5193SOL    HW116478   5.343   0.232   6.234
 5193SOL    HW216479   5.505   0.220   6.223
 5194SOL     OW16480   5.151   1.940   6.565
 5194SOL    HW116481   5.244   1.919   6.594
 5194SOL    HW216482   5.086   1.912   6.636
 5195SOL     OW16483   6.881   0.497   4.505
 5195SOL    HW116484   6.884   0.398   4.495
 5195SOL    HW216485   6.974   0.531   4.525
 5196SOL     OW16486   5.507   6.506   2.402
 5196SOL    HW116487   5.523   6.584   2.463
 5196SOL    HW216488   5.570   6.432   2.424
 5197SOL     OW16489   1.168   3.864   5.550
 5197SOL    HW116490   1.158   3.889   5.454
 5197SOL    HW216491   1.078   3.866   5.594
 5198SOL     OW16492   5.971   5.680   2.506
 5198SOL    HW116493   6.052   5.704   2.451
 5198SOL    HW216494   5.897   5.744   2.485
 5199SOL     OW16495   6.837   4.791   0.731
 5199SOL    HW116496   6.899   4.768   0.807
 5199SOL    HW216497   6.840   4.717   0.663
 5200SOL     OW16498   0.244   3.780   5.075
 5200SOL    HW116499   0.209   3.813   4.987
 5200SOL    HW216500   0.333   3.821   5.092
 5201SOL     OW16501   1.457   5.309   4.190
 5201SOL    HW116502   1.411   5.320   4.102
 5201SOL    HW216503   1.485   5.213   4.201
 5202SOL     OW16504   0.247   4.737   0.896
 5202SOL    HW116505   0.155   4.732   0.933
 5202SOL    HW216506   0.314   4.730   0.970
 5203SOL     OW16507   1.327   2.231   6.921
 5203SOL    HW116508   1.305   2.304   6.985
 5203SOL    HW216509   1.423   2.238   6.893
 5204SOL     OW16510   4.701   5.153   6.944
 5204SOL    HW116511   4.675   5.241   6.983
 5204SOL    HW216512   4.782   5.163   6.887
 5205SOL     OW16513   1.274   0.244   1.944
 5205SOL    HW116514   1.372   0.256   1.959
 5205SOL    HW216515   1.259   0.177   1.870
 5206SOL     OW16516   0.494   4.457   6.509
 5206SOL    HW116517   0.570   4.432   6.569
 5206SOL    HW216518   0.416   4.398   6.528
 5207SOL     OW16519   1.843   4.791   4.077
 5207SOL    HW116520   1.905   4.861   4.043
 5207SOL    HW216521   1.748   4.822   4.069
 5208SOL     OW16522   3.828   1.416   6.952
 5208SOL    HW116523   3.826   1.393   0.030
 5208SOL    HW216524   3.734   1.424   6.918
 5209SOL     OW16525   5.718   5.787   3.150
 5209SOL    HW116526   5.696   5.834   3.065
 5209SOL    HW216527   5.654   5.815   3.222
 5210SOL     OW16528   5.178   4.894   4.170
 5210SOL    HW116529   5.182   4.808   4.120
 5210SOL    HW216530   5.147   4.967   4.109
 5211SOL     OW16531   4.035   3.249   3.452
 5211SOL    HW116532   4.038   3.299   3.366
 5211SOL    HW216533   3.971   3.172   3.445
 5212SOL     OW16534   0.839   1.857   0.923
 5212SOL    HW116535   0.768   1.808   0.974
 5212SOL    HW216536   0.796   1.927   0.866
 5213SOL     OW16537   4.788   2.551   5.617
 5213SOL    HW116538   4.691   2.573   5.605
 5213SOL    HW216539   4.819   2.491   5.544
 5214SOL     OW16540   5.323   1.382   5.522
 5214SOL    HW116541   5.359   1.290   5.503
 5214SOL    HW216542   5.367   1.418   5.604
 5215SOL     OW16543   5.279   4.663   3.019
 5215SOL    HW116544   5.302   4.567   3.033
 5215SOL    HW216545   5.354   4.721   3.051
 5216SOL     OW16546   4.956   4.845   0.525
 5216SOL    HW116547   4.888   4.912   0.495
 5216SOL    HW216548   4.941   4.823   0.621
 5217SOL     OW16549   2.599   5.232   4.361
 5217SOL    HW116550   2.568   5.306   4.421
 5217SOL    HW216551   2.698   5.220   4.372
 5218SOL     OW16552   1.298   6.442   3.110
 5218SOL    HW116553   1.300   6.541   3.126
 5218SOL    HW216554   1.204   6.412   3.095
 5219SOL     OW16555   3.568   0.017   6.243
 5219SOL    HW116556   3.576   6.937   6.228
 5219SOL    HW216557   3.488   0.036   6.300
 5220SOL     OW16558   0.815   6.584   2.774
 5220SOL    HW116559   0.794   6.499   2.725
 5220SOL    HW216560   0.852   6.651   2.711
 5221SOL     OW16561   4.959   1.185   4.907
 5221SOL    HW116562   4.955   1.245   4.827
 5221SOL    HW216563   4.872   1.137   4.917
 5222SOL     OW16564   1.946   0.524   3.833
 5222SOL    HW116565   2.040   0.497   3.809
 5222SOL    HW216566   1.938   0.532   3.932
 5223SOL     OW16567   4.658   0.757   1.457
 5223SOL    HW116568   4.572   0.740   1.408
 5223SOL    HW216569   4.638   0.787   1.550
 5224SOL     OW16570   6.345   2.044   2.099
 5224SOL    HW116571   6.371   1.981   2.172
 5224SOL    HW216572   6.271   2.103   2.131
 5225SOL     OW16573   5.902   6.162   4.118
 5225SOL    HW116574   5.935   6.135   4.209
 5225SOL    HW216575   5.863   6.254   4.124
 5226SOL     OW16576   1.239   6.549   4.145
 5226SOL    HW116577   1.271   6.528   4.237
 5226SOL    HW216578   1.240   6.466   4.089
 5227SOL     OW16579   6.082   4.596   3.035
 5227SOL    HW116580   5.993   4.561   3.006
 5227SOL    HW216581   6.076   4.630   3.129
 5228SOL     OW16582   5.437   1.684   0.801
 5228SOL    HW116583   5.530   1.677   0.765
 5228SOL    HW216584   5.373   1.701   0.726
 5229SOL     OW16585   1.412   3.780   5.524
 5229SOL    HW116586   1.460   3.853   5.475
 5229SOL    HW216587   1.318   3.808   5.542
 5230SOL     OW16588   0.185   0.415   0.182
 5230SOL    HW116589   0.179   0.430   0.281
 5230SOL    HW216590   0.130   0.484   0.135
 5231SOL     OW16591   3.916   3.313   3.831
 5231SOL    HW116592   3.984   3.376   3.868
 5231SOL    HW216593   3.867   3.358   3.756
 5232SOL     OW16594   4.408   2.288   6.947
 5232SOL    HW116595   4.384   2.234   6.866
 5232SOL    HW216596   4.352   2.371   6.949
 5233SOL     OW16597   0.580   6.351   2.459
 5233SOL    HW116598   0.541   6.286   2.525
 5233SOL    HW216599   0.522   6.432   2.454
 5234SOL     OW16600   3.473   6.813   0.504
 5234SOL    HW116601   3.538   6.807   0.579
 5234SOL    HW216602   3.427   6.725   0.492
 5235SOL     OW16603   1.009   3.380   0.653
 5235SOL    HW116604   1.107   3.366   0.641
 5235SOL    HW216605   0.960   3.299   0.622
 5236SOL     OW16606   5.046   3.501   1.178
 5236SOL    HW116607   4.970   3.493   1.243
 5236SOL    HW216608   5.029   3.580   1.118
 5237SOL     OW16609   2.331   2.353   5.350
 5237SOL    HW116610   2.258   2.299   5.308
 5237SOL    HW216611   2.414   2.297   5.357
 5238SOL     OW16612   2.084   4.810   0.770
 5238SOL    HW116613   2.170   4.834   0.814
 5238SOL    HW216614   2.076   4.711   0.764
 5239SOL     OW16615   3.405   2.894   3.442
 5239SOL    HW116616   3.374   2.880   3.348
 5239SOL    HW216617   3.337   2.949   3.492
 5240SOL     OW16618   3.343   2.020   5.196
 5240SOL    HW116619   3.311   2.071   5.276
 5240SOL    HW216620   3.365   2.083   5.122
 5241SOL     OW16621   1.862   6.303   6.521
 5241SOL    HW116622   1.817   6.260   6.443
 5241SOL    HW216623   1.811   6.283   6.605
 5242SOL     OW16624   6.109   1.279   5.631
 5242SOL    HW116625   6.060   1.295   5.717
 5242SOL    HW216626   6.181   1.212   5.645
 5243SOL     OW16627   1.292   5.237   1.002
 5243SOL    HW116628   1.203   5.228   0.957
 5243SOL    HW216629   1.311   5.333   1.019
 5244SOL     OW16630   4.723   4.583   5.620
 5244SOL    HW116631   4.804   4.560   5.675
 5244SOL    HW216632   4.750   4.641   5.544
 5245SOL     OW16633   4.705   3.870   6.790
 5245SOL    HW116634   4.681   3.961   6.826
 5245SOL    HW216635   4.757   3.820   6.859
 5246SOL     OW16636   1.206   3.509   2.575
 5246SOL    HW116637   1.212   3.542   2.480
 5246SOL    HW216638   1.239   3.415   2.580
 5247SOL     OW16639   0.251   5.217   0.467
 5247SOL    HW116640   0.235   5.210   0.565
 5247SOL    HW216641   0.195   5.150   0.419
 5248SOL     OW16642   5.383   0.730   5.876
 5248SOL    HW116643   5.294   0.738   5.920
 5248SOL    HW216644   5.374   0.753   5.779
 5249SOL     OW16645   0.843   4.950   4.963
 5249SOL    HW116646   0.937   4.922   4.942
 5249SOL    HW216647   0.784   4.928   4.885
 5250SOL     OW16648   0.311   1.733   6.378
 5250SOL    HW116649   0.310   1.634   6.392
 5250SOL    HW216650   0.362   1.754   6.294
 5251SOL     OW16651   6.251   3.303   1.249
 5251SOL    HW116652   6.276   3.207   1.263
 5251SOL    HW216653   6.325   3.350   1.201
 5252SOL     OW16654   4.062   5.917   0.342
 5252SOL    HW116655   3.976   5.955   0.375
 5252SOL    HW216656   4.124   5.903   0.419
 5253SOL     OW16657   5.459   3.416   4.532
 5253SOL    HW116658   5.412   3.425   4.619
 5253SOL    HW216659   5.392   3.400   4.459
 5254SOL     OW16660   4.206   0.794   3.702
 5254SOL    HW116661   4.228   0.709   3.655
 5254SOL    HW216662   4.173   0.774   3.794
 5255SOL     OW16663   2.903   6.352   5.177
 5255SOL    HW116664   2.957   6.288   5.123
 5255SOL    HW216665   2.908   6.327   5.273
 5256SOL     OW16666   5.024   0.368   3.177
 5256SOL    HW116667   4.933   0.333   3.154
 5256SOL    HW216668   5.082   0.365   3.096
 5257SOL     OW16669   4.069   0.249   0.099
 5257SOL    HW116670   4.096   0.213   0.188
 5257SOL    HW216671   4.038   0.174   0.040
 5258SOL     OW16672   5.047   4.362   2.378
 5258SOL    HW116673   4.984   4.285   2.383
 5258SOL    HW216674   4.997   4.445   2.354
 5259SOL     OW16675   4.771   5.456   3.028
 5259SOL    HW116676   4.726   5.519   3.091
 5259SOL    HW216677   4.727   5.462   2.938
 5260SOL     OW16678   5.425   3.624   1.552
 5260SOL    HW116679   5.475   3.644   1.467
 5260SOL    HW216680   5.482   3.648   1.631
 5261SOL     OW16681   0.755   2.041   4.641
 5261SOL    HW116682   0.748   1.952   4.595
 5261SOL    HW216683   0.824   2.097   4.595
 5262SOL     OW16684   3.081   6.627   1.999
 5262SOL    HW116685   3.155   6.679   1.956
 5262SOL    HW216686   3.111   6.533   2.014
 5263SOL     OW16687   1.873   0.050   6.221
 5263SOL    HW116688   1.816   0.113   6.273
 5263SOL    HW216689   1.904   6.995   6.282
 5264SOL     OW16690   6.944   2.244   1.410
 5264SOL    HW116691   0.001   2.243   1.344
 5264SOL    HW216692   6.969   2.188   1.489
 5265SOL     OW16693   5.306   4.874   1.882
 5265SOL    HW116694   5.261   4.963   1.880
 5265SOL    HW216695   5.323   4.843   1.789
 5266SOL     OW16696   1.601   6.870   1.885
 5266SOL    HW116697   1.668   6.854   1.957
 5266SOL    HW216698   1.630   6.946   1.828
 5267SOL     OW16699   4.991   4.775   5.156
 5267SOL    HW116700   5.079   4.813   5.188
 5267SOL    HW216701   5.004   4.679   5.130
 5268SOL     OW16702   6.287   5.568   5.119
 5268SOL    HW116703   6.218   5.632   5.085
 5268SOL    HW216704   6.273   5.479   5.078
 5269SOL     OW16705   1.943   5.274   4.187
 5269SOL    HW116706   1.942   5.318   4.097
 5269SOL    HW216707   1.926   5.176   4.176
 5270SOL     OW16708   6.156   2.858   1.927
 5270SOL    HW116709   6.093   2.858   2.004
 5270SOL    HW216710   6.176   2.764   1.900
 5271SOL     OW16711   5.147   4.617   5.340
 5271SOL    HW116712   5.203   4.700   5.330
 5271SOL    HW216713   5.131   4.578   5.249
 5272SOL     OW16714   0.438   6.665   4.573
 5272SOL    HW116715   0.483   6.640   4.488
 5272SOL    HW216716   0.370   6.595   4.596
 5273SOL     OW16717   0.583   1.500   3.885
 5273SOL    HW116718   0.612   1.430   3.951
 5273SOL    HW216719   0.663   1.549   3.851
 5274SOL     OW16720   6.782   5.089   4.258
 5274SOL    HW116721   6.831   5.046   4.183
 5274SOL    HW216722   6.730   5.167   4.224
 5275SOL     OW16723   2.701   0.337   0.102
 5275SOL    HW116724   2.705   0.435   0.083
 5275SOL    HW216725   2.784   0.293   0.069
 5276SOL     OW16726   6.839   0.044   1.901
 5276SOL    HW116727   6.764   0.059   1.965
 5276SOL    HW216728   6.808   0.063   1.808
 5277SOL     OW16729   1.073   1.584   3.344
 5277SOL    HW116730   1.032   1.673   3.323
 5277SOL    HW216731   1.005   1.526   3.390
 5278SOL     OW16732   0.580   5.541   5.708
 5278SOL    HW116733   0.644   5.473   5.745
 5278SOL    HW216734   0.535   5.589   5.784
 5279SOL     OW16735   1.572   5.638   6.225
 5279SOL    HW116736   1.575   5.712   6.158
 5279SOL    HW216737   1.611   5.671   6.312
 5280SOL     OW16738   3.815   5.936   4.880
 5280SOL    HW116739   3.720   5.930   4.849
 5280SOL    HW216740   3.872   5.877   4.823
 5281SOL     OW16741   1.890   0.591   4.583
 5281SOL    HW116742   1.903   0.632   4.673
 5281SOL    HW216743   1.904   0.492   4.590
 5282SOL     OW16744   1.360   0.401   2.324
 5282SOL    HW116745   1.346   0.303   2.334
 5282SOL    HW216746   1.395   0.421   2.232
 5283SOL     OW16747   6.800   0.937   4.142
 5283SOL    HW116748   6.810   1.036   4.134
 5283SOL    HW216749   6.863   0.903   4.211
 5284SOL     OW16750   5.592   2.272   1.934
 5284SOL    HW116751   5.535   2.329   1.875
 5284SOL    HW216752   5.554   2.272   2.027
 5285SOL     OW16753   0.988   3.023   3.882
 5285SOL    HW116754   1.077   3.035   3.926
 5285SOL    HW216755   1.000   2.984   3.791
 5286SOL     OW16756   6.347   3.051   1.159
 5286SOL    HW116757   6.309   2.975   1.212
 5286SOL    HW216758   6.447   3.050   1.166
 5287SOL     OW16759   3.496   4.891   1.535
 5287SOL    HW116760   3.514   4.984   1.567
 5287SOL    HW216761   3.413   4.856   1.578
 5288SOL     OW16762   5.220   0.253   2.025
 5288SOL    HW116763   5.249   0.341   1.987
 5288SOL    HW216764   5.285   0.182   2.000
 5289SOL     OW16765   2.009   4.828   6.596
 5289SOL    HW116766   1.918   4.797   6.624
 5289SOL    HW216767   2.013   4.839   6.497
 5290SOL     OW16768   1.854   3.571   5.806
 5290SOL    HW116769   1.922   3.561   5.733
 5290SOL    HW216770   1.769   3.608   5.767
 5291SOL     OW16771   2.683   4.351   5.328
 5291SOL    HW116772   2.747   4.409   5.280
 5291SOL    HW216773   2.640   4.402   5.403
 5292SOL     OW16774   6.637   4.271   6.549
 5292SOL    HW116775   6.666   4.291   6.643
 5292SOL    HW216776   6.538   4.272   6.544
 5293SOL     OW16777   2.050   5.071   4.595
 5293SOL    HW116778   2.106   4.990   4.578
 5293SOL    HW216779   1.953   5.047   4.586
 5294SOL     OW16780   4.301   0.528   5.119
 5294SOL    HW116781   4.291   0.437   5.161
 5294SOL    HW216782   4.286   0.520   5.020
 5295SOL     OW16783   3.318   0.829   2.222
 5295SOL    HW116784   3.272   0.876   2.146
 5295SOL    HW216785   3.251   0.782   2.278
 5296SOL     OW16786   3.745   4.232   1.022
 5296SOL    HW116787   3.792   4.286   0.952
 5296SOL    HW216788   3.813   4.179   1.073
 5297SOL     OW16789   2.393   4.232   0.476
 5297SOL    HW116790   2.493   4.223   0.468
 5297SOL    HW216791   2.350   4.150   0.439
 5298SOL     OW16792   2.747   6.721   0.040
 5298SOL    HW116793   2.804   6.639   0.044
 5298SOL    HW216794   2.734   6.748   6.963
 5299SOL     OW16795   3.380   1.893   0.430
 5299SOL    HW116796   3.427   1.897   0.342
 5299SOL    HW216797   3.327   1.976   0.443
 5300SOL     OW16798   1.732   4.664   0.579
 5300SOL    HW116799   1.703   4.639   0.486
 5300SOL    HW216800   1.708   4.759   0.596
 5301SOL     OW16801   4.692   0.548   6.416
 5301SOL    HW116802   4.626   0.473   6.416
 5301SOL    HW216803   4.657   0.623   6.472
 5302SOL     OW16804   4.667   5.531   3.490
 5302SOL    HW116805   4.720   5.541   3.406
 5302SOL    HW216806   4.717   5.473   3.555
 5303SOL     OW16807   6.880   5.019   6.077
 5303SOL    HW116808   6.805   5.080   6.053
 5303SOL    HW216809   6.859   4.926   6.047
 5304SOL     OW16810   6.137   1.403   1.016
 5304SOL    HW116811   6.151   1.464   1.093
 5304SOL    HW216812   6.159   1.309   1.043
 5305SOL     OW16813   1.238   5.342   2.822
 5305SOL    HW116814   1.158   5.367   2.877
 5305SOL    HW216815   1.319   5.337   2.880
 5306SOL     OW16816   6.432   4.146   6.081
 5306SOL    HW116817   6.529   4.126   6.066
 5306SOL    HW216818   6.408   4.125   6.176
 5307SOL     OW16819   4.791   2.265   0.565
 5307SOL    HW116820   4.868   2.202   0.559
 5307SOL    HW216821   4.771   2.301   0.474
 5308SOL     OW16822   1.623   4.556   2.891
 5308SOL    HW116823   1.583   4.478   2.938
 5308SOL    HW216824   1.628   4.537   2.793
 5309SOL     OW16825   4.252   5.872   2.468
 5309SOL    HW116826   4.183   5.917   2.524
 5309SOL    HW216827   4.331   5.848   2.525
 5310SOL     OW16828   5.998   3.252   2.674
 5310SOL    HW116829   5.918   3.220   2.624
 5310SOL    HW216830   6.078   3.253   2.614
 5311SOL     OW16831   5.736   6.596   0.371
 5311SOL    HW116832   5.738   6.688   0.411
 5311SOL    HW216833   5.826   6.553   0.384
 5312SOL     OW16834   0.447   6.488   1.770
 5312SOL    HW116835   0.377   6.507   1.701
 5312SOL    HW216836   0.489   6.574   1.799
 5313SOL     OW16837   6.788   4.993   5.276
 5313SOL    HW116838   6.818   5.015   5.368
 5313SOL    HW216839   6.852   4.928   5.235
 5314SOL     OW16840   5.695   6.473   1.006
 5314SOL    HW116841   5.661   6.543   0.942
 5314SOL    HW216842   5.669   6.498   1.099
 5315SOL     OW16843   4.411   2.097   3.259
 5315SOL    HW116844   4.510   2.085   3.268
 5315SOL    HW216845   4.367   2.007   3.258
 5316SOL     OW16846   0.930   2.977   5.136
 5316SOL    HW116847   0.943   2.989   5.234
 5316SOL    HW216848   0.911   3.065   5.093
 5317SOL     OW16849   6.654   1.150   5.571
 5317SOL    HW116850   6.726   1.095   5.614
 5317SOL    HW216851   6.636   1.231   5.626
 5318SOL     OW16852   6.768   2.902   0.261
 5318SOL    HW116853   6.746   2.990   0.219
 5318SOL    HW216854   6.858   2.908   0.305
 5319SOL     OW16855   4.285   6.714   0.784
 5319SOL    HW116856   4.259   6.651   0.857
 5319SOL    HW216857   4.312   6.801   0.823
 5320SOL     OW16858   3.984   5.676   1.273
 5320SOL    HW116859   3.984   5.663   1.174
 5320SOL    HW216860   3.983   5.587   1.318
 5321SOL     OW16861   1.523   4.828   5.184
 5321SOL    HW116862   1.620   4.844   5.167
 5321SOL    HW216863   1.506   4.825   5.283
 5322SOL     OW16864   5.626   6.790   1.415
 5322SOL    HW116865   5.699   6.750   1.358
 5322SOL    HW216866   5.537   6.761   1.379
 5323SOL     OW16867   4.298   1.291   6.009
 5323SOL    HW116868   4.296   1.366   6.076
 5323SOL    HW216869   4.327   1.326   5.920
 5324SOL     OW16870   2.749   2.529   6.699
 5324SOL    HW116871   2.773   2.617   6.739
 5324SOL    HW216872   2.688   2.543   6.622
 5325SOL     OW16873   2.703   1.937   5.175
 5325SOL    HW116874   2.787   1.978   5.139
 5325SOL    HW216875   2.697   1.955   5.273
 5326SOL     OW16876   6.611   5.798   3.192
 5326SOL    HW116877   6.548   5.738   3.141
 5326SOL    HW216878   6.644   5.749   3.272
 5327SOL     OW16879   5.367   2.379   4.649
 5327SOL    HW116880   5.275   2.399   4.613
 5327SOL    HW216881   5.419   2.329   4.580
 5328SOL     OW16882   4.279   4.048   5.807
 5328SOL    HW116883   4.230   3.961   5.808
 5328SOL    HW216884   4.213   4.122   5.791
 5329SOL     OW16885   1.366   5.903   6.352
 5329SOL    HW116886   1.333   5.972   6.288
 5329SOL    HW216887   1.455   5.869   6.321
 5330SOL     OW16888   3.627   3.849   0.585
 5330SOL    HW116889   3.717   3.821   0.550
 5330SOL    HW216890   3.557   3.787   0.550
 5331SOL     OW16891   6.993   2.270   6.730
 5331SOL    HW116892   6.918   2.214   6.765
 5331SOL    HW216893   6.955   2.343   6.673
 5332SOL     OW16894   1.600   4.110   1.688
 5332SOL    HW116895   1.637   4.025   1.724
 5332SOL    HW216896   1.501   4.112   1.701
 5333SOL     OW16897   1.413   0.647   3.323
 5333SOL    HW116898   1.507   0.670   3.295
 5333SOL    HW216899   1.382   0.567   3.270
 5334SOL     OW16900   3.285   0.590   5.059
 5334SOL    HW116901   3.325   0.555   4.973
 5334SOL    HW216902   3.317   0.534   5.135
 5335SOL     OW16903   6.576   5.790   0.593
 5335SOL    HW116904   6.483   5.780   0.559
 5335SOL    HW216905   6.622   5.864   0.543
 5336SOL     OW16906   1.734   3.617   2.252
 5336SOL    HW116907   1.720   3.550   2.179
 5336SOL    HW216908   1.679   3.590   2.331
 5337SOL     OW16909   4.799   3.909   1.379
 5337SOL    HW116910   4.863   3.944   1.310
 5337SOL    HW216911   4.850   3.860   1.450
 5338SOL     OW16912   6.657   1.924   6.839
 5338SOL    HW116913   6.601   1.974   6.773
 5338SOL    HW216914   6.610   1.923   6.928
 5339SOL     OW16915   6.729   2.022   3.963
 5339SOL    HW116916   6.672   1.971   3.899
 5339SOL    HW216917   6.732   1.974   4.050
 5340SOL     OW16918   5.687   2.854   6.886
 5340SOL    HW116919   5.656   2.902   6.969
 5340SOL    HW216920   5.613   2.799   6.850
 5341SOL     OW16921   3.829   1.965   5.624
 5341SOL    HW116922   3.888   1.957   5.544
 5341SOL    HW216923   3.812   1.874   5.662
 5342SOL     OW16924   3.733   0.477   4.750
 5342SOL    HW116925   3.832   0.460   4.754
 5342SOL    HW216926   3.717   0.573   4.728
 5343SOL     OW16927   3.999   3.839   3.059
 5343SOL    HW116928   3.961   3.866   2.971
 5343SOL    HW216929   3.930   3.788   3.111
 5344SOL     OW16930   1.635   2.677   2.590
 5344SOL    HW116931   1.657   2.772   2.571
 5344SOL    HW216932   1.669   2.652   2.681
 5345SOL     OW16933   4.518   6.439   0.902
 5345SOL    HW116934   4.616   6.422   0.914
 5345SOL    HW216935   4.469   6.416   0.986
 5346SOL     OW16936   3.045   6.013   3.632
 5346SOL    HW116937   3.008   5.975   3.548
 5346SOL    HW216938   2.972   6.023   3.700
 5347SOL     OW16939   0.072   2.269   2.034
 5347SOL    HW116940   0.085   2.176   1.998
 5347SOL    HW216941   0.036   2.327   1.961
 5348SOL     OW16942   0.858   1.432   0.662
 5348SOL    HW116943   0.927   1.365   0.636
 5348SOL    HW216944   0.900   1.523   0.666
 5349SOL     OW16945   0.349   2.261   0.186
 5349SOL    HW116946   0.436   2.213   0.172
 5349SOL    HW216947   0.361   2.358   0.162
 5350SOL     OW16948   2.464   0.544   6.340
 5350SOL    HW116949   2.472   0.505   6.431
 5350SOL    HW216950   2.549   0.591   6.315
 5351SOL     OW16951   5.200   6.122   1.324
 5351SOL    HW116952   5.180   6.130   1.226
 5351SOL    HW216953   5.287   6.167   1.344
 5352SOL     OW16954   2.149   5.918   4.164
 5352SOL    HW116955   2.175   6.012   4.188
 5352SOL    HW216956   2.196   5.890   4.081
 5353SOL     OW16957   4.464   6.405   4.596
 5353SOL    HW116958   4.396   6.457   4.648
 5353SOL    HW216959   4.518   6.468   4.540
 5354SOL     OW16960   2.836   4.704   2.526
 5354SOL    HW116961   2.868   4.672   2.437
 5354SOL    HW216962   2.736   4.713   2.524
 5355SOL     OW16963   4.404   1.804   3.790
 5355SOL    HW116964   4.389   1.815   3.692
 5355SOL    HW216965   4.496   1.769   3.806
 5356SOL     OW16966   6.212   3.906   1.760
 5356SOL    HW116967   6.152   3.852   1.701
 5356SOL    HW216968   6.246   3.985   1.709
 5357SOL     OW16969   3.837   0.631   0.551
 5357SOL    HW116970   3.894   0.713   0.540
 5357SOL    HW216971   3.742   0.658   0.567
 5358SOL     OW16972   3.957   2.120   0.624
 5358SOL    HW116973   3.972   2.154   0.717
 5358SOL    HW216974   3.928   2.024   0.628
 5359SOL     OW16975   2.401   1.624   0.998
 5359SOL    HW116976   2.435   1.530   0.996
 5359SOL    HW216977   2.478   1.687   1.008
 5360SOL     OW16978   3.595   6.661   5.045
 5360SOL    HW116979   3.570   6.757   5.032
 5360SOL    HW216980   3.558   6.628   5.132
 5361SOL     OW16981   2.247   1.336   4.762
 5361SOL    HW116982   2.244   1.432   4.736
 5361SOL    HW216983   2.156   1.306   4.792
 5362SOL     OW16984   5.025   4.116   3.156
 5362SOL    HW116985   4.955   4.045   3.163
 5362SOL    HW216986   4.981   4.206   3.156
 5363SOL     OW16987   1.000   6.322   5.774
 5363SOL    HW116988   1.002   6.226   5.801
 5363SOL    HW216989   0.943   6.332   5.692
 5364SOL     OW16990   6.623   5.700   0.934
 5364SOL    HW116991   6.652   5.784   0.982
 5364SOL    HW216992   6.685   5.684   0.857
 5365SOL     OW16993   4.481   3.033   6.211
 5365SOL    HW116994   4.459   3.127   6.186
 5365SOL    HW216995   4.535   3.032   6.295
 5366SOL     OW16996   4.306   4.853   0.753
 5366SOL    HW116997   4.273   4.808   0.670
 5366SOL    HW216998   4.316   4.786   0.826
 5367SOL     OW16999   0.541   4.882   0.726
 5367SOL    HW117000   0.482   4.859   0.649
 5367SOL    HW217001   0.495   4.949   0.784
 5368SOL     OW17002   5.508   1.705   2.359
 5368SOL    HW117003   5.563   1.677   2.437
 5368SOL    HW217004   5.565   1.757   2.295
 5369SOL     OW17005   2.325   4.948   3.394
 5369SOL    HW117006   2.287   5.037   3.371
 5369SOL    HW217007   2.309   4.929   3.490
 5370SOL     OW17008   4.121   3.172   1.387
 5370SOL    HW117009   4.049   3.226   1.430
 5370SOL    HW217010   4.095   3.076   1.386
 5371SOL     OW17011   1.791   4.226   4.639
 5371SOL    HW117012   1.866   4.265   4.587
 5371SOL    HW217013   1.819   4.212   4.734
 5372SOL     OW17014   3.109   5.527   2.006
 5372SOL    HW117015   3.121   5.535   2.105
 5372SOL    HW217016   3.098   5.618   1.966
 5373SOL     OW17017   2.980   4.812   4.548
 5373SOL    HW117018   2.926   4.888   4.513
 5373SOL    HW217019   3.049   4.846   4.612
 5374SOL     OW17020   1.509   3.195   6.406
 5374SOL    HW117021   1.574   3.119   6.398
 5374SOL    HW217022   1.556   3.273   6.447
 5375SOL     OW17023   1.010   4.196   5.275
 5375SOL    HW117024   0.969   4.237   5.194
 5375SOL    HW217025   1.003   4.097   5.270
 5376SOL     OW17026   1.655   3.452   1.713
 5376SOL    HW117027   1.685   3.356   1.713
 5376SOL    HW217028   1.708   3.504   1.780
 5377SOL     OW17029   6.583   6.932   1.624
 5377SOL    HW117030   6.598   6.847   1.674
 5377SOL    HW217031   6.666   6.986   1.625
 5378SOL     OW17032   6.292   0.474   0.457
 5378SOL    HW117033   6.199   0.470   0.494
 5378SOL    HW217034   6.298   0.419   0.373
 5379SOL     OW17035   0.390   4.974   3.987
 5379SOL    HW117036   0.485   5.004   3.998
 5379SOL    HW217037   0.388   4.874   3.979
 5380SOL     OW17038   2.335   0.641   3.480
 5380SOL    HW117039   2.351   0.728   3.433
 5380SOL    HW217040   2.416   0.615   3.532
 5381SOL     OW17041   6.509   4.089   0.818
 5381SOL    HW117042   6.451   4.049   0.890
 5381SOL    HW217043   6.588   4.133   0.861
 5382SOL     OW17044   3.131   0.453   1.517
 5382SOL    HW117045   3.119   0.535   1.573
 5382SOL    HW217046   3.051   0.442   1.457
 5383SOL     OW17047   2.845   2.211   5.527
 5383SOL    HW117048   2.904   2.230   5.448
 5383SOL    HW217049   2.801   2.295   5.557
 5384SOL     OW17050   6.454   6.565   4.447
 5384SOL    HW117051   6.378   6.551   4.384
 5384SOL    HW217052   6.447   6.656   4.488
 5385SOL     OW17053   3.020   3.786   2.771
 5385SOL    HW117054   3.020   3.781   2.870
 5385SOL    HW217055   2.934   3.750   2.735
 5386SOL     OW17056   4.890   6.402   4.053
 5386SOL    HW117057   4.844   6.406   3.964
 5386SOL    HW217058   4.907   6.306   4.078
 5387SOL     OW17059   2.767   5.706   2.561
 5387SOL    HW117060   2.764   5.738   2.466
 5387SOL    HW217061   2.695   5.752   2.613
 5388SOL     OW17062   5.227   6.590   2.309
 5388SOL    HW117063   5.164   6.523   2.268
 5388SOL    HW217064   5.315   6.546   2.324
 5389SOL     OW17065   5.143   1.142   1.717
 5389SOL    HW117066   5.103   1.103   1.634
 5389SOL    HW217067   5.215   1.082   1.751
 5390SOL     OW17068   5.240   4.942   4.483
 5390SOL    HW117069   5.201   5.003   4.553
 5390SOL    HW217070   5.237   4.987   4.394
 5391SOL     OW17071   2.666   3.242   0.437
 5391SOL    HW117072   2.601   3.273   0.367
 5391SOL    HW217073   2.679   3.143   0.429
 5392SOL     OW17074   5.903   3.105   1.406
 5392SOL    HW117075   5.976   3.047   1.442
 5392SOL    HW217076   5.878   3.173   1.475
 5393SOL     OW17077   0.123   0.107   6.968
 5393SOL    HW117078   0.038   0.153   6.994
 5393SOL    HW217079   0.149   0.043   0.022
 5394SOL     OW17080   0.671   3.856   6.084
 5394SOL    HW117081   0.709   3.764   6.092
 5394SOL    HW217082   0.577   3.856   6.118
 5395SOL     OW17083   4.737   0.443   0.820
 5395SOL    HW117084   4.666   0.385   0.860
 5395SOL    HW217085   4.826   0.400   0.833
 5396SOL     OW17086   5.314   3.854   2.306
 5396SOL    HW117087   5.247   3.909   2.355
 5396SOL    HW217088   5.268   3.785   2.251
 5397SOL     OW17089   6.665   2.973   1.791
 5397SOL    HW117090   6.582   3.024   1.769
 5397SOL    HW217091   6.724   3.029   1.848
 5398SOL     OW17092   3.174   2.718   1.626
 5398SOL    HW117093   3.093   2.663   1.644
 5398SOL    HW217094   3.212   2.750   1.713
 5399SOL     OW17095   2.871   6.260   0.851
 5399SOL    HW117096   2.912   6.336   0.800
 5399SOL    HW217097   2.776   6.249   0.824
 5400SOL     OW17098   2.709   4.251   0.612
 5400SOL    HW117099   2.808   4.241   0.623
 5400SOL    HW217100   2.684   4.347   0.619
 5401SOL     OW17101   5.747   3.221   2.195
 5401SOL    HW117102   5.750   3.237   2.096
 5401SOL    HW217103   5.834   3.250   2.236
 5402SOL     OW17104   2.706   5.896   1.679
 5402SOL    HW117105   2.615   5.933   1.662
 5402SOL    HW217106   2.736   5.923   1.770
 5403SOL     OW17107   0.007   3.565   6.446
 5403SOL    HW117108   6.961   3.490   6.439
 5403SOL    HW217109   0.048   3.583   6.357
 5404SOL     OW17110   1.266   2.741   3.356
 5404SOL    HW117111   1.218   2.825   3.384
 5404SOL    HW217112   1.202   2.664   3.361
 5405SOL     OW17113   6.855   5.797   6.820
 5405SOL    HW117114   6.870   5.846   6.906
 5405SOL    HW217115   6.937   5.804   6.763
 5406SOL     OW17116   1.848   2.157   0.262
 5406SOL    HW117117   1.777   2.142   0.193
 5406SOL    HW217118   1.853   2.254   0.284
 5407SOL     OW17119   4.411   3.567   0.578
 5407SOL    HW117120   4.456   3.639   0.632
 5407SOL    HW217121   4.389   3.490   0.637
 5408SOL     OW17122   2.367   0.765   5.512
 5408SOL    HW117123   2.322   0.848   5.547
 5408SOL    HW217124   2.429   0.729   5.581
 5409SOL     OW17125   5.292   0.130   3.044
 5409SOL    HW117126   5.381   0.168   3.070
 5409SOL    HW217127   5.267   0.056   3.106
 5410SOL     OW17128   3.029   2.201   1.773
 5410SOL    HW117129   3.129   2.199   1.782
 5410SOL    HW217130   2.991   2.266   1.838
 5411SOL     OW17131   6.720   5.219   5.956
 5411SOL    HW117132   6.651   5.223   5.883
 5411SOL    HW217133   6.710   5.299   6.015
 5412SOL     OW17134   5.124   2.989   0.791
 5412SOL    HW117135   5.176   2.924   0.736
 5412SOL    HW217136   5.187   3.049   0.839
 5413SOL     OW17137   2.777   1.853   1.194
 5413SOL    HW117138   2.710   1.874   1.123
 5413SOL    HW217139   2.750   1.768   1.240
 5414SOL     OW17140   4.924   1.822   4.739
 5414SOL    HW117141   4.955   1.860   4.826
 5414SOL    HW217142   4.972   1.868   4.664
 5415SOL     OW17143   0.284   5.993   1.335
 5415SOL    HW117144   0.360   6.055   1.353
 5415SOL    HW217145   0.319   5.899   1.328
 5416SOL     OW17146   4.204   5.178   5.344
 5416SOL    HW117147   4.231   5.201   5.250
 5416SOL    HW217148   4.116   5.130   5.341
 5417SOL     OW17149   3.789   6.773   5.410
 5417SOL    HW117150   3.830   6.784   5.320
 5417SOL    HW217151   3.697   6.813   5.410
 5418SOL     OW17152   3.736   0.221   2.330
 5418SOL    HW117153   3.677   0.228   2.410
 5418SOL    HW217154   3.766   0.313   2.303
 5419SOL     OW17155   3.551   4.758   0.192
 5419SOL    HW117156   3.455   4.742   0.168
 5419SOL    HW217157   3.559   4.770   0.290
 5420SOL     OW17158   2.287   2.679   3.142
 5420SOL    HW117159   2.190   2.705   3.140
 5420SOL    HW217160   2.299   2.602   3.204
 5421SOL     OW17161   1.845   4.046   1.413
 5421SOL    HW117162   1.817   3.985   1.339
 5421SOL    HW217163   1.765   4.097   1.445
 5422SOL     OW17164   1.019   5.049   0.795
 5422SOL    HW117165   1.002   5.015   0.888
 5422SOL    HW217166   0.949   5.015   0.733
 5423SOL     OW17167   6.145   3.226   6.752
 5423SOL    HW117168   6.076   3.292   6.780
 5423SOL    HW217169   6.145   3.148   6.815
 5424SOL     OW17170   5.019   3.366   4.065
 5424SOL    HW117171   5.112   3.352   4.031
 5424SOL    HW217172   4.954   3.346   3.991
 5425SOL     OW17173   4.065   1.154   5.130
 5425SOL    HW117174   4.040   1.076   5.189
 5425SOL    HW217175   4.003   1.230   5.149
 5426SOL     OW17176   5.501   6.166   4.199
 5426SOL    HW117177   5.581   6.112   4.225
 5426SOL    HW217178   5.438   6.172   4.276
 5427SOL     OW17179   4.380   5.834   6.515
 5427SOL    HW117180   4.364   5.882   6.601
 5427SOL    HW217181   4.322   5.873   6.444
 5428SOL     OW17182   0.605   0.380   0.926
 5428SOL    HW117183   0.668   0.456   0.911
 5428SOL    HW217184   0.656   0.298   0.949
 5429SOL     OW17185   1.631   1.437   6.911
 5429SOL    HW117186   1.723   1.419   6.877
 5429SOL    HW217187   1.604   1.530   6.885
 5430SOL     OW17188   0.098   1.908   6.349
 5430SOL    HW117189   0.057   1.967   6.419
 5430SOL    HW217190   0.187   1.876   6.380
 5431SOL     OW17191   3.554   6.780   6.557
 5431SOL    HW117192   3.475   6.726   6.586
 5431SOL    HW217193   3.530   6.833   6.476
 5432SOL     OW17194   5.470   0.295   6.793
 5432SOL    HW117195   5.549   0.298   6.732
 5432SOL    HW217196   5.404   0.229   6.758
 5433SOL     OW17197   0.456   1.918   4.494
 5433SOL    HW117198   0.418   1.980   4.563
 5433SOL    HW217199   0.381   1.869   4.450
 5434SOL     OW17200   2.928   0.121   5.641
 5434SOL    HW117201   2.891   0.200   5.689
 5434SOL    HW217202   2.880   0.109   5.555
 5435SOL     OW17203   4.866   6.972   1.980
 5435SOL    HW117204   4.843   6.878   2.006
 5435SOL    HW217205   4.800   7.006   1.913
 5436SOL     OW17206   4.738   4.198   3.314
 5436SOL    HW117207   4.726   4.105   3.279
 5436SOL    HW217208   4.824   4.203   3.366
 5437SOL     OW17209   2.638   4.074   0.404
 5437SOL    HW117210   2.650   3.975   0.411
 5437SOL    HW217211   2.695   4.120   0.472
 5438SOL     OW17212   6.733   2.755   1.657
 5438SOL    HW117213   6.753   2.842   1.702
 5438SOL    HW217214   6.813   2.695   1.666
 5439SOL     OW17215   1.603   1.916   1.173
 5439SOL    HW117216   1.588   1.985   1.244
 5439SOL    HW217217   1.701   1.901   1.161
 5440SOL     OW17218   1.609   1.374   1.490
 5440SOL    HW117219   1.607   1.425   1.404
 5440SOL    HW217220   1.677   1.301   1.482
 5441SOL     OW17221   3.878   1.904   4.019
 5441SOL    HW117222   3.969   1.939   3.998
 5441SOL    HW217223   3.812   1.942   3.955
 5442SOL     OW17224   4.674   6.594   2.699
 5442SOL    HW117225   4.587   6.636   2.723
 5442SOL    HW217226   4.744   6.619   2.766
 5443SOL     OW17227   3.024   0.229   5.056
 5443SOL    HW117228   3.121   0.214   5.075
 5443SOL    HW217229   2.984   0.146   5.018
 5444SOL     OW17230   0.894   0.432   4.421
 5444SOL    HW117231   0.913   0.362   4.352
 5444SOL    HW217232   0.980   0.474   4.451
 5445SOL     OW17233   6.571   4.058   3.375
 5445SOL    HW117234   6.505   3.994   3.337
 5445SOL    HW217235   6.597   4.029   3.467
 5446SOL     OW17236   5.742   5.673   5.086
 5446SOL    HW117237   5.805   5.751   5.096
 5446SOL    HW217238   5.741   5.644   4.991
 5447SOL     OW17239   3.293   2.581   0.098
 5447SOL    HW117240   3.209   2.531   0.078
 5447SOL    HW217241   3.271   2.676   0.119
 5448SOL     OW17242   4.661   2.449   5.151
 5448SOL    HW117243   4.578   2.505   5.157
 5448SOL    HW217244   4.639   2.360   5.111
 5449SOL     OW17245   1.496   2.127   6.309
 5449SOL    HW117246   1.484   2.172   6.397
 5449SOL    HW217247   1.413   2.138   6.254
 5450SOL     OW17248   2.495   0.809   1.929
 5450SOL    HW117249   2.547   0.797   1.844
 5450SOL    HW217250   2.414   0.865   1.912
 5451SOL     OW17251   1.172   6.014   3.174
 5451SOL    HW117252   1.269   5.990   3.173
 5451SOL    HW217253   1.133   6.001   3.083
 5452SOL     OW17254   1.895   4.239   0.194
 5452SOL    HW117255   1.948   4.289   0.263
 5452SOL    HW217256   1.899   4.141   0.212
 5453SOL     OW17257   6.782   4.185   0.794
 5453SOL    HW117258   6.781   4.097   0.748
 5453SOL    HW217259   6.876   4.217   0.805
 5454SOL     OW17260   6.968   4.461   6.567
 5454SOL    HW117261   6.912   4.423   6.493
 5454SOL    HW217262   0.028   4.509   6.528
 5455SOL     OW17263   0.148   3.041   0.990
 5455SOL    HW117264   0.074   3.081   1.044
 5455SOL    HW217265   0.157   2.944   1.013
 5456SOL     OW17266   3.249   0.745   6.374
 5456SOL    HW117267   3.164   0.707   6.339
 5456SOL    HW217268   3.320   0.675   6.374
 5457SOL     OW17269   5.362   2.326   0.844
 5457SOL    HW117270   5.365   2.232   0.878
 5457SOL    HW217271   5.333   2.325   0.748
 5458SOL     OW17272   0.906   4.599   6.944
 5458SOL    HW117273   0.949   4.538   7.011
 5458SOL    HW217274   0.918   4.561   6.852
 5459SOL     OW17275   1.841   5.185   0.204
 5459SOL    HW117276   1.852   5.150   0.297
 5459SOL    HW217277   1.904   5.137   0.143
 5460SOL     OW17278   3.362   0.301   1.553
 5460SOL    HW117279   3.395   0.258   1.469
 5460SOL    HW217280   3.270   0.337   1.538
 5461SOL     OW17281   5.162   6.356   5.263
 5461SOL    HW117282   5.193   6.452   5.264
 5461SOL    HW217283   5.235   6.298   5.299
 5462SOL     OW17284   1.505   0.856   0.913
 5462SOL    HW117285   1.538   0.857   1.007
 5462SOL    HW217286   1.576   0.891   0.852
 5463SOL     OW17287   6.147   2.467   0.813
 5463SOL    HW117288   6.124   2.462   0.716
 5463SOL    HW217289   6.169   2.561   0.837
 5464SOL     OW17290   1.866   0.672   4.106
 5464SOL    HW117291   1.914   0.732   4.171
 5464SOL    HW217292   1.790   0.722   4.064
 5465SOL     OW17293   3.923   0.038   3.710
 5465SOL    HW117294   4.011   0.005   3.743
 5465SOL    HW217295   3.857   6.982   3.710
 5466SOL     OW17296   5.334   4.502   4.890
 5466SOL    HW117297   5.427   4.471   4.910
 5466SOL    HW217298   5.311   4.479   4.795
 5467SOL     OW17299   5.241   2.030   2.764
 5467SOL    HW117300   5.225   1.964   2.691
 5467SOL    HW217301   5.293   1.986   2.837
 5468SOL     OW17302   4.698   1.767   4.610
 5468SOL    HW117303   4.788   1.765   4.653
 5468SOL    HW217304   4.645   1.843   4.648
 5469SOL     OW17305   4.050   4.699   6.278
 5469SOL    HW117306   3.981   4.751   6.226
 5469SOL    HW217307   4.020   4.604   6.287
 5470SOL     OW17308   1.924   4.949   3.814
 5470SOL    HW117309   1.976   4.904   3.741
 5470SOL    HW217310   1.880   5.031   3.777
 5471SOL     OW17311   5.548   5.951   1.202
 5471SOL    HW117312   5.624   5.913   1.149
 5471SOL    HW217313   5.501   6.020   1.147
 5472SOL     OW17314   4.535   3.908   6.081
 5472SOL    HW117315   4.546   3.858   5.995
 5472SOL    HW217316   4.499   3.999   6.063
 5473SOL     OW17317   1.035   3.543   2.808
 5473SOL    HW117318   1.089   3.532   2.725
 5473SOL    HW217319   1.096   3.546   2.887
 5474SOL     OW17320   2.207   4.946   4.233
 5474SOL    HW117321   2.295   4.993   4.239
 5474SOL    HW217322   2.166   4.963   4.143
 5475SOL     OW17323   3.782   2.555   1.264
 5475SOL    HW117324   3.792   2.461   1.296
 5475SOL    HW217325   3.725   2.606   1.329
 5476SOL     OW17326   1.996   3.418   6.176
 5476SOL    HW117327   1.959   3.414   6.083
 5476SOL    HW217328   2.015   3.325   6.208
 5477SOL     OW17329   2.100   3.444   3.261
 5477SOL    HW117330   2.063   3.536   3.273
 5477SOL    HW217331   2.146   3.415   3.345
 5478SOL     OW17332   5.294   5.748   6.376
 5478SOL    HW117333   5.331   5.832   6.335
 5478SOL    HW217334   5.353   5.671   6.352
 5479SOL     OW17335   4.910   0.718   4.613
 5479SOL    HW117336   4.995   0.673   4.638
 5479SOL    HW217337   4.919   0.757   4.521
 5480SOL     OW17338   0.774   4.138   4.542
 5480SOL    HW117339   0.680   4.169   4.528
 5480SOL    HW217340   0.779   4.083   4.625
 5481SOL     OW17341   2.895   0.291   4.631
 5481SOL    HW117342   2.941   0.342   4.704
 5481SOL    HW217343   2.928   0.323   4.543
 5482SOL     OW17344   3.340   4.513   1.664
 5482SOL    HW117345   3.438   4.506   1.678
 5482SOL    HW217346   3.322   4.546   1.571
 5483SOL     OW17347   0.680   2.516   6.123
 5483SOL    HW117348   0.614   2.452   6.084
 5483SOL    HW217349   0.703   2.488   6.216
 5484SOL     OW17350   4.630   0.600   4.555
 5484SOL    HW117351   4.628   0.567   4.649
 5484SOL    HW217352   4.725   0.612   4.525
 5485SOL     OW17353   2.563   6.135   5.359
 5485SOL    HW117354   2.509   6.181   5.288
 5485SOL    HW217355   2.547   6.037   5.355
 5486SOL     OW17356   2.690   5.782   4.926
 5486SOL    HW117357   2.734   5.868   4.951
 5486SOL    HW217358   2.697   5.717   5.001
 5487SOL     OW17359   2.908   4.445   5.811
 5487SOL    HW117360   2.842   4.474   5.880
 5487SOL    HW217361   2.873   4.467   5.720
 5488SOL     OW17362   5.659   1.183   0.752
 5488SOL    HW117363   5.599   1.176   0.672
 5488SOL    HW217364   5.725   1.107   0.750
 5489SOL     OW17365   6.805   3.184   2.181
 5489SOL    HW117366   6.836   3.268   2.225
 5489SOL    HW217367   6.735   3.141   2.238
 5490SOL     OW17368   0.933   6.716   2.550
 5490SOL    HW117369   1.019   6.759   2.579
 5490SOL    HW217370   0.931   6.710   2.450
 5491SOL     OW17371   6.974   3.140   0.742
 5491SOL    HW117372   0.004   3.167   0.825
 5491SOL    HW217373   6.878   3.121   0.765
 5492SOL     OW17374   0.479   2.084   5.579
 5492SOL    HW117375   0.543   2.131   5.639
 5492SOL    HW217376   0.387   2.089   5.618
 5493SOL     OW17377   4.114   3.611   1.905
 5493SOL    HW117378   4.178   3.671   1.856
 5493SOL    HW217379   4.113   3.635   2.002
 5494SOL     OW17380   5.873   4.162   5.267
 5494SOL    HW117381   5.906   4.102   5.194
 5494SOL    HW217382   5.948   4.217   5.302
 5495SOL     OW17383   5.798   0.528   0.270
 5495SOL    HW117384   5.706   0.504   0.299
 5495SOL    HW217385   5.829   0.462   0.201
 5496SOL     OW17386   4.564   0.973   4.210
 5496SOL    HW117387   4.609   0.925   4.286
 5496SOL    HW217388   4.469   0.943   4.203
 5497SOL     OW17389   0.595   1.230   5.875
 5497SOL    HW117390   0.676   1.172   5.870
 5497SOL    HW217391   0.590   1.286   5.792
 5498SOL     OW17392   0.908   4.932   1.963
 5498SOL    HW117393   0.967   5.010   1.986
 5498SOL    HW217394   0.841   4.918   2.036
 5499SOL     OW17395   0.527   0.538   4.931
 5499SOL    HW117396   0.502   0.531   5.028
 5499SOL    HW217397   0.626   0.535   4.921
 5500SOL     OW17398   2.314   0.687   0.277
 5500SOL    HW117399   2.218   0.668   0.300
 5500SOL    HW217400   2.373   0.623   0.325
 5501SOL     OW17401   4.083   2.246   6.912
 5501SOL    HW117402   4.084   2.317   6.983
 5501SOL    HW217403   4.173   2.202   6.907
 5502SOL     OW17404   5.037   2.584   0.064
 5502SOL    HW117405   5.087   2.665   0.095
 5502SOL    HW217406   4.946   2.612   0.034
 5503SOL     OW17407   0.503   3.378   0.095
 5503SOL    HW117408   0.558   3.322   0.033
 5503SOL    HW217409   0.529   3.475   0.084
 5504SOL     OW17410   3.633   0.959   6.847
 5504SOL    HW117411   3.698   1.020   6.802
 5504SOL    HW217412   3.655   0.864   6.825
 5505SOL     OW17413   2.683   4.747   4.323
 5505SOL    HW117414   2.700   4.741   4.421
 5505SOL    HW217415   2.770   4.763   4.276
 5506SOL     OW17416   0.312   3.521   5.987
 5506SOL    HW117417   0.398   3.561   5.954
 5506SOL    HW217418   0.329   3.427   6.016
 5507SOL     OW17419   2.948   0.012   6.264
 5507SOL    HW117420   2.887   0.066   6.321
 5507SOL    HW217421   3.005   0.073   6.209
 5508SOL     OW17422   0.877   0.875   6.612
 5508SOL    HW117423   0.922   0.786   6.606
 5508SOL    HW217424   0.778   0.862   6.604
 5509SOL     OW17425   0.097   5.458   0.584
 5509SOL    HW117426   0.050   5.425   0.666
 5509SOL    HW217427   0.155   5.385   0.548
 5510SOL     OW17428   4.263   5.183   6.876
 5510SOL    HW117429   4.282   5.123   6.799
 5510SOL    HW217430   4.165   5.179   6.897
 5511SOL     OW17431   0.640   1.510   5.492
 5511SOL    HW117432   0.707   1.569   5.448
 5511SOL    HW217433   0.565   1.565   5.529
 5512SOL     OW17434   3.860   1.035   2.319
 5512SOL    HW117435   3.956   1.060   2.336
 5512SOL    HW217436   3.839   0.950   2.366
 5513SOL     OW17437   4.184   5.004   0.147
 5513SOL    HW117438   4.145   4.945   0.076
 5513SOL    HW217439   4.167   5.100   0.124
 5514SOL     OW17440   3.030   6.979   5.859
 5514SOL    HW117441   2.996   0.020   5.786
 5514SOL    HW217442   3.108   6.927   5.825
 5515SOL     OW17443   2.311   5.947   1.976
 5515SOL    HW117444   2.331   5.974   2.070
 5515SOL    HW217445   2.331   6.023   1.914
 5516SOL     OW17446   2.506   2.752   5.225
 5516SOL    HW117447   2.491   2.720   5.132
 5516SOL    HW217448   2.496   2.851   5.229
 5517SOL     OW17449   1.677   3.865   2.947
 5517SOL    HW117450   1.727   3.951   2.956
 5517SOL    HW217451   1.620   3.868   2.864
 5518SOL     OW17452   4.622   4.358   5.879
 5518SOL    HW117453   4.683   4.292   5.923
 5518SOL    HW217454   4.588   4.320   5.793
 5519SOL     OW17455   4.525   2.527   3.683
 5519SOL    HW117456   4.584   2.449   3.703
 5519SOL    HW217457   4.445   2.496   3.632
 5520SOL     OW17458   5.880   6.714   1.962
 5520SOL    HW117459   5.857   6.763   1.878
 5520SOL    HW217460   5.856   6.618   1.952
 5521SOL     OW17461   5.860   5.839   1.493
 5521SOL    HW117462   5.860   5.845   1.393
 5521SOL    HW217463   5.835   5.747   1.521
 5522SOL     OW17464   6.304   5.100   0.863
 5522SOL    HW117465   6.403   5.117   0.866
 5522SOL    HW217466   6.260   5.147   0.939
 5523SOL     OW17467   5.786   1.304   2.049
 5523SOL    HW117468   5.756   1.222   2.098
 5523SOL    HW217469   5.855   1.279   1.982
 5524SOL     OW17470   3.134   0.702   4.755
 5524SOL    HW117471   3.113   0.688   4.852
 5524SOL    HW217472   3.209   0.769   4.747
 5525SOL     OW17473   6.365   2.560   1.558
 5525SOL    HW117474   6.461   2.574   1.532
 5525SOL    HW217475   6.333   2.472   1.522
 5526SOL     OW17476   4.812   4.641   3.270
 5526SOL    HW117477   4.864   4.684   3.196
 5526SOL    HW217478   4.721   4.683   3.275
 5527SOL     OW17479   5.634   2.183   4.198
 5527SOL    HW117480   5.697   2.259   4.216
 5527SOL    HW217481   5.576   2.206   4.120
 5528SOL     OW17482   0.971   1.837   1.546
 5528SOL    HW117483   1.015   1.924   1.522
 5528SOL    HW217484   1.035   1.762   1.530
 5529SOL     OW17485   3.429   0.594   2.140
 5529SOL    HW117486   3.518   0.636   2.126
 5529SOL    HW217487   3.376   0.649   2.204
 5530SOL     OW17488   6.592   2.649   1.426
 5530SOL    HW117489   6.643   2.571   1.392
 5530SOL    HW217490   6.644   2.695   1.498
 5531SOL     OW17491   3.165   3.875   1.158
 5531SOL    HW117492   3.226   3.868   1.080
 5531SOL    HW217493   3.161   3.970   1.189
 5532SOL     OW17494   1.556   3.276   1.345
 5532SOL    HW117495   1.560   3.256   1.247
 5532SOL    HW217496   1.623   3.219   1.393
 5533SOL     OW17497   4.054   1.622   3.801
 5533SOL    HW117498   4.136   1.566   3.804
 5533SOL    HW217499   4.063   1.698   3.866
 5534SOL     OW17500   1.123   1.522   5.064
 5534SOL    HW117501   1.131   1.617   5.035
 5534SOL    HW217502   1.157   1.462   4.993
 5535SOL     OW17503   0.701   2.047   3.254
 5535SOL    HW117504   0.743   2.135   3.236
 5535SOL    HW217505   0.728   2.015   3.344
 5536SOL     OW17506   3.077   0.396   4.403
 5536SOL    HW117507   3.070   0.490   4.438
 5536SOL    HW217508   3.117   0.397   4.312
 5537SOL     OW17509   3.022   1.133   2.822
 5537SOL    HW117510   3.017   1.065   2.749
 5537SOL    HW217511   2.970   1.101   2.901
 5538SOL     OW17512   4.451   5.806   4.535
 5538SOL    HW117513   4.407   5.768   4.617
 5538SOL    HW217514   4.539   5.761   4.522
 5539SOL     OW17515   2.709   2.625   0.747
 5539SOL    HW117516   2.687   2.720   0.769
 5539SOL    HW217517   2.628   2.568   0.758
 5540SOL     OW17518   5.433   4.433   2.617
 5540SOL    HW117519   5.525   4.470   2.633
 5540SOL    HW217520   5.436   4.333   2.622
 5541SOL     OW17521   4.601   1.249   5.608
 5541SOL    HW117522   4.518   1.263   5.661
 5541SOL    HW217523   4.578   1.236   5.512
 5542SOL     OW17524   4.712   4.427   6.444
 5542SOL    HW117525   4.686   4.524   6.447
 5542SOL    HW217526   4.691   4.390   6.353
 5543SOL     OW17527   6.369   2.333   5.794
 5543SOL    HW117528   6.394   2.387   5.875
 5543SOL    HW217529   6.380   2.236   5.815
 5544SOL     OW17530   5.825   0.937   5.889
 5544SOL    HW117531   5.905   0.956   5.833
 5544SOL    HW217532   5.747   0.991   5.855
 5545SOL     OW17533   3.153   2.091   2.048
 5545SOL    HW117534   3.230   2.117   2.106
 5545SOL    HW217535   3.087   2.166   2.043
 5546SOL     OW17536   1.652   4.973   5.876
 5546SOL    HW117537   1.664   4.883   5.835
 5546SOL    HW217538   1.555   4.997   5.876
 5547SOL     OW17539   3.702   5.665   4.718
 5547SOL    HW117540   3.674   5.651   4.813
 5547SOL    HW217541   3.748   5.582   4.685
 5548SOL     OW17542   6.262   3.319   5.131
 5548SOL    HW117543   6.314   3.393   5.174
 5548SOL    HW217544   6.281   3.233   5.178
 5549SOL     OW17545   2.365   4.952   6.888
 5549SOL    HW117546   2.320   4.864   6.906
 5549SOL    HW217547   2.456   4.935   6.850
 5550SOL     OW17548   4.117   6.456   1.275
 5550SOL    HW117549   4.063   6.535   1.304
 5550SOL    HW217550   4.167   6.419   1.353
 5551SOL     OW17551   1.000   1.506   2.912
 5551SOL    HW117552   0.954   1.595   2.917
 5551SOL    HW217553   0.940   1.435   2.947
 5552SOL     OW17554   0.187   2.670   1.784
 5552SOL    HW117555   0.206   2.685   1.881
 5552SOL    HW217556   0.228   2.745   1.730
 5553SOL     OW17557   5.274   5.754   0.510
 5553SOL    HW117558   5.235   5.747   0.601
 5553SOL    HW217559   5.201   5.757   0.442
 5554SOL     OW17560   2.704   2.331   4.637
 5554SOL    HW117561   2.667   2.238   4.630
 5554SOL    HW217562   2.782   2.331   4.698
 5555SOL     OW17563   0.391   5.754   2.758
 5555SOL    HW117564   0.311   5.730   2.703
 5555SOL    HW217565   0.444   5.825   2.711
 5556SOL     OW17566   0.031   1.260   4.842
 5556SOL    HW117567   6.951   1.258   4.829
 5556SOL    HW217568   0.063   1.168   4.866
 5557SOL     OW17569   2.465   0.202   3.588
 5557SOL    HW117570   2.506   0.127   3.640
 5557SOL    HW217571   2.526   0.225   3.511
 5558SOL     OW17572   5.185   2.862   5.006
 5558SOL    HW117573   5.159   2.952   5.039
 5558SOL    HW217574   5.106   2.801   5.009
 5559SOL     OW17575   2.094   0.567   1.497
 5559SOL    HW117576   2.092   0.488   1.436
 5559SOL    HW217577   2.179   0.566   1.550
 5560SOL     OW17578   0.221   1.083   4.313
 5560SOL    HW117579   0.185   1.063   4.404
 5560SOL    HW217580   0.174   1.025   4.246
 5561SOL     OW17581   1.849   3.125   3.523
 5561SOL    HW117582   1.797   3.158   3.443
 5561SOL    HW217583   1.793   3.061   3.575
 5562SOL     OW17584   2.547   2.516   5.789
 5562SOL    HW117585   2.493   2.587   5.834
 5562SOL    HW217586   2.620   2.486   5.851
 5563SOL     OW17587   4.267   5.575   1.510
 5563SOL    HW117588   4.270   5.567   1.410
 5563SOL    HW217589   4.342   5.633   1.541
 5564SOL     OW17590   5.438   4.547   1.842
 5564SOL    HW117591   5.486   4.599   1.772
 5564SOL    HW217592   5.344   4.528   1.811
 5565SOL     OW17593   3.335   3.674   5.497
 5565SOL    HW117594   3.388   3.656   5.414
 5565SOL    HW217595   3.244   3.636   5.488
 5566SOL     OW17596   1.846   4.689   1.045
 5566SOL    HW117597   1.858   4.681   1.144
 5566SOL    HW217598   1.925   4.649   0.999
 5567SOL     OW17599   1.113   5.406   2.145
 5567SOL    HW117600   1.155   5.432   2.058
 5567SOL    HW217601   1.182   5.402   2.216
 5568SOL     OW17602   3.148   2.314   1.507
 5568SOL    HW117603   3.189   2.291   1.419
 5568SOL    HW217604   3.199   2.270   1.580
 5569SOL     OW17605   5.670   1.790   6.888
 5569SOL    HW117606   5.744   1.847   6.851
 5569SOL    HW217607   5.589   1.845   6.902
 5570SOL     OW17608   6.983   4.660   6.104
 5570SOL    HW117609   6.913   4.731   6.115
 5570SOL    HW217610   7.005   4.621   6.194
 5571SOL     OW17611   6.917   4.803   5.782
 5571SOL    HW117612   6.985   4.791   5.710
 5571SOL    HW217613   6.900   4.715   5.826
 5572SOL     OW17614   5.228   2.730   5.721
 5572SOL    HW117615   5.175   2.813   5.733
 5572SOL    HW217616   5.260   2.725   5.626
 5573SOL     OW17617   0.908   3.903   0.606
 5573SOL    HW117618   0.982   3.932   0.666
 5573SOL    HW217619   0.879   3.810   0.630
 5574SOL     OW17620   0.305   5.946   4.785
 5574SOL    HW117621   0.223   5.969   4.732
 5574SOL    HW217622   0.320   5.847   4.781
 5575SOL     OW17623   2.004   1.104   1.133
 5575SOL    HW117624   2.055   1.061   1.207
 5575SOL    HW217625   1.907   1.082   1.142
 5576SOL     OW17626   6.093   6.084   6.767
 5576SOL    HW117627   6.101   6.034   6.853
 5576SOL    HW217628   6.035   6.164   6.780
 5577SOL     OW17629   2.015   3.817   5.461
 5577SOL    HW117630   1.925   3.781   5.436
 5577SOL    HW217631   2.062   3.849   5.379
 5578SOL     OW17632   4.063   2.581   6.307
 5578SOL    HW117633   4.142   2.561   6.249
 5578SOL    HW217634   4.094   2.611   6.397
 5579SOL     OW17635   4.887   4.788   0.159
 5579SOL    HW117636   4.862   4.720   0.228
 5579SOL    HW217637   4.873   4.880   0.197
 5580SOL     OW17638   5.826   1.432   0.746
 5580SOL    HW117639   5.762   1.355   0.741
 5580SOL    HW217640   5.779   1.517   0.723
 5581SOL     OW17641   3.067   2.413   7.014
 5581SOL    HW117642   3.061   2.379   6.921
 5581SOL    HW217643   3.014   2.354   0.056
 5582SOL     OW17644   3.671   3.582   3.424
 5582SOL    HW117645   3.624   3.553   3.340
 5582SOL    HW217646   3.763   3.615   3.401
 5583SOL     OW17647   3.687   0.160   1.093
 5583SOL    HW117648   3.702   0.246   1.045
 5583SOL    HW217649   3.690   0.084   1.028
 5584SOL     OW17650   6.220   2.779   3.488
 5584SOL    HW117651   6.300   2.763   3.430
 5584SOL    HW217652   6.180   2.867   3.465
 5585SOL     OW17653   6.053   6.734   4.379
 5585SOL    HW117654   6.096   6.804   4.323
 5585SOL    HW217655   6.078   6.748   4.475
 5586SOL     OW17656   2.178   0.900   6.473
 5586SOL    HW117657   2.231   0.978   6.438
 5586SOL    HW217658   2.202   0.883   6.568
 5587SOL     OW17659   3.188   7.008   4.069
 5587SOL    HW117660   3.226   0.081   4.062
 5587SOL    HW217661   3.151   6.980   3.981
 5588SOL     OW17662   4.132   0.438   6.612
 5588SOL    HW117663   4.163   0.519   6.561
 5588SOL    HW217664   4.181   0.434   6.699
 5589SOL     OW17665   4.153   3.380   6.259
 5589SOL    HW117666   4.055   3.391   6.243
 5589SOL    HW217667   4.173   3.397   6.355
 5590SOL     OW17668   0.035   6.624   3.283
 5590SOL    HW117669   0.127   6.585   3.293
 5590SOL    HW217670   6.992   6.582   3.350
 5591SOL     OW17671   4.791   0.853   0.144
 5591SOL    HW117672   4.753   0.762   0.128
 5591SOL    HW217673   4.852   0.877   0.068
 5592SOL     OW17674   1.937   2.235   2.668
 5592SOL    HW117675   1.972   2.190   2.586
 5592SOL    HW217676   1.924   2.167   2.740
 5593SOL     OW17677   1.723   3.265   5.149
 5593SOL    HW117678   1.755   3.263   5.054
 5593SOL    HW217679   1.631   3.227   5.154
 5594SOL     OW17680   2.856   0.640   6.815
 5594SOL    HW117681   2.855   0.544   6.840
 5594SOL    HW217682   2.874   0.696   6.896
 5595SOL     OW17683   0.061   1.097   5.157
 5595SOL    HW117684   0.043   1.061   5.066
 5595SOL    HW217685   0.158   1.084   5.180
 5596SOL     OW17686   5.323   1.648   2.875
 5596SOL    HW117687   5.295   1.737   2.911
 5596SOL    HW217688   5.338   1.585   2.951
 5597SOL     OW17689   0.358   1.083   5.878
 5597SOL    HW117690   0.279   1.140   5.901
 5597SOL    HW217691   0.442   1.135   5.891
 5598SOL     OW17692   6.781   2.295   4.238
 5598SOL    HW117693   6.842   2.218   4.255
 5598SOL    HW217694   6.755   2.337   4.325
 5599SOL     OW17695   5.005   2.527   3.115
 5599SOL    HW117696   4.988   2.429   3.127
 5599SOL    HW217697   5.035   2.566   3.202
 5600SOL     OW17698   2.789   1.085   1.812
 5600SOL    HW117699   2.804   0.990   1.839
 5600SOL    HW217700   2.804   1.144   1.891
 5601SOL     OW17701   6.144   2.790   5.345
 5601SOL    HW117702   6.222   2.761   5.290
 5601SOL    HW217703   6.141   2.735   5.429
 5602SOL     OW17704   6.623   2.450   2.961
 5602SOL    HW117705   6.712   2.438   2.916
 5602SOL    HW217706   6.575   2.362   2.964
 5603SOL     OW17707   4.373   1.189   5.376
 5603SOL    HW117708   4.345   1.282   5.395
 5603SOL    HW217709   4.428   1.187   5.292
 5604SOL     OW17710   0.973   0.271   3.940
 5604SOL    HW117711   0.881   0.243   3.967
 5604SOL    HW217712   0.999   0.354   3.988
 5605SOL     OW17713   4.404   6.720   4.309
 5605SOL    HW117714   4.463   6.725   4.228
 5605SOL    HW217715   4.362   6.630   4.314
 5606SOL     OW17716   5.092   2.878   0.357
 5606SOL    HW117717   5.059   2.784   0.367
 5606SOL    HW217718   5.017   2.938   0.331
 5607SOL     OW17719   6.430   2.839   2.437
 5607SOL    HW117720   6.379   2.770   2.489
 5607SOL    HW217721   6.397   2.842   2.343
 5608SOL     OW17722   4.805   0.693   3.031
 5608SOL    HW117723   4.814   0.780   3.080
 5608SOL    HW217724   4.892   0.671   2.987
 5609SOL     OW17725   0.451   0.438   0.423
 5609SOL    HW117726   0.372   0.448   0.363
 5609SOL    HW217727   0.422   0.445   0.519
 5610SOL     OW17728   5.361   4.694   1.284
 5610SOL    HW117729   5.408   4.778   1.312
 5610SOL    HW217730   5.275   4.686   1.335
 5611SOL     OW17731   6.439   5.423   1.925
 5611SOL    HW117732   6.525   5.401   1.880
 5611SOL    HW217733   6.435   5.377   2.014
 5612SOL     OW17734   3.611   1.676   0.648
 5612SOL    HW117735   3.623   1.767   0.687
 5612SOL    HW217736   3.558   1.683   0.563
 5613SOL     OW17737   5.794   4.900   6.045
 5613SOL    HW117738   5.888   4.871   6.026
 5613SOL    HW217739   5.767   4.867   6.135
 5614SOL     OW17740   5.160   3.322   3.787
 5614SOL    HW117741   5.258   3.301   3.792
 5614SOL    HW217742   5.108   3.237   3.776
 5615SOL     OW17743   6.980   2.189   3.112
 5615SOL    HW117744   0.003   2.246   3.042
 5615SOL    HW217745   6.980   2.238   3.199
 5616SOL     OW17746   1.628   3.053   2.293
 5616SOL    HW117747   1.601   3.007   2.377
 5616SOL    HW217748   1.692   3.127   2.314
 5617SOL     OW17749   1.930   5.018   5.909
 5617SOL    HW117750   1.846   4.963   5.906
 5617SOL    HW217751   1.989   4.992   5.832
 5618SOL     OW17752   5.729   6.421   2.781
 5618SOL    HW117753   5.806   6.473   2.744
 5618SOL    HW217754   5.723   6.332   2.736
 5619SOL     OW17755   3.901   2.971   3.510
 5619SOL    HW117756   3.805   2.949   3.528
 5619SOL    HW217757   3.950   2.979   3.597
 5620SOL     OW17758   5.230   4.321   5.042
 5620SOL    HW117759   5.276   4.328   5.130
 5620SOL    HW217760   5.265   4.392   4.981
 5621SOL     OW17761   0.856   2.026   5.716
 5621SOL    HW117762   0.932   2.081   5.750
 5621SOL    HW217763   0.770   2.076   5.727
 5622SOL     OW17764   4.755   6.056   3.617
 5622SOL    HW117765   4.800   5.994   3.552
 5622SOL    HW217766   4.760   6.018   3.709
 5623SOL     OW17767   4.890   5.423   4.056
 5623SOL    HW117768   4.818   5.379   4.110
 5623SOL    HW217769   4.931   5.357   3.994
 5624SOL     OW17770   6.359   4.905   3.369
 5624SOL    HW117771   6.454   4.876   3.359
 5624SOL    HW217772   6.349   5.000   3.341
 5625SOL     OW17773   1.472   6.180   5.508
 5625SOL    HW117774   1.508   6.273   5.505
 5625SOL    HW217775   1.492   6.139   5.597
 5626SOL     OW17776   1.096   4.782   6.702
 5626SOL    HW117777   1.175   4.723   6.682
 5626SOL    HW217778   1.090   4.797   6.800
 5627SOL     OW17779   0.635   5.871   0.286
 5627SOL    HW117780   0.635   5.772   0.267
 5627SOL    HW217781   0.547   5.910   0.259
 5628SOL     OW17782   2.613   2.739   1.096
 5628SOL    HW117783   2.644   2.769   1.186
 5628SOL    HW217784   2.623   2.814   1.031
 5629SOL     OW17785   5.777   3.511   2.478
 5629SOL    HW117786   5.772   3.543   2.384
 5629SOL    HW217787   5.798   3.413   2.479
 5630SOL     OW17788   1.055   3.965   6.339
 5630SOL    HW117789   1.115   3.930   6.267
 5630SOL    HW217790   1.073   4.063   6.353
 5631SOL     OW17791   3.484   1.842   1.867
 5631SOL    HW117792   3.567   1.899   1.876
 5631SOL    HW217793   3.440   1.834   1.956
 5632SOL     OW17794   5.353   6.899   5.824
 5632SOL    HW117795   5.313   6.936   5.908
 5632SOL    HW217796   5.415   6.967   5.785
 5633SOL     OW17797   0.754   4.848   5.446
 5633SOL    HW117798   0.853   4.832   5.449
 5633SOL    HW217799   0.712   4.812   5.529
 5634SOL     OW17800   2.257   0.021   1.244
 5634SOL    HW117801   2.235   6.945   1.267
 5634SOL    HW217802   2.355   0.029   1.228
 5635SOL     OW17803   2.742   0.461   0.507
 5635SOL    HW117804   2.813   0.423   0.449
 5635SOL    HW217805   2.749   0.420   0.599
 5636SOL     OW17806   5.419   1.532   5.286
 5636SOL    HW117807   5.375   1.463   5.342
 5636SOL    HW217808   5.360   1.612   5.279
 5637SOL     OW17809   5.112   6.379   4.411
 5637SOL    HW117810   5.204   6.413   4.430
 5637SOL    HW217811   5.087   6.310   4.478
 5638SOL     OW17812   6.130   5.224   1.048
 5638SOL    HW117813   6.053   5.176   1.090
 5638SOL    HW217814   6.120   5.322   1.062
 5639SOL     OW17815   2.090   0.345   1.326
 5639SOL    HW117816   2.071   0.300   1.414
 5639SOL    HW217817   2.018   0.321   1.260
 5640SOL     OW17818   3.036   6.245   2.855
 5640SOL    HW117819   2.971   6.309   2.814
 5640SOL    HW217820   3.069   6.182   2.784
 5641SOL     OW17821   0.596   4.368   4.011
 5641SOL    HW117822   0.558   4.436   3.948
 5641SOL    HW217823   0.686   4.339   3.978
 5642SOL     OW17824   1.667   4.416   0.174
 5642SOL    HW117825   1.759   4.379   0.187
 5642SOL    HW217826   1.625   4.374   0.093
 5643SOL     OW17827   4.205   2.044   5.291
 5643SOL    HW117828   4.179   2.090   5.206
 5643SOL    HW217829   4.281   1.982   5.274
 5644SOL     OW17830   4.136   1.309   4.875
 5644SOL    HW117831   4.148   1.273   4.968
 5644SOL    HW217832   4.224   1.312   4.829
 5645SOL     OW17833   6.143   5.719   4.036
 5645SOL    HW117834   6.079   5.644   4.017
 5645SOL    HW217835   6.129   5.752   4.129
 5646SOL     OW17836   0.521   5.639   4.182
 5646SOL    HW117837   0.578   5.721   4.178
 5646SOL    HW217838   0.440   5.658   4.237
 5647SOL     OW17839   5.647   5.199   6.386
 5647SOL    HW117840   5.621   5.110   6.424
 5647SOL    HW217841   5.666   5.189   6.288
 5648SOL     OW17842   2.090   1.858   5.419
 5648SOL    HW117843   2.004   1.892   5.380
 5648SOL    HW217844   2.111   1.768   5.381
 5649SOL     OW17845   0.867   0.696   5.474
 5649SOL    HW117846   0.883   0.750   5.557
 5649SOL    HW217847   0.863   0.756   5.395
 5650SOL     OW17848   6.272   4.848   6.973
 5650SOL    HW117849   6.264   4.898   6.887
 5650SOL    HW217850   6.237   4.755   6.962
 5651SOL     OW17851   6.358   1.186   2.846
 5651SOL    HW117852   6.385   1.195   2.750
 5651SOL    HW217853   6.368   1.091   2.875
 5652SOL     OW17854   4.735   5.040   0.495
 5652SOL    HW117855   4.643   5.009   0.468
 5652SOL    HW217856   4.780   5.084   0.418
 5653SOL     OW17857   1.497   6.196   6.077
 5653SOL    HW117858   1.458   6.106   6.057
 5653SOL    HW217859   1.431   6.249   6.130
 5654SOL     OW17860   0.750   6.096   5.428
 5654SOL    HW117861   0.702   6.097   5.341
 5654SOL    HW217862   0.701   6.038   5.493
 5655SOL     OW17863   0.127   3.456   3.654
 5655SOL    HW117864   0.167   3.485   3.567
 5655SOL    HW217865   0.029   3.441   3.642
 5656SOL     OW17866   3.155   4.403   0.174
 5656SOL    HW117867   3.253   4.386   0.163
 5656SOL    HW217868   3.138   4.438   0.266
 5657SOL     OW17869   4.266   6.250   1.815
 5657SOL    HW117870   4.304   6.256   1.908
 5657SOL    HW217871   4.339   6.226   1.751
 5658SOL     OW17872   4.742   7.005   5.466
 5658SOL    HW117873   4.716   6.919   5.509
 5658SOL    HW217874   4.816   6.990   5.401
 5659SOL     OW17875   3.629   3.798   2.845
 5659SOL    HW117876   3.663   3.890   2.828
 5659SOL    HW217877   3.627   3.746   2.759
 5660SOL     OW17878   5.875   6.419   0.805
 5660SOL    HW117879   5.787   6.423   0.852
 5660SOL    HW217880   5.928   6.501   0.826
 5661SOL     OW17881   6.398   5.911   4.506
 5661SOL    HW117882   6.323   5.874   4.560
 5661SOL    HW217883   6.379   5.896   4.409
 5662SOL     OW17884   2.470   4.555   4.386
 5662SOL    HW117885   2.562   4.594   4.386
 5662SOL    HW217886   2.453   4.507   4.472
 5663SOL     OW17887   1.353   3.940   0.082
 5663SOL    HW117888   1.261   3.969   0.057
 5663SOL    HW217889   1.393   4.005   0.146
 5664SOL     OW17890   0.493   4.473   2.960
 5664SOL    HW117891   0.407   4.496   2.916
 5664SOL    HW217892   0.508   4.532   3.039
 5665SOL     OW17893   2.306   2.593   6.169
 5665SOL    HW117894   2.403   2.582   6.192
 5665SOL    HW217895   2.278   2.517   6.110
 5666SOL     OW17896   5.953   5.261   0.758
 5666SOL    HW117897   6.041   5.246   0.803
 5666SOL    HW217898   5.932   5.359   0.758
 5667SOL     OW17899   0.295   5.101   3.442
 5667SOL    HW117900   0.346   5.091   3.527
 5667SOL    HW217901   0.204   5.137   3.462
 5668SOL     OW17902   6.044   2.117   5.547
 5668SOL    HW117903   6.042   2.075   5.638
 5668SOL    HW217904   5.956   2.163   5.531
 5669SOL     OW17905   6.695   3.736   5.935
 5669SOL    HW117906   6.650   3.794   6.003
 5669SOL    HW217907   6.655   3.644   5.938
 5670SOL     OW17908   0.839   4.306   3.882
 5670SOL    HW117909   0.871   4.390   3.839
 5670SOL    HW217910   0.916   4.258   3.924
 5671SOL     OW17911   1.852   1.501   5.901
 5671SOL    HW117912   1.808   1.560   5.969
 5671SOL    HW217913   1.951   1.509   5.909
 5672SOL     OW17914   4.946   5.303   5.857
 5672SOL    HW117915   4.853   5.294   5.892
 5672SOL    HW217916   4.979   5.213   5.829
 5673SOL     OW17917   0.635   0.522   2.231
 5673SOL    HW117918   0.706   0.502   2.163
 5673SOL    HW217919   0.575   0.594   2.196
 5674SOL     OW17920   6.765   3.403   1.630
 5674SOL    HW117921   6.813   3.384   1.545
 5674SOL    HW217922   6.811   3.478   1.678
 5675SOL     OW17923   4.317   2.582   5.618
 5675SOL    HW117924   4.356   2.525   5.690
 5675SOL    HW217925   4.348   2.550   5.529
 5676SOL     OW17926   2.581   0.511   1.718
 5676SOL    HW117927   2.617   0.503   1.811
 5676SOL    HW217928   2.586   0.606   1.687
 5677SOL     OW17929   6.510   0.565   4.038
 5677SOL    HW117930   6.450   0.640   4.064
 5677SOL    HW217931   6.491   0.485   4.095
 5678SOL     OW17932   1.768   5.786   2.878
 5678SOL    HW117933   1.778   5.742   2.789
 5678SOL    HW217934   1.745   5.882   2.866
 5679SOL     OW17935   1.799   6.168   5.224
 5679SOL    HW117936   1.826   6.263   5.235
 5679SOL    HW217937   1.862   6.109   5.275
 5680SOL     OW17938   2.431   6.588   6.538
 5680SOL    HW117939   2.509   6.644   6.511
 5680SOL    HW217940   2.462   6.495   6.556
 5681SOL     OW17941   1.349   2.704   6.815
 5681SOL    HW117942   1.411   2.663   6.881
 5681SOL    HW217943   1.399   2.767   6.756
 5682SOL     OW17944   1.291   3.625   4.594
 5682SOL    HW117945   1.238   3.553   4.639
 5682SOL    HW217946   1.313   3.597   4.501
 5683SOL     OW17947   3.711   2.235   5.800
 5683SOL    HW117948   3.669   2.323   5.818
 5683SOL    HW217949   3.649   2.161   5.827
 5684SOL     OW17950   3.181   4.043   3.953
 5684SOL    HW117951   3.083   4.044   3.934
 5684SOL    HW217952   3.232   4.044   3.867
 5685SOL     OW17953   0.412   5.267   2.071
 5685SOL    HW117954   0.404   5.318   1.986
 5685SOL    HW217955   0.324   5.268   2.119
 5686SOL     OW17956   3.623   6.767   0.068
 5686SOL    HW117957   3.594   6.856   0.104
 5686SOL    HW217958   3.570   6.745   7.005
 5687SOL     OW17959   5.360   5.400   5.859
 5687SOL    HW117960   5.405   5.318   5.824
 5687SOL    HW217961   5.323   5.381   5.950
 5688SOL     OW17962   5.784   2.063   1.278
 5688SOL    HW117963   5.835   2.105   1.354
 5688SOL    HW217964   5.825   1.974   1.256
 5689SOL     OW17965   3.537   2.851   0.882
 5689SOL    HW117966   3.507   2.772   0.937
 5689SOL    HW217967   3.635   2.846   0.867
 5690SOL     OW17968   4.743   6.581   1.115
 5690SOL    HW117969   4.724   6.634   1.197
 5690SOL    HW217970   4.712   6.631   1.034
 5691SOL     OW17971   1.030   0.206   2.099
 5691SOL    HW117972   1.020   0.154   2.184
 5691SOL    HW217973   1.126   0.208   2.072
 5692SOL     OW17974   5.796   2.640   6.678
 5692SOL    HW117975   5.735   2.718   6.692
 5692SOL    HW217976   5.890   2.668   6.696
 5693SOL     OW17977   4.968   2.241   3.116
 5693SOL    HW117978   5.005   2.202   3.032
 5693SOL    HW217979   4.877   2.279   3.097
 5694SOL     OW17980   6.908   1.864   3.773
 5694SOL    HW117981   7.000   1.870   3.812
 5694SOL    HW217982   6.903   1.923   3.692
 5695SOL     OW17983   1.639   3.643   3.315
 5695SOL    HW117984   1.667   3.675   3.225
 5695SOL    HW217985   1.658   3.714   3.383
 5696SOL     OW17986   2.885   0.393   5.244
 5696SOL    HW117987   2.915   0.485   5.270
 5696SOL    HW217988   2.953   0.352   5.183
 5697SOL     OW17989   6.267   2.955   0.122
 5697SOL    HW117990   6.234   3.038   0.168
 5697SOL    HW217991   6.327   2.980   0.047
 5698SOL     OW17992   0.327   3.517   2.126
 5698SOL    HW117993   0.263   3.579   2.081
 5698SOL    HW217994   0.420   3.551   2.116
 5699SOL     OW17995   6.350   0.638   5.166
 5699SOL    HW117996   6.336   0.622   5.264
 5699SOL    HW217997   6.283   0.585   5.114
 5700SOL     OW17998   1.726   5.903   3.774
 5700SOL    HW117999   1.651   5.859   3.725
 5700SOL    HW218000   1.812   5.857   3.752
 5701SOL     OW18001   6.383   5.613   1.438
 5701SOL    HW118002   6.371   5.535   1.499
 5701SOL    HW218003   6.443   5.587   1.362
 5702SOL     OW18004   1.790   0.760   6.734
 5702SOL    HW118005   1.856   0.694   6.769
 5702SOL    HW218006   1.758   0.819   6.810
 5703SOL     OW18007   4.479   4.614   0.696
 5703SOL    HW118008   4.379   4.611   0.703
 5703SOL    HW218009   4.512   4.529   0.655
 5704SOL     OW18010   3.843   5.209   3.478
 5704SOL    HW118011   3.899   5.254   3.549
 5704SOL    HW218012   3.900   5.188   3.399
 5705SOL     OW18013   6.442   1.053   1.933
 5705SOL    HW118014   6.366   1.059   1.869
 5705SOL    HW218015   6.420   0.988   2.005
 5706SOL     OW18016   1.189   1.240   6.976
 5706SOL    HW118017   1.149   1.184   0.030
 5706SOL    HW218018   1.145   1.330   6.975
 5707SOL     OW18019   2.850   1.838   0.493
 5707SOL    HW118020   2.894   1.785   0.420
 5707SOL    HW218021   2.752   1.820   0.492
 5708SOL     OW18022   5.315   6.629   1.738
 5708SOL    HW118023   5.217   6.625   1.715
 5708SOL    HW218024   5.354   6.537   1.735
 5709SOL     OW18025   1.204   0.604   2.709
 5709SOL    HW118026   1.284   0.555   2.674
 5709SOL    HW218027   1.211   0.701   2.686
 5710SOL     OW18028   2.840   3.605   5.993
 5710SOL    HW118029   2.764   3.540   6.000
 5710SOL    HW218030   2.805   3.698   5.984
 5711SOL     OW18031   4.118   1.204   3.629
 5711SOL    HW118032   4.214   1.233   3.624
 5711SOL    HW218033   4.068   1.265   3.691
 5712SOL     OW18034   0.074   6.094   6.151
 5712SOL    HW118035   0.113   6.097   6.243
 5712SOL    HW218036   0.115   6.019   6.099
 5713SOL     OW18037   0.031   2.601   2.227
 5713SOL    HW118038   0.093   2.522   2.227
 5713SOL    HW218039   6.958   2.571   2.254
 5714SOL     OW18040   1.548   0.941   6.258
 5714SOL    HW118041   1.485   0.864   6.270
 5714SOL    HW218042   1.621   0.934   6.326
 5715SOL     OW18043   0.917   6.595   3.044
 5715SOL    HW118044   0.871   6.638   3.123
 5715SOL    HW218045   0.867   6.619   2.960
 5716SOL     OW18046   2.197   3.597   6.051
 5716SOL    HW118047   2.236   3.689   6.054
 5716SOL    HW218048   2.206   3.560   5.959
 5717SOL     OW18049   1.259   3.736   0.284
 5717SOL    HW118050   1.243   3.815   0.345
 5717SOL    HW218051   1.324   3.762   0.213
 5718SOL     OW18052   2.930   4.126   6.125
 5718SOL    HW118053   3.029   4.134   6.139
 5718SOL    HW218054   2.912   4.109   6.028
 5719SOL     OW18055   3.568   0.936   6.522
 5719SOL    HW118056   3.493   0.938   6.588
 5719SOL    HW218057   3.534   0.907   6.433
 5720SOL     OW18058   1.109   4.876   4.962
 5720SOL    HW118059   1.158   4.934   5.026
 5720SOL    HW218060   1.163   4.864   4.879
 5721SOL     OW18061   0.532   4.059   1.599
 5721SOL    HW118062   0.477   3.982   1.630
 5721SOL    HW218063   0.538   4.059   1.499
 5722SOL     OW18064   5.310   6.667   4.130
 5722SOL    HW118065   5.283   6.571   4.127
 5722SOL    HW218066   5.294   6.704   4.222
 5723SOL     OW18067   3.029   5.185   0.916
 5723SOL    HW118068   2.951   5.181   0.853
 5723SOL    HW218069   2.996   5.194   1.010
 5724SOL     OW18070   4.984   1.606   6.524
 5724SOL    HW118071   5.039   1.536   6.570
 5724SOL    HW218072   4.914   1.640   6.587
 5725SOL     OW18073   5.054   5.430   6.079
 5725SOL    HW118074   5.003   5.395   6.001
 5725SOL    HW218075   5.152   5.412   6.066
 5726SOL     OW18076   5.503   3.610   5.986
 5726SOL    HW118077   5.523   3.548   6.062
 5726SOL    HW218078   5.467   3.557   5.909
 5727SOL     OW18079   5.949   1.938   3.259
 5727SOL    HW118080   5.942   2.033   3.228
 5727SOL    HW218081   5.881   1.921   3.330
 5728SOL     OW18082   6.143   0.492   5.752
 5728SOL    HW118083   6.165   0.520   5.846
 5728SOL    HW218084   6.195   0.409   5.729
 5729SOL     OW18085   0.559   2.011   6.477
 5729SOL    HW118086   0.642   2.006   6.421
 5729SOL    HW218087   0.542   1.921   6.519
 5730SOL     OW18088   5.082   4.922   5.991
 5730SOL    HW118089   5.105   4.878   6.077
 5730SOL    HW218090   5.136   4.881   5.917
 5731SOL     OW18091   3.334   0.868   3.907
 5731SOL    HW118092   3.434   0.856   3.912
 5731SOL    HW218093   3.305   0.858   3.812
 5732SOL     OW18094   5.792   4.834   5.012
 5732SOL    HW118095   5.830   4.926   5.020
 5732SOL    HW218096   5.813   4.798   4.921
 5733SOL     OW18097   3.380   1.311   0.379
 5733SOL    HW118098   3.451   1.318   0.308
 5733SOL    HW218099   3.328   1.227   0.364
 5734SOL     OW18100   2.342   6.336   5.876
 5734SOL    HW118101   2.349   6.388   5.961
 5734SOL    HW218102   2.359   6.240   5.895
 5735SOL     OW18103   4.020   0.708   1.979
 5735SOL    HW118104   4.090   0.773   2.007
 5735SOL    HW218105   4.041   0.674   1.887
 5736SOL     OW18106   4.742   4.403   6.802
 5736SOL    HW118107   4.701   4.342   6.734
 5736SOL    HW218108   4.790   4.478   6.757
 5737SOL     OW18109   4.324   5.429   0.879
 5737SOL    HW118110   4.365   5.480   0.803
 5737SOL    HW218111   4.346   5.475   0.965
 5738SOL     OW18112   3.323   1.346   6.494
 5738SOL    HW118113   3.225   1.325   6.492
 5738SOL    HW218114   3.345   1.389   6.582
 5739SOL     OW18115   1.966   0.406   5.660
 5739SOL    HW118116   2.045   0.360   5.699
 5739SOL    HW218117   1.885   0.389   5.717
 5740SOL     OW18118   5.538   3.728   2.395
 5740SOL    HW118119   5.456   3.784   2.386
 5740SOL    HW218120   5.553   3.706   2.491
 5741SOL     OW18121   0.266   3.552   4.418
 5741SOL    HW118122   0.323   3.472   4.397
 5741SOL    HW218123   0.170   3.527   4.411
 5742SOL     OW18124   4.987   0.461   3.722
 5742SOL    HW118125   4.949   0.429   3.635
 5742SOL    HW218126   5.033   0.549   3.708
 5743SOL     OW18127   3.692   3.649   5.468
 5743SOL    HW118128   3.777   3.701   5.462
 5743SOL    HW218129   3.658   3.630   5.376
 5744SOL     OW18130   5.724   6.340   2.418
 5744SOL    HW118131   5.802   6.387   2.459
 5744SOL    HW218132   5.697   6.262   2.476
 5745SOL     OW18133   2.129   2.296   3.035
 5745SOL    HW118134   2.150   2.330   3.126
 5745SOL    HW218135   2.139   2.196   3.034
 5746SOL     OW18136   4.702   0.123   3.346
 5746SOL    HW118137   4.721   0.165   3.435
 5746SOL    HW218138   4.684   0.195   3.279
 5747SOL     OW18139   1.132   6.438   1.490
 5747SOL    HW118140   1.091   6.453   1.400
 5747SOL    HW218141   1.067   6.390   1.549
 5748SOL     OW18142   0.680   5.882   0.568
 5748SOL    HW118143   0.699   5.965   0.620
 5748SOL    HW218144   0.664   5.905   0.472
 5749SOL     OW18145   2.004   6.045   5.368
 5749SOL    HW118146   2.089   6.012   5.327
 5749SOL    HW218147   1.975   5.982   5.440
 5750SOL     OW18148   6.643   4.347   4.332
 5750SOL    HW118149   6.662   4.406   4.253
 5750SOL    HW218150   6.729   4.317   4.372
 5751SOL     OW18151   2.019   3.572   4.224
 5751SOL    HW118152   2.055   3.482   4.249
 5751SOL    HW218153   2.009   3.627   4.307
 5752SOL     OW18154   5.172   0.494   1.067
 5752SOL    HW118155   5.167   0.594   1.060
 5752SOL    HW218156   5.116   0.464   1.145
 5753SOL     OW18157   3.127   3.995   4.618
 5753SOL    HW118158   3.115   4.036   4.709
 5753SOL    HW218159   3.188   3.917   4.625
 5754SOL     OW18160   0.956   5.980   1.445
 5754SOL    HW118161   1.016   6.057   1.422
 5754SOL    HW218162   0.900   5.956   1.366
 5755SOL     OW18163   1.795   2.466   6.980
 5755SOL    HW118164   1.858   2.394   6.953
 5755SOL    HW218165   1.821   2.552   6.936
 5756SOL     OW18166   5.649   6.018   1.485
 5756SOL    HW118167   5.730   5.969   1.516
 5756SOL    HW218168   5.633   5.998   1.388
 5757SOL     OW18169   6.376   0.243   4.076
 5757SOL    HW118170   6.387   0.321   4.138
 5757SOL    HW218171   6.293   0.193   4.100
 5758SOL     OW18172   0.487   0.435   2.879
 5758SOL    HW118173   0.535   0.418   2.965
 5758SOL    HW218174   0.539   0.500   2.824
 5759SOL     OW18175   3.359   0.091   0.897
 5759SOL    HW118176   3.446   0.045   0.912
 5759SOL    HW218177   3.371   0.189   0.906
 5760SOL     OW18178   0.334   3.105   1.425
 5760SOL    HW118179   0.359   3.175   1.493
 5760SOL    HW218180   0.257   3.051   1.460
 5761SOL     OW18181   5.332   5.622   5.228
 5761SOL    HW118182   5.331   5.526   5.254
 5761SOL    HW218183   5.298   5.678   5.304
 5762SOL     OW18184   5.618   4.798   0.023
 5762SOL    HW118185   5.680   4.813   6.964
 5762SOL    HW218186   5.670   4.796   0.108
 5763SOL     OW18187   5.320   0.330   0.140
 5763SOL    HW118188   5.324   0.386   0.057
 5763SOL    HW218189   5.369   0.245   0.125
 5764SOL     OW18190   4.207   5.936   3.871
 5764SOL    HW118191   4.280   5.951   3.804
 5764SOL    HW218192   4.132   6.000   3.852
 5765SOL     OW18193   6.695   5.640   1.648
 5765SOL    HW118194   6.603   5.664   1.678
 5765SOL    HW218195   6.759   5.713   1.674
 5766SOL     OW18196   0.705   1.622   4.218
 5766SOL    HW118197   0.691   1.721   4.230
 5766SOL    HW218198   0.661   1.574   4.294
 5767SOL     OW18199   2.452   0.409   0.723
 5767SOL    HW118200   2.544   0.422   0.686
 5767SOL    HW218201   2.387   0.463   0.669
 5768SOL     OW18202   0.279   6.379   4.674
 5768SOL    HW118203   0.280   6.423   4.763
 5768SOL    HW218204   0.350   6.309   4.671
 5769SOL     OW18205   1.406   5.252   6.170
 5769SOL    HW118206   1.312   5.220   6.179
 5769SOL    HW218207   1.443   5.272   6.260
 5770SOL     OW18208   1.793   5.133   1.350
 5770SOL    HW118209   1.891   5.116   1.362
 5770SOL    HW218210   1.747   5.126   1.439
 5771SOL     OW18211   2.425   5.362   4.181
 5771SOL    HW118212   2.476   5.303   4.244
 5771SOL    HW218213   2.459   5.349   4.088
 5772SOL     OW18214   4.135   0.405   1.838
 5772SOL    HW118215   4.215   0.376   1.891
 5772SOL    HW218216   4.159   0.487   1.785
 5773SOL     OW18217   4.196   2.264   2.262
 5773SOL    HW118218   4.148   2.200   2.322
 5773SOL    HW218219   4.168   2.249   2.168
 5774SOL     OW18220   0.256   6.075   3.311
 5774SOL    HW118221   0.158   6.072   3.330
 5774SOL    HW218222   0.302   6.005   3.367
 5775SOL     OW18223   0.378   5.574   2.367
 5775SOL    HW118224   0.415   5.511   2.299
 5775SOL    HW218225   0.437   5.573   2.448
 5776SOL     OW18226   2.324   0.450   3.195
 5776SOL    HW118227   2.403   0.390   3.184
 5776SOL    HW218228   2.349   0.543   3.165
 5777SOL     OW18229   1.677   0.331   3.225
 5777SOL    HW118230   1.720   0.279   3.152
 5777SOL    HW218231   1.741   0.340   3.302
 5778SOL     OW18232   0.777   1.428   6.752
 5778SOL    HW118233   0.698   1.477   6.717
 5778SOL    HW218234   0.803   1.465   6.841
 5779SOL     OW18235   5.271   2.278   6.353
 5779SOL    HW118236   5.326   2.331   6.289
 5779SOL    HW218237   5.204   2.338   6.397
 5780SOL     OW18238   5.159   4.939   3.626
 5780SOL    HW118239   5.171   4.865   3.560
 5780SOL    HW218240   5.229   4.932   3.697
 5781SOL     OW18241   0.458   3.674   5.514
 5781SOL    HW118242   0.507   3.596   5.553
 5781SOL    HW218243   0.509   3.712   5.437
 5782SOL     OW18244   0.296   1.386   0.447
 5782SOL    HW118245   0.326   1.345   0.361
 5782SOL    HW218246   0.345   1.344   0.523
 5783SOL     OW18247   2.322   1.918   2.427
 5783SOL    HW118248   2.332   2.017   2.424
 5783SOL    HW218249   2.317   1.881   2.334
 5784SOL     OW18250   0.616   6.187   6.665
 5784SOL    HW118251   0.528   6.144   6.644
 5784SOL    HW218252   0.668   6.128   6.727
 5785SOL     OW18253   1.951   1.568   1.207
 5785SOL    HW118254   1.985   1.576   1.301
 5785SOL    HW218255   1.989   1.486   1.165
 5786SOL     OW18256   0.437   3.642   0.771
 5786SOL    HW118257   0.410   3.549   0.794
 5786SOL    HW218258   0.534   3.655   0.790
 5787SOL     OW18259   2.652   1.726   5.586
 5787SOL    HW118260   2.586   1.748   5.514
 5787SOL    HW218261   2.615   1.653   5.644
 5788SOL     OW18262   2.589   0.624   2.809
 5788SOL    HW118263   2.490   0.633   2.810
 5788SOL    HW218264   2.614   0.527   2.815
 5789SOL     OW18265   4.177   4.887   6.433
 5789SOL    HW118266   4.137   4.812   6.380
 5789SOL    HW218267   4.248   4.933   6.379
 5790SOL     OW18268   0.751   3.013   4.038
 5790SOL    HW118269   0.849   3.037   4.036
 5790SOL    HW218270   0.728   2.961   3.956
 5791SOL     OW18271   2.550   0.135   2.878
 5791SOL    HW118272   2.455   0.161   2.859
 5791SOL    HW218273   2.598   0.122   2.792
 5792SOL     OW18274   6.996   1.977   2.886
 5792SOL    HW118275   0.052   1.997   2.823
 5792SOL    HW218276   6.987   2.053   2.951
 5793SOL     OW18277   6.490   1.151   3.762
 5793SOL    HW118278   6.556   1.208   3.810
 5793SOL    HW218279   6.400   1.195   3.764
 5794SOL     OW18280   3.710   3.640   6.991
 5794SOL    HW118281   3.786   3.690   0.014
 5794SOL    HW218282   3.648   3.608   0.044
 5795SOL     OW18283   5.937   4.368   5.841
 5795SOL    HW118284   5.917   4.278   5.878
 5795SOL    HW218285   6.009   4.411   5.896
 5796SOL     OW18286   3.777   1.661   0.065
 5796SOL    HW118287   3.691   1.644   0.016
 5796SOL    HW218288   3.784   1.758   0.087
 5797SOL     OW18289   3.527   2.113   4.676
 5797SOL    HW118290   3.460   2.173   4.720
 5797SOL    HW218291   3.563   2.048   4.743
 5798SOL     OW18292   6.621   4.768   5.070
 5798SOL    HW118293   6.566   4.711   5.009
 5798SOL    HW218294   6.715   4.772   5.037
 5799SOL     OW18295   5.571   6.786   3.193
 5799SOL    HW118296   5.572   6.701   3.141
 5799SOL    HW218297   5.605   6.860   3.135
 5800SOL     OW18298   5.708   4.800   1.228
 5800SOL    HW118299   5.807   4.806   1.213
 5800SOL    HW218300   5.675   4.711   1.198
 5801SOL     OW18301   0.728   1.012   3.363
 5801SOL    HW118302   0.682   1.020   3.451
 5801SOL    HW218303   0.739   1.103   3.322
 5802SOL     OW18304   6.980   4.011   6.052
 5802SOL    HW118305   6.967   3.939   5.984
 5802SOL    HW218306   6.959   4.100   6.011
 5803SOL     OW18307   1.213   4.517   0.697
 5803SOL    HW118308   1.259   4.606   0.696
 5803SOL    HW218309   1.226   4.472   0.608
 5804SOL     OW18310   6.087   3.900   4.751
 5804SOL    HW118311   6.092   3.941   4.660
 5804SOL    HW218312   6.060   3.804   4.743
 5805SOL     OW18313   4.349   4.072   6.475
 5805SOL    HW118314   4.327   4.041   6.382
 5805SOL    HW218315   4.387   3.995   6.527
 5806SOL     OW18316   1.140   6.505   0.222
 5806SOL    HW118317   1.119   6.410   0.198
 5806SOL    HW218318   1.103   6.526   0.312
 5807SOL     OW18319   1.614   3.547   0.836
 5807SOL    HW118320   1.712   3.564   0.835
 5807SOL    HW218321   1.593   3.474   0.902
 5808SOL     OW18322   5.767   4.370   2.427
 5808SOL    HW118323   5.749   4.422   2.344
 5808SOL    HW218324   5.854   4.321   2.418
 5809SOL     OW18325   6.791   3.123   4.476
 5809SOL    HW118326   6.767   3.219   4.495
 5809SOL    HW218327   6.721   3.063   4.515
 5810SOL     OW18328   3.266   1.493   3.736
 5810SOL    HW118329   3.294   1.558   3.666
 5810SOL    HW218330   3.309   1.517   3.823
 5811SOL     OW18331   2.686   0.118   4.657
 5811SOL    HW118332   2.756   0.190   4.656
 5811SOL    HW218333   2.673   0.086   4.751
 5812SOL     OW18334   4.784   0.275   3.046
 5812SOL    HW118335   4.731   0.197   3.014
 5812SOL    HW218336   4.721   0.349   3.073
 5813SOL     OW18337   1.181   0.973   5.568
 5813SOL    HW118338   1.157   0.926   5.654
 5813SOL    HW218339   1.275   0.951   5.544
 5814SOL     OW18340   6.997   4.784   0.977
 5814SOL    HW118341   7.008   4.777   1.077
 5814SOL    HW218342   0.014   4.873   0.947
 5815SOL     OW18343   4.012   2.069   2.734
 5815SOL    HW118344   4.003   2.022   2.822
 5815SOL    HW218345   3.926   2.061   2.684
 5816SOL     OW18346   4.638   0.210   0.004
 5816SOL    HW118347   4.665   0.303   0.028
 5816SOL    HW218348   4.684   0.144   0.064
 5817SOL     OW18349   5.224   3.300   5.898
 5817SOL    HW118350   5.306   3.263   5.943
 5817SOL    HW218351   5.158   3.329   5.967
 5818SOL     OW18352   5.741   6.672   5.778
 5818SOL    HW118353   5.827   6.640   5.740
 5818SOL    HW218354   5.677   6.595   5.785
 5819SOL     OW18355   5.443   0.447   0.948
 5819SOL    HW118356   5.513   0.402   1.003
 5819SOL    HW218357   5.369   0.478   1.008
 5820SOL     OW18358   4.875   6.945   3.371
 5820SOL    HW118359   4.829   6.895   3.444
 5820SOL    HW218360   4.811   7.010   3.330
 5821SOL     OW18361   2.995   0.460   2.142
 5821SOL    HW118362   2.978   0.558   2.144
 5821SOL    HW218363   2.923   0.414   2.090
 5822SOL     OW18364   0.635   2.145   1.694
 5822SOL    HW118365   0.725   2.100   1.699
 5822SOL    HW218366   0.599   2.137   1.602
 5823SOL     OW18367   1.741   1.173   4.886
 5823SOL    HW118368   1.778   1.180   4.978
 5823SOL    HW218369   1.654   1.222   4.881
 5824SOL     OW18370   6.737   6.622   3.254
 5824SOL    HW118371   6.641   6.607   3.276
 5824SOL    HW218372   6.754   6.720   3.242
 5825SOL     OW18373   2.117   1.268   6.782
 5825SOL    HW118374   2.091   1.209   6.706
 5825SOL    HW218375   2.185   1.222   6.838
 5826SOL     OW18376   6.281   6.282   4.982
 5826SOL    HW118377   6.222   6.266   5.062
 5826SOL    HW218378   6.373   6.306   5.013
 5827SOL     OW18379   0.481   5.438   4.680
 5827SOL    HW118380   0.402   5.427   4.739
 5827SOL    HW218381   0.518   5.348   4.656
 5828SOL     OW18382   0.242   4.151   2.401
 5828SOL    HW118383   0.199   4.081   2.344
 5828SOL    HW218384   0.332   4.119   2.431
 5829SOL     OW18385   2.890   1.387   1.878
 5829SOL    HW118386   2.904   1.482   1.906
 5829SOL    HW218387   2.908   1.326   1.955
 5830SOL     OW18388   3.663   0.754   5.426
 5830SOL    HW118389   3.696   0.845   5.403
 5830SOL    HW218390   3.667   0.741   5.525
 5831SOL     OW18391   6.129   6.602   2.773
 5831SOL    HW118392   6.122   6.674   2.704
 5831SOL    HW218393   6.081   6.520   2.741
 5832SOL     OW18394   4.019   4.132   5.395
 5832SOL    HW118395   3.980   4.076   5.322
 5832SOL    HW218396   4.115   4.153   5.374
 5833SOL     OW18397   3.029   3.199   3.753
 5833SOL    HW118398   2.961   3.259   3.795
 5833SOL    HW218399   3.038   3.221   3.656
 5834SOL     OW18400   5.956   1.466   0.160
 5834SOL    HW118401   5.881   1.399   0.164
 5834SOL    HW218402   5.918   1.558   0.147
 5835SOL     OW18403   4.914   2.187   3.404
 5835SOL    HW118404   5.011   2.206   3.415
 5835SOL    HW218405   4.861   2.264   3.440
 5836SOL     OW18406   2.874   6.135   2.310
 5836SOL    HW118407   2.844   6.178   2.396
 5836SOL    HW218408   2.974   6.122   2.313
 5837SOL     OW18409   4.832   4.511   0.293
 5837SOL    HW118410   4.929   4.509   0.317
 5837SOL    HW218411   4.813   4.438   0.226
 5838SOL     OW18412   1.242   1.543   5.946
 5838SOL    HW118413   1.271   1.630   5.987
 5838SOL    HW218414   1.323   1.489   5.924
 5839SOL     OW18415   6.814   3.617   2.852
 5839SOL    HW118416   6.735   3.629   2.913
 5839SOL    HW218417   6.784   3.627   2.758
 5840SOL     OW18418   1.408   5.886   6.626
 5840SOL    HW118419   1.381   5.878   6.529
 5840SOL    HW218420   1.505   5.907   6.632
 5841SOL     OW18421   6.244   3.082   3.437
 5841SOL    HW118422   6.344   3.082   3.430
 5841SOL    HW218423   6.205   3.120   3.353
 5842SOL     OW18424   3.986   3.011   0.662
 5842SOL    HW118425   3.955   2.966   0.578
 5842SOL    HW218426   4.074   3.056   0.645
 5843SOL     OW18427   1.853   3.384   2.628
 5843SOL    HW118428   1.784   3.446   2.664
 5843SOL    HW218429   1.847   3.296   2.676
 5844SOL     OW18430   0.222   5.864   6.077
 5844SOL    HW118431   0.170   5.786   6.043
 5844SOL    HW218432   0.267   5.839   6.163
 5845SOL     OW18433   1.081   2.255   3.496
 5845SOL    HW118434   1.067   2.268   3.594
 5845SOL    HW218435   0.993   2.260   3.448
 5846SOL     OW18436   6.934   2.554   5.273
 5846SOL    HW118437   6.944   2.551   5.372
 5846SOL    HW218438   0.004   2.575   5.231
 5847SOL     OW18439   2.033   2.516   2.695
 5847SOL    HW118440   2.033   2.416   2.695
 5847SOL    HW218441   2.005   2.549   2.604
 5848SOL     OW18442   2.024   4.903   3.188
 5848SOL    HW118443   1.962   4.832   3.154
 5848SOL    HW218444   2.048   4.882   3.283
 5849SOL     OW18445   1.333   0.645   5.675
 5849SOL    HW118446   1.329   0.565   5.735
 5849SOL    HW218447   1.350   0.615   5.581
 5850SOL     OW18448   1.437   4.140   2.201
 5850SOL    HW118449   1.370   4.086   2.252
 5850SOL    HW218450   1.446   4.230   2.242
 5851SOL     OW18451   6.209   3.948   2.522
 5851SOL    HW118452   6.187   3.949   2.619
 5851SOL    HW218453   6.125   3.963   2.468
 5852SOL     OW18454   3.876   6.001   2.822
 5852SOL    HW118455   3.857   5.986   2.725
 5852SOL    HW218456   3.937   5.929   2.856
 5853SOL     OW18457   3.181   5.123   6.178
 5853SOL    HW118458   3.162   5.094   6.272
 5853SOL    HW218459   3.103   5.102   6.120
 5854SOL     OW18460   6.841   1.920   5.525
 5854SOL    HW118461   6.885   1.990   5.469
 5854SOL    HW218462   6.808   1.846   5.467
 5855SOL     OW18463   1.201   0.824   4.576
 5855SOL    HW118464   1.251   0.755   4.629
 5855SOL    HW218465   1.261   0.860   4.505
 5856SOL     OW18466   2.601   5.095   3.669
 5856SOL    HW118467   2.564   5.155   3.597
 5856SOL    HW218468   2.699   5.111   3.678
 5857SOL     OW18469   6.551   2.287   4.998
 5857SOL    HW118470   6.599   2.315   5.082
 5857SOL    HW218471   6.487   2.359   4.971
 5858SOL     OW18472   3.057   0.907   2.616
 5858SOL    HW118473   3.148   0.876   2.588
 5858SOL    HW218474   3.027   0.854   2.695
 5859SOL     OW18475   6.763   6.448   0.705
 5859SOL    HW118476   6.766   6.492   0.795
 5859SOL    HW218477   6.832   6.489   0.646
 5860SOL     OW18478   1.583   4.213   1.399
 5860SOL    HW118479   1.567   4.176   1.490
 5860SOL    HW218480   1.568   4.141   1.331
 5861SOL     OW18481   5.456   2.274   4.027
 5861SOL    HW118482   5.419   2.362   4.056
 5861SOL    HW218483   5.480   2.278   3.930
 5862SOL     OW18484   4.003   5.105   2.971
 5862SOL    HW118485   4.024   5.086   2.875
 5862SOL    HW218486   3.905   5.127   2.980
 5863SOL     OW18487   1.960   0.796   6.341
 5863SOL    HW118488   2.022   0.831   6.411
 5863SOL    HW218489   1.867   0.828   6.361
 5864SOL     OW18490   4.157   4.173   1.422
 5864SOL    HW118491   4.195   4.117   1.348
 5864SOL    HW218492   4.153   4.119   1.506
 5865SOL     OW18493   5.145   0.779   3.232
 5865SOL    HW118494   5.072   0.726   3.275
 5865SOL    HW218495   5.190   0.836   3.301
 5866SOL     OW18496   4.204   6.985   5.311
 5866SOL    HW118497   4.303   7.003   5.312
 5866SOL    HW218498   4.169   6.991   5.404
 5867SOL     OW18499   0.385   2.865   1.256
 5867SOL    HW118500   0.311   2.925   1.288
 5867SOL    HW218501   0.438   2.912   1.186
 5868SOL     OW18502   1.225   0.314   5.673
 5868SOL    HW118503   1.138   0.355   5.646
 5868SOL    HW218504   1.298   0.349   5.614
 5869SOL     OW18505   2.704   4.679   4.584
 5869SOL    HW118506   2.658   4.677   4.673
 5869SOL    HW218507   2.802   4.667   4.597
 5870SOL     OW18508   5.350   5.227   4.406
 5870SOL    HW118509   5.446   5.201   4.393
 5870SOL    HW218510   5.333   5.315   4.363
 5871SOL     OW18511   3.976   3.219   6.813
 5871SOL    HW118512   3.978   3.248   6.717
 5871SOL    HW218513   3.913   3.277   6.864
 5872SOL     OW18514   4.422   5.815   6.222
 5872SOL    HW118515   4.327   5.785   6.214
 5872SOL    HW218516   4.449   5.812   6.318
 5873SOL     OW18517   2.766   2.999   0.349
 5873SOL    HW118518   2.715   2.988   0.264
 5873SOL    HW218519   2.772   2.911   0.396
 5874SOL     OW18520   2.397   3.241   1.696
 5874SOL    HW118521   2.378   3.329   1.739
 5874SOL    HW218522   2.320   3.179   1.715
 5875SOL     OW18523   3.624   2.287   6.921
 5875SOL    HW118524   3.580   2.344   6.852
 5875SOL    HW218525   3.557   2.265   6.993
 5876SOL     OW18526   3.320   3.378   6.333
 5876SOL    HW118527   3.265   3.357   6.252
 5876SOL    HW218528   3.282   3.458   6.379
 5877SOL     OW18529   6.256   0.535   1.448
 5877SOL    HW118530   6.288   0.512   1.539
 5877SOL    HW218531   6.315   0.606   1.409
 5878SOL     OW18532   4.464   5.506   2.003
 5878SOL    HW118533   4.549   5.558   1.999
 5878SOL    HW218534   4.420   5.519   2.092
 5879SOL     OW18535   3.608   3.301   6.285
 5879SOL    HW118536   3.621   3.216   6.233
 5879SOL    HW218537   3.512   3.309   6.312
 5880SOL     OW18538   5.200   3.644   5.612
 5880SOL    HW118539   5.197   3.742   5.630
 5880SOL    HW218540   5.110   3.604   5.631
 5881SOL     OW18541   0.844   6.389   2.330
 5881SOL    HW118542   0.890   6.302   2.346
 5881SOL    HW218543   0.765   6.397   2.390
 5882SOL     OW18544   1.297   6.386   5.570
 5882SOL    HW118545   1.337   6.298   5.596
 5882SOL    HW218546   1.233   6.373   5.495
 5883SOL     OW18547   0.404   3.904   0.833
 5883SOL    HW118548   0.489   3.942   0.869
 5883SOL    HW218549   0.423   3.817   0.787
 5884SOL     OW18550   5.495   1.806   3.759
 5884SOL    HW118551   5.500   1.879   3.828
 5884SOL    HW218552   5.543   1.725   3.794
 5885SOL     OW18553   0.363   5.935   0.222
 5885SOL    HW118554   0.311   6.014   0.255
 5885SOL    HW218555   0.355   5.860   0.288
 5886SOL     OW18556   1.316   4.059   3.367
 5886SOL    HW118557   1.382   4.018   3.304
 5886SOL    HW218558   1.230   4.077   3.317
 5887SOL     OW18559   2.160   2.741   1.298
 5887SOL    HW118560   2.090   2.812   1.295
 5887SOL    HW218561   2.117   2.651   1.304
 5888SOL     OW18562   2.509   6.323   1.655
 5888SOL    HW118563   2.537   6.229   1.640
 5888SOL    HW218564   2.537   6.380   1.577
 5889SOL     OW18565   6.522   0.407   0.914
 5889SOL    HW118566   6.564   0.462   0.986
 5889SOL    HW218567   6.547   0.443   0.825
 5890SOL     OW18568   2.530   6.700   2.392
 5890SOL    HW118569   2.612   6.704   2.336
 5890SOL    HW218570   2.489   6.609   2.383
 5891SOL     OW18571   2.541   3.227   0.903
 5891SOL    HW118572   2.621   3.280   0.931
 5891SOL    HW218573   2.462   3.254   0.959
 5892SOL     OW18574   0.625   2.912   0.828
 5892SOL    HW118575   0.644   2.994   0.774
 5892SOL    HW218576   0.529   2.885   0.815
 5893SOL     OW18577   0.709   5.824   1.931
 5893SOL    HW118578   0.692   5.770   1.849
 5893SOL    HW218579   0.664   5.781   2.010
 5894SOL     OW18580   1.445   5.828   5.698
 5894SOL    HW118581   1.468   5.808   5.602
 5894SOL    HW218582   1.428   5.742   5.746
 5895SOL     OW18583   5.521   3.089   4.246
 5895SOL    HW118584   5.529   2.994   4.276
 5895SOL    HW218585   5.612   3.131   4.243
 5896SOL     OW18586   5.905   2.185   1.485
 5896SOL    HW118587   5.887   2.205   1.581
 5896SOL    HW218588   5.919   2.270   1.435
 5897SOL     OW18589   4.407   1.595   0.628
 5897SOL    HW118590   4.481   1.592   0.695
 5897SOL    HW218591   4.346   1.517   0.642
 5898SOL     OW18592   1.646   1.741   5.737
 5898SOL    HW118593   1.744   1.754   5.757
 5898SOL    HW218594   1.625   1.778   5.647
 5899SOL     OW18595   0.090   5.380   5.834
 5899SOL    HW118596   0.014   5.320   5.807
 5899SOL    HW218597   0.109   5.368   5.931
 5900SOL     OW18598   6.557   6.011   3.358
 5900SOL    HW118599   6.574   6.084   3.292
 5900SOL    HW218600   6.535   5.927   3.309
 5901SOL     OW18601   1.983   6.856   6.380
 5901SOL    HW118602   1.931   6.775   6.405
 5901SOL    HW218603   2.052   6.831   6.311
 5902SOL     OW18604   5.491   4.161   5.129
 5902SOL    HW118605   5.420   4.096   5.158
 5902SOL    HW218606   5.563   4.164   5.198
 5903SOL     OW18607   6.172   2.139   6.537
 5903SOL    HW118608   6.165   2.233   6.569
 5903SOL    HW218609   6.266   2.119   6.511
 5904SOL     OW18610   1.885   4.501   2.781
 5904SOL    HW118611   1.853   4.422   2.834
 5904SOL    HW218612   1.943   4.558   2.839
 5905SOL     OW18613   5.577   0.970   4.556
 5905SOL    HW118614   5.673   0.981   4.578
 5905SOL    HW218615   5.547   1.042   4.494
 5906SOL     OW18616   5.132   0.674   4.892
 5906SOL    HW118617   5.049   0.664   4.947
 5906SOL    HW218618   5.126   0.759   4.839
 5907SOL     OW18619   2.143   1.835   0.063
 5907SOL    HW118620   2.065   1.800   0.012
 5907SOL    HW218621   2.129   1.819   0.161
 5908SOL     OW18622   4.458   3.529   6.043
 5908SOL    HW118623   4.410   3.604   6.088
 5908SOL    HW218624   4.551   3.556   6.021
 5909SOL     OW18625   6.901   4.443   5.031
 5909SOL    HW118626   6.872   4.389   5.109
 5909SOL    HW218627   6.939   4.383   4.961
 5910SOL     OW18628   2.100   4.129   1.499
 5910SOL    HW118629   2.013   4.083   1.514
 5910SOL    HW218630   2.089   4.196   1.425
 5911SOL     OW18631   6.380   5.308   6.206
 5911SOL    HW118632   6.302   5.275   6.259
 5911SOL    HW218633   6.432   5.374   6.259
 5912SOL     OW18634   6.222   3.949   0.046
 5912SOL    HW118635   6.290   4.002   0.096
 5912SOL    HW218636   6.247   3.945   6.968
 5913SOL     OW18637   1.948   1.803   5.765
 5913SOL    HW118638   1.963   1.881   5.704
 5913SOL    HW218639   1.979   1.719   5.720
 5914SOL     OW18640   2.197   5.409   0.745
 5914SOL    HW118641   2.137   5.489   0.746
 5914SOL    HW218642   2.178   5.353   0.825
 5915SOL     OW18643   4.835   2.877   2.523
 5915SOL    HW118644   4.807   2.794   2.570
 5915SOL    HW218645   4.832   2.862   2.424
 5916SOL     OW18646   3.927   0.174   5.650
 5916SOL    HW118647   3.872   0.152   5.730
 5916SOL    HW218648   3.883   0.248   5.599
 5917SOL     OW18649   3.540   3.267   2.920
 5917SOL    HW118650   3.542   3.174   2.957
 5917SOL    HW218651   3.462   3.277   2.859
 5918SOL     OW18652   1.663   3.387   3.868
 5918SOL    HW118653   1.721   3.427   3.939
 5918SOL    HW218654   1.720   3.355   3.792
 5919SOL     OW18655   2.142   2.663   6.594
 5919SOL    HW118656   2.070   2.669   6.525
 5919SOL    HW218657   2.157   2.568   6.619
 5920SOL     OW18658   3.696   0.539   6.597
 5920SOL    HW118659   3.731   0.583   6.515
 5920SOL    HW218660   3.767   0.480   6.637
 5921SOL     OW18661   3.733   4.785   5.547
 5921SOL    HW118662   3.642   4.828   5.542
 5921SOL    HW218663   3.737   4.708   5.484
 5922SOL     OW18664   6.228   4.530   2.785
 5922SOL    HW118665   6.205   4.436   2.760
 5922SOL    HW218666   6.176   4.557   2.865
 5923SOL     OW18667   6.837   0.054   3.604
 5923SOL    HW118668   6.841   0.062   3.504
 5923SOL    HW218669   6.930   0.053   3.641
 5924SOL     OW18670   5.144   2.397   4.481
 5924SOL    HW118671   5.155   2.496   4.484
 5924SOL    HW218672   5.217   2.356   4.427
 5925SOL     OW18673   5.354   5.856   0.950
 5925SOL    HW118674   5.280   5.852   1.017
 5925SOL    HW218675   5.399   5.945   0.956
 5926SOL     OW18676   3.783   5.041   1.568
 5926SOL    HW118677   3.772   4.970   1.499
 5926SOL    HW218678   3.739   5.126   1.537
 5927SOL     OW18679   2.779   5.870   1.976
 5927SOL    HW118680   2.825   5.827   2.055
 5927SOL    HW218681   2.753   5.964   2.000
 5928SOL     OW18682   1.151   6.872   2.589
 5928SOL    HW118683   1.121   6.936   2.518
 5928SOL    HW218684   1.182   6.924   2.669
 5929SOL     OW18685   1.603   6.806   6.305
 5929SOL    HW118686   1.628   6.859   6.386
 5929SOL    HW218687   1.686   6.779   6.257
 5930SOL     OW18688   6.383   1.187   4.762
 5930SOL    HW118689   6.293   1.152   4.738
 5930SOL    HW218690   6.413   1.252   4.693
 5931SOL     OW18691   6.263   5.859   1.390
 5931SOL    HW118692   6.341   5.913   1.358
 5931SOL    HW218693   6.280   5.762   1.373
 5932SOL     OW18694   2.190   6.872   0.673
 5932SOL    HW118695   2.196   6.971   0.686
 5932SOL    HW218696   2.244   6.826   0.743
 5933SOL     OW18697   6.767   3.900   3.214
 5933SOL    HW118698   6.764   3.937   3.307
 5933SOL    HW218699   6.726   3.966   3.151
 5934SOL     OW18700   3.382   3.701   2.997
 5934SOL    HW118701   3.359   3.750   3.081
 5934SOL    HW218702   3.426   3.764   2.933
 5935SOL     OW18703   4.093   3.649   4.607
 5935SOL    HW118704   4.045   3.734   4.585
 5935SOL    HW218705   4.036   3.571   4.585
 5936SOL     OW18706   5.047   5.078   7.013
 5936SOL    HW118707   5.126   5.053   0.050
 5936SOL    HW218708   5.035   5.178   7.016
 5937SOL     OW18709   1.992   3.281   1.203
 5937SOL    HW118710   1.916   3.343   1.184
 5937SOL    HW218711   1.976   3.193   1.158
 5938SOL     OW18712   1.754   4.120   2.971
 5938SOL    HW118713   1.853   4.109   2.959
 5938SOL    HW218714   1.719   4.186   2.905
 5939SOL     OW18715   2.994   0.113   2.839
 5939SOL    HW118716   2.900   0.115   2.805
 5939SOL    HW218717   3.056   0.151   2.770
 5940SOL     OW18718   4.158   6.710   2.995
 5940SOL    HW118719   4.214   6.786   3.028
 5940SOL    HW218720   4.166   6.634   3.059
 5941SOL     OW18721   6.568   5.135   2.746
 5941SOL    HW118722   6.572   5.207   2.676
 5941SOL    HW218723   6.588   5.047   2.704
 5942SOL     OW18724   4.169   3.611   6.088
 5942SOL    HW118725   4.190   3.530   6.142
 5942SOL    HW218726   4.177   3.692   6.145
 5943SOL     OW18727   1.777   6.018   0.644
 5943SOL    HW118728   1.805   6.059   0.730
 5943SOL    HW218729   1.853   6.020   0.579
 5944SOL     OW18730   5.095   1.456   2.330
 5944SOL    HW118731   5.042   1.456   2.415
 5944SOL    HW218732   5.111   1.551   2.301
 5945SOL     OW18733   6.612   4.930   5.813
 5945SOL    HW118734   6.694   4.903   5.763
 5945SOL    HW218735   6.618   5.027   5.837
 5946SOL     OW18736   4.938   3.189   6.136
 5946SOL    HW118737   4.956   3.149   6.046
 5946SOL    HW218738   4.980   3.132   6.207
 5947SOL     OW18739   4.314   3.642   1.567
 5947SOL    HW118740   4.258   3.567   1.601
 5947SOL    HW218741   4.303   3.722   1.626
 5948SOL     OW18742   3.774   4.900   3.065
 5948SOL    HW118743   3.776   4.890   3.165
 5948SOL    HW218744   3.694   4.953   3.039
 5949SOL     OW18745   4.154   5.003   1.354
 5949SOL    HW118746   4.249   5.029   1.337
 5949SOL    HW218747   4.097   5.029   1.276
 5950SOL     OW18748   6.110   1.917   4.622
 5950SOL    HW118749   6.154   1.989   4.567
 5950SOL    HW218750   6.012   1.916   4.603
 5951SOL     OW18751   1.780   5.785   4.002
 5951SOL    HW118752   1.718   5.780   4.080
 5951SOL    HW218753   1.742   5.845   3.932
 5952SOL     OW18754   6.797   6.368   3.724
 5952SOL    HW118755   6.698   6.360   3.714
 5952SOL    HW218756   6.833   6.285   3.768
 5953SOL     OW18757   6.474   2.902   6.170
 5953SOL    HW118758   6.488   2.998   6.146
 5953SOL    HW218759   6.558   2.851   6.150
 5954SOL     OW18760   0.109   5.027   6.605
 5954SOL    HW118761   0.109   4.953   6.538
 5954SOL    HW218762   0.030   5.087   6.588
 5955SOL     OW18763   4.880   5.355   1.891
 5955SOL    HW118764   4.858   5.446   1.855
 5955SOL    HW218765   4.856   5.351   1.988
 5956SOL     OW18766   5.093   2.321   6.999
 5956SOL    HW118767   5.074   2.393   0.047
 5956SOL    HW218768   5.013   2.306   6.941
 5957SOL     OW18769   5.960   6.233   6.240
 5957SOL    HW118770   5.991   6.287   6.319
 5957SOL    HW218771   5.987   6.137   6.253
 5958SOL     OW18772   6.683   5.764   2.054
 5958SOL    HW118773   6.605   5.790   1.996
 5958SOL    HW218774   6.680   5.817   2.139
 5959SOL     OW18775   2.703   1.806   6.097
 5959SOL    HW118776   2.608   1.836   6.104
 5959SOL    HW218777   2.762   1.884   6.077
 5960SOL     OW18778   2.953   0.011   3.533
 5960SOL    HW118779   3.010   0.093   3.533
 5960SOL    HW218780   2.910   7.018   3.623
 5961SOL     OW18781   3.306   0.488   4.820
 5961SOL    HW118782   3.283   0.418   4.752
 5961SOL    HW218783   3.262   0.574   4.796
 5962SOL     OW18784   4.820   5.372   2.163
 5962SOL    HW118785   4.749   5.345   2.228
 5962SOL    HW218786   4.908   5.381   2.210
 5963SOL     OW18787   3.777   3.682   2.535
 5963SOL    HW118788   3.815   3.620   2.466
 5963SOL    HW218789   3.733   3.628   2.607
 5964SOL     OW18790   0.148   5.363   6.117
 5964SOL    HW118791   0.098   5.283   6.150
 5964SOL    HW218792   0.228   5.378   6.175
 5965SOL     OW18793   2.347   2.981   6.189
 5965SOL    HW118794   2.261   2.933   6.178
 5965SOL    HW218795   2.404   2.966   6.108
 5966SOL     OW18796   2.747   6.027   4.619
 5966SOL    HW118797   2.826   6.010   4.560
 5966SOL    HW218798   2.665   5.987   4.578
 5967SOL     OW18799   4.677   6.670   3.050
 5967SOL    HW118800   4.621   6.749   3.072
 5967SOL    HW218801   4.659   6.596   3.115
 5968SOL     OW18802   6.763   2.510   3.421
 5968SOL    HW118803   6.728   2.525   3.328
 5968SOL    HW218804   6.814   2.590   3.450
 5969SOL     OW18805   5.825   3.858   3.646
 5969SOL    HW118806   5.861   3.767   3.665
 5969SOL    HW218807   5.742   3.874   3.699
 5970SOL     OW18808   1.455   3.343   2.518
 5970SOL    HW118809   1.372   3.292   2.538
 5970SOL    HW218810   1.489   3.319   2.427
 5971SOL     OW18811   1.906   6.463   3.032
 5971SOL    HW118812   1.974   6.390   3.028
 5971SOL    HW218813   1.815   6.423   3.048
 5972SOL     OW18814   4.800   0.044   0.128
 5972SOL    HW118815   4.774   0.045   0.224
 5972SOL    HW218816   4.764   6.980   0.085
 5973SOL     OW18817   1.687   4.265   2.759
 5973SOL    HW118818   1.659   4.355   2.725
 5973SOL    HW218819   1.720   4.210   2.682
 5974SOL     OW18820   0.057   3.854   0.291
 5974SOL    HW118821   0.065   3.910   0.209
 5974SOL    HW218822   6.984   3.814   0.295
 5975SOL     OW18823   3.253   2.893   1.013
 5975SOL    HW118824   3.333   2.847   0.973
 5975SOL    HW218825   3.253   2.879   1.112
 5976SOL     OW18826   2.903   3.387   4.850
 5976SOL    HW118827   2.928   3.292   4.873
 5976SOL    HW218828   2.913   3.445   4.931
 5977SOL     OW18829   1.291   4.420   1.987
 5977SOL    HW118830   1.375   4.448   2.033
 5977SOL    HW218831   1.260   4.332   2.024
 5978SOL     OW18832   5.463   5.018   2.401
 5978SOL    HW118833   5.494   5.090   2.338
 5978SOL    HW218834   5.407   4.952   2.351
 5979SOL     OW18835   6.424   0.648   3.608
 5979SOL    HW118836   6.427   0.743   3.638
 5979SOL    HW218837   6.500   0.597   3.649
 5980SOL     OW18838   5.392   4.157   0.809
 5980SOL    HW118839   5.328   4.126   0.739
 5980SOL    HW218840   5.452   4.081   0.836
 5981SOL     OW18841   5.415   1.201   2.087
 5981SOL    HW118842   5.412   1.260   2.007
 5981SOL    HW218843   5.325   1.200   2.132
 5982SOL     OW18844   0.081   2.259   6.987
 5982SOL    HW118845   0.011   2.298   0.028
 5982SOL    HW218846   0.053   2.269   6.892
 5983SOL     OW18847   1.563   1.521   4.015
 5983SOL    HW118848   1.524   1.533   4.106
 5983SOL    HW218849   1.588   1.425   4.001
 5984SOL     OW18850   0.001   6.255   4.940
 5984SOL    HW118851   7.006   6.249   4.841
 5984SOL    HW218852   0.097   6.277   4.960
 5985SOL     OW18853   4.830   1.976   3.978
 5985SOL    HW118854   4.807   1.950   3.884
 5985SOL    HW218855   4.752   2.022   4.020
 5986SOL     OW18856   3.570   3.283   2.536
 5986SOL    HW118857   3.584   3.235   2.449
 5986SOL    HW218858   3.482   3.330   2.535
 5987SOL     OW18859   4.301   6.842   4.823
 5987SOL    HW118860   4.382   6.831   4.880
 5987SOL    HW218861   4.306   6.928   4.774
 5988SOL     OW18862   4.330   0.078   4.067
 5988SOL    HW118863   4.285   0.163   4.040
 5988SOL    HW218864   4.325   0.068   4.167
 5989SOL     OW18865   3.070   0.232   6.143
 5989SOL    HW118866   3.044   0.299   6.073
 5989SOL    HW218867   3.155   0.187   6.116
 5990SOL     OW18868   3.334   5.143   0.637
 5990SOL    HW118869   3.368   5.229   0.597
 5990SOL    HW218870   3.334   5.151   0.737
 5991SOL     OW18871   3.143   5.504   4.371
 5991SOL    HW118872   3.231   5.482   4.413
 5991SOL    HW218873   3.158   5.545   4.281
 5992SOL     OW18874   3.683   0.441   3.708
 5992SOL    HW118875   3.761   0.396   3.751
 5992SOL    HW218876   3.602   0.382   3.718
 5993SOL     OW18877   2.401   6.087   5.895
 5993SOL    HW118878   2.423   6.075   5.992
 5993SOL    HW218879   2.368   6.000   5.858
 5994SOL     OW18880   5.924   2.776   2.369
 5994SOL    HW118881   5.985   2.821   2.435
 5994SOL    HW218882   5.862   2.844   2.330
 5995SOL     OW18883   6.907   5.074   0.667
 5995SOL    HW118884   6.914   5.094   0.570
 5995SOL    HW218885   6.907   4.975   0.681
 5996SOL     OW18886   0.030   5.617   6.193
 5996SOL    HW118887   0.056   5.527   6.159
 5996SOL    HW218888   6.986   5.660   6.128
 5997SOL     OW18889   0.575   6.704   1.910
 5997SOL    HW118890   0.608   6.662   1.994
 5997SOL    HW218891   0.512   6.779   1.932
 5998SOL     OW18892   5.521   2.047   2.292
 5998SOL    HW118893   5.610   2.003   2.285
 5998SOL    HW218894   5.524   2.135   2.245
 5999SOL     OW18895   1.629   2.003   2.598
 5999SOL    HW118896   1.574   2.009   2.682
 5999SOL    HW218897   1.698   2.075   2.599
 6000SOL     OW18898   4.240   5.400   2.419
 6000SOL    HW118899   4.277   5.322   2.368
 6000SOL    HW218900   4.311   5.440   2.476
 6001SOL     OW18901   6.428   2.896   6.614
 6001SOL    HW118902   6.455   2.819   6.671
 6001SOL    HW218903   6.354   2.868   6.553
 6002SOL     OW18904   1.824   0.274   1.847
 6002SOL    HW118905   1.753   0.331   1.888
 6002SOL    HW218906   1.871   0.326   1.775
 6003SOL     OW18907   5.008   4.154   5.040
 6003SOL    HW118908   5.066   4.235   5.037
 6003SOL    HW218909   5.062   4.073   5.015
 6004SOL     OW18910   0.521   3.450   2.607
 6004SOL    HW118911   0.571   3.482   2.527
 6004SOL    HW218912   0.577   3.461   2.689
 6005SOL     OW18913   3.212   5.615   3.542
 6005SOL    HW118914   3.284   5.684   3.544
 6005SOL    HW218915   3.250   5.527   3.572
 6006SOL     OW18916   2.892   6.798   6.375
 6006SOL    HW118917   2.974   6.799   6.431
 6006SOL    HW218918   2.889   6.882   6.320
 6007SOL     OW18919   5.778   2.416   4.272
 6007SOL    HW118920   5.828   2.376   4.349
 6007SOL    HW218921   5.843   2.454   4.206
 6008SOL     OW18922   2.793   4.953   6.197
 6008SOL    HW118923   2.854   4.874   6.204
 6008SOL    HW218924   2.715   4.931   6.138
 6009SOL     OW18925   2.487   1.625   4.217
 6009SOL    HW118926   2.531   1.610   4.305
 6009SOL    HW218927   2.495   1.721   4.191
 6010SOL     OW18928   1.938   4.366   2.554
 6010SOL    HW118929   1.914   4.417   2.636
 6010SOL    HW218930   1.986   4.426   2.490
 6011SOL     OW18931   5.342   2.605   2.625
 6011SOL    HW118932   5.278   2.637   2.695
 6011SOL    HW218933   5.291   2.578   2.543
 6012SOL     OW18934   6.431   2.922   0.667
 6012SOL    HW118935   6.453   2.874   0.752
 6012SOL    HW218936   6.495   2.895   0.595
 6013SOL     OW18937   5.869   0.992   2.423
 6013SOL    HW118938   5.903   1.077   2.463
 6013SOL    HW218939   5.933   0.918   2.442
 6014SOL     OW18940   5.519   0.441   0.333
 6014SOL    HW118941   5.465   0.403   0.259
 6014SOL    HW218942   5.518   0.378   0.411
 6015SOL     OW18943   5.108   1.912   4.542
 6015SOL    HW118944   5.084   2.006   4.569
 6015SOL    HW218945   5.099   1.903   4.443
 6016SOL     OW18946   1.958   0.743   5.079
 6016SOL    HW118947   2.021   0.817   5.102
 6016SOL    HW218948   1.975   0.665   5.140
 6017SOL     OW18949   6.481   5.002   2.978
 6017SOL    HW118950   6.512   5.032   2.887
 6017SOL    HW218951   6.498   5.075   3.044
 6018SOL     OW18952   2.724   3.414   0.974
 6018SOL    HW118953   2.685   3.444   1.061
 6018SOL    HW218954   2.809   3.464   0.957
 6019SOL     OW18955   4.002   1.051   4.135
 6019SOL    HW118956   4.069   1.056   4.060
 6019SOL    HW218957   3.985   0.955   4.157
 6020SOL     OW18958   4.063   0.543   2.694
 6020SOL    HW118959   4.016   0.462   2.658
 6020SOL    HW218960   4.060   0.616   2.626
 6021SOL     OW18961   4.319   1.359   2.327
 6021SOL    HW118962   4.296   1.455   2.313
 6021SOL    HW218963   4.299   1.333   2.422
 6022SOL     OW18964   4.155   1.541   3.327
 6022SOL    HW118965   4.181   1.605   3.255
 6022SOL    HW218966   4.126   1.592   3.408
 6023SOL     OW18967   0.554   1.623   3.065
 6023SOL    HW118968   0.486   1.654   2.999
 6023SOL    HW218969   0.523   1.537   3.106
 6024SOL     OW18970   0.981   5.112   1.665
 6024SOL    HW118971   1.052   5.066   1.718
 6024SOL    HW218972   0.901   5.128   1.724
 6025SOL     OW18973   4.568   1.207   1.363
 6025SOL    HW118974   4.517   1.141   1.418
 6025SOL    HW218975   4.604   1.162   1.281
 6026SOL     OW18976   6.521   4.486   5.193
 6026SOL    HW118977   6.557   4.459   5.103
 6026SOL    HW218978   6.526   4.586   5.201
 6027SOL     OW18979   2.913   2.967   6.559
 6027SOL    HW118980   2.907   3.005   6.467
 6027SOL    HW218981   2.823   2.971   6.603
 6028SOL     OW18982   1.646   3.903   0.272
 6028SOL    HW118983   1.741   3.921   0.298
 6028SOL    HW218984   1.589   3.981   0.300
 6029SOL     OW18985   2.112   6.297   1.137
 6029SOL    HW118986   2.027   6.305   1.086
 6029SOL    HW218987   2.097   6.245   1.221
 6030SOL     OW18988   2.323   0.928   1.646
 6030SOL    HW118989   2.366   0.997   1.588
 6030SOL    HW218990   2.240   0.966   1.687
 6031SOL     OW18991   4.999   6.316   5.479
 6031SOL    HW118992   5.051   6.319   5.393
 6031SOL    HW218993   4.916   6.262   5.465
 6032SOL     OW18994   1.073   3.067   2.076
 6032SOL    HW118995   1.090   3.116   2.161
 6032SOL    HW218996   1.073   2.968   2.095
 6033SOL     OW18997   1.323   2.004   3.613
 6033SOL    HW118998   1.293   1.910   3.627
 6033SOL    HW218999   1.280   2.063   3.681
 6034SOL     OW19000   1.782   4.530   5.130
 6034SOL    HW119001   1.770   4.494   5.038
 6034SOL    HW219002   1.781   4.630   5.127
 6035SOL     OW19003   6.023   0.277   3.882
 6035SOL    HW119004   5.958   0.353   3.881
 6035SOL    HW219005   6.115   0.312   3.863
 6036SOL     OW19006   0.654   6.882   5.425
 6036SOL    HW119007   0.692   6.849   5.511
 6036SOL    HW219008   0.560   6.914   5.440
 6037SOL     OW19009   5.514   5.799   5.107
 6037SOL    HW119010   5.434   5.745   5.134
 6037SOL    HW219011   5.587   5.738   5.076
 6038SOL     OW19012   6.488   4.428   5.966
 6038SOL    HW119013   6.545   4.451   5.887
 6038SOL    HW219014   6.479   4.329   5.973
 6039SOL     OW19015   3.367   3.456   2.525
 6039SOL    HW119016   3.438   3.526   2.520
 6039SOL    HW219017   3.277   3.499   2.525
 6040SOL     OW19018   0.697   2.418   0.145
 6040SOL    HW119019   0.696   2.503   0.094
 6040SOL    HW219020   0.780   2.413   0.201
 6041SOL     OW19021   0.855   1.532   7.000
 6041SOL    HW119022   0.954   1.541   6.987
 6041SOL    HW219023   0.832   1.553   0.076
 6042SOL     OW19024   5.556   4.939   2.828
 6042SOL    HW119025   5.633   4.942   2.763
 6042SOL    HW219026   5.474   4.908   2.780
 6043SOL     OW19027   1.300   4.549   4.690
 6043SOL    HW119028   1.274   4.645   4.701
 6043SOL    HW219029   1.396   4.537   4.716
 6044SOL     OW19030   0.127   0.512   1.095
 6044SOL    HW119031   0.090   0.592   1.141
 6044SOL    HW219032   0.183   0.541   1.017
 6045SOL     OW19033   6.265   4.838   1.198
 6045SOL    HW119034   6.365   4.833   1.196
 6045SOL    HW219035   6.237   4.918   1.250
 6046SOL     OW19036   3.217   2.898   0.434
 6046SOL    HW119037   3.186   2.804   0.449
 6046SOL    HW219038   3.147   2.962   0.463
 6047SOL     OW19039   6.325   0.087   4.367
 6047SOL    HW119040   6.339   0.182   4.396
 6047SOL    HW219041   6.413   0.048   4.342
 6048SOL     OW19042   4.216   0.445   4.259
 6048SOL    HW119043   4.285   0.432   4.188
 6048SOL    HW219044   4.168   0.359   4.276
 6049SOL     OW19045   5.097   4.041   6.725
 6049SOL    HW119046   5.010   3.997   6.746
 6049SOL    HW219047   5.109   4.121   6.784
 6050SOL     OW19048   4.358   4.770   5.222
 6050SOL    HW119049   4.261   4.765   5.195
 6050SOL    HW219050   4.365   4.821   5.308
 6051SOL     OW19051   1.928   2.021   2.853
 6051SOL    HW119052   1.892   1.965   2.928
 6051SOL    HW219053   1.998   1.971   2.804
 6052SOL     OW19054   0.480   1.623   0.892
 6052SOL    HW119055   0.387   1.598   0.917
 6052SOL    HW219056   0.528   1.544   0.856
 6053SOL     OW19057   1.649   0.009   6.977
 6053SOL    HW119058   1.677   0.072   0.032
 6053SOL    HW219059   1.613   0.062   6.901
 6054SOL     OW19060   1.459   4.744   0.414
 6054SOL    HW119061   1.383   4.713   0.357
 6054SOL    HW219062   1.493   4.831   0.381
 6055SOL     OW19063   4.623   1.170   4.810
 6055SOL    HW119064   4.679   1.088   4.824
 6055SOL    HW219065   4.673   1.236   4.754
 6056SOL     OW19066   3.870   1.973   6.434
 6056SOL    HW119067   3.908   1.924   6.512
 6056SOL    HW219068   3.889   1.923   6.350
 6057SOL     OW19069   3.378   0.821   4.740
 6057SOL    HW119070   3.429   0.876   4.673
 6057SOL    HW219071   3.432   0.813   4.824
 6058SOL     OW19072   5.850   1.914   4.522
 6058SOL    HW119073   5.913   1.840   4.498
 6058SOL    HW219074   5.763   1.899   4.476
 6059SOL     OW19075   5.122   4.299   6.860
 6059SOL    HW119076   5.065   4.377   6.833
 6059SOL    HW219077   5.208   4.302   6.809
 6060SOL     OW19078   4.436   5.334   5.416
 6060SOL    HW119079   4.388   5.246   5.410
 6060SOL    HW219080   4.500   5.341   5.340
 6061SOL     OW19081   3.388   2.033   6.682
 6061SOL    HW119082   3.394   1.981   6.767
 6061SOL    HW219083   3.395   2.130   6.702
 6062SOL     OW19084   1.716   0.924   4.748
 6062SOL    HW119085   1.700   1.006   4.803
 6062SOL    HW219086   1.801   0.879   4.779
 6063SOL     OW19087   4.370   0.816   6.926
 6063SOL    HW119088   4.328   0.904   6.948
 6063SOL    HW219089   4.469   0.827   6.918
 6064SOL     OW19090   1.183   5.679   3.081
 6064SOL    HW119091   1.233   5.742   3.141
 6064SOL    HW219092   1.136   5.611   3.137
 6065SOL     OW19093   6.671   6.944   0.658
 6065SOL    HW119094   6.595   6.886   0.630
 6065SOL    HW219095   6.706   6.914   0.747
 6066SOL     OW19096   4.334   2.308   0.711
 6066SOL    HW119097   4.380   2.346   0.791
 6066SOL    HW219098   4.244   2.351   0.701
 6067SOL     OW19099   6.155   1.246   6.142
 6067SOL    HW119100   6.068   1.239   6.191
 6067SOL    HW219101   6.180   1.342   6.133
 6068SOL     OW19102   4.762   2.862   4.667
 6068SOL    HW119103   4.755   2.921   4.748
 6068SOL    HW219104   4.792   2.916   4.588
 6069SOL     OW19105   6.637   3.903   5.128
 6069SOL    HW119106   6.544   3.868   5.120
 6069SOL    HW219107   6.645   3.989   5.078
 6070SOL     OW19108   4.439   2.576   6.447
 6070SOL    HW119109   4.507   2.583   6.374
 6070SOL    HW219110   4.486   2.568   6.535
 6071SOL     OW19111   4.172   6.737   5.223
 6071SOL    HW119112   4.073   6.749   5.232
 6071SOL    HW219113   4.217   6.826   5.235
 6072SOL     OW19114   0.926   1.180   2.053
 6072SOL    HW119115   0.912   1.081   2.053
 6072SOL    HW219116   1.010   1.202   2.004
 6073SOL     OW19117   6.798   2.734   0.989
 6073SOL    HW119118   6.754   2.663   1.045
 6073SOL    HW219119   6.730   2.802   0.962
 6074SOL     OW19120   0.453   6.977   4.997
 6074SOL    HW119121   0.419   0.050   4.976
 6074SOL    HW219122   0.424   6.914   4.924
 6075SOL     OW19123   6.118   3.555   0.459
 6075SOL    HW119124   6.066   3.625   0.410
 6075SOL    HW219125   6.067   3.469   0.458
 6076SOL     OW19126   1.751   6.620   3.393
 6076SOL    HW119127   1.684   6.557   3.354
 6076SOL    HW219128   1.814   6.651   3.321
 6077SOL     OW19129   5.798   5.879   2.384
 6077SOL    HW119130   5.839   5.929   2.308
 6077SOL    HW219131   5.715   5.832   2.353
 6078SOL     OW19132   3.224   4.842   3.669
 6078SOL    HW119133   3.164   4.791   3.608
 6078SOL    HW219134   3.284   4.901   3.616
 6079SOL     OW19135   2.546   2.432   6.865
 6079SOL    HW119136   2.640   2.455   6.840
 6079SOL    HW219137   2.485   2.508   6.840
 6080SOL     OW19138   6.026   2.328   1.073
 6080SOL    HW119139   6.070   2.410   1.037
 6080SOL    HW219140   5.969   2.351   1.151
 6081SOL     OW19141   6.645   3.215   3.890
 6081SOL    HW119142   6.634   3.128   3.842
 6081SOL    HW219143   6.584   3.217   3.970
 6082SOL     OW19144   4.488   1.165   2.706
 6082SOL    HW119145   4.426   1.237   2.674
 6082SOL    HW219146   4.437   1.101   2.763
 6083SOL     OW19147   1.651   5.982   6.742
 6083SOL    HW119148   1.575   6.034   6.780
 6083SOL    HW219149   1.714   5.957   6.815
 6084SOL     OW19150   6.716   5.494   5.146
 6084SOL    HW119151   6.813   5.478   5.162
 6084SOL    HW219152   6.704   5.576   5.089
 6085SOL     OW19153   6.098   3.622   0.041
 6085SOL    HW119154   6.148   3.592   6.978
 6085SOL    HW219155   6.002   3.594   0.033
 6086SOL     OW19156   3.467   1.900   4.180
 6086SOL    HW119157   3.544   1.946   4.224
 6086SOL    HW219158   3.474   1.911   4.081
 6087SOL     OW19159   5.719   6.471   6.595
 6087SOL    HW119160   5.812   6.506   6.590
 6087SOL    HW219161   5.680   6.491   6.684
 6088SOL     OW19162   0.861   0.246   4.862
 6088SOL    HW119163   0.799   0.323   4.873
 6088SOL    HW219164   0.956   0.279   4.860
 6089SOL     OW19165   0.483   3.048   1.077
 6089SOL    HW119166   0.574   3.016   1.048
 6089SOL    HW219167   0.429   3.071   0.996
 6090SOL     OW19168   0.898   5.428   5.073
 6090SOL    HW119169   0.931   5.521   5.084
 6090SOL    HW219170   0.849   5.420   4.987
 6091SOL     OW19171   6.295   1.520   1.780
 6091SOL    HW119172   6.352   1.560   1.708
 6091SOL    HW219173   6.350   1.507   1.863
 6092SOL     OW19174   1.950   1.158   2.614
 6092SOL    HW119175   1.910   1.146   2.705
 6092SOL    HW219176   1.883   1.202   2.554
 6093SOL     OW19177   1.455   2.810   1.430
 6093SOL    HW119178   1.521   2.749   1.387
 6093SOL    HW219179   1.500   2.864   1.501
 6094SOL     OW19180   0.595   0.950   1.462
 6094SOL    HW119181   0.648   1.030   1.491
 6094SOL    HW219182   0.574   0.893   1.541
 6095SOL     OW19183   6.111   3.346   6.273
 6095SOL    HW119184   6.143   3.365   6.180
 6095SOL    HW219185   6.080   3.432   6.315
 6096SOL     OW19186   3.935   1.986   3.558
 6096SOL    HW119187   3.848   2.032   3.573
 6096SOL    HW219188   3.986   1.981   3.644
 6097SOL     OW19189   2.729   0.918   2.340
 6097SOL    HW119190   2.814   0.970   2.350
 6097SOL    HW219191   2.652   0.973   2.372
 6098SOL     OW19192   2.362   2.195   5.833
 6098SOL    HW119193   2.333   2.235   5.746
 6098SOL    HW219194   2.430   2.124   5.816
 6099SOL     OW19195   5.611   5.996   4.859
 6099SOL    HW119196   5.538   5.939   4.822
 6099SOL    HW219197   5.572   6.078   4.899
 6100SOL     OW19198   6.332   2.706   0.210
 6100SOL    HW119199   6.290   2.794   0.186
 6100SOL    HW219200   6.420   2.697   0.163
 6101SOL     OW19201   6.407   1.162   6.237
 6101SOL    HW119202   6.439   1.072   6.207
 6101SOL    HW219203   6.307   1.164   6.233
 6102SOL     OW19204   3.204   1.046   4.876
 6102SOL    HW119205   3.244   1.075   4.789
 6102SOL    HW219206   3.113   1.007   4.860
 6103SOL     OW19207   6.594   6.640   5.196
 6103SOL    HW119208   6.585   6.730   5.154
 6103SOL    HW219209   6.626   6.649   5.290
 6104SOL     OW19210   6.153   1.706   6.398
 6104SOL    HW119211   6.077   1.666   6.450
 6104SOL    HW219212   6.120   1.784   6.345
 6105SOL     OW19213   3.400   5.829   5.556
 6105SOL    HW119214   3.307   5.804   5.526
 6105SOL    HW219215   3.467   5.771   5.510
 6106SOL     OW19216   3.248   4.738   6.185
 6106SOL    HW119217   3.260   4.674   6.109
 6106SOL    HW219218   3.310   4.816   6.173
 6107SOL     OW19219   2.165   4.621   5.098
 6107SOL    HW119220   2.098   4.599   5.170
 6107SOL    HW219221   2.127   4.598   5.009
 6108SOL     OW19222   1.037   2.018   4.293
 6108SOL    HW119223   0.939   2.040   4.297
 6108SOL    HW219224   1.049   1.925   4.261
 6109SOL     OW19225   5.766   3.490   1.064
 6109SOL    HW119226   5.857   3.452   1.081
 6109SOL    HW219227   5.773   3.557   0.990
 6110SOL     OW19228   3.268   1.436   4.989
 6110SOL    HW119229   3.280   1.524   4.942
 6110SOL    HW219230   3.355   1.387   4.992
 6111SOL     OW19231   1.464   4.692   3.179
 6111SOL    HW119232   1.470   4.725   3.273
 6111SOL    HW219233   1.393   4.622   3.173
 6112SOL     OW19234   1.330   1.879   2.657
 6112SOL    HW119235   1.369   1.926   2.577
 6112SOL    HW219236   1.248   1.927   2.687
 6113SOL     OW19237   1.918   6.862   5.555
 6113SOL    HW119238   1.864   6.880   5.473
 6113SOL    HW219239   1.930   6.947   5.606
 6114SOL     OW19240   4.730   6.275   0.834
 6114SOL    HW119241   4.823   6.238   0.835
 6114SOL    HW219242   4.714   6.324   0.749
 6115SOL     OW19243   5.037   4.923   2.676
 6115SOL    HW119244   5.039   4.911   2.576
 6115SOL    HW219245   5.124   4.894   2.715
 6116SOL     OW19246   3.923   1.293   1.850
 6116SOL    HW119247   3.876   1.331   1.771
 6116SOL    HW219248   3.949   1.367   1.912
 6117SOL     OW19249   5.661   6.598   4.770
 6117SOL    HW119250   5.750   6.629   4.736
 6117SOL    HW219251   5.639   6.647   4.854
 6118SOL     OW19252   6.275   1.227   3.389
 6118SOL    HW119253   6.277   1.129   3.367
 6118SOL    HW219254   6.213   1.273   3.326
 6119SOL     OW19255   6.971   5.173   4.448
 6119SOL    HW119256   6.897   5.130   4.395
 6119SOL    HW219257   0.025   5.202   4.386
 6120SOL     OW19258   2.443   6.959   2.426
 6120SOL    HW119259   2.351   6.956   2.464
 6120SOL    HW219260   2.479   6.866   2.415
 6121SOL     OW19261   0.639   2.358   3.926
 6121SOL    HW119262   0.620   2.342   4.023
 6121SOL    HW219263   0.703   2.434   3.918
 6122SOL     OW19264   3.891   6.027   3.287
 6122SOL    HW119265   3.921   5.932   3.290
 6122SOL    HW219266   3.843   6.044   3.201
 6123SOL     OW19267   6.269   1.452   2.240
 6123SOL    HW119268   6.179   1.426   2.275
 6123SOL    HW219269   6.309   1.374   2.190
 6124SOL     OW19270   3.346   0.266   5.761
 6124SOL    HW119271   3.391   0.266   5.850
 6124SOL    HW219272   3.394   0.204   5.699
 6125SOL     OW19273   1.910   6.397   1.652
 6125SOL    HW119274   1.981   6.450   1.605
 6125SOL    HW219275   1.839   6.370   1.586
 6126SOL     OW19276   5.601   4.794   2.528
 6126SOL    HW119277   5.552   4.877   2.500
 6126SOL    HW219278   5.648   4.755   2.449
 6127SOL     OW19279   2.075   6.089   1.616
 6127SOL    HW119280   2.081   6.136   1.704
 6127SOL    HW219281   1.998   6.125   1.563
 6128SOL     OW19282   6.260   2.198   0.044
 6128SOL    HW119283   6.298   2.290   0.049
 6128SOL    HW219284   6.239   2.166   0.137
 6129SOL     OW19285   6.161   4.276   2.641
 6129SOL    HW119286   6.069   4.315   2.644
 6129SOL    HW219287   6.155   4.177   2.648
 6130SOL     OW19288   5.024   3.108   3.115
 6130SOL    HW119289   4.986   3.201   3.115
 6130SOL    HW219290   4.952   3.042   3.134
 6131SOL     OW19291   6.395   0.883   5.417
 6131SOL    HW119292   6.379   0.956   5.483
 6131SOL    HW219293   6.428   0.922   5.331
 6132SOL     OW19294   4.045   2.699   0.872
 6132SOL    HW119295   3.997   2.618   0.836
 6132SOL    HW219296   4.140   2.698   0.841
 6133SOL     OW19297   0.886   3.708   1.496
 6133SOL    HW119298   0.890   3.608   1.507
 6133SOL    HW219299   0.810   3.731   1.435
 6134SOL     OW19300   4.160   3.829   6.539
 6134SOL    HW119301   4.094   3.903   6.543
 6134SOL    HW219302   4.216   3.829   6.622
 6135SOL     OW19303   6.346   6.799   1.221
 6135SOL    HW119304   6.364   6.822   1.125
 6135SOL    HW219305   6.431   6.798   1.272
 6136SOL     OW19306   1.136   1.799   1.837
 6136SOL    HW119307   1.079   1.860   1.891
 6136SOL    HW219308   1.210   1.763   1.894
 6137SOL     OW19309   2.686   6.347   5.970
 6137SOL    HW119310   2.702   6.377   6.064
 6137SOL    HW219311   2.593   6.371   5.942
 6138SOL     OW19312   3.643   6.067   3.374
 6138SOL    HW119313   3.731   6.080   3.328
 6138SOL    HW219314   3.613   5.972   3.361
 6139SOL     OW19315   1.509   4.259   4.672
 6139SOL    HW119316   1.456   4.235   4.591
 6139SOL    HW219317   1.605   4.235   4.658
 6140SOL     OW19318   1.290   6.930   1.852
 6140SOL    HW119319   1.233   6.946   1.771
 6140SOL    HW219320   1.386   6.925   1.824
 6141SOL     OW19321   6.395   5.574   5.821
 6141SOL    HW119322   6.468   5.541   5.762
 6141SOL    HW219323   6.347   5.497   5.863
 6142SOL     OW19324   6.850   4.109   1.452
 6142SOL    HW119325   6.889   4.170   1.521
 6142SOL    HW219326   6.851   4.154   1.362
 6143SOL     OW19327   5.946   5.266   6.517
 6143SOL    HW119328   5.902   5.283   6.428
 6143SOL    HW219329   5.882   5.217   6.576
 6144SOL     OW19330   6.790   4.010   4.122
 6144SOL    HW119331   6.860   4.057   4.175
 6144SOL    HW219332   6.821   3.917   4.102
 6145SOL     OW19333   4.949   5.253   2.979
 6145SOL    HW119334   4.913   5.338   3.019
 6145SOL    HW219335   4.907   5.174   3.023
 6146SOL     OW19336   5.489   1.708   3.318
 6146SOL    HW119337   5.576   1.676   3.354
 6146SOL    HW219338   5.443   1.765   3.387
 6147SOL     OW19339   2.165   3.747   2.445
 6147SOL    HW119340   2.239   3.795   2.397
 6147SOL    HW219341   2.199   3.660   2.479
 6148SOL     OW19342   6.152   6.228   4.393
 6148SOL    HW119343   6.102   6.312   4.371
 6148SOL    HW219344   6.237   6.225   4.340
 6149SOL     OW19345   3.412   5.539   3.115
 6149SOL    HW119346   3.484   5.608   3.128
 6149SOL    HW219347   3.395   5.527   3.017
 6150SOL     OW19348   4.749   6.304   6.011
 6150SOL    HW119349   4.742   6.403   6.004
 6150SOL    HW219350   4.773   6.265   5.922
 6151SOL     OW19351   5.343   2.453   5.475
 6151SOL    HW119352   5.412   2.385   5.498
 6151SOL    HW219353   5.284   2.418   5.402
 6152SOL     OW19354   6.044   4.393   6.501
 6152SOL    HW119355   6.039   4.484   6.459
 6152SOL    HW219356   5.969   4.383   6.567
 6153SOL     OW19357   4.272   3.851   1.742
 6153SOL    HW119358   4.241   3.897   1.826
 6153SOL    HW219359   4.289   3.920   1.671
 6154SOL     OW19360   5.184   2.684   3.315
 6154SOL    HW119361   5.201   2.666   3.218
 6154SOL    HW219362   5.254   2.637   3.370
 6155SOL     OW19363   0.396   3.537   5.158
 6155SOL    HW119364   0.338   3.457   5.173
 6155SOL    HW219365   0.344   3.608   5.111
 6156SOL     OW19366   6.314   6.581   3.005
 6156SOL    HW119367   6.247   6.534   3.062
 6156SOL    HW219368   6.274   6.602   2.915
 6157SOL     OW19369   2.257   1.589   4.614
 6157SOL    HW119370   2.258   1.586   4.514
 6157SOL    HW219371   2.340   1.634   4.647
 6158SOL     OW19372   4.953   1.241   6.322
 6158SOL    HW119373   5.044   1.200   6.322
 6158SOL    HW219374   4.888   1.178   6.279
 6159SOL     OW19375   5.328   2.964   0.385
 6159SOL    HW119376   5.233   2.942   0.406
 6159SOL    HW219377   5.389   2.900   0.433
 6160SOL     OW19378   5.520   5.840   1.766
 6160SOL    HW119379   5.597   5.871   1.822
 6160SOL    HW219380   5.493   5.913   1.703
 6161SOL     OW19381   5.123   0.155   6.045
 6161SOL    HW119382   5.186   0.230   6.062
 6161SOL    HW219383   5.170   0.068   6.060
 6162SOL     OW19384   7.005   5.202   4.747
 6162SOL    HW119385   6.930   5.158   4.797
 6162SOL    HW219386   6.987   5.198   4.649
 6163SOL     OW19387   6.084   4.642   1.226
 6163SOL    HW119388   6.146   4.719   1.208
 6163SOL    HW219389   6.137   4.563   1.255
 6164SOL     OW19390   3.538   1.876   0.849
 6164SOL    HW119391   3.473   1.807   0.881
 6164SOL    HW219392   3.499   1.967   0.860
 6165SOL     OW19393   3.740   6.321   6.879
 6165SOL    HW119394   3.830   6.364   6.878
 6165SOL    HW219395   3.751   6.222   6.887
 6166SOL     OW19396   2.740   1.228   6.132
 6166SOL    HW119397   2.735   1.128   6.132
 6166SOL    HW219398   2.648   1.266   6.124
 6167SOL     OW19399   0.634   3.919   3.273
 6167SOL    HW119400   0.586   3.844   3.318
 6167SOL    HW219401   0.730   3.896   3.262
 6168SOL     OW19402   0.133   4.063   2.738
 6168SOL    HW119403   0.196   4.021   2.674
 6168SOL    HW219404   0.105   4.153   2.704
 6169SOL     OW19405   2.262   4.122   2.452
 6169SOL    HW119406   2.258   4.062   2.372
 6169SOL    HW219407   2.195   4.093   2.520
 6170SOL     OW19408   0.447   2.935   5.337
 6170SOL    HW119409   0.453   3.011   5.272
 6170SOL    HW219410   0.533   2.928   5.387
 6171SOL     OW19411   0.297   0.527   6.477
 6171SOL    HW119412   0.389   0.501   6.450
 6171SOL    HW219413   0.299   0.616   6.523
 6172SOL     OW19414   0.469   3.374   2.919
 6172SOL    HW119415   0.392   3.310   2.927
 6172SOL    HW219416   0.434   3.467   2.911
 6173SOL     OW19417   6.675   6.887   3.173
 6173SOL    HW119418   6.700   6.982   3.194
 6173SOL    HW219419   6.576   6.877   3.182
 6174SOL     OW19420   5.830   3.929   3.099
 6174SOL    HW119421   5.895   3.860   3.132
 6174SOL    HW219422   5.760   3.884   3.044
 6175SOL     OW19423   2.312   1.998   5.464
 6175SOL    HW119424   2.219   1.961   5.470
 6175SOL    HW219425   2.349   1.979   5.373
 6176SOL     OW19426   4.052   4.474   5.295
 6176SOL    HW119427   4.129   4.463   5.231
 6176SOL    HW219428   3.994   4.393   5.291
 6177SOL     OW19429   5.918   1.189   1.828
 6177SOL    HW119430   5.941   1.181   1.731
 6177SOL    HW219431   5.892   1.099   1.863
 6178SOL     OW19432   4.990   4.920   1.663
 6178SOL    HW119433   4.917   4.929   1.595
 6178SOL    HW219434   4.962   4.853   1.733
 6179SOL     OW19435   6.108   4.819   3.260
 6179SOL    HW119436   6.140   4.858   3.173
 6179SOL    HW219437   6.172   4.843   3.333
 6180SOL     OW19438   2.857   4.197   0.105
 6180SOL    HW119439   2.895   4.164   0.018
 6180SOL    HW219440   2.902   4.150   0.181
 6181SOL     OW19441   4.886   5.072   6.126
 6181SOL    HW119442   4.958   5.032   6.070
 6181SOL    HW219443   4.880   5.170   6.106
 6182SOL     OW19444   3.191   3.321   0.148
 6182SOL    HW119445   3.198   3.411   0.105
 6182SOL    HW219446   3.281   3.277   0.149
 6183SOL     OW19447   0.786   1.734   1.697
 6183SOL    HW119448   0.847   1.668   1.741
 6183SOL    HW219449   0.840   1.805   1.652
 6184SOL     OW19450   2.835   0.716   6.005
 6184SOL    HW119451   2.796   0.752   5.921
 6184SOL    HW219452   2.918   0.767   6.029
 6185SOL     OW19453   3.115   2.646   5.765
 6185SOL    HW119454   3.097   2.661   5.667
 6185SOL    HW219455   3.050   2.698   5.819
 6186SOL     OW19456   6.524   1.475   1.933
 6186SOL    HW119457   6.600   1.471   1.997
 6186SOL    HW219458   6.506   1.384   1.896
 6187SOL     OW19459   5.224   1.730   5.224
 6187SOL    HW119460   5.249   1.803   5.160
 6187SOL    HW219461   5.163   1.665   5.178
 6188SOL     OW19462   1.469   2.379   5.448
 6188SOL    HW119463   1.455   2.364   5.350
 6188SOL    HW219464   1.479   2.291   5.495
 6189SOL     OW19465   6.130   6.163   2.519
 6189SOL    HW119466   6.104   6.103   2.595
 6189SOL    HW219467   6.147   6.108   2.438
 6190SOL     OW19468   0.198   2.425   5.679
 6190SOL    HW119469   0.260   2.474   5.619
 6190SOL    HW219470   0.211   2.455   5.774
 6191SOL     OW19471   3.645   3.667   6.741
 6191SOL    HW119472   3.610   3.761   6.743
 6191SOL    HW219473   3.659   3.634   6.834
 6192SOL     OW19474   2.807   1.423   0.025
 6192SOL    HW119475   2.778   1.510   7.005
 6192SOL    HW219476   2.884   1.438   0.087
 6193SOL     OW19477   4.816   5.402   6.664
 6193SOL    HW119478   4.916   5.403   6.653
 6193SOL    HW219479   4.786   5.310   6.688
 6194SOL     OW19480   6.466   0.152   5.982
 6194SOL    HW119481   6.381   0.192   6.014
 6194SOL    HW219482   6.543   0.188   6.035
 6195SOL     OW19483   6.666   6.657   5.614
 6195SOL    HW119484   6.736   6.599   5.572
 6195SOL    HW219485   6.706   6.706   5.691
 6196SOL     OW19486   5.851   3.768   3.365
 6196SOL    HW119487   5.906   3.687   3.344
 6196SOL    HW219488   5.758   3.740   3.390
 6197SOL     OW19489   3.378   5.570   1.941
 6197SOL    HW119490   3.381   5.663   1.977
 6197SOL    HW219491   3.287   5.531   1.955
 6198SOL     OW19492   6.243   6.372   6.150
 6198SOL    HW119493   6.246   6.465   6.187
 6198SOL    HW219494   6.209   6.375   6.056
 6199SOL     OW19495   0.974   0.519   1.024
 6199SOL    HW119496   0.960   0.581   1.102
 6199SOL    HW219497   1.039   0.448   1.049
 6200SOL     OW19498   1.876   2.335   2.976
 6200SOL    HW119499   1.965   2.347   3.020
 6200SOL    HW219500   1.889   2.315   2.879
 6201SOL     OW19501   6.987   3.540   3.920
 6201SOL    HW119502   6.987   3.459   3.861
 6201SOL    HW219503   0.049   3.538   3.978
 6202SOL     OW19504   6.062   1.724   2.521
 6202SOL    HW119505   6.102   1.807   2.483
 6202SOL    HW219506   6.113   1.698   2.603
 6203SOL     OW19507   6.380   6.047   2.297
 6203SOL    HW119508   6.386   6.146   2.285
 6203SOL    HW219509   6.394   6.002   2.209
 6204SOL     OW19510   2.219   6.958   5.303
 6204SOL    HW119511   2.306   6.925   5.268
 6204SOL    HW219512   2.229   6.986   5.399
 6205SOL     OW19513   5.418   3.927   3.219
 6205SOL    HW119514   5.437   4.015   3.174
 6205SOL    HW219515   5.319   3.914   3.226
 6206SOL     OW19516   5.342   2.384   3.720
 6206SOL    HW119517   5.435   2.379   3.756
 6206SOL    HW219518   5.321   2.479   3.697
 6207SOL     OW19519   2.154   5.455   4.203
 6207SOL    HW119520   2.239   5.416   4.166
 6207SOL    HW219521   2.080   5.389   4.192
 6208SOL     OW19522   3.800   3.124   5.806
 6208SOL    HW119523   3.821   3.039   5.855
 6208SOL    HW219524   3.767   3.102   5.714
 6209SOL     OW19525   3.447   3.112   1.127
 6209SOL    HW119526   3.539   3.084   1.098
 6209SOL    HW219527   3.384   3.034   1.118
 6210SOL     OW19528   4.763   1.942   3.707
 6210SOL    HW119529   4.834   1.924   3.639
 6210SOL    HW219530   4.683   1.983   3.663
 6211SOL     OW19531   5.666   5.141   4.631
 6211SOL    HW119532   5.590   5.084   4.662
 6211SOL    HW219533   5.728   5.085   4.576
 6212SOL     OW19534   4.435   4.479   6.056
 6212SOL    HW119535   4.492   4.432   5.988
 6212SOL    HW219536   4.354   4.424   6.074
 6213SOL     OW19537   4.436   5.747   0.125
 6213SOL    HW119538   4.438   5.721   0.028
 6213SOL    HW219539   4.514   5.706   0.172
 6214SOL     OW19540   5.861   5.598   6.373
 6214SOL    HW119541   5.810   5.541   6.437
 6214SOL    HW219542   5.921   5.541   6.317
 6215SOL     OW19543   5.980   2.585   5.820
 6215SOL    HW119544   5.889   2.575   5.779
 6215SOL    HW219545   6.048   2.544   5.760
 6216SOL     OW19546   4.705   2.332   3.045
 6216SOL    HW119547   4.706   2.351   2.947
 6216SOL    HW219548   4.615   2.353   3.083
 6217SOL     OW19549   0.632   4.593   2.551
 6217SOL    HW119550   0.571   4.567   2.476
 6217SOL    HW219551   0.727   4.575   2.525
 6218SOL     OW19552   4.735   6.846   6.500
 6218SOL    HW119553   4.725   6.753   6.534
 6218SOL    HW219554   4.718   6.911   6.574
 6219SOL     OW19555   0.970   0.685   6.055
 6219SOL    HW119556   0.905   0.613   6.032
 6219SOL    HW219557   0.939   0.772   6.016
 6220SOL     OW19558   4.114   0.877   1.049
 6220SOL    HW119559   4.199   0.884   0.998
 6220SOL    HW219560   4.043   0.930   1.003
 6221SOL     OW19561   6.311   5.814   6.501
 6221SOL    HW119562   6.330   5.788   6.596
 6221SOL    HW219563   6.270   5.737   6.453
 6222SOL     OW19564   6.502   1.523   2.708
 6222SOL    HW119565   6.580   1.585   2.709
 6222SOL    HW219566   6.500   1.473   2.621
 6223SOL     OW19567   0.293   4.813   3.563
 6223SOL    HW119568   0.230   4.882   3.529
 6223SOL    HW219569   0.377   4.857   3.595
 6224SOL     OW19570   4.036   1.327   6.331
 6224SOL    HW119571   3.973   1.321   6.253
 6224SOL    HW219572   3.990   1.369   6.409
 6225SOL     OW19573   4.427   6.748   6.554
 6225SOL    HW119574   4.487   6.808   6.607
 6225SOL    HW219575   4.470   6.728   6.466
 6226SOL     OW19576   1.490   0.997   4.587
 6226SOL    HW119577   1.483   1.072   4.652
 6226SOL    HW219578   1.491   0.910   4.636
 6227SOL     OW19579   2.877   3.850   4.903
 6227SOL    HW119580   2.858   3.948   4.913
 6227SOL    HW219581   2.800   3.798   4.939
 6228SOL     OW19582   1.914   2.778   3.453
 6228SOL    HW119583   2.002   2.823   3.465
 6228SOL    HW219584   1.852   2.804   3.526
 6229SOL     OW19585   0.372   3.850   3.962
 6229SOL    HW119586   0.381   3.823   4.058
 6229SOL    HW219587   0.341   3.945   3.957
 6230SOL     OW19588   0.142   0.987   2.138
 6230SOL    HW119589   0.063   1.047   2.120
 6230SOL    HW219590   0.123   0.895   2.103
 6231SOL     OW19591   1.118   5.375   0.047
 6231SOL    HW119592   1.086   5.391   0.140
 6231SOL    HW219593   1.061   5.305   0.004
 6232SOL     OW19594   4.316   1.302   6.541
 6232SOL    HW119595   4.397   1.281   6.487
 6232SOL    HW219596   4.252   1.356   6.487
 6233SOL     OW19597   0.116   3.693   1.951
 6233SOL    HW119598   0.090   3.654   1.863
 6233SOL    HW219599   0.189   3.761   1.937
 6234SOL     OW19600   5.057   6.769   4.739
 6234SOL    HW119601   5.134   6.707   4.750
 6234SOL    HW219602   4.987   6.749   4.808
 6235SOL     OW19603   6.673   0.903   2.910
 6235SOL    HW119604   6.691   0.950   2.997
 6235SOL    HW219605   6.578   0.874   2.907
 6236SOL     OW19606   1.009   4.719   0.977
 6236SOL    HW119607   1.099   4.756   0.953
 6236SOL    HW219608   0.964   4.780   1.042
 6237SOL     OW19609   3.675   1.324   1.137
 6237SOL    HW119610   3.581   1.307   1.109
 6237SOL    HW219611   3.676   1.391   1.211
 6238SOL     OW19612   2.132   6.895   4.576
 6238SOL    HW119613   2.164   6.859   4.663
 6238SOL    HW219614   2.194   6.866   4.503
 6239SOL     OW19615   5.039   1.502   3.258
 6239SOL    HW119616   5.076   1.591   3.284
 6239SOL    HW219617   5.007   1.506   3.163
 6240SOL     OW19618   4.068   3.491   3.959
 6240SOL    HW119619   4.158   3.526   3.934
 6240SOL    HW219620   4.035   3.538   4.041
 6241SOL     OW19621   3.087   6.842   2.918
 6241SOL    HW119622   3.099   6.936   2.886
 6241SOL    HW219623   3.068   6.842   3.016
 6242SOL     OW19624   2.900   1.811   4.258
 6242SOL    HW119625   2.980   1.835   4.204
 6242SOL    HW219626   2.827   1.877   4.240
 6243SOL     OW19627   5.132   0.675   5.553
 6243SOL    HW119628   5.083   0.642   5.473
 6243SOL    HW219629   5.069   0.680   5.631
 6244SOL     OW19630   4.150   4.747   3.120
 6244SOL    HW119631   4.066   4.738   3.067
 6244SOL    HW219632   4.199   4.829   3.091
 6245SOL     OW19633   0.908   4.438   2.513
 6245SOL    HW119634   0.955   4.400   2.593
 6245SOL    HW219635   0.931   4.384   2.432
 6246SOL     OW19636   6.531   6.269   4.418
 6246SOL    HW119637   6.473   6.233   4.345
 6246SOL    HW219638   6.495   6.357   4.449
 6247SOL     OW19639   6.806   6.463   2.250
 6247SOL    HW119640   6.901   6.436   2.265
 6247SOL    HW219641   6.747   6.419   2.318
 6248SOL     OW19642   3.520   3.628   6.025
 6248SOL    HW119643   3.446   3.565   6.004
 6248SOL    HW219644   3.502   3.673   6.112
 6249SOL     OW19645   6.060   3.254   1.728
 6249SOL    HW119646   6.103   3.303   1.804
 6249SOL    HW219647   6.034   3.162   1.758
 6250SOL     OW19648   6.968   0.076   0.317
 6250SOL    HW119649   6.973   0.004   0.386
 6250SOL    HW219650   0.042   0.109   0.296
 6251SOL     OW19651   2.914   6.549   4.012
 6251SOL    HW119652   2.825   6.507   4.032
 6251SOL    HW219653   2.903   6.648   4.008
 6252SOL     OW19654   2.770   5.097   7.018
 6252SOL    HW119655   2.686   5.147   6.997
 6252SOL    HW219656   2.816   5.071   6.933
 6253SOL     OW19657   3.609   5.022   5.176
 6253SOL    HW119658   3.615   4.927   5.206
 6253SOL    HW219659   3.615   5.025   5.076
 6254SOL     OW19660   0.342   6.424   1.255
 6254SOL    HW119661   0.381   6.491   1.192
 6254SOL    HW219662   0.255   6.389   1.218
 6255SOL     OW19663   0.281   1.210   2.004
 6255SOL    HW119664   0.202   1.255   1.963
 6255SOL    HW219665   0.250   1.135   2.062
 6256SOL     OW19666   4.961   5.900   2.179
 6256SOL    HW119667   4.889   5.943   2.124
 6256SOL    HW219668   5.013   5.836   2.121
 6257SOL     OW19669   3.748   4.145   1.402
 6257SOL    HW119670   3.700   4.092   1.472
 6257SOL    HW219671   3.694   4.225   1.377
 6258SOL     OW19672   4.047   6.184   5.513
 6258SOL    HW119673   4.108   6.262   5.522
 6258SOL    HW219674   4.054   6.125   5.594
 6259SOL     OW19675   2.825   0.724   4.711
 6259SOL    HW119676   2.760   0.703   4.638
 6259SOL    HW219677   2.895   0.651   4.714
 6260SOL     OW19678   1.739   1.951   0.446
 6260SOL    HW119679   1.803   1.951   0.523
 6260SOL    HW219680   1.768   2.020   0.379
 6261SOL     OW19681   3.515   6.856   1.071
 6261SOL    HW119682   3.555   6.893   0.987
 6261SOL    HW219683   3.550   6.764   1.086
 6262SOL     OW19684   6.629   0.205   2.116
 6262SOL    HW119685   6.678   0.147   2.180
 6262SOL    HW219686   6.539   0.165   2.098
 6263SOL     OW19687   6.329   6.049   6.138
 6263SOL    HW119688   6.297   6.068   6.045
 6263SOL    HW219689   6.251   6.023   6.195
 6264SOL     OW19690   1.628   0.057   0.614
 6264SOL    HW119691   1.575   7.001   0.655
 6264SOL    HW219692   1.602   0.067   0.518
 6265SOL     OW19693   4.933   1.442   0.210
 6265SOL    HW119694   4.988   1.518   0.243
 6265SOL    HW219695   4.871   1.412   0.282
 6266SOL     OW19696   2.501   5.173   3.000
 6266SOL    HW119697   2.555   5.255   2.979
 6266SOL    HW219698   2.562   5.093   3.002
 6267SOL     OW19699   1.660   6.527   4.926
 6267SOL    HW119700   1.676   6.520   5.024
 6267SOL    HW219701   1.693   6.614   4.892
 6268SOL     OW19702   3.590   0.994   1.098
 6268SOL    HW119703   3.673   1.049   1.093
 6268SOL    HW219704   3.544   0.995   1.009
 6269SOL     OW19705   6.134   5.454   0.448
 6269SOL    HW119706   6.046   5.446   0.493
 6269SOL    HW219707   6.179   5.365   0.446
 6270SOL     OW19708   2.009   6.479   6.942
 6270SOL    HW119709   2.010   6.390   6.896
 6270SOL    HW219710   1.920   6.522   6.929
 6271SOL     OW19711   5.757   2.990   6.192
 6271SOL    HW119712   5.742   3.083   6.225
 6271SOL    HW219713   5.855   2.976   6.176
 6272SOL     OW19714   0.329   0.085   0.665
 6272SOL    HW119715   0.299   0.075   0.759
 6272SOL    HW219716   0.309   0.002   0.613
 6273SOL     OW19717   0.066   6.649   1.366
 6273SOL    HW119718   0.013   6.716   1.417
 6273SOL    HW219719   0.152   6.689   1.336
 6274SOL     OW19720   3.401   5.607   4.238
 6274SOL    HW119721   3.435   5.555   4.317
 6274SOL    HW219722   3.479   5.641   4.186
 6275SOL     OW19723   1.902   5.053   6.810
 6275SOL    HW119724   1.910   4.981   6.740
 6275SOL    HW219725   1.810   5.090   6.809
 6276SOL     OW19726   1.458   5.859   2.920
 6276SOL    HW119727   1.364   5.846   2.888
 6276SOL    HW219728   1.506   5.771   2.919
 6277SOL     OW19729   5.159   3.982   1.428
 6277SOL    HW119730   5.117   4.040   1.498
 6277SOL    HW219731   5.176   3.891   1.467
 6278SOL     OW19732   2.539   1.084   6.326
 6278SOL    HW119733   2.613   1.064   6.261
 6278SOL    HW219734   2.550   1.025   6.407
 6279SOL     OW19735   2.647   6.934   1.408
 6279SOL    HW119736   2.572   6.893   1.460
 6279SOL    HW219737   2.665   6.879   1.326
 6280SOL     OW19738   6.389   2.022   6.908
 6280SOL    HW119739   6.443   1.982   6.982
 6280SOL    HW219740   6.323   2.087   6.945
 6281SOL     OW19741   5.719   3.990   5.798
 6281SOL    HW119742   5.713   4.007   5.700
 6281SOL    HW219743   5.732   3.892   5.814
 6282SOL     OW19744   0.077   3.213   5.746
 6282SOL    HW119745   0.108   3.305   5.725
 6282SOL    HW219746   0.155   3.150   5.739
 6283SOL     OW19747   1.452   6.068   4.613
 6283SOL    HW119748   1.408   6.049   4.525
 6283SOL    HW219749   1.500   5.986   4.644
 6284SOL     OW19750   2.046   4.298   6.583
 6284SOL    HW119751   2.114   4.306   6.510
 6284SOL    HW219752   2.092   4.273   6.668
 6285SOL     OW19753   0.922   3.844   3.226
 6285SOL    HW119754   0.972   3.889   3.152
 6285SOL    HW219755   0.965   3.865   3.313
 6286SOL     OW19756   1.034   2.727   6.211
 6286SOL    HW119757   0.934   2.737   6.213
 6286SOL    HW219758   1.062   2.698   6.120
 6287SOL     OW19759   4.747   4.673   4.925
 6287SOL    HW119760   4.826   4.683   4.864
 6287SOL    HW219761   4.686   4.602   4.889
 6288SOL     OW19762   3.819   3.262   6.522
 6288SOL    HW119763   3.756   3.243   6.447
 6288SOL    HW219764   3.895   3.197   6.519
 6289SOL     OW19765   2.642   4.235   5.778
 6289SOL    HW119766   2.542   4.246   5.784
 6289SOL    HW219767   2.686   4.317   5.813
 6290SOL     OW19768   5.019   5.979   4.249
 6290SOL    HW119769   5.040   6.076   4.233
 6290SOL    HW219770   5.088   5.922   4.203
 6291SOL     OW19771   3.666   3.815   3.211
 6291SOL    HW119772   3.719   3.891   3.246
 6291SOL    HW219773   3.608   3.846   3.136
 6292SOL     OW19774   1.871   3.263   4.313
 6292SOL    HW119775   1.967   3.283   4.293
 6292SOL    HW219776   1.839   3.190   4.252
 6293SOL     OW19777   4.169   1.069   6.425
 6293SOL    HW119778   4.236   1.127   6.470
 6293SOL    HW219779   4.160   1.095   6.329
 6294SOL     OW19780   1.642   1.366   3.291
 6294SOL    HW119781   1.714   1.396   3.229
 6294SOL    HW219782   1.553   1.376   3.245
 6295SOL     OW19783   5.286   3.930   5.644
 6295SOL    HW119784   5.344   3.961   5.569
 6295SOL    HW219785   5.341   3.919   5.727
 6296SOL     OW19786   0.600   2.649   6.716
 6296SOL    HW119787   0.665   2.576   6.694
 6296SOL    HW219788   0.638   2.737   6.688
 6297SOL     OW19789   5.714   0.898   3.865
 6297SOL    HW119790   5.778   0.830   3.899
 6297SOL    HW219791   5.744   0.929   3.774
 6298SOL     OW19792   6.475   5.509   1.072
 6298SOL    HW119793   6.377   5.495   1.059
 6298SOL    HW219794   6.504   5.590   1.021
 6299SOL     OW19795   4.432   1.718   2.457
 6299SOL    HW119796   4.485   1.739   2.538
 6299SOL    HW219797   4.345   1.768   2.460
 6300SOL     OW19798   2.882   0.911   6.345
 6300SOL    HW119799   2.798   0.872   6.306
 6300SOL    HW219800   2.959   0.885   6.287
 6301SOL     OW19801   3.994   6.444   6.954
 6301SOL    HW119802   4.060   6.386   7.002
 6301SOL    HW219803   3.980   6.529   7.006
 6302SOL     OW19804   2.980   1.570   6.607
 6302SOL    HW119805   3.072   1.605   6.626
 6302SOL    HW219806   2.913   1.642   6.621
 6303SOL     OW19807   1.002   5.678   5.158
 6303SOL    HW119808   1.048   5.685   5.247
 6303SOL    HW219809   0.922   5.738   5.157
 6304SOL     OW19810   4.197   0.885   3.180
 6304SOL    HW119811   4.220   0.903   3.276
 6304SOL    HW219812   4.266   0.927   3.121
 6305SOL     OW19813   0.732   6.143   6.041
 6305SOL    HW119814   0.721   6.233   5.999
 6305SOL    HW219815   0.676   6.137   6.123
 6306SOL     OW19816   0.526   4.229   4.260
 6306SOL    HW119817   0.525   4.278   4.173
 6306SOL    HW219818   0.531   4.130   4.243
 6307SOL     OW19819   3.768   3.637   3.038
 6307SOL    HW119820   3.728   3.689   3.113
 6307SOL    HW219821   3.720   3.657   2.953
 6308SOL     OW19822   0.097   2.168   0.533
 6308SOL    HW119823   0.037   2.100   0.575
 6308SOL    HW219824   0.095   2.252   0.588
 6309SOL     OW19825   2.052   6.301   4.353
 6309SOL    HW119826   2.046   6.301   4.453
 6309SOL    HW219827   1.967   6.337   4.315
 6310SOL     OW19828   0.785   6.449   3.378
 6310SOL    HW119829   0.741   6.368   3.339
 6310SOL    HW219830   0.778   6.525   3.313
 6311SOL     OW19831   4.968   0.677   5.293
 6311SOL    HW119832   4.947   0.628   5.209
 6311SOL    HW219833   5.026   0.756   5.272
 6312SOL     OW19834   3.634   6.133   6.292
 6312SOL    HW119835   3.700   6.128   6.367
 6312SOL    HW219836   3.651   6.214   6.237
 6313SOL     OW19837   5.670   5.952   4.291
 6313SOL    HW119838   5.658   5.963   4.390
 6313SOL    HW219839   5.754   5.999   4.263
 6314SOL     OW19840   1.720   6.856   2.643
 6314SOL    HW119841   1.631   6.878   2.683
 6314SOL    HW219842   1.707   6.808   2.556
 6315SOL     OW19843   1.875   2.395   4.617
 6315SOL    HW119844   1.966   2.421   4.585
 6315SOL    HW219845   1.818   2.477   4.626
 6316SOL     OW19846   5.194   1.105   4.369
 6316SOL    HW119847   5.284   1.131   4.404
 6316SOL    HW219848   5.134   1.185   4.367
 6317SOL     OW19849   4.802   5.129   1.780
 6317SOL    HW119850   4.845   5.204   1.829
 6317SOL    HW219851   4.774   5.058   1.845
 6318SOL     OW19852   6.329   6.618   6.264
 6318SOL    HW119853   6.400   6.666   6.211
 6318SOL    HW219854   6.262   6.684   6.298
 6319SOL     OW19855   5.764   1.123   4.765
 6319SOL    HW119856   5.714   1.185   4.705
 6319SOL    HW219857   5.754   1.154   4.860
 6320SOL     OW19858   6.210   0.199   5.729
 6320SOL    HW119859   6.161   0.114   5.744
 6320SOL    HW219860   6.238   0.206   5.633
 6321SOL     OW19861   5.862   1.943   6.756
 6321SOL    HW119862   5.927   1.941   6.680
 6321SOL    HW219863   5.812   2.029   6.755
 6322SOL     OW19864   1.337   1.004   1.923
 6322SOL    HW119865   1.416   1.007   1.861
 6322SOL    HW219866   1.282   0.923   1.902
 6323SOL     OW19867   2.747   3.991   1.210
 6323SOL    HW119868   2.784   3.898   1.208
 6323SOL    HW219869   2.647   3.987   1.202
 6324SOL     OW19870   4.799   1.693   0.677
 6324SOL    HW119871   4.786   1.685   0.578
 6324SOL    HW219872   4.874   1.757   0.696
 6325SOL     OW19873   1.793   2.447   3.841
 6325SOL    HW119874   1.807   2.392   3.759
 6325SOL    HW219875   1.847   2.409   3.916
 6326SOL     OW19876   5.563   5.218   5.751
 6326SOL    HW119877   5.629   5.167   5.696
 6326SOL    HW219878   5.518   5.157   5.815
 6327SOL     OW19879   0.244   0.581   3.682
 6327SOL    HW119880   0.200   0.667   3.658
 6327SOL    HW219881   0.214   0.553   3.774
 6328SOL     OW19882   4.398   3.583   5.272
 6328SOL    HW119883   4.479   3.593   5.214
 6328SOL    HW219884   4.371   3.672   5.307
 6329SOL     OW19885   1.462   2.321   5.852
 6329SOL    HW119886   1.509   2.307   5.765
 6329SOL    HW219887   1.465   2.417   5.877
 6330SOL     OW19888   5.271   1.528   3.488
 6330SOL    HW119889   5.368   1.521   3.511
 6330SOL    HW219890   5.256   1.610   3.433
 6331SOL     OW19891   0.456   3.409   3.491
 6331SOL    HW119892   0.437   3.322   3.446
 6331SOL    HW219893   0.387   3.476   3.466
 6332SOL     OW19894   2.686   1.614   0.379
 6332SOL    HW119895   2.645   1.532   0.420
 6332SOL    HW219896   2.786   1.609   0.388
 6333SOL     OW19897   5.256   1.761   0.615
 6333SOL    HW119898   5.162   1.737   0.638
 6333SOL    HW219899   5.258   1.810   0.528
 6334SOL     OW19900   1.547   1.522   2.238
 6334SOL    HW119901   1.493   1.485   2.314
 6334SOL    HW219902   1.514   1.613   2.216
 6335SOL     OW19903   6.700   1.397   0.483
 6335SOL    HW119904   6.728   1.315   0.434
 6335SOL    HW219905   6.738   1.395   0.575
 6336SOL     OW19906   0.685   2.820   5.465
 6336SOL    HW119907   0.717   2.734   5.425
 6336SOL    HW219908   0.630   2.799   5.546
 6337SOL     OW19909   4.644   5.286   4.838
 6337SOL    HW119910   4.665   5.285   4.935
 6337SOL    HW219911   4.699   5.216   4.791
 6338SOL     OW19912   2.862   1.631   3.276
 6338SOL    HW119913   2.913   1.551   3.306
 6338SOL    HW219914   2.770   1.604   3.246
 6339SOL     OW19915   0.817   4.511   3.328
 6339SOL    HW119916   0.908   4.553   3.327
 6339SOL    HW219917   0.764   4.550   3.403
 6340SOL     OW19918   2.377   4.309   1.185
 6340SOL    HW119919   2.437   4.243   1.231
 6340SOL    HW219920   2.323   4.358   1.254
 6341SOL     OW19921   0.862   5.147   3.573
 6341SOL    HW119922   0.920   5.072   3.605
 6341SOL    HW219923   0.792   5.110   3.512
 6342SOL     OW19924   2.015   1.591   1.497
 6342SOL    HW119925   1.969   1.568   1.583
 6342SOL    HW219926   2.083   1.663   1.514
 6343SOL     OW19927   1.467   5.777   1.105
 6343SOL    HW119928   1.538   5.773   1.175
 6343SOL    HW219929   1.505   5.752   1.016
 6344SOL     OW19930   6.745   1.229   4.128
 6344SOL    HW119931   6.837   1.268   4.136
 6344SOL    HW219932   6.714   1.236   4.033
 6345SOL     OW19933   5.674   4.023   2.009
 6345SOL    HW119934   5.591   3.968   2.001
 6345SOL    HW219935   5.685   4.055   2.103
 6346SOL     OW19936   6.516   4.137   5.446
 6346SOL    HW119937   6.615   4.131   5.452
 6346SOL    HW219938   6.489   4.164   5.354
 6347SOL     OW19939   1.778   1.847   3.028
 6347SOL    HW119940   1.739   1.926   3.078
 6347SOL    HW219941   1.823   1.786   3.093
 6348SOL     OW19942   0.029   2.032   5.897
 6348SOL    HW119943   0.084   1.999   5.974
 6348SOL    HW219944   0.007   2.129   5.912
 6349SOL     OW19945   6.947   1.471   6.898
 6349SOL    HW119946   6.903   1.554   6.865
 6349SOL    HW219947   6.976   1.483   6.993
 6350SOL     OW19948   1.146   4.925   1.709
 6350SOL    HW119949   1.238   4.888   1.715
 6350SOL    HW219950   1.105   4.898   1.622
 6351SOL     OW19951   5.728   2.942   2.229
 6351SOL    HW119952   5.647   2.886   2.247
 6351SOL    HW219953   5.700   3.032   2.195
 6352SOL     OW19954   3.062   0.656   4.478
 6352SOL    HW119955   2.989   0.721   4.458
 6352SOL    HW219956   3.098   0.673   4.570
 6353SOL     OW19957   3.843   6.119   5.955
 6353SOL    HW119958   3.748   6.095   5.937
 6353SOL    HW219959   3.899   6.036   5.953
 6354SOL     OW19960   4.503   5.454   1.694
 6354SOL    HW119961   4.475   5.363   1.663
 6354SOL    HW219962   4.456   5.475   1.780
 6355SOL     OW19963   2.310   4.803   0.939
 6355SOL    HW119964   2.385   4.756   0.894
 6355SOL    HW219965   2.334   4.820   1.035
 6356SOL     OW19966   6.282   4.259   6.467
 6356SOL    HW119967   6.334   4.341   6.491
 6356SOL    HW219968   6.187   4.284   6.449
 6357SOL     OW19969   5.812   1.141   1.539
 6357SOL    HW119970   5.744   1.194   1.488
 6357SOL    HW219971   5.820   1.050   1.498
 6358SOL     OW19972   1.376   2.257   6.542
 6358SOL    HW119973   1.397   2.340   6.593
 6358SOL    HW219974   1.320   2.196   6.599
 6359SOL     OW19975   5.254   6.247   0.614
 6359SOL    HW119976   5.309   6.225   0.534
 6359SOL    HW219977   5.293   6.326   0.661
 6360SOL     OW19978   1.181   2.415   2.008
 6360SOL    HW119979   1.156   2.319   2.023
 6360SOL    HW219980   1.260   2.438   2.065
 6361SOL     OW19981   0.664   0.419   7.003
 6361SOL    HW119982   0.574   0.462   7.007
 6361SOL    HW219983   0.671   0.365   6.919
 6362SOL     OW19984   1.245   5.732   0.164
 6362SOL    HW119985   1.242   5.705   0.260
 6362SOL    HW219986   1.252   5.831   0.157
 6363SOL     OW19987   2.395   4.691   3.341
 6363SOL    HW119988   2.350   4.661   3.257
 6363SOL    HW219989   2.366   4.785   3.362
 6364SOL     OW19990   2.249   2.870   4.394
 6364SOL    HW119991   2.261   2.781   4.439
 6364SOL    HW219992   2.232   2.940   4.462
 6365SOL     OW19993   5.482   5.304   3.363
 6365SOL    HW119994   5.507   5.253   3.445
 6365SOL    HW219995   5.428   5.246   3.302
 6366SOL     OW19996   5.769   6.880   4.530
 6366SOL    HW119997   5.830   6.814   4.575
 6366SOL    HW219998   5.674   6.854   4.545
 6367SOL     OW19999   2.317   2.257   2.396
 6367SOL    HW120000   2.327   2.354   2.374
 6367SOL    HW220001   2.342   2.241   2.491
 6368SOL     OW20002   4.817   3.043   4.468
 6368SOL    HW120003   4.765   3.051   4.383
 6368SOL    HW220004   4.826   3.133   4.511
 6369SOL     OW20005   4.091   5.488   6.527
 6369SOL    HW120006   4.116   5.420   6.458
 6369SOL    HW220007   4.031   5.446   6.596
 6370SOL     OW20008   5.186   3.524   4.474
 6370SOL    HW120009   5.194   3.547   4.377
 6370SOL    HW220010   5.198   3.606   4.529
 6371SOL     OW20011   4.886   4.475   1.636
 6371SOL    HW120012   4.856   4.395   1.583
 6371SOL    HW220013   4.912   4.445   1.728
 6372SOL     OW20014   6.340   1.918   2.418
 6372SOL    HW120015   6.329   1.927   2.517
 6372SOL    HW220016   6.430   1.879   2.398
 6373SOL     OW20017   4.573   4.341   1.083
 6373SOL    HW120018   4.476   4.331   1.104
 6373SOL    HW220019   4.603   4.432   1.110
 6374SOL     OW20020   4.514   3.683   6.990
 6374SOL    HW120021   4.444   3.620   0.005
 6374SOL    HW220022   4.523   3.673   6.891
 6375SOL     OW20023   5.939   2.473   2.000
 6375SOL    HW120024   5.887   2.421   2.067
 6375SOL    HW220025   5.892   2.559   1.979
 6376SOL     OW20026   3.663   1.302   6.671
 6376SOL    HW120027   3.585   1.301   6.734
 6376SOL    HW220028   3.729   1.232   6.698
 6377SOL     OW20029   6.848   0.420   0.494
 6377SOL    HW120030   6.859   0.471   0.409
 6377SOL    HW220031   6.903   0.337   0.491
 6378SOL     OW20032   5.505   5.640   2.034
 6378SOL    HW120033   5.485   5.543   2.051
 6378SOL    HW220034   5.509   5.656   1.935
 6379SOL     OW20035   2.076   5.988   6.672
 6379SOL    HW120036   2.089   5.970   6.575
 6379SOL    HW220037   2.141   5.934   6.725
 6380SOL     OW20038   1.315   3.479   5.241
 6380SOL    HW120039   1.379   3.517   5.308
 6380SOL    HW220040   1.279   3.392   5.274
 6381SOL     OW20041   4.607   2.516   0.271
 6381SOL    HW120042   4.642   2.585   0.335
 6381SOL    HW220043   4.670   2.440   0.266
 6382SOL     OW20044   1.477   1.670   1.135
 6382SOL    HW120045   1.528   1.756   1.139
 6382SOL    HW220046   1.387   1.682   1.175
 6383SOL     OW20047   2.220   2.749   2.027
 6383SOL    HW120048   2.211   2.768   1.929
 6383SOL    HW220049   2.135   2.708   2.061
 6384SOL     OW20050   6.014   2.570   2.737
 6384SOL    HW120051   6.036   2.608   2.827
 6384SOL    HW220052   5.970   2.481   2.750
 6385SOL     OW20053   6.880   3.243   1.436
 6385SOL    HW120054   6.791   3.211   1.469
 6385SOL    HW220055   6.921   3.173   1.377
 6386SOL     OW20056   2.361   3.801   0.669
 6386SOL    HW120057   2.380   3.879   0.729
 6386SOL    HW220058   2.410   3.721   0.703
 6387SOL     OW20059   0.074   0.383   6.558
 6387SOL    HW120060   7.011   0.421   6.516
 6387SOL    HW220061   0.155   0.423   6.515
 6388SOL     OW20062   6.573   5.497   2.193
 6388SOL    HW120063   6.531   5.585   2.171
 6388SOL    HW220064   6.630   5.507   2.274
 6389SOL     OW20065   0.856   0.835   6.973
 6389SOL    HW120066   0.878   0.913   6.914
 6389SOL    HW220067   0.792   0.775   6.926
 6390SOL     OW20068   6.253   0.911   6.568
 6390SOL    HW120069   6.173   0.914   6.628
 6390SOL    HW220070   6.253   0.991   6.508
 6391SOL     OW20071   0.573   1.521   5.078
 6391SOL    HW120072   0.571   1.608   5.028
 6391SOL    HW220073   0.664   1.480   5.070
 6392SOL     OW20074   3.755   6.815   3.644
 6392SOL    HW120075   3.796   6.773   3.563
 6392SOL    HW220076   3.742   6.745   3.715
 6393SOL     OW20077   0.117   5.591   6.964
 6393SOL    HW120078   0.024   5.555   6.975
 6393SOL    HW220079   0.178   5.544   0.009
 6394SOL     OW20080   1.475   5.597   1.589
 6394SOL    HW120081   1.522   5.589   1.501
 6394SOL    HW220082   1.532   5.557   1.661
 6395SOL     OW20083   2.105   4.165   3.160
 6395SOL    HW120084   2.117   4.066   3.166
 6395SOL    HW220085   2.056   4.198   3.241
 6396SOL     OW20086   0.864   3.539   6.714
 6396SOL    HW120087   0.927   3.570   6.785
 6396SOL    HW220088   0.886   3.444   6.689
 6397SOL     OW20089   5.410   3.269   3.867
 6397SOL    HW120090   5.379   3.284   3.961
 6397SOL    HW220091   5.463   3.185   3.862
 6398SOL     OW20092   1.753   0.341   0.895
 6398SOL    HW120093   1.755   0.440   0.880
 6398SOL    HW220094   1.658   0.309   0.893
 6399SOL     OW20095   3.280   0.928   5.992
 6399SOL    HW120096   3.229   1.013   5.978
 6399SOL    HW220097   3.369   0.934   5.947
 6400SOL     OW20098   1.126   6.617   2.894
 6400SOL    HW120099   1.115   6.544   2.827
 6400SOL    HW220100   1.049   6.617   2.957
 6401SOL     OW20101   3.682   6.011   3.700
 6401SOL    HW120102   3.765   6.023   3.646
 6401SOL    HW220103   3.660   5.913   3.705
 6402SOL     OW20104   1.717   4.411   4.903
 6402SOL    HW120105   1.709   4.446   4.810
 6402SOL    HW220106   1.786   4.339   4.906
 6403SOL     OW20107   4.737   5.758   4.959
 6403SOL    HW120108   4.816   5.730   4.904
 6403SOL    HW220109   4.681   5.822   4.907
 6404SOL     OW20110   4.379   0.015   2.358
 6404SOL    HW120111   4.428   6.963   2.308
 6404SOL    HW220112   4.335   0.078   2.294
 6405SOL     OW20113   5.158   1.708   2.229
 6405SOL    HW120114   5.167   1.804   2.255
 6405SOL    HW220115   5.224   1.687   2.156
 6406SOL     OW20116   0.667   2.969   3.507
 6406SOL    HW120117   0.645   3.011   3.595
 6406SOL    HW220118   0.676   3.040   3.437
 6407SOL     OW20119   1.550   6.020   2.495
 6407SOL    HW120120   1.523   6.039   2.590
 6407SOL    HW220121   1.649   6.004   2.491
 6408SOL     OW20122   6.134   0.386   1.262
 6408SOL    HW120123   6.195   0.440   1.320
 6408SOL    HW220124   6.117   0.435   1.176
 6409SOL     OW20125   5.632   5.060   3.238
 6409SOL    HW120126   5.686   5.129   3.188
 6409SOL    HW220127   5.676   5.041   3.326
 6410SOL     OW20128   2.090   1.300   5.816
 6410SOL    HW120129   2.115   1.319   5.911
 6410SOL    HW220130   2.094   1.202   5.800
 6411SOL     OW20131   0.446   2.471   2.004
 6411SOL    HW120132   0.439   2.567   1.977
 6411SOL    HW220133   0.428   2.413   1.925
 6412SOL     OW20134   3.565   0.632   0.302
 6412SOL    HW120135   3.651   0.618   0.251
 6412SOL    HW220136   3.516   0.710   0.263
 6413SOL     OW20137   5.504   6.408   3.580
 6413SOL    HW120138   5.579   6.343   3.569
 6413SOL    HW220139   5.491   6.459   3.494
 6414SOL     OW20140   1.814   0.162   0.123
 6414SOL    HW120141   1.906   0.125   0.116
 6414SOL    HW220142   1.819   0.258   0.153
 6415SOL     OW20143   0.518   2.551   3.429
 6415SOL    HW120144   0.420   2.571   3.437
 6415SOL    HW220145   0.531   2.452   3.426
 6416SOL     OW20146   3.078   6.691   0.110
 6416SOL    HW120147   3.014   6.682   0.034
 6416SOL    HW220148   3.170   6.667   0.080
 6417SOL     OW20149   3.771   1.829   0.425
 6417SOL    HW120150   3.838   1.804   0.494
 6417SOL    HW220151   3.800   1.914   0.380
 6418SOL     OW20152   4.367   5.116   0.688
 6418SOL    HW120153   4.466   5.112   0.700
 6418SOL    HW220154   4.327   5.027   0.709
 6419SOL     OW20155   1.289   6.468   6.456
 6419SOL    HW120156   1.315   6.558   6.491
 6419SOL    HW220157   1.312   6.398   6.524
 6420SOL     OW20158   2.112   4.031   4.521
 6420SOL    HW120159   2.062   4.115   4.498
 6420SOL    HW220160   2.091   3.960   4.454
 6421SOL     OW20161   4.581   0.136   1.979
 6421SOL    HW120162   4.618   0.209   2.036
 6421SOL    HW220163   4.645   0.116   1.905
 6422SOL     OW20164   5.863   1.527   4.668
 6422SOL    HW120165   5.933   1.469   4.710
 6422SOL    HW220166   5.820   1.583   4.739
 6423SOL     OW20167   2.488   4.706   4.111
 6423SOL    HW120168   2.415   4.654   4.156
 6423SOL    HW220169   2.565   4.715   4.174
 6424SOL     OW20170   6.223   4.818   5.098
 6424SOL    HW120171   6.311   4.866   5.099
 6424SOL    HW220172   6.196   4.798   5.004
 6425SOL     OW20173   6.834   5.432   3.683
 6425SOL    HW120174   6.869   5.429   3.589
 6425SOL    HW220175   6.818   5.339   3.716
 6426SOL     OW20176   4.773   4.429   5.270
 6426SOL    HW120177   4.735   4.519   5.250
 6426SOL    HW220178   4.831   4.434   5.351
 6427SOL     OW20179   3.966   3.222   3.174
 6427SOL    HW120180   3.905   3.272   3.112
 6427SOL    HW220181   3.922   3.136   3.200
 6428SOL     OW20182   5.411   3.340   0.821
 6428SOL    HW120183   5.338   3.405   0.798
 6428SOL    HW220184   5.493   3.362   0.769
 6429SOL     OW20185   2.263   0.991   5.590
 6429SOL    HW120186   2.216   1.017   5.674
 6429SOL    HW220187   2.196   0.977   5.517
 6430SOL     OW20188   6.859   0.072   5.574
 6430SOL    HW120189   6.922   0.100   5.501
 6430SOL    HW220190   6.814   7.005   5.547
 6431SOL     OW20191   3.812   4.699   1.744
 6431SOL    HW120192   3.820   4.690   1.645
 6431SOL    HW220193   3.720   4.672   1.772
 6432SOL     OW20194   4.839   4.587   6.001
 6432SOL    HW120195   4.894   4.621   5.925
 6432SOL    HW220196   4.772   4.521   5.967
 6433SOL     OW20197   2.627   5.306   6.846
 6433SOL    HW120198   2.661   5.379   6.787
 6433SOL    HW220199   2.532   5.327   6.872
 6434SOL     OW20200   4.178   5.079   5.969
 6434SOL    HW120201   4.275   5.097   5.984
 6434SOL    HW220202   4.160   4.981   5.980
 6435SOL     OW20203   4.930   1.720   1.013
 6435SOL    HW120204   5.021   1.699   0.978
 6435SOL    HW220205   4.938   1.767   1.100
 6436SOL     OW20206   6.715   3.624   4.349
 6436SOL    HW120207   6.800   3.673   4.328
 6436SOL    HW220208   6.654   3.684   4.401
 6437SOL     OW20209   0.805   2.166   5.435
 6437SOL    HW120210   0.777   2.149   5.340
 6437SOL    HW220211   0.896   2.127   5.450
 6438SOL     OW20212   0.581   5.307   0.117
 6438SOL    HW120213   0.548   5.333   0.207
 6438SOL    HW220214   0.553   5.213   0.096
 6439SOL     OW20215   5.928   7.007   3.035
 6439SOL    HW120216   5.971   6.997   3.125
 6439SOL    HW220217   5.968   6.941   2.972
 6440SOL     OW20218   2.529   2.258   0.055
 6440SOL    HW120219   2.537   2.345   0.006
 6440SOL    HW220220   2.501   2.186   7.011
 6441SOL     OW20221   0.663   1.776   2.508
 6441SOL    HW120222   0.667   1.778   2.608
 6441SOL    HW220223   0.691   1.685   2.476
 6442SOL     OW20224   2.942   2.615   5.293
 6442SOL    HW120225   2.850   2.639   5.323
 6442SOL    HW220226   2.952   2.516   5.290
 6443SOL     OW20227   4.933   2.658   0.383
 6443SOL    HW120228   4.908   2.566   0.353
 6443SOL    HW220229   4.854   2.719   0.372
 6444SOL     OW20230   6.510   3.113   5.168
 6444SOL    HW120231   6.596   3.063   5.181
 6444SOL    HW220232   6.525   3.211   5.186
 6445SOL     OW20233   3.549   2.993   2.972
 6445SOL    HW120234   3.588   3.025   2.886
 6445SOL    HW220235   3.474   2.930   2.954
 6446SOL     OW20236   2.291   1.139   6.421
 6446SOL    HW120237   2.358   1.134   6.348
 6446SOL    HW220238   2.332   1.180   6.502
 6447SOL     OW20239   6.185   3.593   1.778
 6447SOL    HW120240   6.129   3.623   1.701
 6447SOL    HW220241   6.267   3.546   1.743
 6448SOL     OW20242   3.647   5.532   1.328
 6448SOL    HW120243   3.573   5.487   1.277
 6448SOL    HW220244   3.608   5.598   1.391
 6449SOL     OW20245   2.259   5.304   1.339
 6449SOL    HW120246   2.335   5.362   1.309
 6449SOL    HW220247   2.193   5.359   1.390
 6450SOL     OW20248   0.414   4.266   1.336
 6450SOL    HW120249   0.399   4.283   1.433
 6450SOL    HW220250   0.462   4.180   1.324
 6451SOL     OW20251   4.027   2.283   1.188
 6451SOL    HW120252   4.033   2.206   1.252
 6451SOL    HW220253   4.118   2.322   1.175
 6452SOL     OW20254   4.721   2.294   3.703
 6452SOL    HW120255   4.726   2.350   3.620
 6452SOL    HW220256   4.790   2.327   3.769
 6453SOL     OW20257   2.944   1.085   1.204
 6453SOL    HW120258   2.986   1.173   1.226
 6453SOL    HW220259   2.910   1.042   1.288
 6454SOL     OW20260   5.750   2.328   3.582
 6454SOL    HW120261   5.720   2.244   3.537
 6454SOL    HW220262   5.758   2.401   3.513
 6455SOL     OW20263   6.613   3.918   3.618
 6455SOL    HW120264   6.684   3.859   3.579
 6455SOL    HW220265   6.535   3.861   3.645
 6456SOL     OW20266   6.111   1.586   2.769
 6456SOL    HW120267   6.053   1.640   2.829
 6456SOL    HW220268   6.192   1.556   2.819
 6457SOL     OW20269   3.935   0.058   2.445
 6457SOL    HW120270   4.012   0.028   2.389
 6457SOL    HW220271   3.884   0.129   2.396
 6458SOL     OW20272   0.187   4.902   3.304
 6458SOL    HW120273   0.239   4.855   3.233
 6458SOL    HW220274   0.246   4.969   3.349
 6459SOL     OW20275   6.324   3.574   2.287
 6459SOL    HW120276   6.344   3.657   2.234
 6459SOL    HW220277   6.228   3.551   2.276
 6460SOL     OW20278   0.608   5.963   5.621
 6460SOL    HW120279   0.596   5.975   5.720
 6460SOL    HW220280   0.635   5.869   5.602
 6461SOL     OW20281   2.262   5.615   1.525
 6461SOL    HW120282   2.334   5.564   1.571
 6461SOL    HW220283   2.249   5.703   1.571
 6462SOL     OW20284   1.548   3.980   5.371
 6462SOL    HW120285   1.622   3.962   5.306
 6462SOL    HW220286   1.484   4.046   5.332
 6463SOL     OW20287   4.729   1.983   1.818
 6463SOL    HW120288   4.827   1.961   1.821
 6463SOL    HW220289   4.713   2.069   1.865
 6464SOL     OW20290   1.024   4.507   4.140
 6464SOL    HW120291   1.115   4.467   4.137
 6464SOL    HW220292   0.992   4.510   4.235
 6465SOL     OW20293   3.975   1.019   2.989
 6465SOL    HW120294   3.940   1.000   2.897
 6465SOL    HW220295   4.045   0.951   3.013
 6466SOL     OW20296   0.321   3.022   0.349
 6466SOL    HW120297   0.285   3.110   0.381
 6466SOL    HW220298   0.421   3.025   0.349
 6467SOL     OW20299   2.936   2.192   0.736
 6467SOL    HW120300   2.893   2.104   0.718
 6467SOL    HW220301   2.903   2.260   0.671
 6468SOL     OW20302   2.496   1.290   0.889
 6468SOL    HW120303   2.435   1.227   0.939
 6468SOL    HW220304   2.549   1.344   0.954
 6469SOL     OW20305   3.356   1.505   2.981
 6469SOL    HW120306   3.312   1.445   2.914
 6469SOL    HW220307   3.289   1.572   3.014
 6470SOL     OW20308   6.839   2.109   6.879
 6470SOL    HW120309   6.786   2.025   6.867
 6470SOL    HW220310   6.868   2.117   6.975
 6471SOL     OW20311   0.641   6.404   5.909
 6471SOL    HW120312   0.576   6.426   5.983
 6471SOL    HW220313   0.595   6.348   5.841
 6472SOL     OW20314   6.620   6.186   3.170
 6472SOL    HW120315   6.583   6.276   3.196
 6472SOL    HW220316   6.580   6.158   3.083
 6473SOL     OW20317   2.657   1.456   4.080
 6473SOL    HW120318   2.628   1.362   4.061
 6473SOL    HW220319   2.579   1.510   4.111
 6474SOL     OW20320   3.569   5.356   5.132
 6474SOL    HW120321   3.583   5.372   5.035
 6474SOL    HW220322   3.650   5.310   5.171
 6475SOL     OW20323   5.962   5.204   2.495
 6475SOL    HW120324   5.908   5.282   2.528
 6475SOL    HW220325   5.984   5.217   2.399
 6476SOL     OW20326   3.621   1.655   6.563
 6476SOL    HW120327   3.695   1.663   6.630
 6476SOL    HW220328   3.577   1.744   6.552
 6477SOL     OW20329   6.397   6.214   1.702
 6477SOL    HW120330   6.365   6.243   1.792
 6477SOL    HW220331   6.492   6.183   1.709
 6478SOL     OW20332   3.359   5.474   1.535
 6478SOL    HW120333   3.282   5.513   1.485
 6478SOL    HW220334   3.357   5.374   1.527
 6479SOL     OW20335   3.190   5.914   3.987
 6479SOL    HW120336   3.241   5.945   3.907
 6479SOL    HW220337   3.244   5.929   4.070
 6480SOL     OW20338   3.713   1.921   6.837
 6480SOL    HW120339   3.618   1.935   6.865
 6480SOL    HW220340   3.768   1.999   6.868
 6481SOL     OW20341   3.495   2.735   1.855
 6481SOL    HW120342   3.397   2.716   1.857
 6481SOL    HW220343   3.542   2.663   1.803
 6482SOL     OW20344   5.657   4.033   5.547
 6482SOL    HW120345   5.563   4.028   5.513
 6482SOL    HW220346   5.695   4.123   5.526
 6483SOL     OW20347   1.038   6.109   4.863
 6483SOL    HW120348   1.013   6.020   4.824
 6483SOL    HW220349   1.011   6.181   4.799
 6484SOL     OW20350   2.427   0.879   4.151
 6484SOL    HW120351   2.337   0.837   4.156
 6484SOL    HW220352   2.458   0.903   4.243
 6485SOL     OW20353   2.075   6.632   4.281
 6485SOL    HW120354   1.980   6.599   4.271
 6485SOL    HW220355   2.075   6.732   4.285
 6486SOL     OW20356   1.690   4.564   3.491
 6486SOL    HW120357   1.725   4.541   3.400
 6486SOL    HW220358   1.612   4.506   3.512
 6487SOL     OW20359   5.984   4.589   3.599
 6487SOL    HW120360   5.924   4.606   3.677
 6487SOL    HW220361   6.079   4.600   3.627
 6488SOL     OW20362   4.453   5.451   4.474
 6488SOL    HW120363   4.541   5.491   4.499
 6488SOL    HW220364   4.430   5.378   4.539
 6489SOL     OW20365   4.498   3.141   5.570
 6489SOL    HW120366   4.424   3.076   5.586
 6489SOL    HW220367   4.498   3.209   5.643
 6490SOL     OW20368   1.774   2.428   0.241
 6490SOL    HW120369   1.750   2.439   0.144
 6490SOL    HW220370   1.693   2.443   0.297
 6491SOL     OW20371   2.932   0.206   1.101
 6491SOL    HW120372   2.914   0.152   1.019
 6491SOL    HW220373   2.872   0.177   1.175
 6492SOL     OW20374   3.492   3.536   4.715
 6492SOL    HW120375   3.404   3.569   4.747
 6492SOL    HW220376   3.537   3.483   4.787
 6493SOL     OW20377   0.643   3.979   5.623
 6493SOL    HW120378   0.586   4.045   5.575
 6493SOL    HW220379   0.588   3.931   5.692
 6494SOL     OW20380   5.898   0.322   1.682
 6494SOL    HW120381   5.991   0.345   1.711
 6494SOL    HW220382   5.889   0.340   1.584
 6495SOL     OW20383   6.136   0.063   3.570
 6495SOL    HW120384   6.152   6.998   3.623
 6495SOL    HW220385   6.046   0.100   3.592
 6496SOL     OW20386   3.515   1.461   1.458
 6496SOL    HW120387   3.579   1.527   1.496
 6496SOL    HW220388   3.487   1.397   1.530
 6497SOL     OW20389   0.099   1.269   0.968
 6497SOL    HW120390   0.012   1.292   0.924
 6497SOL    HW220391   0.111   1.323   1.051
 6498SOL     OW20392   0.973   4.358   4.434
 6498SOL    HW120393   0.983   4.428   4.504
 6498SOL    HW220394   0.925   4.279   4.472
 6499SOL     OW20395   5.134   3.819   3.154
 6499SOL    HW120396   5.071   3.746   3.127
 6499SOL    HW220397   5.139   3.888   3.081
 6500SOL     OW20398   1.489   4.327   3.061
 6500SOL    HW120399   1.449   4.240   3.033
 6500SOL    HW220400   1.559   4.311   3.130
 6501SOL     OW20401   6.197   1.940   0.954
 6501SOL    HW120402   6.197   2.035   0.921
 6501SOL    HW220403   6.237   1.880   0.884
 6502SOL     OW20404   6.617   3.844   2.050
 6502SOL    HW120405   6.670   3.929   2.048
 6502SOL    HW220406   6.581   3.825   1.959
 6503SOL     OW20407   6.535   3.115   5.554
 6503SOL    HW120408   6.531   3.037   5.492
 6503SOL    HW220409   6.442   3.147   5.573
 6504SOL     OW20410   4.664   5.709   6.412
 6504SOL    HW120411   4.611   5.782   6.457
 6504SOL    HW220412   4.689   5.738   6.320
 6505SOL     OW20413   0.265   5.789   0.767
 6505SOL    HW120414   0.332   5.741   0.823
 6505SOL    HW220415   0.304   5.875   0.735
 6506SOL     OW20416   0.038   4.316   2.226
 6506SOL    HW120417   0.092   4.330   2.143
 6506SOL    HW220418   0.099   4.293   2.302
 6507SOL     OW20419   3.478   4.376   6.616
 6507SOL    HW120420   3.438   4.467   6.623
 6507SOL    HW220421   3.578   4.383   6.620
 6508SOL     OW20422   0.726   6.922   2.529
 6508SOL    HW120423   0.701   6.973   2.611
 6508SOL    HW220424   0.782   6.843   2.554
 6509SOL     OW20425   3.220   1.715   6.233
 6509SOL    HW120426   3.135   1.665   6.221
 6509SOL    HW220427   3.211   1.806   6.192
 6510SOL     OW20428   3.954   5.878   5.925
 6510SOL    HW120429   4.050   5.874   5.896
 6510SOL    HW220430   3.920   5.785   5.941
 6511SOL     OW20431   3.280   0.995   0.112
 6511SOL    HW120432   3.211   0.946   0.058
 6511SOL    HW220433   3.241   1.022   0.200
 6512SOL     OW20434   4.079   1.586   0.559
 6512SOL    HW120435   4.092   1.496   0.519
 6512SOL    HW220436   4.085   1.656   0.488
 6513SOL     OW20437   2.111   5.176   3.356
 6513SOL    HW120438   2.042   5.110   3.385
 6513SOL    HW220439   2.109   5.255   3.418
 6514SOL     OW20440   5.588   6.875   5.600
 6514SOL    HW120441   5.535   6.796   5.571
 6514SOL    HW220442   5.661   6.846   5.662
 6515SOL     OW20443   2.110   5.279   2.177
 6515SOL    HW120444   2.202   5.241   2.172
 6515SOL    HW220445   2.112   5.376   2.155
 6516SOL     OW20446   6.576   4.053   1.497
 6516SOL    HW120447   6.583   4.013   1.589
 6516SOL    HW220448   6.665   4.048   1.452
 6517SOL     OW20449   6.643   2.846   0.509
 6517SOL    HW120450   6.666   2.883   0.419
 6517SOL    HW220451   6.724   2.805   0.550
 6518SOL     OW20452   0.989   1.832   3.212
 6518SOL    HW120453   1.085   1.841   3.185
 6518SOL    HW220454   0.954   1.921   3.242
 6519SOL     OW20455   1.475   1.231   3.043
 6519SOL    HW120456   1.467   1.330   3.056
 6519SOL    HW220457   1.448   1.208   2.949
 6520SOL     OW20458   0.658   5.479   6.925
 6520SOL    HW120459   0.584   5.518   6.870
 6520SOL    HW220460   0.620   5.409   6.985
 6521SOL     OW20461   1.185   3.980   4.296
 6521SOL    HW120462   1.247   4.020   4.229
 6521SOL    HW220463   1.177   3.881   4.279
 6522SOL     OW20464   2.945   3.229   5.165
 6522SOL    HW120465   2.862   3.173   5.170
 6522SOL    HW220466   2.987   3.217   5.075
 6523SOL     OW20467   5.450   0.015   0.260
 6523SOL    HW120468   5.499   0.050   0.180
 6523SOL    HW220469   5.424   6.939   0.244
 6524SOL     OW20470   2.515   2.418   1.356
 6524SOL    HW120471   2.585   2.347   1.355
 6524SOL    HW220472   2.510   2.463   1.267
 6525SOL     OW20473   1.147   4.766   3.589
 6525SOL    HW120474   1.127   4.703   3.665
 6525SOL    HW220475   1.119   4.859   3.614
 6526SOL     OW20476   0.752   6.703   0.111
 6526SOL    HW120477   0.724   6.799   0.110
 6526SOL    HW220478   0.822   6.689   0.041
 6527SOL     OW20479   0.376   2.186   0.484
 6527SOL    HW120480   0.383   2.180   0.384
 6527SOL    HW220481   0.281   2.169   0.512
 6528SOL     OW20482   5.065   0.732   6.697
 6528SOL    HW120483   5.067   0.761   6.601
 6528SOL    HW220484   5.156   0.702   6.725
 6529SOL     OW20485   6.559   1.116   2.525
 6529SOL    HW120486   6.472   1.066   2.523
 6529SOL    HW220487   6.631   1.058   2.562
 6530SOL     OW20488   1.023   3.047   2.495
 6530SOL    HW120489   1.038   2.994   2.412
 6530SOL    HW220490   0.993   3.139   2.470
 6531SOL     OW20491   3.897   3.959   5.179
 6531SOL    HW120492   3.945   3.872   5.166
 6531SOL    HW220493   3.913   4.017   5.099
 6532SOL     OW20494   1.239   0.824   1.008
 6532SOL    HW120495   1.187   0.789   0.931
 6532SOL    HW220496   1.333   0.789   1.004
 6533SOL     OW20497   4.773   3.619   0.835
 6533SOL    HW120498   4.752   3.522   0.844
 6533SOL    HW220499   4.765   3.664   0.924
 6534SOL     OW20500   6.695   4.518   3.084
 6534SOL    HW120501   6.690   4.433   3.136
 6534SOL    HW220502   6.615   4.525   3.024
 6535SOL     OW20503   5.883   3.033   5.056
 6535SOL    HW120504   5.785   3.042   5.072
 6535SOL    HW220505   5.916   2.951   5.103
 6536SOL     OW20506   0.632   3.597   5.282
 6536SOL    HW120507   0.549   3.565   5.237
 6536SOL    HW220508   0.635   3.564   5.376
 6537SOL     OW20509   6.051   5.252   4.088
 6537SOL    HW120510   6.023   5.295   4.173
 6537SOL    HW220511   5.971   5.234   4.031
 6538SOL     OW20512   2.814   3.113   5.530
 6538SOL    HW120513   2.749   3.136   5.603
 6538SOL    HW220514   2.892   3.174   5.535
 6539SOL     OW20515   5.825   0.976   5.487
 6539SOL    HW120516   5.912   1.026   5.477
 6539SOL    HW220517   5.814   0.915   5.409
 6540SOL     OW20518   6.343   2.727   5.574
 6540SOL    HW120519   6.334   2.631   5.546
 6540SOL    HW220520   6.287   2.744   5.655
 6541SOL     OW20521   5.641   0.672   4.580
 6541SOL    HW120522   5.714   0.604   4.578
 6541SOL    HW220523   5.679   0.762   4.599
 6542SOL     OW20524   1.480   4.382   3.580
 6542SOL    HW120525   1.384   4.356   3.566
 6542SOL    HW220526   1.514   4.338   3.664
 6543SOL     OW20527   3.840   1.968   5.205
 6543SOL    HW120528   3.844   2.030   5.126
 6543SOL    HW220529   3.853   2.021   5.289
 6544SOL     OW20530   1.547   6.594   1.662
 6544SOL    HW120531   1.487   6.521   1.694
 6544SOL    HW220532   1.582   6.646   1.740
 6545SOL     OW20533   4.274   6.894   0.254
 6545SOL    HW120534   4.350   6.860   0.310
 6545SOL    HW220535   4.307   6.914   0.162
 6546SOL     OW20536   4.618   3.484   6.450
 6546SOL    HW120537   4.700   3.518   6.497
 6546SOL    HW220538   4.641   3.461   6.356
 6547SOL     OW20539   6.799   5.266   6.745
 6547SOL    HW120540   6.869   5.337   6.744
 6547SOL    HW220541   6.799   5.220   6.834
 6548SOL     OW20542   0.210   1.661   5.464
 6548SOL    HW120543   0.215   1.579   5.406
 6548SOL    HW220544   0.196   1.742   5.406
 6549SOL     OW20545   4.878   0.332   1.786
 6549SOL    HW120546   4.887   0.425   1.823
 6549SOL    HW220547   4.881   0.266   1.861
 6550SOL     OW20548   6.491   0.336   3.320
 6550SOL    HW120549   6.428   0.286   3.260
 6550SOL    HW220550   6.545   0.400   3.266
 6551SOL     OW20551   2.845   3.912   0.517
 6551SOL    HW120552   2.935   3.899   0.559
 6551SOL    HW220553   2.776   3.861   0.568
 6552SOL     OW20554   2.197   6.349   0.469
 6552SOL    HW120555   2.256   6.375   0.393
 6552SOL    HW220556   2.120   6.296   0.435
 6553SOL     OW20557   0.180   1.620   3.824
 6553SOL    HW120558   0.110   1.598   3.755
 6553SOL    HW220559   0.266   1.641   3.777
 6554SOL     OW20560   2.592   1.203   4.500
 6554SOL    HW120561   2.621   1.223   4.594
 6554SOL    HW220562   2.552   1.285   4.459
 6555SOL     OW20563   6.803   3.748   3.860
 6555SOL    HW120564   6.857   3.828   3.884
 6555SOL    HW220565   6.842   3.667   3.904
 6556SOL     OW20566   4.808   2.948   3.097
 6556SOL    HW120567   4.757   2.888   3.036
 6556SOL    HW220568   4.795   2.918   3.192
 6557SOL     OW20569   2.438   0.350   1.975
 6557SOL    HW120570   2.400   0.361   2.066
 6557SOL    HW220571   2.528   0.394   1.971
 6558SOL     OW20572   5.429   5.299   0.538
 6558SOL    HW120573   5.443   5.256   0.627
 6558SOL    HW220574   5.332   5.320   0.525
 6559SOL     OW20575   0.214   2.329   6.441
 6559SOL    HW120576   0.251   2.406   6.390
 6559SOL    HW220577   0.288   2.284   6.492
 6560SOL     OW20578   5.779   5.060   0.707
 6560SOL    HW120579   5.820   5.003   0.636
 6560SOL    HW220580   5.835   5.142   0.719
 6561SOL     OW20581   3.831   4.250   0.251
 6561SOL    HW120582   3.893   4.327   0.265
 6561SOL    HW220583   3.885   4.166   0.244
 6562SOL     OW20584   5.632   3.122   1.345
 6562SOL    HW120585   5.607   3.217   1.329
 6562SOL    HW220586   5.730   3.115   1.363
 6563SOL     OW20587   5.002   6.057   5.255
 6563SOL    HW120588   5.048   6.022   5.336
 6563SOL    HW220589   4.939   5.988   5.220
 6564SOL     OW20590   6.627   3.704   3.063
 6564SOL    HW120591   6.569   3.747   2.994
 6564SOL    HW220592   6.671   3.775   3.118
 6565SOL     OW20593   5.726   0.425   3.183
 6565SOL    HW120594   5.687   0.486   3.253
 6565SOL    HW220595   5.817   0.396   3.212
 6566SOL     OW20596   4.684   6.040   2.534
 6566SOL    HW120597   4.607   6.089   2.574
 6566SOL    HW220598   4.762   6.044   2.597
 6567SOL     OW20599   4.441   0.898   0.974
 6567SOL    HW120600   4.462   0.818   1.030
 6567SOL    HW220601   4.522   0.923   0.920
 6568SOL     OW20602   4.563   1.244   0.956
 6568SOL    HW120603   4.535   1.165   1.010
 6568SOL    HW220604   4.564   1.220   0.859
 6569SOL     OW20605   6.954   4.532   5.876
 6569SOL    HW120606   6.966   4.580   5.963
 6569SOL    HW220607   0.014   4.549   5.817
 6570SOL     OW20608   4.079   6.929   1.752
 6570SOL    HW120609   4.010   6.945   1.682
 6570SOL    HW220610   4.086   6.831   1.770
 6571SOL     OW20611   3.127   6.033   2.355
 6571SOL    HW120612   3.223   6.014   2.376
 6571SOL    HW220613   3.068   5.966   2.400
 6572SOL     OW20614   1.115   5.378   3.779
 6572SOL    HW120615   1.181   5.418   3.843
 6572SOL    HW220616   1.081   5.292   3.816
 6573SOL     OW20617   1.492   1.474   3.723
 6573SOL    HW120618   1.574   1.451   3.775
 6573SOL    HW220619   1.437   1.391   3.711
 6574SOL     OW20620   1.572   6.066   1.978
 6574SOL    HW120621   1.498   6.132   1.993
 6574SOL    HW220622   1.655   6.097   2.024
 6575SOL     OW20623   6.931   0.960   2.823
 6575SOL    HW120624   7.010   0.907   2.853
 6575SOL    HW220625   6.847   0.912   2.849
 6576SOL     OW20626   4.315   6.382   1.088
 6576SOL    HW120627   4.342   6.305   1.145
 6576SOL    HW220628   4.231   6.422   1.124
 6577SOL     OW20629   2.662   1.123   3.752
 6577SOL    HW120630   2.572   1.109   3.710
 6577SOL    HW220631   2.658   1.097   3.848
 6578SOL     OW20632   1.503   5.035   1.819
 6578SOL    HW120633   1.482   4.954   1.764
 6578SOL    HW220634   1.467   5.022   1.911
 6579SOL     OW20635   6.521   0.988   4.142
 6579SOL    HW120636   6.490   0.905   4.188
 6579SOL    HW220637   6.620   0.999   4.158
 6580SOL     OW20638   1.492   0.948   6.817
 6580SOL    HW120639   1.497   1.022   6.750
 6580SOL    HW220640   1.486   0.860   6.771
 6581SOL     OW20641   1.298   2.460   0.053
 6581SOL    HW120642   1.354   2.534   0.088
 6581SOL    HW220643   1.202   2.490   0.047
 6582SOL     OW20644   6.835   1.434   3.470
 6582SOL    HW120645   6.752   1.406   3.518
 6582SOL    HW220646   6.839   1.389   3.381
 6583SOL     OW20647   4.148   5.955   6.388
 6583SOL    HW120648   4.097   6.011   6.453
 6583SOL    HW220649   4.184   6.014   6.315
 6584SOL     OW20650   3.738   2.733   0.565
 6584SOL    HW120651   3.746   2.783   0.651
 6584SOL    HW220652   3.826   2.731   0.519
 6585SOL     OW20653   5.943   6.726   0.855
 6585SOL    HW120654   6.012   6.782   0.810
 6585SOL    HW220655   5.855   6.736   0.809
 6586SOL     OW20656   6.163   2.467   6.625
 6586SOL    HW120657   6.156   2.400   6.699
 6586SOL    HW220658   6.254   2.463   6.584
 6587SOL     OW20659   1.416   4.750   5.741
 6587SOL    HW120660   1.409   4.850   5.742
 6587SOL    HW220661   1.328   4.711   5.712
 6588SOL     OW20662   6.512   3.411   0.613
 6588SOL    HW120663   6.494   3.489   0.673
 6588SOL    HW220664   6.487   3.326   0.659
 6589SOL     OW20665   0.037   0.795   1.972
 6589SOL    HW120666   6.971   0.824   2.016
 6589SOL    HW220667   0.017   0.752   1.884
 6590SOL     OW20668   1.458   0.087   3.677
 6590SOL    HW120669   1.487   0.167   3.625
 6590SOL    HW220670   1.536   0.049   3.726
 6591SOL     OW20671   5.684   4.162   4.535
 6591SOL    HW120672   5.754   4.133   4.599
 6591SOL    HW220673   5.727   4.210   4.458
 6592SOL     OW20674   6.084   6.569   2.348
 6592SOL    HW120675   6.171   6.520   2.346
 6592SOL    HW220676   6.073   6.620   2.263
 6593SOL     OW20677   2.744   2.109   1.971
 6593SOL    HW120678   2.824   2.166   1.992
 6593SOL    HW220679   2.699   2.082   2.056
 6594SOL     OW20680   4.474   1.197   6.338
 6594SOL    HW120681   4.463   1.138   6.258
 6594SOL    HW220682   4.540   1.269   6.317
 6595SOL     OW20683   1.626   2.753   5.681
 6595SOL    HW120684   1.686   2.798   5.747
 6595SOL    HW220685   1.678   2.731   5.599
 6596SOL     OW20686   5.627   6.201   2.622
 6596SOL    HW120687   5.551   6.143   2.591
 6596SOL    HW220688   5.711   6.147   2.623
 6597SOL     OW20689   1.555   4.637   1.888
 6597SOL    HW120690   1.645   4.659   1.849
 6597SOL    HW220691   1.488   4.631   1.815
 6598SOL     OW20692   2.239   4.666   4.323
 6598SOL    HW120693   2.252   4.763   4.303
 6598SOL    HW220694   2.328   4.623   4.340
 6599SOL     OW20695   6.242   5.580   6.365
 6599SOL    HW120696   6.332   5.537   6.373
 6599SOL    HW220697   6.191   5.536   6.290
 6600SOL     OW20698   4.611   0.041   5.059
 6600SOL    HW120699   4.570   6.968   5.056
 6600SOL    HW220700   4.575   0.096   4.983
 6601SOL     OW20701   1.742   1.745   1.465
 6601SOL    HW120702   1.819   1.799   1.432
 6601SOL    HW220703   1.719   1.674   1.398
 6602SOL     OW20704   2.030   6.460   1.411
 6602SOL    HW120705   2.082   6.375   1.425
 6602SOL    HW220706   1.942   6.437   1.368
 6603SOL     OW20707   0.022   3.729   3.046
 6603SOL    HW120708   0.013   3.663   2.971
 6603SOL    HW220709   0.004   3.683   3.133
 6604SOL     OW20710   2.197   6.374   2.169
 6604SOL    HW120711   2.189   6.389   2.268
 6604SOL    HW220712   2.293   6.360   2.145
 6605SOL     OW20713   0.196   5.705   1.083
 6605SOL    HW120714   0.167   5.665   0.996
 6605SOL    HW220715   0.152   5.794   1.096
 6606SOL     OW20716   1.602   3.972   3.410
 6606SOL    HW120717   1.519   3.957   3.464
 6606SOL    HW220718   1.682   3.956   3.466
 6607SOL     OW20719   5.995   4.124   3.659
 6607SOL    HW120720   6.068   4.142   3.725
 6607SOL    HW220721   5.913   4.175   3.685
 6608SOL     OW20722   1.057   6.057   5.804
 6608SOL    HW120723   1.084   6.042   5.709
 6608SOL    HW220724   0.994   5.985   5.832
 6609SOL     OW20725   4.606   1.788   6.094
 6609SOL    HW120726   4.643   1.741   6.174
 6609SOL    HW220727   4.664   1.769   6.015
 6610SOL     OW20728   3.061   5.132   1.194
 6610SOL    HW120729   2.998   5.101   1.264
 6610SOL    HW220730   3.138   5.068   1.186
 6611SOL     OW20731   4.351   1.819   4.065
 6611SOL    HW120732   4.349   1.723   4.094
 6611SOL    HW220733   4.336   1.824   3.967
 6612SOL     OW20734   6.592   1.359   5.750
 6612SOL    HW120735   6.549   1.449   5.754
 6612SOL    HW220736   6.585   1.315   5.840
 6613SOL     OW20737   4.714   6.594   6.603
 6613SOL    HW120738   4.800   6.543   6.594
 6613SOL    HW220739   4.647   6.559   6.538
 6614SOL     OW20740   4.309   5.452   1.235
 6614SOL    HW120741   4.385   5.392   1.209
 6614SOL    HW220742   4.225   5.419   1.193
 6615SOL     OW20743   3.161   4.594   6.696
 6615SOL    HW120744   3.170   4.529   6.771
 6615SOL    HW220745   3.142   4.544   6.611
 6616SOL     OW20746   4.152   1.111   5.552
 6616SOL    HW120747   4.196   1.110   5.462
 6616SOL    HW220748   4.170   1.199   5.597
 6617SOL     OW20749   3.654   0.173   3.848
 6617SOL    HW120750   3.612   0.138   3.765
 6617SOL    HW220751   3.682   0.097   3.906
 6618SOL     OW20752   6.789   2.435   2.348
 6618SOL    HW120753   6.771   2.383   2.265
 6618SOL    HW220754   6.703   2.467   2.387
 6619SOL     OW20755   4.800   6.385   3.772
 6619SOL    HW120756   4.724   6.448   3.759
 6619SOL    HW220757   4.768   6.291   3.760
 6620SOL     OW20758   0.651   3.496   3.106
 6620SOL    HW120759   0.667   3.491   3.205
 6620SOL    HW220760   0.571   3.440   3.083
 6621SOL     OW20761   3.862   3.308   4.883
 6621SOL    HW120762   3.822   3.300   4.791
 6621SOL    HW220763   3.945   3.364   4.877
 6622SOL     OW20764   0.818   5.419   0.697
 6622SOL    HW120765   0.819   5.516   0.674
 6622SOL    HW220766   0.726   5.392   0.726
 6623SOL     OW20767   3.557   4.053   5.789
 6623SOL    HW120768   3.529   3.958   5.796
 6623SOL    HW220769   3.641   4.059   5.734
 6624SOL     OW20770   1.473   2.152   3.941
 6624SOL    HW120771   1.507   2.063   3.970
 6624SOL    HW220772   1.538   2.223   3.970
 6625SOL     OW20773   5.851   3.207   5.799
 6625SOL    HW120774   5.755   3.180   5.809
 6625SOL    HW220775   5.870   3.227   5.703
 6626SOL     OW20776   2.344   6.247   4.882
 6626SOL    HW120777   2.423   6.307   4.883
 6626SOL    HW220778   2.370   6.157   4.846
 6627SOL     OW20779   1.706   6.054   4.322
 6627SOL    HW120780   1.786   6.056   4.261
 6627SOL    HW220781   1.690   5.959   4.351
 6628SOL     OW20782   4.375   6.214   4.161
 6628SOL    HW120783   4.385   6.261   4.074
 6628SOL    HW220784   4.375   6.280   4.236
 6629SOL     OW20785   5.423   5.770   6.845
 6629SOL    HW120786   5.425   5.741   6.749
 6629SOL    HW220787   5.382   5.861   6.851
 6630SOL     OW20788   2.240   1.725   1.853
 6630SOL    HW120789   2.214   1.636   1.891
 6630SOL    HW220790   2.172   1.793   1.879
 6631SOL     OW20791   2.303   4.517   6.710
 6631SOL    HW120792   2.300   4.538   6.612
 6631SOL    HW220793   2.262   4.428   6.726
 6632SOL     OW20794   1.574   0.835   1.186
 6632SOL    HW120795   1.636   0.905   1.221
 6632SOL    HW220796   1.534   0.784   1.263
 6633SOL     OW20797   3.904   5.642   6.040
 6633SOL    HW120798   3.833   5.637   6.109
 6633SOL    HW220799   3.886   5.575   5.968
 6634SOL     OW20800   4.379   2.361   4.441
 6634SOL    HW120801   4.431   2.443   4.467
 6634SOL    HW220802   4.313   2.340   4.513
 6635SOL     OW20803   4.981   4.716   3.075
 6635SOL    HW120804   4.967   4.670   2.987
 6635SOL    HW220805   5.078   4.732   3.089
 6636SOL     OW20806   3.775   0.327   0.604
 6636SOL    HW120807   3.840   0.329   0.529
 6636SOL    HW220808   3.745   0.233   0.620
 6637SOL     OW20809   1.343   1.156   1.406
 6637SOL    HW120810   1.288   1.095   1.349
 6637SOL    HW220811   1.337   1.249   1.372
 6638SOL     OW20812   3.028   3.199   3.462
 6638SOL    HW120813   3.049   3.110   3.422
 6638SOL    HW220814   2.994   3.260   3.390
 6639SOL     OW20815   4.924   2.849   1.281
 6639SOL    HW120816   4.830   2.814   1.286
 6639SOL    HW220817   4.979   2.803   1.350
 6640SOL     OW20818   1.058   2.550   5.010
 6640SOL    HW120819   1.038   2.551   5.108
 6640SOL    HW220820   1.015   2.469   4.968
 6641SOL     OW20821   4.529   1.906   0.941
 6641SOL    HW120822   4.527   1.924   1.039
 6641SOL    HW220823   4.462   1.963   0.895
 6642SOL     OW20824   1.057   5.944   0.812
 6642SOL    HW120825   1.063   6.034   0.770
 6642SOL    HW220826   1.084   5.874   0.746
 6643SOL     OW20827   4.293   6.493   6.873
 6643SOL    HW120828   4.275   6.525   6.780
 6643SOL    HW220829   4.293   6.570   6.936
 6644SOL     OW20830   1.519   6.477   3.262
 6644SOL    HW120831   1.437   6.431   3.227
 6644SOL    HW220832   1.567   6.521   3.187
 6645SOL     OW20833   5.954   3.337   0.423
 6645SOL    HW120834   5.978   3.244   0.395
 6645SOL    HW220835   5.855   3.347   0.426
 6646SOL     OW20836   4.575   0.062   6.383
 6646SOL    HW120837   4.521   0.040   6.303
 6646SOL    HW220838   4.665   0.019   6.375
 6647SOL     OW20839   4.467   4.779   1.147
 6647SOL    HW120840   4.443   4.859   1.092
 6647SOL    HW220841   4.482   4.806   1.242
 6648SOL     OW20842   2.624   6.121   5.621
 6648SOL    HW120843   2.607   6.110   5.523
 6648SOL    HW220844   2.548   6.082   5.673
 6649SOL     OW20845   5.679   2.926   0.139
 6649SOL    HW120846   5.758   2.867   0.153
 6649SOL    HW220847   5.686   3.007   0.198
 6650SOL     OW20848   2.398   1.597   5.256
 6650SOL    HW120849   2.361   1.535   5.186
 6650SOL    HW220850   2.472   1.552   5.305
 6651SOL     OW20851   6.462   2.029   6.471
 6651SOL    HW120852   6.497   2.101   6.531
 6651SOL    HW220853   6.497   1.941   6.501
 6652SOL     OW20854   0.328   4.422   0.413
 6652SOL    HW120855   0.394   4.474   0.467
 6652SOL    HW220856   0.236   4.455   0.433
 6653SOL     OW20857   5.212   4.102   0.617
 6653SOL    HW120858   5.229   4.164   0.541
 6653SOL    HW220859   5.175   4.016   0.583
 6654SOL     OW20860   0.145   4.315   3.008
 6654SOL    HW120861   0.212   4.306   2.934
 6654SOL    HW220862   0.071   4.376   2.979
 6655SOL     OW20863   6.839   5.549   2.001
 6655SOL    HW120864   6.777   5.627   2.014
 6655SOL    HW220865   6.786   5.464   2.003
 6656SOL     OW20866   4.066   1.512   2.902
 6656SOL    HW120867   3.987   1.520   2.841
 6656SOL    HW220868   4.055   1.430   2.960
 6657SOL     OW20869   5.468   1.988   3.965
 6657SOL    HW120870   5.490   1.955   4.057
 6657SOL    HW220871   5.423   2.077   3.971
 6658SOL     OW20872   5.928   5.883   5.071
 6658SOL    HW120873   5.942   5.945   5.148
 6658SOL    HW220874   5.847   5.911   5.020
 6659SOL     OW20875   1.059   5.172   2.440
 6659SOL    HW120876   1.068   5.269   2.419
 6659SOL    HW220877   0.990   5.159   2.512
 6660SOL     OW20878   6.748   6.039   3.587
 6660SOL    HW120879   6.719   6.019   3.493
 6660SOL    HW220880   6.752   5.955   3.640
 6661SOL     OW20881   3.752   6.817   4.265
 6661SOL    HW120882   3.692   6.827   4.344
 6661SOL    HW220883   3.757   6.720   4.240
 6662SOL     OW20884   3.025   6.625   2.678
 6662SOL    HW120885   3.070   6.652   2.764
 6662SOL    HW220886   3.086   6.642   2.601
 6663SOL     OW20887   0.949   4.258   5.729
 6663SOL    HW120888   0.984   4.238   5.820
 6663SOL    HW220889   0.921   4.173   5.684
 6664SOL     OW20890   2.830   0.725   1.538
 6664SOL    HW120891   2.800   0.648   1.482
 6664SOL    HW220892   2.925   0.712   1.565
 6665SOL     OW20893   2.224   0.427   5.469
 6665SOL    HW120894   2.307   0.395   5.423
 6665SOL    HW220895   2.172   0.349   5.503
 6666SOL     OW20896   4.480   6.651   5.209
 6666SOL    HW120897   4.500   6.692   5.298
 6666SOL    HW220898   4.444   6.559   5.222
 6667SOL     OW20899   0.191   6.037   6.389
 6667SOL    HW120900   0.110   5.979   6.384
 6667SOL    HW220901   0.270   5.988   6.352
 6668SOL     OW20902   0.378   5.998   0.639
 6668SOL    HW120903   0.470   6.035   0.626
 6668SOL    HW220904   0.310   6.070   0.620
 6669SOL     OW20905   1.732   1.081   3.076
 6669SOL    HW120906   1.641   1.123   3.073
 6669SOL    HW220907   1.723   0.982   3.081
 6670SOL     OW20908   4.093   2.449   0.654
 6670SOL    HW120909   4.015   2.408   0.700
 6670SOL    HW220910   4.061   2.506   0.578
 6671SOL     OW20911   4.733   5.930   0.400
 6671SOL    HW120912   4.742   5.835   0.368
 6671SOL    HW220913   4.641   5.963   0.380
 6672SOL     OW20914   1.498   2.480   1.108
 6672SOL    HW120915   1.477   2.562   1.055
 6672SOL    HW220916   1.414   2.441   1.145
 6673SOL     OW20917   5.572   3.897   4.525
 6673SOL    HW120918   5.623   3.980   4.503
 6673SOL    HW220919   5.538   3.902   4.619
 6674SOL     OW20920   0.032   2.739   6.929
 6674SOL    HW120921   0.039   2.719   6.831
 6674SOL    HW220922   7.011   2.829   6.943
 6675SOL     OW20923   5.307   2.161   6.996
 6675SOL    HW120924   5.342   2.168   6.902
 6675SOL    HW220925   5.248   2.239   7.016
 6676SOL     OW20926   1.471   3.702   3.577
 6676SOL    HW120927   1.553   3.649   3.556
 6676SOL    HW220928   1.488   3.760   3.656
 6677SOL     OW20929   0.479   2.215   0.727
 6677SOL    HW120930   0.441   2.200   0.635
 6677SOL    HW220931   0.460   2.134   0.783
 6678SOL     OW20932   1.968   4.720   0.358
 6678SOL    HW120933   2.016   4.633   0.369
 6678SOL    HW220934   1.874   4.702   0.328
 6679SOL     OW20935   2.101   1.243   3.797
 6679SOL    HW120936   2.188   1.215   3.838
 6679SOL    HW220937   2.028   1.234   3.865
 6680SOL     OW20938   5.962   6.610   1.111
 6680SOL    HW120939   6.014   6.525   1.099
 6680SOL    HW220940   5.951   6.654   1.022
 6681SOL     OW20941   3.494   5.839   1.284
 6681SOL    HW120942   3.526   5.850   1.379
 6681SOL    HW220943   3.573   5.835   1.223
 6682SOL     OW20944   3.160   5.336   6.512
 6682SOL    HW120945   3.081   5.343   6.572
 6682SOL    HW220946   3.174   5.241   6.485
 6683SOL     OW20947   6.289   3.685   6.258
 6683SOL    HW120948   6.338   3.650   6.338
 6683SOL    HW220949   6.191   3.671   6.269
 6684SOL     OW20950   2.809   6.573   1.265
 6684SOL    HW120951   2.800   6.537   1.358
 6684SOL    HW220952   2.895   6.540   1.225
 6685SOL     OW20953   4.539   3.615   6.741
 6685SOL    HW120954   4.635   3.594   6.721
 6685SOL    HW220955   4.486   3.530   6.739
 6686SOL     OW20956   5.295   5.496   4.004
 6686SOL    HW120957   5.315   5.398   4.014
 6686SOL    HW220958   5.376   5.549   4.028
 6687SOL     OW20959   6.684   2.368   1.442
 6687SOL    HW120960   6.742   2.296   1.405
 6687SOL    HW220961   6.602   2.328   1.482
 6688SOL     OW20962   3.954   5.662   0.233
 6688SOL    HW120963   3.942   5.686   0.137
 6688SOL    HW220964   4.025   5.720   0.274
 6689SOL     OW20965   2.042   4.725   6.050
 6689SOL    HW120966   2.022   4.778   5.967
 6689SOL    HW220967   1.984   4.643   6.052
 6690SOL     OW20968   1.159   7.010   6.271
 6690SOL    HW120969   1.124   6.918   6.292
 6690SOL    HW220970   1.253   7.002   6.238
 6691SOL     OW20971   2.477   2.595   2.907
 6691SOL    HW120972   2.431   2.507   2.896
 6691SOL    HW220973   2.412   2.669   2.889
 6692SOL     OW20974   4.972   5.385   1.318
 6692SOL    HW120975   5.021   5.299   1.334
 6692SOL    HW220976   4.889   5.387   1.373
 6693SOL     OW20977   4.076   1.900   4.612
 6693SOL    HW120978   4.073   1.874   4.516
 6693SOL    HW220979   4.003   1.852   4.662
 6694SOL     OW20980   3.638   5.011   0.660
 6694SOL    HW120981   3.600   5.028   0.751
 6694SOL    HW220982   3.737   5.029   0.662
 6695SOL     OW20983   2.619   2.265   6.517
 6695SOL    HW120984   2.682   2.236   6.444
 6695SOL    HW220985   2.644   2.356   6.549
 6696SOL     OW20986   4.080   3.811   4.111
 6696SOL    HW120987   4.139   3.862   4.175
 6696SOL    HW220988   4.054   3.871   4.035
 6697SOL     OW20989   4.689   2.520   2.299
 6697SOL    HW120990   4.601   2.475   2.284
 6697SOL    HW220991   4.718   2.564   2.214
 6698SOL     OW20992   3.624   4.051   1.634
 6698SOL    HW120993   3.644   3.953   1.632
 6698SOL    HW220994   3.639   4.086   1.727
 6699SOL     OW20995   1.435   4.777   5.448
 6699SOL    HW120996   1.497   4.740   5.517
 6699SOL    HW220997   1.407   4.869   5.474
 6700SOL     OW20998   5.902   0.338   0.114
 6700SOL    HW120999   5.908   0.302   0.207
 6700SOL    HW221000   5.967   0.290   0.055
 6701SOL     OW21001   5.880   0.375   1.405
 6701SOL    HW121002   5.840   0.464   1.384
 6701SOL    HW221003   5.954   0.356   1.340
 6702SOL     OW21004   3.122   2.615   0.726
 6702SOL    HW121005   3.201   2.670   0.750
 6702SOL    HW221006   3.077   2.582   0.809
 6703SOL     OW21007   0.692   1.708   6.845
 6703SOL    HW121008   0.627   1.702   6.921
 6703SOL    HW221009   0.771   1.650   6.864
 6704SOL     OW21010   3.433   0.957   4.997
 6704SOL    HW121011   3.456   0.993   5.087
 6704SOL    HW221012   3.346   0.996   4.967
 6705SOL     OW21013   6.372   3.821   2.193
 6705SOL    HW121014   6.462   3.821   2.150
 6705SOL    HW221015   6.380   3.861   2.285
 6706SOL     OW21016   0.336   6.834   2.009
 6706SOL    HW121017   0.282   6.774   1.950
 6706SOL    HW221018   0.287   6.851   2.094
 6707SOL     OW21019   5.755   0.609   2.291
 6707SOL    HW121020   5.701   0.526   2.307
 6707SOL    HW221021   5.708   0.687   2.332
 6708SOL     OW21022   0.305   3.882   1.839
 6708SOL    HW121023   0.359   3.802   1.812
 6708SOL    HW221024   0.344   3.922   1.922
 6709SOL     OW21025   1.394   4.855   2.338
 6709SOL    HW121026   1.407   4.874   2.436
 6709SOL    HW221027   1.428   4.764   2.317
 6710SOL     OW21028   4.713   1.410   1.616
 6710SOL    HW121029   4.657   1.329   1.627
 6710SOL    HW221030   4.751   1.437   1.705
 6711SOL     OW21031   4.185   6.089   6.134
 6711SOL    HW121032   4.256   6.127   6.073
 6711SOL    HW221033   4.119   6.039   6.079
 6712SOL     OW21034   6.093   3.620   1.408
 6712SOL    HW121035   6.124   3.551   1.473
 6712SOL    HW221036   5.997   3.605   1.385
 6713SOL     OW21037   1.576   6.473   4.221
 6713SOL    HW121038   1.513   6.452   4.295
 6713SOL    HW221039   1.552   6.561   4.180
 6714SOL     OW21040   5.433   0.915   0.412
 6714SOL    HW121041   5.422   0.846   0.339
 6714SOL    HW221042   5.379   0.996   0.389
 6715SOL     OW21043   1.249   0.796   6.959
 6715SOL    HW121044   1.317   0.868   6.970
 6715SOL    HW221045   1.258   0.730   0.014
 6716SOL     OW21046   6.699   5.328   2.903
 6716SOL    HW121047   6.774   5.297   2.961
 6716SOL    HW221048   6.641   5.251   2.878
 6717SOL     OW21049   4.009   2.838   6.222
 6717SOL    HW121050   4.021   2.741   6.247
 6717SOL    HW221051   4.098   2.876   6.196
 6718SOL     OW21052   3.573   0.022   1.799
 6718SOL    HW121053   3.508   0.046   1.727
 6718SOL    HW221054   3.537   0.050   1.888
 6719SOL     OW21055   2.114   0.987   7.006
 6719SOL    HW121056   2.077   0.916   0.047
 6719SOL    HW221057   2.082   1.077   0.018
 6720SOL     OW21058   2.066   0.416   6.073
 6720SOL    HW121059   2.132   0.461   6.014
 6720SOL    HW221060   2.060   0.319   6.049
 6721SOL     OW21061   0.396   1.785   0.698
 6721SOL    HW121062   0.420   1.716   0.766
 6721SOL    HW221063   0.383   1.740   0.609
 6722SOL     OW21064   6.439   3.177   0.777
 6722SOL    HW121065   6.435   3.082   0.744
 6722SOL    HW221066   6.354   3.200   0.823
 6723SOL     OW21067   1.911   2.223   6.966
 6723SOL    HW121068   1.854   2.156   6.919
 6723SOL    HW221069   1.921   2.197   0.043
 6724SOL     OW21070   2.225   3.513   5.791
 6724SOL    HW121071   2.149   3.552   5.740
 6724SOL    HW221072   2.309   3.561   5.768
 6725SOL     OW21073   5.826   2.796   3.514
 6725SOL    HW121074   5.907   2.798   3.456
 6725SOL    HW221075   5.845   2.741   3.596
 6726SOL     OW21076   6.962   0.880   5.386
 6726SOL    HW121077   0.008   0.896   5.312
 6726SOL    HW221078   6.992   0.802   5.440
 6727SOL     OW21079   1.148   4.721   5.710
 6727SOL    HW121080   1.079   4.650   5.718
 6727SOL    HW221081   1.147   4.760   5.618
 6728SOL     OW21082   3.695   1.859   3.729
 6728SOL    HW121083   3.605   1.833   3.762
 6728SOL    HW221084   3.694   1.955   3.701
 6729SOL     OW21085   5.171   1.725   1.248
 6729SOL    HW121086   5.078   1.760   1.248
 6729SOL    HW221087   5.211   1.736   1.157
 6730SOL     OW21088   1.016   1.272   1.733
 6730SOL    HW121089   0.985   1.365   1.712
 6730SOL    HW221090   1.082   1.275   1.808
 6731SOL     OW21091   3.484   6.427   6.887
 6731SOL    HW121092   3.575   6.385   6.891
 6731SOL    HW221093   3.425   6.372   6.827
 6732SOL     OW21094   6.099   4.996   4.465
 6732SOL    HW121095   6.018   4.975   4.520
 6732SOL    HW221096   6.118   5.094   4.471
 6733SOL     OW21097   4.379   5.083   6.335
 6733SOL    HW121098   4.419   5.068   6.244
 6733SOL    HW221099   4.448   5.067   6.405
 6734SOL     OW21100   5.196   1.275   5.068
 6734SOL    HW121101   5.131   1.215   5.022
 6734SOL    HW221102   5.174   1.280   5.165
 6735SOL     OW21103   5.986   2.808   3.291
 6735SOL    HW121104   5.919   2.808   3.217
 6735SOL    HW221105   6.038   2.722   3.289
 6736SOL     OW21106   3.104   3.937   0.657
 6736SOL    HW121107   3.114   3.842   0.684
 6736SOL    HW221108   3.188   3.987   0.680
 6737SOL     OW21109   0.993   3.283   1.268
 6737SOL    HW121110   0.912   3.244   1.312
 6737SOL    HW221111   1.075   3.250   1.312
 6738SOL     OW21112   2.288   5.801   3.016
 6738SOL    HW121113   2.376   5.848   3.009
 6738SOL    HW221114   2.232   5.820   2.935
 6739SOL     OW21115   6.731   0.073   4.647
 6739SOL    HW121116   6.780   7.005   4.639
 6739SOL    HW221117   6.783   0.145   4.603
 6740SOL     OW21118   6.847   6.701   4.455
 6740SOL    HW121119   6.790   6.776   4.421
 6740SOL    HW221120   6.799   6.614   4.442
 6741SOL     OW21121   4.859   2.098   5.667
 6741SOL    HW121122   4.822   2.024   5.724
 6741SOL    HW221123   4.823   2.186   5.699
 6742SOL     OW21124   5.479   4.517   3.728
 6742SOL    HW121125   5.523   4.428   3.713
 6742SOL    HW221126   5.403   4.528   3.664
 6743SOL     OW21127   3.815   3.857   1.018
 6743SOL    HW121128   3.849   3.933   1.074
 6743SOL    HW221129   3.891   3.813   0.971
 6744SOL     OW21130   0.257   5.558   5.720
 6744SOL    HW121131   0.212   5.480   5.764
 6744SOL    HW221132   0.329   5.593   5.781
 6745SOL     OW21133   6.775   6.419   4.456
 6745SOL    HW121134   6.695   6.360   4.448
 6745SOL    HW221135   6.842   6.394   4.386
 6746SOL     OW21136   1.618   1.283   2.609
 6746SOL    HW121137   1.670   1.280   2.524
 6746SOL    HW221138   1.603   1.189   2.642
 6747SOL     OW21139   1.413   6.633   6.984
 6747SOL    HW121140   1.480   6.571   0.007
 6747SOL    HW221141   1.456   6.684   6.910
 6748SOL     OW21142   2.415   1.940   4.199
 6748SOL    HW121143   2.343   1.963   4.134
 6748SOL    HW221144   2.467   2.022   4.221
 6749SOL     OW21145   3.539   4.636   1.066
 6749SOL    HW121146   3.560   4.539   1.081
 6749SOL    HW221147   3.502   4.675   1.150
 6750SOL     OW21148   3.105   2.198   4.528
 6750SOL    HW121149   3.099   2.297   4.515
 6750SOL    HW221150   3.188   2.176   4.580
 6751SOL     OW21151   4.180   6.969   3.767
 6751SOL    HW121152   4.194   6.911   3.847
 6751SOL    HW221153   4.267   7.012   3.742
 6752SOL     OW21154   1.928   6.433   2.688
 6752SOL    HW121155   1.905   6.409   2.782
 6752SOL    HW221156   1.857   6.400   2.626
 6753SOL     OW21157   3.893   2.916   5.372
 6753SOL    HW121158   3.928   3.006   5.399
 6753SOL    HW221159   3.827   2.928   5.297
 6754SOL     OW21160   6.197   1.497   1.285
 6754SOL    HW121161   6.253   1.433   1.338
 6754SOL    HW221162   6.137   1.547   1.346
 6755SOL     OW21163   2.621   4.854   6.815
 6755SOL    HW121164   2.595   4.769   6.769
 6755SOL    HW221165   2.708   4.887   6.778
 6756SOL     OW21166   2.600   1.920   5.834
 6756SOL    HW121167   2.541   1.871   5.770
 6756SOL    HW221168   2.548   1.942   5.917
 6757SOL     OW21169   3.479   0.799   0.658
 6757SOL    HW121170   3.386   0.825   0.636
 6757SOL    HW221171   3.491   0.701   0.641
 6758SOL     OW21172   5.905   2.666   1.350
 6758SOL    HW121173   5.941   2.715   1.271
 6758SOL    HW221174   5.836   2.722   1.396
 6759SOL     OW21175   0.716   3.430   3.403
 6759SOL    HW121176   0.793   3.448   3.464
 6759SOL    HW221177   0.630   3.440   3.454
 6760SOL     OW21178   5.240   2.999   2.697
 6760SOL    HW121179   5.228   3.068   2.626
 6760SOL    HW221180   5.231   3.042   2.787
 6761SOL     OW21181   4.744   2.121   4.558
 6761SOL    HW121182   4.734   2.220   4.553
 6761SOL    HW221183   4.653   2.079   4.565
 6762SOL     OW21184   6.444   5.481   3.985
 6762SOL    HW121185   6.522   5.427   4.015
 6762SOL    HW221186   6.380   5.423   3.936
 6763SOL     OW21187   4.808   4.934   5.012
 6763SOL    HW121188   4.890   4.894   5.055
 6763SOL    HW221189   4.757   4.862   4.965
 6764SOL     OW21190   1.333   5.670   1.898
 6764SOL    HW121191   1.309   5.731   1.973
 6764SOL    HW221192   1.432   5.671   1.884
 6765SOL     OW21193   6.413   4.602   2.970
 6765SOL    HW121194   6.487   4.659   2.935
 6765SOL    HW221195   6.355   4.572   2.894
 6766SOL     OW21196   5.082   6.688   0.617
 6766SOL    HW121197   5.142   6.639   0.554
 6766SOL    HW221198   5.065   6.631   0.697
 6767SOL     OW21199   2.978   1.201   0.423
 6767SOL    HW121200   2.943   1.293   0.406
 6767SOL    HW221201   2.954   1.173   0.516
 6768SOL     OW21202   2.058   0.646   1.024
 6768SOL    HW121203   1.971   0.696   1.021
 6768SOL    HW221204   2.050   0.570   1.089
 6769SOL     OW21205   4.045   2.584   1.217
 6769SOL    HW121206   4.046   2.612   1.120
 6769SOL    HW221207   3.950   2.568   1.245
 6770SOL     OW21208   6.805   0.489   1.754
 6770SOL    HW121209   6.880   0.454   1.810
 6770SOL    HW221210   6.731   0.520   1.813
 6771SOL     OW21211   4.235   1.875   2.808
 6771SOL    HW121212   4.290   1.958   2.819
 6771SOL    HW221213   4.158   1.895   2.747
 6772SOL     OW21214   3.158   1.829   2.287
 6772SOL    HW121215   3.099   1.856   2.211
 6772SOL    HW221216   3.223   1.760   2.257
 6773SOL     OW21217   6.659   3.931   1.717
 6773SOL    HW121218   6.579   3.880   1.749
 6773SOL    HW221219   6.731   3.866   1.691
 6774SOL     OW21220   0.781   2.705   6.320
 6774SOL    HW121221   0.793   2.607   6.334
 6774SOL    HW221222   0.686   2.730   6.336
 6775SOL     OW21223   2.877   4.145   1.030
 6775SOL    HW121224   2.816   4.219   1.001
 6775SOL    HW221225   2.839   4.100   1.111
 6776SOL     OW21226   5.375   4.917   0.097
 6776SOL    HW121227   5.332   4.894   0.185
 6776SOL    HW221228   5.471   4.889   0.099
 6777SOL     OW21229   4.466   4.972   5.764
 6777SOL    HW121230   4.395   4.988   5.695
 6777SOL    HW221231   4.472   4.874   5.784
 6778SOL     OW21232   0.747   4.040   2.655
 6778SOL    HW121233   0.742   4.035   2.754
 6778SOL    HW221234   0.784   4.129   2.627
 6779SOL     OW21235   6.845   4.326   0.415
 6779SOL    HW121236   6.907   4.361   0.344
 6779SOL    HW221237   6.786   4.399   0.447
 6780SOL     OW21238   0.105   2.427   2.970
 6780SOL    HW121239   0.129   2.480   3.052
 6780SOL    HW221240   0.188   2.386   2.932
 6781SOL     OW21241   5.222   6.278   5.673
 6781SOL    HW121242   5.155   6.279   5.600
 6781SOL    HW221243   5.308   6.238   5.640
 6782SOL     OW21244   0.342   1.242   2.361
 6782SOL    HW121245   0.387   1.262   2.448
 6782SOL    HW221246   0.410   1.237   2.289
 6783SOL     OW21247   0.032   6.335   6.014
 6783SOL    HW121248   0.067   6.321   5.921
 6783SOL    HW221249   0.041   6.250   6.066
 6784SOL     OW21250   3.833   4.293   6.902
 6784SOL    HW121251   3.789   4.329   6.984
 6784SOL    HW221252   3.923   4.255   6.927
 6785SOL     OW21253   6.131   5.701   1.841
 6785SOL    HW121254   6.133   5.750   1.754
 6785SOL    HW221255   6.066   5.625   1.835
 6786SOL     OW21256   1.589   2.280   6.853
 6786SOL    HW121257   1.635   2.248   6.770
 6786SOL    HW221258   1.645   2.257   6.933
 6787SOL     OW21259   1.575   3.794   0.952
 6787SOL    HW121260   1.556   3.712   0.899
 6787SOL    HW221261   1.510   3.801   1.028
 6788SOL     OW21262   2.792   3.860   1.616
 6788SOL    HW121263   2.831   3.829   1.702
 6788SOL    HW221264   2.754   3.782   1.566
 6789SOL     OW21265   0.443   6.589   2.381
 6789SOL    HW121266   0.457   6.683   2.350
 6789SOL    HW221267   0.369   6.548   2.328
 6790SOL     OW21268   2.222   2.935   0.240
 6790SOL    HW121269   2.147   2.967   0.298
 6790SOL    HW221270   2.236   2.837   0.255
 6791SOL     OW21271   4.530   2.594   7.003
 6791SOL    HW121272   4.433   2.595   6.977
 6791SOL    HW221273   4.546   2.517   0.047
 6792SOL     OW21274   6.719   5.842   6.548
 6792SOL    HW121275   6.670   5.928   6.562
 6792SOL    HW221276   6.769   5.818   6.631
 6793SOL     OW21277   0.931   2.360   0.257
 6793SOL    HW121278   0.929   2.269   0.299
 6793SOL    HW221279   1.017   2.405   0.280
 6794SOL     OW21280   4.993   1.253   4.252
 6794SOL    HW121281   5.046   1.176   4.216
 6794SOL    HW221282   4.896   1.235   4.240
 6795SOL     OW21283   3.046   5.695   0.825
 6795SOL    HW121284   2.959   5.739   0.843
 6795SOL    HW221285   3.109   5.761   0.783
 6796SOL     OW21286   5.136   1.205   2.186
 6796SOL    HW121287   5.144   1.300   2.216
 6796SOL    HW221288   5.162   1.144   2.260
 6797SOL     OW21289   5.089   3.672   1.816
 6797SOL    HW121290   5.006   3.615   1.814
 6797SOL    HW221291   5.165   3.621   1.774
 6798SOL     OW21292   5.835   5.235   3.105
 6798SOL    HW121293   5.878   5.318   3.071
 6798SOL    HW221294   5.892   5.156   3.082
 6799SOL     OW21295   5.229   5.473   0.444
 6799SOL    HW121296   5.274   5.559   0.471
 6799SOL    HW221297   5.230   5.466   0.344
 6800SOL     OW21298   1.553   4.237   0.736
 6800SOL    HW121299   1.617   4.178   0.785
 6800SOL    HW221300   1.567   4.332   0.765
 6801SOL     OW21301   1.206   2.157   2.065
 6801SOL    HW121302   1.278   2.099   2.026
 6801SOL    HW221303   1.143   2.101   2.118
 6802SOL     OW21304   2.231   5.863   0.824
 6802SOL    HW121305   2.224   5.895   0.730
 6802SOL    HW221306   2.320   5.889   0.863
 6803SOL     OW21307   5.229   2.016   6.269
 6803SOL    HW121308   5.222   2.115   6.285
 6803SOL    HW221309   5.192   1.968   6.349
 6804SOL     OW21310   1.759   5.804   3.173
 6804SOL    HW121311   1.762   5.826   3.076
 6804SOL    HW221312   1.836   5.744   3.196
 6805SOL     OW21313   5.500   6.862   4.586
 6805SOL    HW121314   5.467   6.927   4.518
 6805SOL    HW221315   5.440   6.782   4.589
 6806SOL     OW21316   4.593   1.536   4.559
 6806SOL    HW121317   4.503   1.537   4.516
 6806SOL    HW221318   4.621   1.630   4.580
 6807SOL     OW21319   2.700   3.212   0.054
 6807SOL    HW121320   2.693   3.114   0.074
 6807SOL    HW221321   2.626   3.238   7.011
 6808SOL     OW21322   0.483   2.623   4.819
 6808SOL    HW121323   0.387   2.614   4.844
 6808SOL    HW221324   0.522   2.533   4.800
 6809SOL     OW21325   1.308   4.668   0.040
 6809SOL    HW121326   1.390   4.708   7.018
 6809SOL    HW221327   1.289   4.580   7.016
 6810SOL     OW21328   0.560   0.977   2.569
 6810SOL    HW121329   0.530   0.954   2.661
 6810SOL    HW221330   0.633   0.914   2.541
 6811SOL     OW21331   6.494   4.638   0.923
 6811SOL    HW121332   6.419   4.579   0.894
 6811SOL    HW221333   6.524   4.694   0.845
 6812SOL     OW21334   3.746   4.070   3.028
 6812SOL    HW121335   3.795   4.069   3.115
 6812SOL    HW221336   3.660   4.121   3.038
 6813SOL     OW21337   4.616   1.963   1.522
 6813SOL    HW121338   4.652   1.869   1.524
 6813SOL    HW221339   4.633   2.007   1.611
 6814SOL     OW21340   2.973   2.885   1.102
 6814SOL    HW121341   2.992   2.982   1.118
 6814SOL    HW221342   3.052   2.843   1.057
 6815SOL     OW21343   3.073   0.160   1.662
 6815SOL    HW121344   3.111   0.173   1.570
 6815SOL    HW221345   2.975   0.179   1.659
 6816SOL     OW21346   6.565   4.961   0.038
 6816SOL    HW121347   6.504   4.897   0.085
 6816SOL    HW221348   6.526   4.988   6.969
 6817SOL     OW21349   6.534   1.425   5.484
 6817SOL    HW121350   6.574   1.378   5.564
 6817SOL    HW221351   6.531   1.361   5.407
 6818SOL     OW21352   3.307   6.490   1.819
 6818SOL    HW121353   3.243   6.422   1.856
 6818SOL    HW221354   3.368   6.445   1.754
 6819SOL     OW21355   3.180   0.486   3.526
 6819SOL    HW121356   3.138   0.549   3.460
 6819SOL    HW221357   3.270   0.522   3.552
 6820SOL     OW21358   0.692   4.566   3.563
 6820SOL    HW121359   0.677   4.468   3.546
 6820SOL    HW221360   0.676   4.586   3.660
 6821SOL     OW21361   2.406   2.248   5.012
 6821SOL    HW121362   2.443   2.216   5.100
 6821SOL    HW221363   2.422   2.346   5.003
 6822SOL     OW21364   5.469   1.453   5.817
 6822SOL    HW121365   5.543   1.513   5.786
 6822SOL    HW221366   5.385   1.506   5.827
 6823SOL     OW21367   3.371   3.366   3.799
 6823SOL    HW121368   3.341   3.364   3.704
 6823SOL    HW221369   3.437   3.292   3.815
 6824SOL     OW21370   0.057   3.854   6.266
 6824SOL    HW121371   0.120   3.776   6.257
 6824SOL    HW221372   0.030   3.885   6.175
 6825SOL     OW21373   5.350   6.981   2.205
 6825SOL    HW121374   5.377   0.033   2.270
 6825SOL    HW221375   5.394   6.999   2.116
 6826SOL     OW21376   2.076   3.484   2.525
 6826SOL    HW121377   1.993   3.441   2.560
 6826SOL    HW221378   2.072   3.486   2.425
 6827SOL     OW21379   4.752   5.954   6.851
 6827SOL    HW121380   4.714   5.970   6.760
 6827SOL    HW221381   4.681   5.966   6.920
 6828SOL     OW21382   1.545   2.078   1.575
 6828SOL    HW121383   1.596   2.128   1.644
 6828SOL    HW221384   1.482   2.014   1.619
 6829SOL     OW21385   5.217   6.731   3.507
 6829SOL    HW121386   5.279   6.674   3.560
 6829SOL    HW221387   5.269   6.796   3.452
 6830SOL     OW21388   5.406   1.514   3.111
 6830SOL    HW121389   5.354   1.441   3.155
 6830SOL    HW221390   5.454   1.568   3.180
 6831SOL     OW21391   0.813   0.897   5.981
 6831SOL    HW121392   0.714   0.885   5.977
 6831SOL    HW221393   0.833   0.985   6.025
 6832SOL     OW21394   2.922   4.652   1.617
 6832SOL    HW121395   2.912   4.586   1.691
 6832SOL    HW221396   2.832   4.671   1.577
 6833SOL     OW21397   3.610   5.094   6.730
 6833SOL    HW121398   3.624   5.032   6.653
 6833SOL    HW221399   3.558   5.047   6.802
 6834SOL     OW21400   4.733   0.065   1.765
 6834SOL    HW121401   4.697   7.015   1.701
 6834SOL    HW221402   4.802   0.120   1.718
 6835SOL     OW21403   3.999   0.528   4.720
 6835SOL    HW121404   4.019   0.432   4.739
 6835SOL    HW221405   4.063   0.587   4.770
 6836SOL     OW21406   2.922   6.497   0.459
 6836SOL    HW121407   2.880   6.493   0.550
 6836SOL    HW221408   2.960   6.588   0.445
 6837SOL     OW21409   1.828   3.419   2.061
 6837SOL    HW121410   1.883   3.464   1.991
 6837SOL    HW221411   1.841   3.320   2.055
 6838SOL     OW21412   2.648   1.126   0.369
 6838SOL    HW121413   2.626   1.192   0.297
 6838SOL    HW221414   2.736   1.083   0.349
 6839SOL     OW21415   4.619   0.933   0.709
 6839SOL    HW121416   4.605   0.877   0.627
 6839SOL    HW221417   4.628   1.029   0.683
 6840SOL     OW21418   2.694   1.371   6.423
 6840SOL    HW121419   2.733   1.281   6.406
 6840SOL    HW221420   2.726   1.435   6.353
 6841SOL     OW21421   6.142   3.166   6.030
 6841SOL    HW121422   6.171   3.085   5.979
 6841SOL    HW221423   6.198   3.244   6.003
 6842SOL     OW21424   1.650   5.300   1.649
 6842SOL    HW121425   1.701   5.213   1.651
 6842SOL    HW221426   1.569   5.292   1.706
 6843SOL     OW21427   5.116   6.832   6.719
 6843SOL    HW121428   5.130   6.851   6.622
 6843SOL    HW221429   5.044   6.892   6.754
 6844SOL     OW21430   4.700   0.705   3.601
 6844SOL    HW121431   4.659   0.615   3.617
 6844SOL    HW221432   4.767   0.724   3.673
 6845SOL     OW21433   4.672   2.773   2.958
 6845SOL    HW121434   4.614   2.703   3.001
 6845SOL    HW221435   4.693   2.746   2.865
 6846SOL     OW21436   2.872   3.914   0.242
 6846SOL    HW121437   2.962   3.892   0.204
 6846SOL    HW221438   2.879   3.919   0.342
 6847SOL     OW21439   5.948   3.728   4.589
 6847SOL    HW121440   5.915   3.786   4.515
 6847SOL    HW221441   5.871   3.699   4.646
 6848SOL     OW21442   5.187   4.073   3.844
 6848SOL    HW121443   5.127   4.153   3.849
 6848SOL    HW221444   5.276   4.101   3.807
 6849SOL     OW21445   3.970   3.904   6.092
 6849SOL    HW121446   3.905   3.874   6.022
 6849SOL    HW221447   3.987   3.829   6.156
 6850SOL     OW21448   4.345   2.305   3.397
 6850SOL    HW121449   4.247   2.296   3.414
 6850SOL    HW221450   4.383   2.216   3.372
 6851SOL     OW21451   1.565   2.956   2.857
 6851SOL    HW121452   1.465   2.953   2.861
 6851SOL    HW221453   1.603   2.904   2.933
 6852SOL     OW21454   2.504   5.508   0.909
 6852SOL    HW121455   2.533   5.425   0.861
 6852SOL    HW221456   2.573   5.534   0.976
 6853SOL     OW21457   5.366   3.407   6.614
 6853SOL    HW121458   5.443   3.349   6.585
 6853SOL    HW221459   5.283   3.352   6.619
 6854SOL     OW21460   5.069   6.392   6.033
 6854SOL    HW121461   5.021   6.465   6.083
 6854SOL    HW221462   5.131   6.433   5.966
 6855SOL     OW21463   3.647   5.021   3.556
 6855SOL    HW121464   3.615   4.997   3.648
 6855SOL    HW221465   3.727   5.079   3.563
 6856SOL     OW21466   0.833   2.452   6.383
 6856SOL    HW121467   0.841   2.353   6.368
 6856SOL    HW221468   0.917   2.485   6.426
 6857SOL     OW21469   1.353   3.286   6.802
 6857SOL    HW121470   1.266   3.281   6.851
 6857SOL    HW221471   1.347   3.356   6.730
 6858SOL     OW21472   3.244   4.240   1.710
 6858SOL    HW121473   3.151   4.254   1.744
 6858SOL    HW221474   3.283   4.328   1.682
 6859SOL     OW21475   0.950   1.387   2.317
 6859SOL    HW121476   0.946   1.288   2.332
 6859SOL    HW221477   0.925   1.407   2.222
 6860SOL     OW21478   0.048   5.734   1.916
 6860SOL    HW121479   7.003   5.662   1.945
 6860SOL    HW221480   0.050   5.737   1.816
 6861SOL     OW21481   5.149   3.132   5.146
 6861SOL    HW121482   5.053   3.136   5.117
 6861SOL    HW221483   5.153   3.133   5.246
 6862SOL     OW21484   0.385   4.489   6.161
 6862SOL    HW121485   0.402   4.543   6.078
 6862SOL    HW221486   0.472   4.469   6.206
 6863SOL     OW21487   0.156   6.473   5.111
 6863SOL    HW121488   0.203   6.478   5.023
 6863SOL    HW221489   0.219   6.438   5.180
 6864SOL     OW21490   1.670   3.824   5.701
 6864SOL    HW121491   1.578   3.789   5.687
 6864SOL    HW221492   1.719   3.826   5.613
 6865SOL     OW21493   1.629   0.009   4.261
 6865SOL    HW121494   1.541   7.004   4.301
 6865SOL    HW221495   1.634   0.108   4.248
 6866SOL     OW21496   0.050   4.494   1.964
 6866SOL    HW121497   7.008   4.415   1.954
 6866SOL    HW221498   0.140   4.463   1.994
 6867SOL     OW21499   2.248   3.129   0.693
 6867SOL    HW121500   2.337   3.091   0.665
 6867SOL    HW221501   2.261   3.220   0.732
 6868SOL     OW21502   2.171   5.225   4.801
 6868SOL    HW121503   2.097   5.293   4.803
 6868SOL    HW221504   2.147   5.152   4.738
 6869SOL     OW21505   3.456   6.824   5.633
 6869SOL    HW121506   3.507   6.852   5.552
 6869SOL    HW221507   3.520   6.798   5.705
 6870SOL     OW21508   0.063   2.746   0.210
 6870SOL    HW121509   0.100   2.670   0.264
 6870SOL    HW221510   0.034   2.713   0.121
 6871SOL     OW21511   6.732   3.630   2.620
 6871SOL    HW121512   6.659   3.585   2.569
 6871SOL    HW221513   6.810   3.645   2.559
 6872SOL     OW21514   1.056   2.697   1.750
 6872SOL    HW121515   1.016   2.715   1.661
 6872SOL    HW221516   1.120   2.770   1.773
 6873SOL     OW21517   1.245   4.151   4.783
 6873SOL    HW121518   1.289   4.196   4.705
 6873SOL    HW221519   1.233   4.217   4.857
 6874SOL     OW21520   5.661   5.955   2.933
 6874SOL    HW121521   5.612   6.032   2.974
 6874SOL    HW221522   5.605   5.915   2.860
 6875SOL     OW21523   1.282   2.803   1.075
 6875SOL    HW121524   1.205   2.866   1.073
 6875SOL    HW221525   1.250   2.713   1.105
 6876SOL     OW21526   4.266   5.989   3.227
 6876SOL    HW121527   4.233   5.939   3.147
 6876SOL    HW221528   4.255   5.933   3.309
 6877SOL     OW21529   2.291   4.331   2.310
 6877SOL    HW121530   2.376   4.379   2.289
 6877SOL    HW221531   2.310   4.252   2.369
 6878SOL     OW21532   2.343   1.150   3.943
 6878SOL    HW121533   2.370   1.059   3.975
 6878SOL    HW221534   2.419   1.213   3.953
 6879SOL     OW21535   2.063   2.200   0.979
 6879SOL    HW121536   2.049   2.299   0.985
 6879SOL    HW221537   1.978   2.153   1.002
 6880SOL     OW21538   1.711   5.714   6.450
 6880SOL    HW121539   1.797   5.663   6.446
 6880SOL    HW221540   1.729   5.810   6.470
 6881SOL     OW21541   1.629   3.693   0.113
 6881SOL    HW121542   1.616   3.778   0.163
 6881SOL    HW221543   1.723   3.662   0.125
 6882SOL     OW21544   3.041   6.751   0.389
 6882SOL    HW121545   3.065   6.706   0.303
 6882SOL    HW221546   3.112   6.817   0.412
 6883SOL     OW21547   4.902   0.402   6.601
 6883SOL    HW121548   4.844   0.483   6.591
 6883SOL    HW221549   4.997   0.430   6.612
 6884SOL     OW21550   2.087   3.813   2.871
 6884SOL    HW121551   2.051   3.719   2.876
 6884SOL    HW221552   2.100   3.839   2.776
 6885SOL     OW21553   5.003   5.193   3.578
 6885SOL    HW121554   4.995   5.100   3.543
 6885SOL    HW221555   5.030   5.254   3.503
 6886SOL     OW21556   5.023   1.018   5.848
 6886SOL    HW121557   4.925   1.024   5.866
 6886SOL    HW221558   5.055   1.103   5.807
 6887SOL     OW21559   5.362   6.104   6.599
 6887SOL    HW121560   5.412   6.190   6.585
 6887SOL    HW221561   5.378   6.044   6.521
 6888SOL     OW21562   5.454   4.646   6.722
 6888SOL    HW121563   5.406   4.721   6.767
 6888SOL    HW221564   5.390   4.598   6.662
 6889SOL     OW21565   1.028   2.652   5.886
 6889SOL    HW121566   1.059   2.599   5.807
 6889SOL    HW221567   1.093   2.726   5.904
 6890SOL     OW21568   3.268   5.245   2.814
 6890SOL    HW121569   3.294   5.322   2.872
 6890SOL    HW221570   3.330   5.240   2.736
 6891SOL     OW21571   2.017   2.470   1.001
 6891SOL    HW121572   1.931   2.493   1.048
 6891SOL    HW221573   2.033   2.535   0.927
 6892SOL     OW21574   3.567   1.132   4.120
 6892SOL    HW121575   3.539   1.161   4.028
 6892SOL    HW221576   3.611   1.043   4.116
 6893SOL     OW21577   6.091   3.013   6.917
 6893SOL    HW121578   6.149   2.939   6.952
 6893SOL    HW221579   6.047   3.060   6.994
 6894SOL     OW21580   5.525   4.892   1.417
 6894SOL    HW121581   5.504   4.988   1.432
 6894SOL    HW221582   5.607   4.884   1.360
 6895SOL     OW21583   1.649   6.056   1.208
 6895SOL    HW121584   1.612   6.108   1.285
 6895SOL    HW221585   1.615   5.962   1.211
 6896SOL     OW21586   3.758   2.103   4.477
 6896SOL    HW121587   3.698   2.112   4.556
 6896SOL    HW221588   3.841   2.156   4.491
 6897SOL     OW21589   4.610   3.851   5.310
 6897SOL    HW121590   4.634   3.771   5.255
 6897SOL    HW221591   4.656   3.846   5.398
 6898SOL     OW21592   2.745   1.628   1.403
 6898SOL    HW121593   2.725   1.724   1.422
 6898SOL    HW221594   2.709   1.572   1.477
 6899SOL     OW21595   6.447   6.023   2.597
 6899SOL    HW121596   6.482   5.929   2.596
 6899SOL    HW221597   6.442   6.057   2.503
 6900SOL     OW21598   6.583   4.533   6.190
 6900SOL    HW121599   6.528   4.496   6.116
 6900SOL    HW221600   6.527   4.592   6.248
 6901SOL     OW21601   4.577   5.073   6.513
 6901SOL    HW121602   4.673   5.092   6.490
 6901SOL    HW221603   4.538   5.152   6.559
 6902SOL     OW21604   0.236   5.980   5.793
 6902SOL    HW121605   0.223   5.931   5.880
 6902SOL    HW221606   0.212   5.920   5.717
 6903SOL     OW21607   2.960   5.025   4.849
 6903SOL    HW121608   2.909   4.984   4.925
 6903SOL    HW221609   2.897   5.047   4.775
 6904SOL     OW21610   0.281   6.041   4.432
 6904SOL    HW121611   0.273   6.128   4.383
 6904SOL    HW221612   0.214   6.037   4.505
 6905SOL     OW21613   5.546   5.645   6.022
 6905SOL    HW121614   5.460   5.686   5.992
 6905SOL    HW221615   5.622   5.693   5.979
 6906SOL     OW21616   3.781   0.955   3.210
 6906SOL    HW121617   3.851   0.971   3.140
 6906SOL    HW221618   3.793   1.021   3.284
 6907SOL     OW21619   6.412   1.855   1.189
 6907SOL    HW121620   6.316   1.826   1.192
 6907SOL    HW221621   6.465   1.800   1.253
 6908SOL     OW21622   2.537   4.317   6.778
 6908SOL    HW121623   2.502   4.255   6.708
 6908SOL    HW221624   2.628   4.349   6.751
 6909SOL     OW21625   5.769   5.441   1.917
 6909SOL    HW121626   5.692   5.379   1.902
 6909SOL    HW221627   5.764   5.479   2.009
 6910SOL     OW21628   1.440   2.520   2.786
 6910SOL    HW121629   1.392   2.592   2.737
 6910SOL    HW221630   1.530   2.555   2.816
 6911SOL     OW21631   3.508   0.135   5.583
 6911SOL    HW121632   3.501   0.220   5.530
 6911SOL    HW221633   3.604   0.108   5.590
 6912SOL     OW21634   2.245   3.678   6.698
 6912SOL    HW121635   2.332   3.686   6.746
 6912SOL    HW221636   2.234   3.585   6.665
 6913SOL     OW21637   4.502   6.045   5.819
 6913SOL    HW121638   4.446   6.098   5.883
 6913SOL    HW221639   4.516   5.953   5.856
 6914SOL     OW21640   6.096   3.391   2.002
 6914SOL    HW121641   6.112   3.487   1.981
 6914SOL    HW221642   6.178   3.352   2.044
 6915SOL     OW21643   1.335   3.661   2.038
 6915SOL    HW121644   1.420   3.649   2.089
 6915SOL    HW221645   1.279   3.579   2.048
 6916SOL     OW21646   4.692   6.831   6.059
 6916SOL    HW121647   4.672   6.907   5.998
 6916SOL    HW221648   4.750   6.863   6.134
 6917SOL     OW21649   5.372   5.574   1.442
 6917SOL    HW121650   5.467   5.567   1.474
 6917SOL    HW221651   5.357   5.664   1.402
 6918SOL     OW21652   0.880   3.264   1.808
 6918SOL    HW121653   0.860   3.209   1.727
 6918SOL    HW221654   0.900   3.203   1.885
 6919SOL     OW21655   6.366   6.712   2.542
 6919SOL    HW121656   6.410   6.698   2.631
 6919SOL    HW221657   6.306   6.792   2.547
 6920SOL     OW21658   4.651   0.700   5.111
 6920SOL    HW121659   4.596   0.714   5.193
 6920SOL    HW221660   4.598   0.647   5.044
 6921SOL     OW21661   3.213   0.283   4.615
 6921SOL    HW121662   3.184   0.190   4.637
 6921SOL    HW221663   3.167   0.313   4.532
 6922SOL     OW21664   1.332   6.034   5.155
 6922SOL    HW121665   1.410   6.033   5.217
 6922SOL    HW221666   1.297   6.127   5.148
 6923SOL     OW21667   6.391   0.082   2.008
 6923SOL    HW121668   6.347   0.094   2.097
 6923SOL    HW221669   6.448   7.019   2.010
 6924SOL     OW21670   3.671   6.754   0.682
 6924SOL    HW121671   3.639   6.672   0.634
 6924SOL    HW221672   3.753   6.731   0.735
 6925SOL     OW21673   5.408   6.075   6.866
 6925SOL    HW121674   5.361   6.079   6.779
 6925SOL    HW221675   5.488   6.136   6.864
 6926SOL     OW21676   3.209   1.688   0.490
 6926SOL    HW121677   3.240   1.651   0.578
 6926SOL    HW221678   3.270   1.762   0.462
 6927SOL     OW21679   4.083   0.851   0.483
 6927SOL    HW121680   4.120   0.913   0.552
 6927SOL    HW221681   3.998   0.889   0.446
 6928SOL     OW21682   4.728   5.336   0.679
 6928SOL    HW121683   4.739   5.263   0.612
 6928SOL    HW221684   4.783   5.316   0.760
 6929SOL     OW21685   5.290   5.331   1.534
 6929SOL    HW121686   5.304   5.422   1.497
 6929SOL    HW221687   5.248   5.338   1.625
 6930SOL     OW21688   0.411   1.276   0.225
 6930SOL    HW121689   0.508   1.270   0.200
 6930SOL    HW221690   0.356   1.227   0.158
 6931SOL     OW21691   2.373   2.568   1.111
 6931SOL    HW121692   2.318   2.630   1.166
 6931SOL    HW221693   2.461   2.610   1.091
 6932SOL     OW21694   4.714   5.626   0.206
 6932SOL    HW121695   4.710   5.546   0.145
 6932SOL    HW221696   4.742   5.597   0.297
 6933SOL     OW21697   3.168   5.633   6.509
 6933SOL    HW121698   3.163   5.533   6.511
 6933SOL    HW221699   3.211   5.666   6.593
 6934SOL     OW21700   4.883   4.083   6.493
 6934SOL    HW121701   4.919   4.089   6.399
 6934SOL    HW221702   4.895   3.990   6.527
 6935SOL     OW21703   5.477   5.386   1.904
 6935SOL    HW121704   5.437   5.463   1.855
 6935SOL    HW221705   5.460   5.302   1.853
 6936SOL     OW21706   1.067   1.668   4.647
 6936SOL    HW121707   0.997   1.625   4.704
 6936SOL    HW221708   1.068   1.624   4.557
 6937SOL     OW21709   5.563   5.721   0.497
 6937SOL    HW121710   5.570   5.649   0.427
 6937SOL    HW221711   5.466   5.741   0.513
 6938SOL     OW21712   0.363   0.558   4.722
 6938SOL    HW121713   0.412   0.573   4.808
 6938SOL    HW221714   0.299   0.482   4.734
 6939SOL     OW21715   6.431   4.512   3.456
 6939SOL    HW121716   6.513   4.455   3.455
 6939SOL    HW221717   6.398   4.524   3.362
 6940SOL     OW21718   4.295   6.731   0.480
 6940SOL    HW121719   4.233   6.660   0.449
 6940SOL    HW221720   4.253   6.783   0.555
 6941SOL     OW21721   3.009   3.403   2.846
 6941SOL    HW121722   3.099   3.437   2.871
 6941SOL    HW221723   2.972   3.346   2.919
 6942SOL     OW21724   6.651   6.177   1.983
 6942SOL    HW121725   6.614   6.270   1.982
 6942SOL    HW221726   6.750   6.181   1.998
 6943SOL     OW21727   4.069   4.859   6.914
 6943SOL    HW121728   4.103   4.843   6.821
 6943SOL    HW221729   3.991   4.800   6.932
 6944SOL     OW21730   1.035   3.555   5.423
 6944SOL    HW121731   1.114   3.559   5.362
 6944SOL    HW221732   0.952   3.544   5.368
 6945SOL     OW21733   5.680   3.075   0.408
 6945SOL    HW121734   5.624   3.026   0.476
 6945SOL    HW221735   5.671   3.173   0.423
 6946SOL     OW21736   4.187   6.058   2.268
 6946SOL    HW121737   4.174   5.977   2.325
 6946SOL    HW221738   4.259   6.115   2.307
 6947SOL     OW21739   5.339   5.058   5.526
 6947SOL    HW121740   5.376   4.980   5.576
 6947SOL    HW221741   5.383   5.142   5.558
 6948SOL     OW21742   0.329   5.802   0.464
 6948SOL    HW121743   0.242   5.761   0.492
 6948SOL    HW221744   0.350   5.879   0.523
 6949SOL     OW21745   2.742   2.112   3.329
 6949SOL    HW121746   2.806   2.189   3.326
 6949SOL    HW221747   2.792   2.028   3.351
 6950SOL     OW21748   1.028   6.845   4.604
 6950SOL    HW121749   0.989   6.881   4.519
 6950SOL    HW221750   1.016   6.912   4.677
 6951SOL     OW21751   6.974   5.209   6.476
 6951SOL    HW121752   6.883   5.246   6.494
 6951SOL    HW221753   6.975   5.163   6.388
 6952SOL     OW21754   3.180   4.986   2.715
 6952SOL    HW121755   3.210   5.065   2.767
 6952SOL    HW221756   3.235   4.977   2.632
 6953SOL     OW21757   5.517   0.702   1.202
 6953SOL    HW121758   5.510   0.802   1.197
 6953SOL    HW221759   5.436   0.665   1.246
 6954SOL     OW21760   6.947   3.595   0.671
 6954SOL    HW121761   0.010   3.604   0.614
 6954SOL    HW221762   6.902   3.684   0.681
 6955SOL     OW21763   5.247   6.807   2.509
 6955SOL    HW121764   5.200   6.895   2.502
 6955SOL    HW221765   5.222   6.750   2.431
 6956SOL     OW21766   5.224   5.625   2.324
 6956SOL    HW121767   5.175   5.668   2.400
 6956SOL    HW221768   5.206   5.527   2.323
 6957SOL     OW21769   5.315   5.389   6.383
 6957SOL    HW121770   5.234   5.437   6.417
 6957SOL    HW221771   5.388   5.456   6.365
 6958SOL     OW21772   3.640   2.900   3.565
 6958SOL    HW121773   3.558   2.864   3.521
 6958SOL    HW221774   3.649   2.860   3.656
 6959SOL     OW21775   1.280   4.462   3.198
 6959SOL    HW121776   1.191   4.415   3.195
 6959SOL    HW221777   1.347   4.408   3.148
 6960SOL     OW21778   2.228   4.614   0.581
 6960SOL    HW121779   2.287   4.548   0.534
 6960SOL    HW221780   2.152   4.566   0.624
 6961SOL     OW21781   4.032   1.880   5.434
 6961SOL    HW121782   4.015   1.792   5.389
 6961SOL    HW221783   4.069   1.945   5.367
 6962SOL     OW21784   3.404   6.787   6.109
 6962SOL    HW121785   3.417   6.723   6.185
 6962SOL    HW221786   3.360   6.740   6.032
 6963SOL     OW21787   5.129   6.643   1.224
 6963SOL    HW121788   5.082   6.694   1.296
 6963SOL    HW221789   5.155   6.705   1.150
 6964SOL     OW21790   2.348   0.325   6.180
 6964SOL    HW121791   2.392   0.407   6.215
 6964SOL    HW221792   2.266   0.350   6.128
 6965SOL     OW21793   0.645   2.167   0.219
 6965SOL    HW121794   0.720   2.112   0.182
 6965SOL    HW221795   0.660   2.263   0.197
 6966SOL     OW21796   0.727   0.948   1.843
 6966SOL    HW121797   0.676   0.865   1.820
 6966SOL    HW221798   0.706   0.974   1.938
 6967SOL     OW21799   4.298   2.074   6.009
 6967SOL    HW121800   4.224   2.023   5.965
 6967SOL    HW221801   4.383   2.061   5.957
 6968SOL     OW21802   3.687   6.772   2.996
 6968SOL    HW121803   3.653   6.791   3.088
 6968SOL    HW221804   3.614   6.730   2.941
 6969SOL     OW21805   2.293   1.904   2.139
 6969SOL    HW121806   2.367   1.932   2.077
 6969SOL    HW221807   2.280   1.805   2.132
 6970SOL     OW21808   3.617   4.387   5.915
 6970SOL    HW121809   3.569   4.396   5.827
 6970SOL    HW221810   3.703   4.338   5.901
 6971SOL     OW21811   6.446   4.601   0.552
 6971SOL    HW121812   6.424   4.548   0.634
 6971SOL    HW221813   6.509   4.674   0.576
 6972SOL     OW21814   5.020   3.723   2.638
 6972SOL    HW121815   5.089   3.655   2.663
 6972SOL    HW221816   4.958   3.684   2.570
 6973SOL     OW21817   1.233   2.235   2.807
 6973SOL    HW121818   1.318   2.199   2.768
 6973SOL    HW221819   1.198   2.307   2.747
 6974SOL     OW21820   3.337   3.842   2.697
 6974SOL    HW121821   3.356   3.888   2.609
 6974SOL    HW221822   3.336   3.743   2.683
 6975SOL     OW21823   3.113   5.814   4.891
 6975SOL    HW121824   3.184   5.799   4.822
 6975SOL    HW221825   3.064   5.898   4.870
 6976SOL     OW21826   4.983   4.566   5.762
 6976SOL    HW121827   4.985   4.467   5.771
 6976SOL    HW221828   5.073   4.599   5.732
 6977SOL     OW21829   4.268   4.585   1.654
 6977SOL    HW121830   4.351   4.549   1.698
 6977SOL    HW221831   4.189   4.531   1.683
 6978SOL     OW21832   5.475   3.132   1.827
 6978SOL    HW121833   5.472   3.103   1.731
 6978SOL    HW221834   5.514   3.224   1.832
 6979SOL     OW21835   1.265   3.983   1.229
 6979SOL    HW121836   1.302   4.070   1.264
 6979SOL    HW221837   1.271   3.982   1.130
 6980SOL     OW21838   1.126   6.864   3.256
 6980SOL    HW121839   1.122   6.923   3.176
 6980SOL    HW221840   1.034   6.852   3.294
 6981SOL     OW21841   3.572   3.348   6.698
 6981SOL    HW121842   3.501   3.376   6.763
 6981SOL    HW221843   3.534   3.280   6.635
 6982SOL     OW21844   0.798   1.110   4.008
 6982SOL    HW121845   0.816   1.152   4.097
 6982SOL    HW221846   0.874   1.051   3.983
 6983SOL     OW21847   5.087   0.831   4.020
 6983SOL    HW121848   5.143   0.749   4.028
 6983SOL    HW221849   5.005   0.810   3.967
 6984SOL     OW21850   0.733   2.730   3.054
 6984SOL    HW121851   0.831   2.750   3.062
 6984SOL    HW221852   0.684   2.773   3.130
 6985SOL     OW21853   6.556   3.862   6.772
 6985SOL    HW121854   6.585   3.770   6.801
 6985SOL    HW221855   6.566   3.869   6.673
 6986SOL     OW21856   3.844   5.310   5.506
 6986SOL    HW121857   3.832   5.298   5.407
 6986SOL    HW221858   3.940   5.328   5.526
 6987SOL     OW21859   0.478   1.785   6.580
 6987SOL    HW121860   0.410   1.769   6.509
 6987SOL    HW221861   0.448   1.744   6.666
 6988SOL     OW21862   3.190   1.177   6.134
 6988SOL    HW121863   3.213   1.273   6.151
 6988SOL    HW221864   3.130   1.143   6.206
 6989SOL     OW21865   0.223   4.833   2.574
 6989SOL    HW121866   0.222   4.898   2.650
 6989SOL    HW221867   0.292   4.763   2.592
 6990SOL     OW21868   3.615   2.967   1.871
 6990SOL    HW121869   3.579   2.875   1.856
 6990SOL    HW221870   3.624   2.983   1.970
 6991SOL     OW21871   5.854   3.974   2.547
 6991SOL    HW121872   5.906   4.035   2.607
 6991SOL    HW221873   5.760   3.965   2.583
 6992SOL     OW21874   1.148   0.416   6.796
 6992SOL    HW121875   1.172   0.505   6.835
 6992SOL    HW221876   1.183   0.410   6.703
 6993SOL     OW21877   5.574   1.248   1.363
 6993SOL    HW121878   5.480   1.281   1.359
 6993SOL    HW221879   5.636   1.318   1.327
 6994SOL     OW21880   2.023   0.150   4.096
 6994SOL    HW121881   2.051   0.147   4.000
 6994SOL    HW221882   1.973   0.234   4.114
 6995SOL     OW21883   0.316   3.251   0.570
 6995SOL    HW121884   0.238   3.271   0.511
 6995SOL    HW221885   0.326   3.324   0.638
 6996SOL     OW21886   1.316   1.131   0.314
 6996SOL    HW121887   1.299   1.213   0.259
 6996SOL    HW221888   1.310   1.155   0.411
 6997SOL     OW21889   6.785   5.056   4.835
 6997SOL    HW121890   6.719   5.125   4.805
 6997SOL    HW221891   6.769   5.035   4.932
 6998SOL     OW21892   0.444   1.242   1.346
 6998SOL    HW121893   0.445   1.155   1.394
 6998SOL    HW221894   0.388   1.234   1.263
 6999SOL     OW21895   1.039   2.775   6.667
 6999SOL    HW121896   1.046   2.865   6.709
 6999SOL    HW221897   1.041   2.704   6.738
 7000SOL     OW21898   6.687   0.024   2.757
 7000SOL    HW121899   6.682   0.120   2.730
 7000SOL    HW221900   6.756   6.996   2.702
 7001SOL     OW21901   1.128   1.583   4.395
 7001SOL    HW121902   1.087   1.636   4.321
 7001SOL    HW221903   1.193   1.518   4.357
 7002SOL     OW21904   0.837   5.761   3.458
 7002SOL    HW121905   0.751   5.713   3.476
 7002SOL    HW221906   0.862   5.749   3.362
 7003SOL     OW21907   6.051   4.125   1.487
 7003SOL    HW121908   6.118   4.140   1.560
 7003SOL    HW221909   6.007   4.037   1.500
 7004SOL     OW21910   1.934   5.682   0.496
 7004SOL    HW121911   1.971   5.685   0.589
 7004SOL    HW221912   2.002   5.641   0.435
 7005SOL     OW21913   1.590   0.664   0.025
 7005SOL    HW121914   1.565   0.568   0.019
 7005SOL    HW221915   1.533   0.710   0.093
 7006SOL     OW21916   0.354   6.986   4.041
 7006SOL    HW121917   0.386   0.056   4.076
 7006SOL    HW221918   0.356   6.986   3.941
 7007SOL     OW21919   3.734   0.659   5.992
 7007SOL    HW121920   3.676   0.606   6.055
 7007SOL    HW221921   3.763   0.600   5.916
 7008SOL     OW21922   6.597   4.302   3.488
 7008SOL    HW121923   6.596   4.216   3.437
 7008SOL    HW221924   6.528   4.298   3.560
 7009SOL     OW21925   4.306   5.874   1.705
 7009SOL    HW121926   4.212   5.859   1.735
 7009SOL    HW221927   4.363   5.896   1.784
 7010SOL     OW21928   5.078   3.922   1.857
 7010SOL    HW121929   5.110   3.830   1.836
 7010SOL    HW221930   5.141   3.989   1.817
 7011SOL     OW21931   3.871   6.672   0.017
 7011SOL    HW121932   3.777   6.705   0.014
 7011SOL    HW221933   3.914   6.703   0.102
 7012SOL     OW21934   0.830   2.468   0.900
 7012SOL    HW121935   0.833   2.403   0.824
 7012SOL    HW221936   0.826   2.561   0.864
 7013SOL     OW21937   2.784   1.677   6.966
 7013SOL    HW121938   2.834   1.744   6.911
 7013SOL    HW221939   2.725   1.725   0.013
 7014SOL     OW21940   6.462   3.771   1.797
 7014SOL    HW121941   6.458   3.678   1.758
 7014SOL    HW221942   6.377   3.820   1.775
 7015SOL     OW21943   5.126   5.164   1.379
 7015SOL    HW121944   5.173   5.246   1.413
 7015SOL    HW221945   5.134   5.090   1.447
 7016SOL     OW21946   3.372   4.655   0.503
 7016SOL    HW121947   3.286   4.683   0.461
 7016SOL    HW221948   3.361   4.651   0.602
 7017SOL     OW21949   4.393   5.158   4.035
 7017SOL    HW121950   4.399   5.234   3.971
 7017SOL    HW221951   4.485   5.124   4.055
 7018SOL     OW21952   4.808   2.982   4.095
 7018SOL    HW121953   4.856   3.052   4.148
 7018SOL    HW221954   4.767   2.915   4.158
 7019SOL     OW21955   4.753   4.941   1.994
 7019SOL    HW121956   4.818   4.878   1.951
 7019SOL    HW221957   4.677   4.889   2.032
 7020SOL     OW21958   0.603   3.481   6.795
 7020SOL    HW121959   0.593   3.547   6.870
 7020SOL    HW221960   0.682   3.506   6.739
 7021SOL     OW21961   1.253   2.324   4.775
 7021SOL    HW121962   1.298   2.387   4.839
 7021SOL    HW221963   1.233   2.238   4.822
 7022SOL     OW21964   3.937   1.001   0.892
 7022SOL    HW121965   3.895   1.091   0.888
 7022SOL    HW221966   3.868   0.931   0.875
 7023SOL     OW21967   0.674   1.802   1.973
 7023SOL    HW121968   0.602   1.869   1.955
 7023SOL    HW221969   0.697   1.755   1.888
 7024SOL     OW21970   3.876   3.911   3.579
 7024SOL    HW121971   3.957   3.904   3.521
 7024SOL    HW221972   3.856   3.822   3.620
 7025SOL     OW21973   3.200   0.157   0.335
 7025SOL    HW121974   3.102   0.160   0.354
 7025SOL    HW221975   3.241   0.244   0.361
 7026SOL     OW21976   3.151   2.203   1.226
 7026SOL    HW121977   3.085   2.138   1.262
 7026SOL    HW221978   3.135   2.217   1.129
 7027SOL     OW21979   2.137   5.749   1.869
 7027SOL    HW121980   2.156   5.753   1.771
 7027SOL    HW221981   2.169   5.833   1.913
 7028SOL     OW21982   3.122   0.217   3.533
 7028SOL    HW121983   3.102   0.314   3.549
 7028SOL    HW221984   3.189   0.185   3.600
 7029SOL     OW21985   3.368   3.309   5.180
 7029SOL    HW121986   3.419   3.313   5.266
 7029SOL    HW221987   3.287   3.251   5.192
 7030SOL     OW21988   6.687   1.489   4.823
 7030SOL    HW121989   6.677   1.569   4.764
 7030SOL    HW221990   6.601   1.474   4.873
 7031SOL     OW21991   4.541   6.630   0.531
 7031SOL    HW121992   4.465   6.694   0.519
 7031SOL    HW221993   4.508   6.545   0.570
 7032SOL     OW21994   3.543   0.110   4.583
 7032SOL    HW121995   3.472   0.162   4.631
 7032SOL    HW221996   3.502   0.056   4.510
 7033SOL     OW21997   1.701   2.460   5.659
 7033SOL    HW121998   1.656   2.424   5.577
 7033SOL    HW221999   1.659   2.547   5.685
 7034SOL     OW22000   6.415   1.826   3.168
 7034SOL    HW122001   6.435   1.729   3.165
 7034SOL    HW222002   6.470   1.875   3.100
 7035SOL     OW22003   2.267   0.449   1.144
 7035SOL    HW122004   2.251   0.396   1.061
 7035SOL    HW222005   2.233   0.399   1.223
 7036SOL     OW22006   0.102   1.388   2.331
 7036SOL    HW122007   0.178   1.329   2.357
 7036SOL    HW222008   0.130   1.445   2.254
 7037SOL     OW22009   0.642   0.463   6.062
 7037SOL    HW122010   0.632   0.384   6.002
 7037SOL    HW222011   0.698   0.533   6.017
 7038SOL     OW22012   2.185   3.514   6.360
 7038SOL    HW122013   2.156   3.609   6.375
 7038SOL    HW222014   2.130   3.474   6.287
 7039SOL     OW22015   0.534   5.754   3.174
 7039SOL    HW122016   0.447   5.802   3.171
 7039SOL    HW222017   0.533   5.678   3.109
 7040SOL     OW22018   4.171   2.196   5.584
 7040SOL    HW122019   4.208   2.210   5.493
 7040SOL    HW222020   4.102   2.266   5.603
 7041SOL     OW22021   1.433   0.689   4.179
 7041SOL    HW122022   1.415   0.765   4.242
 7041SOL    HW222023   1.510   0.712   4.119
 7042SOL     OW22024   4.321   6.412   4.891
 7042SOL    HW122025   4.312   6.319   4.854
 7042SOL    HW222026   4.396   6.414   4.957
 7043SOL     OW22027   2.545   4.795   3.121
 7043SOL    HW122028   2.507   4.749   3.201
 7043SOL    HW222029   2.472   4.845   3.074
 7044SOL     OW22030   5.324   6.034   4.020
 7044SOL    HW122031   5.394   6.075   4.079
 7044SOL    HW222032   5.278   6.107   3.969
 7045SOL     OW22033   6.378   5.574   2.560
 7045SOL    HW122034   6.392   5.558   2.658
 7045SOL    HW222035   6.345   5.490   2.517
 7046SOL     OW22036   2.866   2.298   4.238
 7046SOL    HW122037   2.824   2.207   4.240
 7046SOL    HW222038   2.847   2.345   4.324
 7047SOL     OW22039   0.428   7.015   0.321
 7047SOL    HW122040   0.476   0.065   0.375
 7047SOL    HW222041   0.488   6.981   0.248
 7048SOL     OW22042   6.876   5.550   4.680
 7048SOL    HW122043   6.787   5.561   4.726
 7048SOL    HW222044   6.940   5.619   4.714
 7049SOL     OW22045   3.724   1.457   2.169
 7049SOL    HW122046   3.749   1.396   2.243
 7049SOL    HW222047   3.776   1.542   2.177
 7050SOL     OW22048   3.934   4.412   0.854
 7050SOL    HW122049   4.026   4.374   0.852
 7050SOL    HW222050   3.885   4.384   0.771
 7051SOL     OW22051   0.378   6.665   1.075
 7051SOL    HW122052   0.362   6.696   1.168
 7051SOL    HW222053   0.451   6.720   1.034
 7052SOL     OW22054   6.166   0.015   2.543
 7052SOL    HW122055   6.130   0.098   2.502
 7052SOL    HW222056   6.209   0.037   2.631
 7053SOL     OW22057   1.644   2.815   3.268
 7053SOL    HW122058   1.691   2.728   3.281
 7053SOL    HW222059   1.606   2.818   3.175
 7054SOL     OW22060   6.531   0.351   0.532
 7054SOL    HW122061   6.446   0.401   0.515
 7054SOL    HW222062   6.607   0.416   0.538
 7055SOL     OW22063   2.420   0.930   6.742
 7055SOL    HW122064   2.433   0.997   6.816
 7055SOL    HW222065   2.328   0.892   6.747
 7056SOL     OW22066   0.135   5.422   1.549
 7056SOL    HW122067   0.063   5.376   1.600
 7056SOL    HW222068   0.112   5.422   1.451
 7057SOL     OW22069   3.330   5.118   4.903
 7057SOL    HW122070   3.424   5.131   4.870
 7057SOL    HW222071   3.332   5.099   5.001
 7058SOL     OW22072   5.207   2.581   6.154
 7058SOL    HW122073   5.156   2.545   6.232
 7058SOL    HW222074   5.285   2.521   6.135
 7059SOL     OW22075   2.175   0.867   4.527
 7059SOL    HW122076   2.233   0.924   4.470
 7059SOL    HW222077   2.156   0.915   4.613
 7060SOL     OW22078   3.068   0.022   2.216
 7060SOL    HW122079   3.086   0.120   2.226
 7060SOL    HW222080   3.110   7.008   2.131
 7061SOL     OW22081   0.609   2.039   2.952
 7061SOL    HW122082   0.656   2.126   2.936
 7061SOL    HW222083   0.657   1.989   3.024
 7062SOL     OW22084   4.377   1.829   3.245
 7062SOL    HW122085   4.472   1.817   3.218
 7062SOL    HW222086   4.318   1.821   3.165
 7063SOL     OW22087   0.601   0.686   1.808
 7063SOL    HW122088   0.593   0.637   1.895
 7063SOL    HW222089   0.510   0.709   1.775
 7064SOL     OW22090   4.931   2.087   5.396
 7064SOL    HW122091   4.884   2.018   5.341
 7064SOL    HW222092   4.895   2.086   5.489
 7065SOL     OW22093   3.619   4.165   5.444
 7065SOL    HW122094   3.537   4.222   5.455
 7065SOL    HW222095   3.626   4.133   5.350
 7066SOL     OW22096   3.965   0.678   0.133
 7066SOL    HW122097   3.924   0.712   0.049
 7066SOL    HW222098   3.940   0.738   0.209
 7067SOL     OW22099   2.125   3.088   6.988
 7067SOL    HW122100   2.155   2.995   6.967
 7067SOL    HW222101   2.032   3.086   0.006
 7068SOL     OW22102   4.957   4.324   4.290
 7068SOL    HW122103   4.941   4.328   4.389
 7068SOL    HW222104   5.008   4.241   4.268
 7069SOL     OW22105   5.967   0.222   6.376
 7069SOL    HW122106   5.877   0.196   6.340
 7069SOL    HW222107   5.962   0.310   6.422
 7070SOL     OW22108   0.561   6.614   4.903
 7070SOL    HW122109   0.646   6.570   4.873
 7070SOL    HW222110   0.561   6.621   5.003
 7071SOL     OW22111   4.945   6.350   6.956
 7071SOL    HW122112   4.946   6.250   6.964
 7071SOL    HW222113   5.033   6.381   6.921
 7072SOL     OW22114   0.526   3.859   6.517
 7072SOL    HW122115   0.449   3.813   6.562
 7072SOL    HW222116   0.504   3.876   6.421
 7073SOL     OW22117   5.319   1.086   2.990
 7073SOL    HW122118   5.298   1.184   2.989
 7073SOL    HW222119   5.412   1.072   3.025
 7074SOL     OW22120   5.881   4.212   3.035
 7074SOL    HW122121   5.873   4.115   3.057
 7074SOL    HW222122   5.792   4.256   3.046
 7075SOL     OW22123   3.383   5.265   4.364
 7075SOL    HW122124   3.296   5.247   4.317
 7075SOL    HW222125   3.444   5.187   4.353
 7076SOL     OW22126   5.946   3.475   3.049
 7076SOL    HW122127   5.877   3.468   2.977
 7076SOL    HW222128   5.971   3.571   3.062
 7077SOL     OW22129   2.846   5.027   1.332
 7077SOL    HW122130   2.831   5.038   1.430
 7077SOL    HW222131   2.803   5.102   1.282
 7078SOL     OW22132   5.050   6.951   0.458
 7078SOL    HW122133   4.959   6.912   0.444
 7078SOL    HW222134   5.119   6.878   0.454
 7079SOL     OW22135   1.132   7.009   4.222
 7079SOL    HW122136   1.108   7.009   4.125
 7079SOL    HW222137   1.057   6.972   4.275
 7080SOL     OW22138   3.723   1.669   5.380
 7080SOL    HW122139   3.786   1.718   5.320
 7080SOL    HW222140   3.632   1.709   5.372
 7081SOL     OW22141   1.559   1.136   6.610
 7081SOL    HW122142   1.659   1.148   6.612
 7081SOL    HW222143   1.516   1.217   6.649
 7082SOL     OW22144   6.732   4.216   2.650
 7082SOL    HW122145   6.645   4.199   2.602
 7082SOL    HW222146   6.793   4.138   2.637
 7083SOL     OW22147   6.818   3.435   2.291
 7083SOL    HW122148   6.862   3.495   2.357
 7083SOL    HW222149   6.807   3.483   2.204
 7084SOL     OW22150   0.878   5.978   0.223
 7084SOL    HW122151   0.786   5.938   0.221
 7084SOL    HW222152   0.885   6.041   0.301
 7085SOL     OW22153   0.432   3.184   2.579
 7085SOL    HW122154   0.426   3.279   2.610
 7085SOL    HW222155   0.467   3.127   2.653
 7086SOL     OW22156   5.597   0.801   5.166
 7086SOL    HW122157   5.636   0.846   5.086
 7086SOL    HW222158   5.669   0.755   5.217
 7087SOL     OW22159   5.654   3.350   3.254
 7087SOL    HW122160   5.646   3.428   3.315
 7087SOL    HW222161   5.690   3.381   3.165
 7088SOL     OW22162   5.736   1.651   4.881
 7088SOL    HW122163   5.707   1.566   4.924
 7088SOL    HW222164   5.656   1.707   4.859
 7089SOL     OW22165   3.520   5.361   1.957
 7089SOL    HW122166   3.451   5.288   1.954
 7089SOL    HW222167   3.474   5.450   1.956
 7090SOL     OW22168   3.818   2.112   1.080
 7090SOL    HW122169   3.824   2.041   1.151
 7090SOL    HW222170   3.886   2.182   1.098
 7091SOL     OW22171   0.350   6.703   6.435
 7091SOL    HW122172   0.398   6.616   6.438
 7091SOL    HW222173   0.362   6.751   6.522
 7092SOL     OW22174   4.686   2.285   6.771
 7092SOL    HW122175   4.642   2.364   6.730
 7092SOL    HW222176   4.622   2.240   6.834
 7093SOL     OW22177   3.219   4.256   0.802
 7093SOL    HW122178   3.142   4.250   0.739
 7093SOL    HW222179   3.254   4.349   0.803
 7094SOL     OW22180   2.200   6.815   5.661
 7094SOL    HW122181   2.100   6.824   5.663
 7094SOL    HW222182   2.241   6.899   5.626
 7095SOL     OW22183   2.766   4.186   5.545
 7095SOL    HW122184   2.728   4.239   5.469
 7095SOL    HW222185   2.714   4.206   5.629
 7096SOL     OW22186   0.232   0.590   0.835
 7096SOL    HW122187   0.145   0.620   0.795
 7096SOL    HW222188   0.293   0.668   0.844
 7097SOL     OW22189   5.053   0.793   1.619
 7097SOL    HW122190   4.999   0.805   1.702
 7097SOL    HW222191   5.048   0.876   1.564
 7098SOL     OW22192   0.752   6.827   4.695
 7098SOL    HW122193   0.704   6.912   4.716
 7098SOL    HW222194   0.815   6.805   4.769
 7099SOL     OW22195   2.621   2.311   3.698
 7099SOL    HW122196   2.647   2.386   3.760
 7099SOL    HW222197   2.602   2.229   3.752
 7100SOL     OW22198   6.441   3.612   0.812
 7100SOL    HW122199   6.516   3.678   0.804
 7100SOL    HW222200   6.367   3.653   0.865
 7101SOL     OW22201   2.287   6.311   5.299
 7101SOL    HW122202   2.286   6.216   5.266
 7101SOL    HW222203   2.347   6.317   5.379
 7102SOL     OW22204   5.416   1.026   1.310
 7102SOL    HW122205   5.498   1.080   1.325
 7102SOL    HW222206   5.425   0.937   1.355
 7103SOL     OW22207   4.572   4.409   3.013
 7103SOL    HW122208   4.564   4.431   2.915
 7103SOL    HW222209   4.487   4.435   3.059
 7104SOL     OW22210   4.881   3.605   3.294
 7104SOL    HW122211   4.849   3.634   3.204
 7104SOL    HW222212   4.863   3.678   3.360
 7105SOL     OW22213   2.878   3.642   3.787
 7105SOL    HW122214   2.901   3.558   3.836
 7105SOL    HW222215   2.781   3.661   3.799
 7106SOL     OW22216   2.941   3.183   1.159
 7106SOL    HW122217   2.848   3.153   1.181
 7106SOL    HW222218   2.975   3.242   1.231
 7107SOL     OW22219   4.184   0.649   6.851
 7107SOL    HW122220   4.171   0.599   6.936
 7107SOL    HW222221   4.258   0.716   6.863
 7108SOL     OW22222   3.302   6.949   2.595
 7108SOL    HW122223   3.330   7.011   2.668
 7108SOL    HW222224   3.363   6.870   2.593
 7109SOL     OW22225   1.914   0.038   5.751
 7109SOL    HW122226   1.864   0.009   5.832
 7109SOL    HW222227   1.973   0.115   5.774
 7110SOL     OW22228   3.508   5.916   4.818
 7110SOL    HW122229   3.429   5.915   4.880
 7110SOL    HW222230   3.524   5.823   4.785
 7111SOL     OW22231   0.130   0.502   3.925
 7111SOL    HW122232   0.209   0.504   3.987
 7111SOL    HW222233   0.084   0.590   3.927
 7112SOL     OW22234   1.781   5.002   4.542
 7112SOL    HW122235   1.729   4.921   4.516
 7112SOL    HW222236   1.740   5.044   4.622
 7113SOL     OW22237   3.256   4.984   5.378
 7113SOL    HW122238   3.173   4.942   5.341
 7113SOL    HW222239   3.273   5.071   5.332
 7114SOL     OW22240   4.869   5.061   0.248
 7114SOL    HW122241   4.934   5.048   0.173
 7114SOL    HW222242   4.844   5.157   0.254
 7115SOL     OW22243   6.378   4.392   0.252
 7115SOL    HW122244   6.295   4.443   0.272
 7115SOL    HW222245   6.434   4.385   0.334
 7116SOL     OW22246   6.778   3.381   4.514
 7116SOL    HW122247   6.734   3.457   4.562
 7116SOL    HW222248   6.774   3.398   4.415
 7117SOL     OW22249   6.395   0.095   3.207
 7117SOL    HW122250   6.409   0.042   3.124
 7117SOL    HW222251   6.328   0.049   3.265
 7118SOL     OW22252   4.060   4.629   5.544
 7118SOL    HW122253   3.997   4.585   5.480
 7118SOL    HW222254   4.064   4.727   5.525
 7119SOL     OW22255   4.200   0.264   4.536
 7119SOL    HW122256   4.228   0.357   4.559
 7119SOL    HW222257   4.122   0.238   4.592
 7120SOL     OW22258   5.139   1.300   1.164
 7120SOL    HW122259   5.217   1.344   1.210
 7120SOL    HW222260   5.071   1.369   1.141
 7121SOL     OW22261   1.012   6.368   3.077
 7121SOL    HW122262   0.961   6.452   3.057
 7121SOL    HW222263   1.015   6.354   3.175
 7122SOL     OW22264   2.708   0.642   6.265
 7122SOL    HW122265   2.739   0.631   6.171
 7122SOL    HW222266   2.784   0.624   6.328
 7123SOL     OW22267   5.312   5.282   6.102
 7123SOL    HW122268   5.318   5.312   6.197
 7123SOL    HW222269   5.374   5.205   6.088
 7124SOL     OW22270   1.080   2.131   1.537
 7124SOL    HW122271   1.008   2.133   1.607
 7124SOL    HW222272   1.069   2.210   1.477
 7125SOL     OW22273   1.247   0.067   1.276
 7125SOL    HW122274   1.338   0.108   1.267
 7125SOL    HW222275   1.251   7.008   1.339
 7126SOL     OW22276   4.081   5.991   1.335
 7126SOL    HW122277   4.009   5.923   1.319
 7126SOL    HW222278   4.097   6.042   1.251
 7127SOL     OW22279   2.941   6.270   5.421
 7127SOL    HW122280   2.869   6.294   5.487
 7127SOL    HW222281   3.028   6.309   5.450
 7128SOL     OW22282   3.942   4.233   6.449
 7128SOL    HW122283   3.909   4.150   6.494
 7128SOL    HW222284   3.892   4.247   6.364
 7129SOL     OW22285   0.333   0.302   1.068
 7129SOL    HW122286   0.258   0.350   1.113
 7129SOL    HW222287   0.397   0.369   1.029
 7130SOL     OW22288   3.600   6.410   4.404
 7130SOL    HW122289   3.606   6.313   4.381
 7130SOL    HW222290   3.530   6.454   4.347
 7131SOL     OW22291   4.139   0.794   2.537
 7131SOL    HW122292   4.213   0.774   2.601
 7131SOL    HW222293   4.169   0.866   2.474
 7132SOL     OW22294   5.456   3.813   0.520
 7132SOL    HW122295   5.390   3.784   0.589
 7132SOL    HW222296   5.549   3.788   0.550
 7133SOL     OW22297   3.433   5.784   3.569
 7133SOL    HW122298   3.500   5.823   3.505
 7133SOL    HW222299   3.471   5.701   3.611
 7134SOL     OW22300   5.693   5.287   1.431
 7134SOL    HW122301   5.604   5.250   1.403
 7134SOL    HW222302   5.745   5.218   1.480
 7135SOL     OW22303   2.190   3.072   1.661
 7135SOL    HW122304   2.127   3.134   1.614
 7135SOL    HW222305   2.219   2.999   1.598
 7136SOL     OW22306   2.567   1.548   1.818
 7136SOL    HW122307   2.477   1.505   1.819
 7136SOL    HW222308   2.621   1.509   1.743
 7137SOL     OW22309   2.623   2.151   1.384
 7137SOL    HW122310   2.701   2.175   1.326
 7137SOL    HW222311   2.543   2.133   1.326
 7138SOL     OW22312   1.418   2.574   0.609
 7138SOL    HW122313   1.405   2.508   0.683
 7138SOL    HW222314   1.346   2.644   0.614
 7139SOL     OW22315   6.076   5.897   1.200
 7139SOL    HW122316   6.125   5.881   1.286
 7139SOL    HW222317   6.010   5.824   1.186
 7140SOL     OW22318   6.728   3.082   0.831
 7140SOL    HW122319   6.667   3.148   0.788
 7140SOL    HW222320   6.675   3.006   0.869
 7141SOL     OW22321   3.878   0.080   1.278
 7141SOL    HW122322   3.861   0.098   1.375
 7141SOL    HW222323   3.807   0.122   1.223
 7142SOL     OW22324   3.002   0.437   4.834
 7142SOL    HW122325   3.022   0.362   4.897
 7142SOL    HW222326   3.008   0.524   4.883
 7143SOL     OW22327   2.440   4.555   6.956
 7143SOL    HW122328   2.465   4.485   6.888
 7143SOL    HW222329   2.471   4.525   0.028
 7144SOL     OW22330   6.546   0.338   5.320
 7144SOL    HW122331   6.547   0.385   5.408
 7144SOL    HW222332   6.462   0.360   5.271
 7145SOL     OW22333   4.798   2.364   6.319
 7145SOL    HW122334   4.851   2.282   6.336
 7145SOL    HW222335   4.750   2.391   6.402
 7146SOL     OW22336   1.732   1.296   5.210
 7146SOL    HW122337   1.664   1.330   5.144
 7146SOL    HW222338   1.704   1.322   5.302
 7147SOL     OW22339   5.582   5.600   1.619
 7147SOL    HW122340   5.587   5.675   1.686
 7147SOL    HW222341   5.675   5.578   1.588
 7148SOL     OW22342   0.113   6.364   1.114
 7148SOL    HW122343   0.080   6.308   1.037
 7148SOL    HW222344   0.055   6.445   1.123
 7149SOL     OW22345   6.458   5.200   4.563
 7149SOL    HW122346   6.516   5.134   4.516
 7149SOL    HW222347   6.470   5.291   4.522
 7150SOL     OW22348   4.274   3.556   0.043
 7150SOL    HW122349   4.262   3.546   0.142
 7150SOL    HW222350   4.254   3.650   0.016
 7151SOL     OW22351   3.900   0.649   0.974
 7151SOL    HW122352   3.902   0.654   1.074
 7151SOL    HW222353   3.810   0.679   0.941
 7152SOL     OW22354   6.866   1.598   6.466
 7152SOL    HW122355   6.847   1.508   6.505
 7152SOL    HW222356   6.782   1.637   6.429
 7153SOL     OW22357   3.839   6.327   1.203
 7153SOL    HW122358   3.906   6.374   1.261
 7153SOL    HW222359   3.747   6.349   1.235
 7154SOL     OW22360   4.081   1.625   1.704
 7154SOL    HW122361   4.075   1.715   1.661
 7154SOL    HW222362   3.990   1.594   1.730
 7155SOL     OW22363   2.561   1.104   2.445
 7155SOL    HW122364   2.566   1.204   2.442
 7155SOL    HW222365   2.524   1.075   2.533
 7156SOL     OW22366   6.028   4.227   0.149
 7156SOL    HW122367   5.948   4.229   0.210
 7156SOL    HW222368   6.084   4.146   0.170
 7157SOL     OW22369   5.942   4.876   6.582
 7157SOL    HW122370   5.868   4.941   6.598
 7157SOL    HW222371   5.951   4.815   6.660
 7158SOL     OW22372   4.921   6.775   3.821
 7158SOL    HW122373   4.975   6.837   3.763
 7158SOL    HW222374   4.932   6.802   3.917
 7159SOL     OW22375   0.841   6.024   3.538
 7159SOL    HW122376   0.763   6.056   3.593
 7159SOL    HW222377   0.837   5.925   3.528
 7160SOL     OW22378   6.423   6.802   3.112
 7160SOL    HW122379   6.386   6.721   3.068
 7160SOL    HW222380   6.408   6.797   3.211
 7161SOL     OW22381   4.157   3.396   3.647
 7161SOL    HW122382   4.248   3.393   3.605
 7161SOL    HW222383   4.094   3.340   3.594
 7162SOL     OW22384   0.159   5.378   2.132
 7162SOL    HW122385   0.068   5.381   2.174
 7162SOL    HW222386   0.152   5.337   2.041
 7163SOL     OW22387   0.991   1.464   2.580
 7163SOL    HW122388   1.075   1.504   2.618
 7163SOL    HW222389   1.004   1.446   2.483
 7164SOL     OW22390   1.828   1.117   6.620
 7164SOL    HW122391   1.896   1.185   6.592
 7164SOL    HW222392   1.811   1.125   6.718
 7165SOL     OW22393   5.647   1.086   0.413
 7165SOL    HW122394   5.608   0.995   0.397
 7165SOL    HW222395   5.573   1.150   0.435
 7166SOL     OW22396   5.984   6.222   5.977
 7166SOL    HW122397   5.980   6.317   5.946
 7166SOL    HW222398   5.994   6.219   6.076
 7167SOL     OW22399   5.744   2.222   4.850
 7167SOL    HW122400   5.689   2.242   4.931
 7167SOL    HW222401   5.745   2.303   4.791
 7168SOL     OW22402   2.896   0.709   2.204
 7168SOL    HW122403   2.869   0.746   2.115
 7168SOL    HW222404   2.828   0.736   2.273
 7169SOL     OW22405   1.552   4.609   6.441
 7169SOL    HW122406   1.582   4.566   6.526
 7169SOL    HW222407   1.452   4.603   6.434
 7170SOL     OW22408   3.820   1.390   1.608
 7170SOL    HW122409   3.861   1.458   1.547
 7170SOL    HW222410   3.812   1.303   1.559
 7171SOL     OW22411   6.822   4.594   0.556
 7171SOL    HW122412   6.760   4.535   0.606
 7171SOL    HW222413   6.786   4.612   0.465
 7172SOL     OW22414   1.227   1.106   4.011
 7172SOL    HW122415   1.174   1.190   3.996
 7172SOL    HW222416   1.170   1.027   3.989
 7173SOL     OW22417   4.956   6.102   6.201
 7173SOL    HW122418   4.927   6.158   6.123
 7173SOL    HW222419   5.021   6.154   6.257
 7174SOL     OW22420   6.059   4.776   1.845
 7174SOL    HW122421   5.975   4.788   1.792
 7174SOL    HW222422   6.109   4.697   1.809
 7175SOL     OW22423   5.471   3.894   5.899
 7175SOL    HW122424   5.550   3.894   5.837
 7175SOL    HW222425   5.473   3.812   5.956
 7176SOL     OW22426   0.602   0.644   5.422
 7176SOL    HW122427   0.698   0.669   5.412
 7176SOL    HW222428   0.591   0.583   5.501
 7177SOL     OW22429   1.585   4.901   3.978
 7177SOL    HW122430   1.602   4.921   3.882
 7177SOL    HW222431   1.501   4.848   3.987
 7178SOL     OW22432   1.443   0.981   5.422
 7178SOL    HW122433   1.480   1.028   5.503
 7178SOL    HW222434   1.487   1.017   5.340
 7179SOL     OW22435   3.444   5.972   6.442
 7179SOL    HW122436   3.505   5.900   6.475
 7179SOL    HW222437   3.497   6.040   6.391
 7180SOL     OW22438   1.298   4.178   0.665
 7180SOL    HW122439   1.395   4.190   0.640
 7180SOL    HW222440   1.280   4.226   0.750
 7181SOL     OW22441   2.188   1.399   6.061
 7181SOL    HW122442   2.170   1.307   6.097
 7181SOL    HW222443   2.133   1.465   6.112
 7182SOL     OW22444   1.320   2.766   4.209
 7182SOL    HW122445   1.384   2.842   4.202
 7182SOL    HW222446   1.369   2.680   4.196
 7183SOL     OW22447   0.393   6.348   2.011
 7183SOL    HW122448   0.398   6.411   1.934
 7183SOL    HW222449   0.485   6.330   2.047
 7184SOL     OW22450   6.387   0.193   3.574
 7184SOL    HW122451   6.293   0.161   3.571
 7184SOL    HW222452   6.404   0.256   3.499
 7185SOL     OW22453   4.899   1.086   4.507
 7185SOL    HW122454   4.827   1.147   4.541
 7185SOL    HW222455   4.950   1.048   4.585
 7186SOL     OW22456   0.363   6.806   6.695
 7186SOL    HW122457   0.280   6.859   6.715
 7186SOL    HW222458   0.380   6.742   6.770
 7187SOL     OW22459   3.355   2.902   4.085
 7187SOL    HW122460   3.287   2.938   4.149
 7187SOL    HW222461   3.331   2.929   3.991
 7188SOL     OW22462   4.057   4.511   6.936
 7188SOL    HW122463   4.118   4.552   6.868
 7188SOL    HW222464   3.963   4.515   6.902
 7189SOL     OW22465   6.460   2.741   5.928
 7189SOL    HW122466   6.456   2.649   5.966
 7189SOL    HW222467   6.457   2.808   6.003
 7190SOL     OW22468   5.748   5.553   1.096
 7190SOL    HW122469   5.754   5.461   1.056
 7190SOL    HW222470   5.652   5.575   1.113
 7191SOL     OW22471   0.288   4.298   3.606
 7191SOL    HW122472   0.195   4.273   3.580
 7191SOL    HW222473   0.345   4.215   3.610
 7192SOL     OW22474   1.496   4.632   6.790
 7192SOL    HW122475   1.567   4.561   6.794
 7192SOL    HW222476   1.533   4.719   6.822
 7193SOL     OW22477   2.220   2.675   2.539
 7193SOL    HW122478   2.200   2.748   2.605
 7193SOL    HW222479   2.311   2.639   2.556
 7194SOL     OW22480   2.728   2.489   5.985
 7194SOL    HW122481   2.823   2.506   6.009
 7194SOL    HW222482   2.701   2.397   6.013
 7195SOL     OW22483   6.927   3.823   5.864
 7195SOL    HW122484   6.959   3.775   5.783
 7195SOL    HW222485   6.835   3.790   5.888
 7196SOL     OW22486   3.340   3.660   2.073
 7196SOL    HW122487   3.309   3.726   2.005
 7196SOL    HW222488   3.314   3.690   2.164
 7197SOL     OW22489   2.479   3.651   5.749
 7197SOL    HW122490   2.434   3.740   5.757
 7197SOL    HW222491   2.547   3.655   5.675
 7198SOL     OW22492   7.001   0.489   1.357
 7198SOL    HW122493   0.060   0.547   1.382
 7198SOL    HW222494   6.918   0.524   1.402
 7199SOL     OW22495   1.012   1.085   2.427
 7199SOL    HW122496   0.950   1.032   2.370
 7199SOL    HW222497   1.097   1.103   2.377
 7200SOL     OW22498   1.054   2.538   0.607
 7200SOL    HW122499   1.085   2.461   0.662
 7200SOL    HW222500   1.080   2.624   0.653
 7201SOL     OW22501   5.907   5.576   4.010
 7201SOL    HW122502   5.877   5.481   4.001
 7201SOL    HW222503   5.841   5.628   4.064
 7202SOL     OW22504   4.973   0.414   5.764
 7202SOL    HW122505   4.946   0.507   5.789
 7202SOL    HW222506   4.973   0.405   5.664
 7203SOL     OW22507   0.590   1.702   2.211
 7203SOL    HW122508   0.626   1.747   2.130
 7203SOL    HW222509   0.615   1.754   2.292
 7204SOL     OW22510   6.756   0.187   1.387
 7204SOL    HW122511   6.795   0.259   1.331
 7204SOL    HW222512   6.662   0.210   1.412
 7205SOL     OW22513   2.330   2.095   4.787
 7205SOL    HW122514   2.296   2.160   4.720
 7205SOL    HW222515   2.364   2.145   4.867
 7206SOL     OW22516   1.772   2.575   1.038
 7206SOL    HW122517   1.674   2.558   1.040
 7206SOL    HW222518   1.790   2.671   1.062
 7207SOL     OW22519   1.702   1.766   3.960
 7207SOL    HW122520   1.780   1.774   3.899
 7207SOL    HW222521   1.667   1.673   3.958
 7208SOL     OW22522   2.793   0.357   4.172
 7208SOL    HW122523   2.740   0.284   4.214
 7208SOL    HW222524   2.774   0.443   4.218
 7209SOL     OW22525   2.856   1.491   2.244
 7209SOL    HW122526   2.948   1.480   2.207
 7209SOL    HW222527   2.791   1.506   2.168
 7210SOL     OW22528   2.750   1.315   3.131
 7210SOL    HW122529   2.711   1.299   3.040
 7210SOL    HW222530   2.800   1.233   3.160
 7211SOL     OW22531   3.152   5.746   5.193
 7211SOL    HW122532   3.249   5.722   5.199
 7211SOL    HW222533   3.130   5.778   5.101
 7212SOL     OW22534   6.022   4.598   6.168
 7212SOL    HW122535   5.950   4.529   6.175
 7212SOL    HW222536   6.096   4.562   6.110
 7213SOL     OW22537   3.778   1.220   0.886
 7213SOL    HW122538   3.755   1.262   0.974
 7213SOL    HW222539   3.776   1.290   0.814
 7214SOL     OW22540   6.981   1.344   6.608
 7214SOL    HW122541   0.021   1.267   6.633
 7214SOL    HW222542   6.955   1.394   6.690
 7215SOL     OW22543   6.640   2.828   2.593
 7215SOL    HW122544   6.556   2.850   2.543
 7215SOL    HW222545   6.618   2.770   2.671
 7216SOL     OW22546   3.178   6.049   2.727
 7216SOL    HW122547   3.109   6.003   2.672
 7216SOL    HW222548   3.182   6.007   2.818
 7217SOL     OW22549   1.192   4.252   3.662
 7217SOL    HW122550   1.114   4.275   3.604
 7217SOL    HW222551   1.219   4.157   3.645
 7218SOL     OW22552   6.182   3.809   4.384
 7218SOL    HW122553   6.220   3.893   4.423
 7218SOL    HW222554   6.091   3.827   4.347
 7219SOL     OW22555   3.818   6.185   1.921
 7219SOL    HW122556   3.864   6.181   2.009
 7219SOL    HW222557   3.884   6.167   1.848
 7220SOL     OW22558   6.339   4.868   4.586
 7220SOL    HW122559   6.395   4.939   4.628
 7220SOL    HW222560   6.263   4.909   4.537
 7221SOL     OW22561   3.424   5.764   5.206
 7221SOL    HW122562   3.444   5.862   5.195
 7221SOL    HW222563   3.473   5.729   5.285
 7222SOL     OW22564   6.833   6.931   4.040
 7222SOL    HW122565   6.928   6.902   4.048
 7222SOL    HW222566   6.775   6.850   4.025
 7223SOL     OW22567   1.225   2.405   0.858
 7223SOL    HW122568   1.178   2.449   0.934
 7223SOL    HW222569   1.179   2.320   0.833
 7224SOL     OW22570   4.086   2.237   3.446
 7224SOL    HW122571   4.054   2.271   3.357
 7224SOL    HW222572   4.023   2.166   3.479
 7225SOL     OW22573   1.499   7.012   1.054
 7225SOL    HW122574   1.508   0.057   1.131
 7225SOL    HW222575   1.419   0.018   0.999
 7226SOL     OW22576   6.011   6.882   0.207
 7226SOL    HW122577   6.073   6.936   0.150
 7226SOL    HW222578   5.955   6.823   0.149
 7227SOL     OW22579   3.141   0.969   2.060
 7227SOL    HW122580   3.224   1.026   2.066
 7227SOL    HW222581   3.093   0.971   2.147
 7228SOL     OW22582   0.819   3.222   2.374
 7228SOL    HW122583   0.825   3.250   2.470
 7228SOL    HW222584   0.796   3.125   2.369
 7229SOL     OW22585   6.825   0.380   4.837
 7229SOL    HW122586   6.757   0.420   4.898
 7229SOL    HW222587   6.797   0.392   4.742
 7230SOL     OW22588   1.904   5.013   4.292
 7230SOL    HW122589   1.875   5.026   4.387
 7230SOL    HW222590   2.001   4.987   4.290
 7231SOL     OW22591   4.654   1.815   6.436
 7231SOL    HW122592   4.711   1.762   6.498
 7231SOL    HW222593   4.568   1.766   6.419
 7232SOL     OW22594   5.996   6.765   2.952
 7232SOL    HW122595   5.907   6.756   2.907
 7232SOL    HW222596   6.069   6.765   2.884
 7233SOL     OW22597   6.235   1.187   5.289
 7233SOL    HW122598   6.186   1.109   5.330
 7233SOL    HW222599   6.322   1.155   5.251
 7234SOL     OW22600   5.111   3.954   2.490
 7234SOL    HW122601   5.086   4.040   2.535
 7234SOL    HW222602   5.073   3.877   2.541
 7235SOL     OW22603   6.919   5.949   1.496
 7235SOL    HW122604   6.904   5.867   1.441
 7235SOL    HW222605   6.890   6.029   1.444
 7236SOL     OW22606   2.549   2.266   3.194
 7236SOL    HW122607   2.614   2.232   3.262
 7236SOL    HW222608   2.597   2.283   3.108
 7237SOL     OW22609   5.105   0.444   6.996
 7237SOL    HW122610   5.175   0.464   6.928
 7237SOL    HW222611   5.143   0.456   0.069
 7238SOL     OW22612   4.572   3.583   0.228
 7238SOL    HW122613   4.615   3.596   0.138
 7238SOL    HW222614   4.508   3.658   0.246
 7239SOL     OW22615   0.648   3.479   2.331
 7239SOL    HW122616   0.613   3.393   2.367
 7239SOL    HW222617   0.648   3.476   2.231
 7240SOL     OW22618   6.571   1.702   5.864
 7240SOL    HW122619   6.480   1.726   5.829
 7240SOL    HW222620   6.636   1.698   5.787
 7241SOL     OW22621   2.718   1.413   1.656
 7241SOL    HW122622   2.786   1.410   1.728
 7241SOL    HW222623   2.706   1.321   1.617
 7242SOL     OW22624   0.334   5.272   4.053
 7242SOL    HW122625   0.299   5.334   3.983
 7242SOL    HW222626   0.357   5.184   4.011
 7243SOL     OW22627   6.094   3.978   6.082
 7243SOL    HW122628   6.055   4.055   6.132
 7243SOL    HW222629   6.190   3.998   6.060
 7244SOL     OW22630   0.530   6.393   6.858
 7244SOL    HW122631   0.556   6.320   6.795
 7244SOL    HW222632   0.432   6.387   6.877
 7245SOL     OW22633   1.822   2.246   6.650
 7245SOL    HW122634   1.823   2.333   6.600
 7245SOL    HW222635   1.802   2.172   6.586
 7246SOL     OW22636   2.692   0.424   3.723
 7246SOL    HW122637   2.786   0.458   3.710
 7246SOL    HW222638   2.695   0.335   3.768
 7247SOL     OW22639   2.696   2.429   5.582
 7247SOL    HW122640   2.719   2.496   5.511
 7247SOL    HW222641   2.640   2.473   5.652
 7248SOL     OW22642   3.438   0.770   4.289
 7248SOL    HW122643   3.340   0.769   4.310
 7248SOL    HW222644   3.456   0.708   4.213
 7249SOL     OW22645   3.958   5.106   1.874
 7249SOL    HW122646   3.867   5.111   1.916
 7249SOL    HW222647   3.994   5.013   1.883
 7250SOL     OW22648   5.099   5.970   5.495
 7250SOL    HW122649   5.145   5.882   5.488
 7250SOL    HW222650   5.052   5.977   5.583
 7251SOL     OW22651   0.626   6.079   5.198
 7251SOL    HW122652   0.658   6.135   5.122
 7251SOL    HW222653   0.585   5.995   5.163
 7252SOL     OW22654   3.025   3.853   2.392
 7252SOL    HW122655   3.023   3.901   2.479
 7252SOL    HW222656   2.968   3.771   2.398
 7253SOL     OW22657   1.134   5.687   5.410
 7253SOL    HW122658   1.209   5.660   5.350
 7253SOL    HW222659   1.120   5.618   5.480
 7254SOL     OW22660   5.354   4.462   4.247
 7254SOL    HW122661   5.275   4.522   4.234
 7254SOL    HW222662   5.370   4.449   4.345
 7255SOL     OW22663   5.132   2.744   6.413
 7255SOL    HW122664   5.217   2.696   6.392
 7255SOL    HW222665   5.125   2.825   6.355
 7256SOL     OW22666   3.684   6.781   6.215
 7256SOL    HW122667   3.664   6.689   6.181
 7256SOL    HW222668   3.714   6.776   6.310
 7257SOL     OW22669   0.584   1.466   4.673
 7257SOL    HW122670   0.606   1.563   4.662
 7257SOL    HW222671   0.504   1.457   4.732
 7258SOL     OW22672   6.089   2.172   2.543
 7258SOL    HW122673   6.178   2.218   2.546
 7258SOL    HW222674   6.054   2.161   2.636
 7259SOL     OW22675   0.913   3.580   3.132
 7259SOL    HW122676   0.912   3.660   3.192
 7259SOL    HW222677   0.829   3.528   3.145
 7260SOL     OW22678   5.391   2.635   0.475
 7260SOL    HW122679   5.390   2.574   0.396
 7260SOL    HW222680   5.336   2.595   0.549
 7261SOL     OW22681   0.531   3.998   0.329
 7261SOL    HW122682   0.548   3.903   0.299
 7261SOL    HW222683   0.496   3.997   0.422
 7262SOL     OW22684   5.360   1.951   5.766
 7262SOL    HW122685   5.379   2.023   5.700
 7262SOL    HW222686   5.261   1.942   5.777
 7263SOL     OW22687   0.214   6.208   0.578
 7263SOL    HW122688   0.122   6.248   0.584
 7263SOL    HW222689   0.235   6.188   0.483
 7264SOL     OW22690   5.719   1.295   0.240
 7264SOL    HW122691   5.691   1.219   0.299
 7264SOL    HW222692   5.686   1.381   0.278
 7265SOL     OW22693   4.595   5.922   4.780
 7265SOL    HW122694   4.551   5.865   4.711
 7265SOL    HW222695   4.576   6.019   4.761
 7266SOL     OW22696   6.986   0.757   3.954
 7266SOL    HW122697   0.007   0.840   3.993
 7266SOL    HW222698   6.891   0.747   3.986
 7267SOL     OW22699   6.482   5.969   5.131
 7267SOL    HW122700   6.395   5.966   5.178
 7267SOL    HW222701   6.468   6.001   5.037
 7268SOL     OW22702   6.114   5.975   4.678
 7268SOL    HW122703   6.024   6.010   4.703
 7268SOL    HW222704   6.177   6.052   4.666
 7269SOL     OW22705   2.099   5.275   5.804
 7269SOL    HW122706   2.103   5.180   5.774
 7269SOL    HW222707   2.089   5.279   5.903
 7270SOL     OW22708   0.531   1.427   4.410
 7270SOL    HW122709   0.532   1.338   4.364
 7270SOL    HW222710   0.528   1.413   4.509
 7271SOL     OW22711   0.629   4.968   4.323
 7271SOL    HW122712   0.607   4.964   4.226
 7271SOL    HW222713   0.546   4.986   4.376
 7272SOL     OW22714   6.097   6.012   2.277
 7272SOL    HW122715   6.059   5.946   2.211
 7272SOL    HW222716   6.196   6.016   2.266
 7273SOL     OW22717   6.257   2.955   5.803
 7273SOL    HW122718   6.253   3.036   5.744
 7273SOL    HW222719   6.353   2.933   5.822
 7274SOL     OW22720   0.177   4.542   0.101
 7274SOL    HW122721   0.270   4.558   0.131
 7274SOL    HW222722   0.172   4.547   0.001
 7275SOL     OW22723   6.935   0.119   3.353
 7275SOL    HW122724   6.985   0.204   3.369
 7275SOL    HW222725   6.854   0.138   3.299
 7276SOL     OW22726   5.092   6.932   3.626
 7276SOL    HW122727   5.117   6.845   3.582
 7276SOL    HW222728   5.174   6.989   3.635
 7277SOL     OW22729   4.276   0.862   5.635
 7277SOL    HW122730   4.233   0.950   5.655
 7277SOL    HW222731   4.213   0.788   5.658
 7278SOL     OW22732   3.043   3.951   2.158
 7278SOL    HW122733   2.998   4.040   2.168
 7278SOL    HW222734   3.043   3.904   2.246
 7279SOL     OW22735   4.219   5.884   0.098
 7279SOL    HW122736   4.171   5.879   0.186
 7279SOL    HW222737   4.305   5.833   0.103
 7280SOL     OW22738   4.676   6.696   4.768
 7280SOL    HW122739   4.760   6.642   4.757
 7280SOL    HW222740   4.691   6.788   4.731
 7281SOL     OW22741   3.939   2.276   6.465
 7281SOL    HW122742   3.960   2.333   6.386
 7281SOL    HW222743   3.959   2.180   6.444
 7282SOL     OW22744   5.685   5.376   2.279
 7282SOL    HW122745   5.766   5.428   2.252
 7282SOL    HW222746   5.683   5.365   2.378
 7283SOL     OW22747   2.688   0.877   2.749
 7283SOL    HW122748   2.649   0.785   2.740
 7283SOL    HW222749   2.614   0.944   2.748
 7284SOL     OW22750   6.678   3.658   5.409
 7284SOL    HW122751   6.636   3.711   5.335
 7284SOL    HW222752   6.615   3.653   5.486
 7285SOL     OW22753   4.616   5.257   2.367
 7285SOL    HW122754   4.600   5.354   2.381
 7285SOL    HW222755   4.535   5.205   2.395
 7286SOL     OW22756   2.383   2.484   0.840
 7286SOL    HW122757   2.454   2.425   0.803
 7286SOL    HW222758   2.383   2.478   0.940
 7287SOL     OW22759   6.595   1.339   6.736
 7287SOL    HW122760   6.605   1.271   6.809
 7287SOL    HW222761   6.565   1.426   6.775
 7288SOL     OW22762   3.786   0.619   6.340
 7288SOL    HW122763   3.838   0.696   6.305
 7288SOL    HW222764   3.765   0.556   6.266
 7289SOL     OW22765   5.918   1.355   3.438
 7289SOL    HW122766   6.003   1.360   3.385
 7289SOL    HW222767   5.914   1.432   3.502
 7290SOL     OW22768   2.595   5.380   5.656
 7290SOL    HW122769   2.640   5.466   5.633
 7290SOL    HW222770   2.501   5.397   5.683
 7291SOL     OW22771   1.976   0.072   1.402
 7291SOL    HW122772   1.931   0.032   1.322
 7291SOL    HW222773   2.075   0.067   1.391
 7292SOL     OW22774   2.944   6.504   3.412
 7292SOL    HW122775   2.962   6.514   3.510
 7292SOL    HW222776   3.011   6.442   3.372
 7293SOL     OW22777   1.931   1.637   5.056
 7293SOL    HW122778   1.989   1.676   4.985
 7293SOL    HW222779   1.837   1.632   5.023
 7294SOL     OW22780   2.857   5.479   0.162
 7294SOL    HW122781   2.779   5.424   0.192
 7294SOL    HW222782   2.844   5.506   0.066
 7295SOL     OW22783   0.666   1.997   0.742
 7295SOL    HW122784   0.608   2.009   0.822
 7295SOL    HW222785   0.615   1.946   0.672
 7296SOL     OW22786   3.276   4.908   0.990
 7296SOL    HW122787   3.286   4.983   0.925
 7296SOL    HW222788   3.298   4.940   1.082
 7297SOL     OW22789   3.829   5.997   0.459
 7297SOL    HW122790   3.764   6.052   0.408
 7297SOL    HW222791   3.853   6.044   0.544
 7298SOL     OW22792   5.324   4.162   4.837
 7298SOL    HW122793   5.365   4.227   4.773
 7298SOL    HW222794   5.312   4.206   4.926
 7299SOL     OW22795   0.093   2.156   0.243
 7299SOL    HW122796   0.186   2.178   0.216
 7299SOL    HW222797   0.083   2.166   0.342
 7300SOL     OW22798   5.140   5.800   1.094
 7300SOL    HW122799   5.157   5.702   1.090
 7300SOL    HW222800   5.067   5.820   1.160
 7301SOL     OW22801   6.808   0.437   5.294
 7301SOL    HW122802   6.728   0.377   5.292
 7301SOL    HW222803   6.790   0.520   5.242
 7302SOL     OW22804   0.090   1.530   0.120
 7302SOL    HW122805   0.015   1.563   0.178
 7302SOL    HW222806   0.177   1.563   0.156
 7303SOL     OW22807   4.602   0.473   6.758
 7303SOL    HW122808   4.671   0.443   6.823
 7303SOL    HW222809   4.621   0.567   6.730
 7304SOL     OW22810   3.935   4.041   6.666
 7304SOL    HW122811   4.020   4.093   6.678
 7304SOL    HW222812   3.879   4.050   6.749
 7305SOL     OW22813   5.307   1.765   0.309
 7305SOL    HW122814   5.309   1.676   0.355
 7305SOL    HW222815   5.395   1.812   0.323
 7306SOL     OW22816   4.908   3.796   1.587
 7306SOL    HW122817   4.850   3.820   1.665
 7306SOL    HW222818   5.000   3.774   1.619
 7307SOL     OW22819   2.848   6.509   1.824
 7307SOL    HW122820   2.840   6.537   1.728
 7307SOL    HW222821   2.933   6.545   1.862
 7308SOL     OW22822   6.782   3.458   5.074
 7308SOL    HW122823   6.878   3.484   5.085
 7308SOL    HW222824   6.774   3.387   5.004
 7309SOL     OW22825   5.112   6.033   0.429
 7309SOL    HW122826   5.057   6.110   0.400
 7309SOL    HW222827   5.134   5.975   0.350
 7310SOL     OW22828   2.256   5.133   1.062
 7310SOL    HW122829   2.228   5.037   1.052
 7310SOL    HW222830   2.294   5.146   1.154
 7311SOL     OW22831   2.933   1.904   2.105
 7311SOL    HW122832   2.993   1.963   2.050
 7311SOL    HW222833   2.849   1.954   2.127
 7312SOL     OW22834   6.969   2.440   5.553
 7312SOL    HW122835   6.916   2.489   5.623
 7312SOL    HW222836   0.041   2.419   5.589
 7313SOL     OW22837   4.421   2.770   6.104
 7313SOL    HW122838   4.430   2.864   6.135
 7313SOL    HW222839   4.358   2.767   6.027
 7314SOL     OW22840   6.125   3.501   4.971
 7314SOL    HW122841   6.194   3.433   4.999
 7314SOL    HW222842   6.038   3.479   5.014
 7315SOL     OW22843   6.158   0.075   4.014
 7315SOL    HW122844   6.133   0.058   4.109
 7315SOL    HW222845   6.093   0.139   3.973
 7316SOL     OW22846   3.462   2.994   5.204
 7316SOL    HW122847   3.410   3.042   5.274
 7316SOL    HW222848   3.460   3.047   5.119
 7317SOL     OW22849   4.163   0.538   2.397
 7317SOL    HW122850   4.125   0.613   2.451
 7317SOL    HW222851   4.244   0.502   2.442
 7318SOL     OW22852   1.359   1.400   1.602
 7318SOL    HW122853   1.440   1.387   1.545
 7318SOL    HW222854   1.305   1.316   1.602
 7319SOL     OW22855   6.694   4.268   0.179
 7319SOL    HW122856   6.707   4.351   0.124
 7319SOL    HW222857   6.745   4.276   0.265
 7320SOL     OW22858   6.751   3.591   2.052
 7320SOL    HW122859   6.719   3.685   2.064
 7320SOL    HW222860   6.691   3.542   1.989
 7321SOL     OW22861   2.600   0.722   5.089
 7321SOL    HW122862   2.647   0.742   5.003
 7321SOL    HW222863   2.501   0.729   5.075
 7322SOL     OW22864   1.224   3.198   2.582
 7322SOL    HW122865   1.160   3.203   2.659
 7322SOL    HW222866   1.203   3.118   2.526
 7323SOL     OW22867   2.022   1.628   2.700
 7323SOL    HW122868   2.042   1.555   2.765
 7323SOL    HW222869   1.926   1.654   2.706
 7324SOL     OW22870   5.642   7.002   3.071
 7324SOL    HW122871   5.613   0.079   3.064
 7324SOL    HW222872   5.728   6.989   3.022
 7325SOL     OW22873   3.903   0.255   6.121
 7325SOL    HW122874   3.946   0.306   6.195
 7325SOL    HW222875   3.851   0.179   6.160
 7326SOL     OW22876   2.503   5.858   5.329
 7326SOL    HW122877   2.444   5.847   5.249
 7326SOL    HW222878   2.527   5.768   5.365
 7327SOL     OW22879   0.251   2.819   5.486
 7327SOL    HW122880   0.316   2.872   5.432
 7327SOL    HW222881   0.276   2.722   5.482
 7328SOL     OW22882   3.750   0.510   0.141
 7328SOL    HW122883   3.836   0.557   0.158
 7328SOL    HW222884   3.755   0.461   0.054
 7329SOL     OW22885   4.370   3.803   1.323
 7329SOL    HW122886   4.344   3.746   1.401
 7329SOL    HW222887   4.455   3.769   1.284
 7330SOL     OW22888   3.200   1.815   0.098
 7330SOL    HW122889   3.190   1.813   7.017
 7330SOL    HW222890   3.227   1.725   0.130
 7331SOL     OW22891   5.204   0.801   1.922
 7331SOL    HW122892   5.153   0.863   1.981
 7331SOL    HW222893   5.249   0.853   1.849
 7332SOL     OW22894   2.470   5.997   0.118
 7332SOL    HW122895   2.467   5.999   0.018
 7332SOL    HW222896   2.445   5.905   0.150
 7333SOL     OW22897   0.494   3.709   3.728
 7333SOL    HW122898   0.398   3.704   3.702
 7333SOL    HW222899   0.507   3.783   3.795
 7334SOL     OW22900   4.103   6.059   5.742
 7334SOL    HW122901   4.161   5.992   5.789
 7334SOL    HW222902   4.008   6.030   5.747
 7335SOL     OW22903   1.671   2.943   2.576
 7335SOL    HW122904   1.770   2.933   2.587
 7335SOL    HW222905   1.628   2.951   2.666
 7336SOL     OW22906   1.324   6.736   3.159
 7336SOL    HW122907   1.235   6.765   3.192
 7336SOL    HW222908   1.386   6.722   3.237
 7337SOL     OW22909   1.226   2.957   1.775
 7337SOL    HW122910   1.251   2.985   1.682
 7337SOL    HW222911   1.181   3.032   1.822
 7338SOL     OW22912   6.290   2.496   1.219
 7338SOL    HW122913   6.370   2.449   1.183
 7338SOL    HW222914   6.262   2.453   1.305
 7339SOL     OW22915   6.047   6.313   3.909
 7339SOL    HW122916   6.014   6.258   3.986
 7339SOL    HW222917   5.989   6.393   3.897
 7340SOL     OW22918   2.223   0.487   0.599
 7340SOL    HW122919   2.144   0.498   0.659
 7340SOL    HW222920   2.202   0.422   0.526
 7341SOL     OW22921   6.570   1.910   0.073
 7341SOL    HW122922   6.630   1.942   0.146
 7341SOL    HW222923   6.488   1.869   0.113
 7342SOL     OW22924   6.738   0.012   2.296
 7342SOL    HW122925   6.802   0.083   2.327
 7342SOL    HW222926   6.787   6.946   2.281
 7343SOL     OW22927   4.510   2.888   0.222
 7343SOL    HW122928   4.471   2.959   0.280
 7343SOL    HW222929   4.464   2.888   0.133
 7344SOL     OW22930   1.535   0.028   6.160
 7344SOL    HW122931   1.549   6.975   6.228
 7344SOL    HW222932   1.500   7.007   6.075
 7345SOL     OW22933   3.533   3.344   5.398
 7345SOL    HW122934   3.627   3.326   5.368
 7345SOL    HW222935   3.521   3.442   5.413
 7346SOL     OW22936   3.683   6.325   2.854
 7346SOL    HW122937   3.591   6.354   2.878
 7346SOL    HW222938   3.694   6.329   2.754
 7347SOL     OW22939   6.892   2.444   0.077
 7347SOL    HW122940   6.829   2.422   0.003
 7347SOL    HW222941   6.849   2.508   0.141
 7348SOL     OW22942   1.307   3.757   3.363
 7348SOL    HW122943   1.342   3.709   3.444
 7348SOL    HW222944   1.355   3.725   3.282
 7349SOL     OW22945   4.040   0.339   1.007
 7349SOL    HW122946   4.133   0.376   1.013
 7349SOL    HW222947   4.016   0.326   0.910
 7350SOL     OW22948   2.666   0.494   5.579
 7350SOL    HW122949   2.632   0.444   5.499
 7350SOL    HW222950   2.730   0.564   5.550
 7351SOL     OW22951   4.879   4.744   3.934
 7351SOL    HW122952   4.782   4.723   3.926
 7351SOL    HW222953   4.906   4.804   3.858
 7352SOL     OW22954   0.431   2.041   3.269
 7352SOL    HW122955   0.522   2.054   3.229
 7352SOL    HW222956   0.395   2.129   3.299
 7353SOL     OW22957   5.936   0.469   6.465
 7353SOL    HW122958   5.855   0.498   6.415
 7353SOL    HW222959   6.003   0.542   6.465
 7354SOL     OW22960   1.634   0.665   3.729
 7354SOL    HW122961   1.583   0.726   3.669
 7354SOL    HW222962   1.703   0.616   3.676
 7355SOL     OW22963   6.784   2.123   6.387
 7355SOL    HW122964   6.722   2.101   6.463
 7355SOL    HW222965   6.878   2.099   6.414
 7356SOL     OW22966   3.942   3.687   5.849
 7356SOL    HW122967   3.912   3.683   5.944
 7356SOL    HW222968   3.863   3.679   5.789
 7357SOL     OW22969   4.419   6.212   1.281
 7357SOL    HW122970   4.408   6.165   1.368
 7357SOL    HW222971   4.512   6.248   1.273
 7358SOL     OW22972   6.249   2.596   2.063
 7358SOL    HW122973   6.174   2.595   1.997
 7358SOL    HW222974   6.336   2.610   2.015
 7359SOL     OW22975   4.123   1.096   6.151
 7359SOL    HW122976   4.026   1.072   6.138
 7359SOL    HW222977   4.147   1.173   6.092
 7360SOL     OW22978   2.466   3.375   5.389
 7360SOL    HW122979   2.393   3.436   5.359
 7360SOL    HW222980   2.552   3.399   5.343
 7361SOL     OW22981   5.324   0.389   2.451
 7361SOL    HW122982   5.357   0.295   2.462
 7361SOL    HW222983   5.229   0.386   2.418
 7362SOL     OW22984   4.149   5.092   5.662
 7362SOL    HW122985   4.120   5.180   5.625
 7362SOL    HW222986   4.165   5.101   5.761
 7363SOL     OW22987   4.234   1.428   1.576
 7363SOL    HW122988   4.156   1.482   1.608
 7363SOL    HW222989   4.288   1.398   1.655
 7364SOL     OW22990   4.432   6.880   1.856
 7364SOL    HW122991   4.489   6.807   1.894
 7364SOL    HW222992   4.447   6.964   1.908
 7365SOL     OW22993   6.168   5.241   3.080
 7365SOL    HW122994   6.187   5.308   3.008
 7365SOL    HW222995   6.107   5.170   3.044
 7366SOL     OW22996   2.449   0.504   4.245
 7366SOL    HW122997   2.436   0.419   4.294
 7366SOL    HW222998   2.362   0.554   4.240
 7367SOL     OW22999   4.754   1.693   6.679
 7367SOL    HW123000   4.699   1.727   6.757
 7367SOL    HW223001   4.713   1.609   6.644
 7368SOL     OW23002   3.678   3.511   2.721
 7368SOL    HW123003   3.601   3.463   2.678
 7368SOL    HW223004   3.762   3.459   2.707
 7369SOL     OW23005   4.298   2.626   0.770
 7369SOL    HW123006   4.351   2.559   0.823
 7369SOL    HW223007   4.234   2.578   0.710
 7370SOL     OW23008   2.687   1.754   4.953
 7370SOL    HW123009   2.607   1.771   4.897
 7370SOL    HW223010   2.684   1.812   5.035
 7371SOL     OW23011   3.489   6.839   3.675
 7371SOL    HW123012   3.450   6.834   3.766
 7371SOL    HW223013   3.589   6.839   3.681
 7372SOL     OW23014   3.211   6.924   4.552
 7372SOL    HW123015   3.119   6.887   4.565
 7372SOL    HW223016   3.234   6.921   4.455
 7373SOL     OW23017   4.477   2.147   4.832
 7373SOL    HW123018   4.576   2.140   4.843
 7373SOL    HW223019   4.452   2.241   4.807
 7374SOL     OW23020   1.281   1.747   4.970
 7374SOL    HW123021   1.332   1.807   4.909
 7374SOL    HW223022   1.203   1.798   5.009
 7375SOL     OW23023   2.108   3.203   2.269
 7375SOL    HW123024   2.098   3.137   2.195
 7375SOL    HW223025   2.125   3.294   2.232
 7376SOL     OW23026   0.700   3.572   0.898
 7376SOL    HW123027   0.752   3.611   0.973
 7376SOL    HW223028   0.610   3.542   0.931
 7377SOL     OW23029   3.292   4.944   0.403
 7377SOL    HW123030   3.374   4.888   0.396
 7377SOL    HW223031   3.307   5.016   0.471
 7378SOL     OW23032   1.860   6.481   3.965
 7378SOL    HW123033   1.788   6.442   3.907
 7378SOL    HW223034   1.949   6.463   3.924
 7379SOL     OW23035   3.532   0.761   1.265
 7379SOL    HW123036   3.525   0.843   1.208
 7379SOL    HW223037   3.544   0.788   1.361
 7380SOL     OW23038   6.359   4.278   3.192
 7380SOL    HW123039   6.311   4.297   3.278
 7380SOL    HW223040   6.455   4.258   3.211
 7381SOL     OW23041   4.311   1.367   0.410
 7381SOL    HW123042   4.308   1.362   0.510
 7381SOL    HW223043   4.356   1.451   0.382
 7382SOL     OW23044   6.860   1.469   5.862
 7382SOL    HW123045   6.801   1.401   5.818
 7382SOL    HW223046   6.955   1.437   5.861
 7383SOL     OW23047   1.927   6.921   1.607
 7383SOL    HW123048   1.929   6.843   1.545
 7383SOL    HW223049   1.963   7.002   1.560
 7384SOL     OW23050   0.628   6.742   0.955
 7384SOL    HW123051   0.613   6.836   0.985
 7384SOL    HW223052   0.725   6.718   0.967
 7385SOL     OW23053   3.685   5.280   2.532
 7385SOL    HW123054   3.784   5.292   2.522
 7385SOL    HW223055   3.667   5.203   2.592
 7386SOL     OW23056   6.549   3.299   0.146
 7386SOL    HW123057   6.496   3.337   0.222
 7386SOL    HW223058   6.628   3.358   0.128
 7387SOL     OW23059   6.579   4.620   5.748
 7387SOL    HW123060   6.528   4.586   5.669
 7387SOL    HW223061   6.523   4.685   5.799
 7388SOL     OW23062   1.506   6.235   2.317
 7388SOL    HW123063   1.525   6.153   2.371
 7388SOL    HW223064   1.566   6.309   2.347
 7389SOL     OW23065   6.760   3.406   0.556
 7389SOL    HW123066   6.671   3.414   0.602
 7389SOL    HW223067   6.828   3.457   0.607
 7390SOL     OW23068   2.407   1.669   3.026
 7390SOL    HW123069   2.436   1.740   3.090
 7390SOL    HW223070   2.357   1.710   2.950
 7391SOL     OW23071   3.969   3.421   2.729
 7391SOL    HW123072   3.968   3.504   2.785
 7391SOL    HW223073   4.014   3.347   2.778
 7392SOL     OW23074   3.926   5.699   6.475
 7392SOL    HW123075   3.985   5.780   6.474
 7392SOL    HW223076   3.976   5.623   6.516
 7393SOL     OW23077   6.416   4.750   4.358
 7393SOL    HW123078   6.442   4.818   4.288
 7393SOL    HW223079   6.414   4.794   4.448
 7394SOL     OW23080   2.101   2.434   6.354
 7394SOL    HW123081   2.045   2.511   6.324
 7394SOL    HW223082   2.101   2.429   6.453
 7395SOL     OW23083   2.083   3.682   1.376
 7395SOL    HW123084   2.172   3.667   1.417
 7395SOL    HW223085   2.070   3.780   1.359
 7396SOL     OW23086   3.082   5.074   1.563
 7396SOL    HW123087   3.106   4.977   1.560
 7396SOL    HW223088   3.016   5.090   1.636
 7397SOL     OW23089   5.460   3.947   4.760
 7397SOL    HW123090   5.494   3.906   4.844
 7397SOL    HW223091   5.414   4.033   4.781
 7398SOL     OW23092   1.788   4.453   3.266
 7398SOL    HW123093   1.756   4.360   3.251
 7398SOL    HW223094   1.876   4.451   3.314
 7399SOL     OW23095   5.710   2.481   4.722
 7399SOL    HW123096   5.656   2.558   4.757
 7399SOL    HW223097   5.806   2.509   4.712
 7400SOL     OW23098   5.600   2.394   5.117
 7400SOL    HW123099   5.558   2.372   5.029
 7400SOL    HW223100   5.583   2.490   5.139
 7401SOL     OW23101   1.698   3.147   3.265
 7401SOL    HW123102   1.726   3.153   3.169
 7401SOL    HW223103   1.663   3.055   3.285
 7402SOL     OW23104   2.787   5.374   5.053
 7402SOL    HW123105   2.774   5.469   5.025
 7402SOL    HW223106   2.885   5.355   5.062
 7403SOL     OW23107   1.730   2.917   3.638
 7403SOL    HW123108   1.652   2.903   3.577
 7403SOL    HW223109   1.697   2.935   3.731
 7404SOL     OW23110   3.040   4.020   1.559
 7404SOL    HW123111   3.047   4.081   1.638
 7404SOL    HW223112   2.977   3.945   1.580
 7405SOL     OW23113   2.855   5.677   5.156
 7405SOL    HW123114   2.843   5.595   5.212
 7405SOL    HW223115   2.938   5.725   5.184
 7406SOL     OW23116   0.382   1.131   4.978
 7406SOL    HW123117   0.347   1.082   4.898
 7406SOL    HW223118   0.401   1.066   5.051
 7407SOL     OW23119   0.807   5.862   6.687
 7407SOL    HW123120   0.792   5.921   6.766
 7407SOL    HW223121   0.830   5.770   6.718
 7408SOL     OW23122   3.441   4.025   5.046
 7408SOL    HW123123   3.389   4.082   5.110
 7408SOL    HW223124   3.389   3.942   5.027
 7409SOL     OW23125   5.931   4.140   0.873
 7409SOL    HW123126   5.937   4.188   0.786
 7409SOL    HW223127   6.003   4.172   0.934
 7410SOL     OW23128   7.018   0.122   0.774
 7410SOL    HW123129   0.076   0.069   0.808
 7410SOL    HW223130   6.947   0.128   0.844
 7411SOL     OW23131   0.708   1.690   5.830
 7411SOL    HW123132   0.780   1.643   5.881
 7411SOL    HW223133   0.727   1.686   5.732
 7412SOL     OW23134   3.873   6.995   0.199
 7412SOL    HW123135   3.865   0.076   0.196
 7412SOL    HW223136   3.824   6.960   0.279
 7413SOL     OW23137   4.050   5.323   3.632
 7413SOL    HW123138   4.123   5.266   3.595
 7413SOL    HW223139   4.050   5.317   3.732
 7414SOL     OW23140   2.411   1.906   4.470
 7414SOL    HW123141   2.480   1.967   4.509
 7414SOL    HW223142   2.409   1.918   4.370
 7415SOL     OW23143   3.818   6.784   6.475
 7415SOL    HW123144   3.743   6.779   6.541
 7415SOL    HW223145   3.901   6.815   6.521
 7416SOL     OW23146   0.861   1.990   2.500
 7416SOL    HW123147   0.805   1.909   2.516
 7416SOL    HW223148   0.803   2.065   2.468
 7417SOL     OW23149   0.852   2.266   3.367
 7417SOL    HW123150   0.758   2.249   3.396
 7417SOL    HW223151   0.857   2.355   3.321
 7418SOL     OW23152   1.509   4.121   6.165
 7418SOL    HW123153   1.533   4.087   6.256
 7418SOL    HW223154   1.588   4.112   6.105
 7419SOL     OW23155   6.501   4.168   3.725
 7419SOL    HW123156   6.559   4.208   3.796
 7419SOL    HW223157   6.528   4.073   3.709
 7420SOL     OW23158   0.134   6.646   1.975
 7420SOL    HW123159   0.084   6.726   2.008
 7420SOL    HW223160   0.082   6.603   1.901
 7421SOL     OW23161   4.660   3.496   1.741
 7421SOL    HW123162   4.637   3.577   1.688
 7421SOL    HW223163   4.594   3.423   1.723
 7422SOL     OW23164   5.985   2.943   2.120
 7422SOL    HW123165   5.894   2.954   2.161
 7422SOL    HW223166   6.053   2.987   2.179
 7423SOL     OW23167   5.765   2.122   5.334
 7423SOL    HW123168   5.846   2.118   5.275
 7423SOL    HW223169   5.759   2.038   5.388
 7424SOL     OW23170   6.937   0.687   5.043
 7424SOL    HW123171   6.906   0.717   4.953
 7424SOL    HW223172   7.009   0.618   5.033
 7425SOL     OW23173   5.472   6.903   0.514
 7425SOL    HW123174   5.492   6.941   0.423
 7425SOL    HW223175   5.451   6.977   0.577
 7426SOL     OW23176   3.628   2.742   5.904
 7426SOL    HW123177   3.567   2.821   5.907
 7426SOL    HW223178   3.704   2.756   5.967
 7427SOL     OW23179   3.528   1.156   3.860
 7427SOL    HW123180   3.429   1.168   3.853
 7427SOL    HW223181   3.554   1.067   3.824
 7428SOL     OW23182   4.199   6.900   5.788
 7428SOL    HW123183   4.118   6.842   5.781
 7428SOL    HW223184   4.279   6.844   5.810
 7429SOL     OW23185   1.501   0.098   2.480
 7429SOL    HW123186   1.565   0.148   2.538
 7429SOL    HW223187   1.518   7.018   2.489
 7430SOL     OW23188   6.908   4.820   3.218
 7430SOL    HW123189   6.956   4.797   3.302
 7430SOL    HW223190   6.854   4.904   3.232
 7431SOL     OW23191   2.007   2.221   4.780
 7431SOL    HW123192   2.098   2.210   4.741
 7431SOL    HW223193   1.957   2.291   4.729
 7432SOL     OW23194   1.977   0.159   3.508
 7432SOL    HW123195   2.025   0.086   3.460
 7432SOL    HW223196   2.042   0.206   3.569
 7433SOL     OW23197   2.975   6.481   6.171
 7433SOL    HW123198   3.030   6.518   6.246
 7433SOL    HW223199   2.913   6.411   6.208
 7434SOL     OW23200   4.359   6.223   5.962
 7434SOL    HW123201   4.415   6.259   6.037
 7434SOL    HW223202   4.305   6.297   5.922
 7435SOL     OW23203   4.688   6.523   2.415
 7435SOL    HW123204   4.685   6.547   2.512
 7435SOL    HW223205   4.675   6.605   2.360
 7436SOL     OW23206   5.093   3.487   6.475
 7436SOL    HW123207   5.000   3.494   6.439
 7436SOL    HW223208   5.092   3.501   6.574
 7437SOL     OW23209   3.499   6.135   1.290
 7437SOL    HW123210   3.401   6.152   1.282
 7437SOL    HW223211   3.519   6.092   1.378
 7438SOL     OW23212   2.277   0.975   0.696
 7438SOL    HW123213   2.297   0.910   0.769
 7438SOL    HW223214   2.356   0.983   0.636
 7439SOL     OW23215   1.509   4.978   6.287
 7439SOL    HW123216   1.444   4.956   6.215
 7439SOL    HW223217   1.575   4.903   6.297
 7440SOL     OW23218   4.772   3.055   3.623
 7440SOL    HW123219   4.839   3.112   3.575
 7440SOL    HW223220   4.720   3.002   3.556
 7441SOL     OW23221   5.743   5.959   1.950
 7441SOL    HW123222   5.810   5.886   1.963
 7441SOL    HW223223   5.751   6.025   2.025
 7442SOL     OW23224   5.460   0.323   5.918
 7442SOL    HW123225   5.508   0.248   5.965
 7442SOL    HW223226   5.440   0.295   5.824
 7443SOL     OW23227   0.023   6.312   2.252
 7443SOL    HW123228   0.037   6.256   2.333
 7443SOL    HW223229   0.094   6.383   2.248
 7444SOL     OW23230   1.044   0.243   6.382
 7444SOL    HW123231   1.098   0.167   6.347
 7444SOL    HW223232   0.960   0.208   6.424
 7445SOL     OW23233   4.466   6.268   2.161
 7445SOL    HW123234   4.439   6.272   2.257
 7445SOL    HW223235   4.553   6.219   2.153
 7446SOL     OW23236   5.209   3.485   0.643
 7446SOL    HW123237   5.224   3.553   0.571
 7446SOL    HW223238   5.111   3.476   0.660
 7447SOL     OW23239   0.708   4.115   0.672
 7447SOL    HW123240   0.629   4.132   0.614
 7447SOL    HW223241   0.763   4.041   0.633
 7448SOL     OW23242   4.919   5.667   5.990
 7448SOL    HW123243   4.992   5.709   5.936
 7448SOL    HW223244   4.954   5.585   6.035
 7449SOL     OW23245   0.436   4.241   6.822
 7449SOL    HW123246   0.385   4.281   6.898
 7449SOL    HW223247   0.374   4.184   6.767
 7450SOL     OW23248   5.525   1.799   5.390
 7450SOL    HW123249   5.561   1.718   5.345
 7450SOL    HW223250   5.507   1.870   5.321
 7451SOL     OW23251   6.146   5.129   2.694
 7451SOL    HW123252   6.094   5.176   2.623
 7451SOL    HW223253   6.184   5.196   2.758
 7452SOL     OW23254   4.991   6.424   5.071
 7452SOL    HW123255   5.028   6.509   5.032
 7452SOL    HW223256   5.052   6.390   5.142
 7453SOL     OW23257   4.162   5.297   6.345
 7453SOL    HW123258   4.202   5.205   6.348
 7453SOL    HW223259   4.234   5.363   6.322
 7454SOL     OW23260   3.737   2.294   0.637
 7454SOL    HW123261   3.733   2.320   0.541
 7454SOL    HW223262   3.769   2.200   0.645
 7455SOL     OW23263   5.779   2.948   2.780
 7455SOL    HW123264   5.780   3.022   2.713
 7455SOL    HW223265   5.699   2.890   2.763
 7456SOL     OW23266   2.677   1.979   5.441
 7456SOL    HW123267   2.720   1.922   5.511
 7456SOL    HW223268   2.687   2.076   5.466
 7457SOL     OW23269   2.900   0.064   3.246
 7457SOL    HW123270   2.870   0.050   3.340
 7457SOL    HW223271   2.833   0.025   3.183
 7458SOL     OW23272   0.724   6.428   5.269
 7458SOL    HW123273   0.772   6.341   5.283
 7458SOL    HW223274   0.791   6.500   5.252
 7459SOL     OW23275   6.157   1.069   2.665
 7459SOL    HW123276   6.221   1.020   2.606
 7459SOL    HW223277   6.153   1.165   2.639
 7460SOL     OW23278   1.059   6.797   1.080
 7460SOL    HW123279   1.124   6.760   1.146
 7460SOL    HW223280   1.035   6.891   1.107
 7461SOL     OW23281   0.633   5.935   5.898
 7461SOL    HW123282   0.651   6.022   5.944
 7461SOL    HW223283   0.720   5.886   5.883
 7462SOL     OW23284   1.293   5.533   1.369
 7462SOL    HW123285   1.322   5.553   1.462
 7462SOL    HW223286   1.269   5.619   1.322
 7463SOL     OW23287   4.422   4.800   0.184
 7463SOL    HW123288   4.328   4.779   0.157
 7463SOL    HW223289   4.466   4.854   0.112
 7464SOL     OW23290   6.253   5.321   4.986
 7464SOL    HW123291   6.203   5.248   5.032
 7464SOL    HW223292   6.351   5.301   4.988
 7465SOL     OW23293   2.486   5.104   0.235
 7465SOL    HW123294   2.568   5.154   0.264
 7465SOL    HW223295   2.426   5.165   0.183
 7466SOL     OW23296   0.909   6.789   4.940
 7466SOL    HW123297   0.956   6.870   4.906
 7466SOL    HW223298   0.824   6.816   4.985
 7467SOL     OW23299   0.328   3.252   6.042
 7467SOL    HW123300   0.260   3.193   6.086
 7467SOL    HW223301   0.383   3.198   5.978
 7468SOL     OW23302   5.546   2.642   5.142
 7468SOL    HW123303   5.551   2.705   5.220
 7468SOL    HW223304   5.453   2.607   5.133
 7469SOL     OW23305   6.611   2.248   0.198
 7469SOL    HW123306   6.638   2.262   0.103
 7469SOL    HW223307   6.631   2.154   0.225
 7470SOL     OW23308   5.524   3.731   4.307
 7470SOL    HW123309   5.545   3.769   4.397
 7470SOL    HW223310   5.609   3.713   4.257
 7471SOL     OW23311   5.778   5.515   6.766
 7471SOL    HW123312   5.684   5.484   6.783
 7471SOL    HW223313   5.838   5.481   6.839
 7472SOL     OW23314   6.254   6.494   5.282
 7472SOL    HW123315   6.321   6.473   5.211
 7472SOL    HW223316   6.288   6.568   5.339
 7473SOL     OW23317   3.935   0.291   3.842
 7473SOL    HW123318   3.890   0.214   3.797
 7473SOL    HW223319   3.901   0.301   3.935
 7474SOL     OW23320   5.723   2.054   5.824
 7474SOL    HW123321   5.814   2.022   5.851
 7474SOL    HW223322   5.656   2.027   5.893
 7475SOL     OW23323   4.434   2.159   1.419
 7475SOL    HW123324   4.483   2.226   1.364
 7475SOL    HW223325   4.485   2.073   1.421
 7476SOL     OW23326   2.352   1.364   2.993
 7476SOL    HW123327   2.377   1.270   3.017
 7476SOL    HW223328   2.435   1.418   2.980
 7477SOL     OW23329   0.714   4.054   5.322
 7477SOL    HW123330   0.632   4.091   5.366
 7477SOL    HW223331   0.764   3.999   5.388
 7478SOL     OW23332   6.737   1.889   4.931
 7478SOL    HW123333   6.741   1.988   4.947
 7478SOL    HW223334   6.660   1.868   4.871
 7479SOL     OW23335   5.954   3.316   6.910
 7479SOL    HW123336   5.925   3.395   6.966
 7479SOL    HW223337   5.935   3.232   6.960
 7480SOL     OW23338   3.508   4.975   2.371
 7480SOL    HW123339   3.508   4.970   2.271
 7480SOL    HW223340   3.415   4.988   2.403
 7481SOL     OW23341   6.346   4.221   6.918
 7481SOL    HW123342   6.381   4.204   7.010
 7481SOL    HW223343   6.352   4.137   6.864
 7482SOL     OW23344   3.863   2.169   2.317
 7482SOL    HW123345   3.926   2.224   2.371
 7482SOL    HW223346   3.869   2.195   2.221
 7483SOL     OW23347   4.398   2.509   5.344
 7483SOL    HW123348   4.428   2.415   5.359
 7483SOL    HW223349   4.322   2.509   5.279
 7484SOL     OW23350   2.641   6.418   4.466
 7484SOL    HW123351   2.604   6.500   4.421
 7484SOL    HW223352   2.713   6.446   4.531
 7485SOL     OW23353   2.758   0.011   3.769
 7485SOL    HW123354   2.738   0.094   3.821
 7485SOL    HW223355   2.672   6.991   3.734
 7486SOL     OW23356   1.410   6.325   0.053
 7486SOL    HW123357   1.490   6.347   0.110
 7486SOL    HW223358   1.332   6.378   0.084
 7487SOL     OW23359   4.455   6.989   3.440
 7487SOL    HW123360   4.506   0.054   3.417
 7487SOL    HW223361   4.359   7.012   3.455
 7488SOL     OW23362   0.711   6.113   3.898
 7488SOL    HW123363   0.809   6.107   3.915
 7488SOL    HW223364   0.693   6.099   3.801
 7489SOL     OW23365   5.708   4.038   6.560
 7489SOL    HW123366   5.777   4.023   6.631
 7489SOL    HW223367   5.683   4.135   6.558
 7490SOL     OW23368   0.741   2.273   2.956
 7490SOL    HW123369   0.699   2.344   2.900
 7490SOL    HW223370   0.836   2.298   2.977
 7491SOL     OW23371   4.379   3.110   0.362
 7491SOL    HW123372   4.422   3.106   0.453
 7491SOL    HW223373   4.413   3.190   0.313
 7492SOL     OW23374   1.719   0.540   4.336
 7492SOL    HW123375   1.704   0.617   4.273
 7492SOL    HW223376   1.768   0.572   4.417
 7493SOL     OW23377   5.815   3.560   5.660
 7493SOL    HW123378   5.803   3.608   5.573
 7493SOL    HW223379   5.731   3.510   5.682
 7494SOL     OW23380   5.858   1.467   2.748
 7494SOL    HW123381   5.953   1.498   2.750
 7494SOL    HW223382   5.850   1.390   2.686
 7495SOL     OW23383   2.121   3.367   4.897
 7495SOL    HW123384   2.092   3.427   4.972
 7495SOL    HW223385   2.113   3.271   4.926
 7496SOL     OW23386   5.966   3.759   2.814
 7496SOL    HW123387   5.960   3.828   2.741
 7496SOL    HW223388   5.903   3.684   2.793
 7497SOL     OW23389   0.460   6.627   0.461
 7497SOL    HW123390   0.488   6.550   0.518
 7497SOL    HW223391   0.441   6.595   0.368
 7498SOL     OW23392   3.442   0.333   2.802
 7498SOL    HW123393   3.460   0.355   2.898
 7498SOL    HW223394   3.407   0.240   2.795
 7499SOL     OW23395   3.691   2.089   3.568
 7499SOL    HW123396   3.596   2.096   3.597
 7499SOL    HW223397   3.697   2.097   3.468
 7500SOL     OW23398   4.128   0.275   3.637
 7500SOL    HW123399   4.134   0.187   3.590
 7500SOL    HW223400   4.054   0.271   3.705
 7501SOL     OW23401   6.006   2.523   4.662
 7501SOL    HW123402   5.970   2.471   4.584
 7501SOL    HW223403   6.046   2.608   4.629
 7502SOL     OW23404   3.321   6.868   4.278
 7502SOL    HW123405   3.241   6.907   4.234
 7502SOL    HW223406   3.400   6.927   4.263
 7503SOL     OW23407   2.190   5.915   1.269
 7503SOL    HW123408   2.246   5.832   1.277
 7503SOL    HW223409   2.177   5.937   1.172
 7504SOL     OW23410   6.865   6.460   3.408
 7504SOL    HW123411   6.820   6.425   3.490
 7504SOL    HW223412   6.807   6.530   3.365
 7505SOL     OW23413   0.179   0.365   4.767
 7505SOL    HW123414   0.132   0.279   4.748
 7505SOL    HW223415   0.130   0.440   4.723
 7506SOL     OW23416   3.190   1.879   3.470
 7506SOL    HW123417   3.194   1.978   3.466
 7506SOL    HW223418   3.094   1.849   3.462
 7507SOL     OW23419   6.356   3.491   4.516
 7507SOL    HW123420   6.412   3.409   4.527
 7507SOL    HW223421   6.365   3.526   4.423
 7508SOL     OW23422   2.024   6.031   0.148
 7508SOL    HW123423   1.945   6.090   0.165
 7508SOL    HW223424   2.107   6.087   0.143
 7509SOL     OW23425   5.117   3.843   0.599
 7509SOL    HW123426   5.198   3.829   0.656
 7509SOL    HW223427   5.052   3.768   0.613
 7510SOL     OW23428   3.624   4.154   3.804
 7510SOL    HW123429   3.701   4.168   3.866
 7510SOL    HW223430   3.608   4.056   3.791
 7511SOL     OW23431   3.498   5.799   2.877
 7511SOL    HW123432   3.429   5.758   2.818
 7511SOL    HW223433   3.509   5.896   2.853
 7512SOL     OW23434   3.184   6.340   6.002
 7512SOL    HW123435   3.093   6.367   6.033
 7512SOL    HW223436   3.247   6.340   6.080
 7513SOL     OW23437   1.681   2.058   3.724
 7513SOL    HW123438   1.728   1.972   3.745
 7513SOL    HW223439   1.583   2.048   3.740
 7514SOL     OW23440   2.475   4.393   2.854
 7514SOL    HW123441   2.399   4.355   2.906
 7514SOL    HW223442   2.535   4.318   2.825
 7515SOL     OW23443   6.817   3.717   5.004
 7515SOL    HW123444   6.759   3.793   5.033
 7515SOL    HW223445   6.776   3.631   5.033
 7516SOL     OW23446   0.852   5.207   5.501
 7516SOL    HW123447   0.769   5.263   5.512
 7516SOL    HW223448   0.873   5.162   5.588
 7517SOL     OW23449   0.922   2.256   6.964
 7517SOL    HW123450   0.916   2.294   0.038
 7517SOL    HW223451   0.887   2.163   6.964
 7518SOL     OW23452   4.727   2.854   3.847
 7518SOL    HW123453   4.779   2.882   3.928
 7518SOL    HW223454   4.719   2.931   3.784
 7519SOL     OW23455   3.904   6.730   5.161
 7519SOL    HW123456   3.949   6.749   5.074
 7519SOL    HW223457   3.826   6.670   5.146
 7520SOL     OW23458   1.750   2.034   2.096
 7520SOL    HW123459   1.830   2.075   2.052
 7520SOL    HW223460   1.779   1.979   2.174
 7521SOL     OW23461   4.752   1.343   4.644
 7521SOL    HW123462   4.842   1.387   4.650
 7521SOL    HW223463   4.692   1.399   4.586
 7522SOL     OW23464   1.136   6.325   2.815
 7522SOL    HW123465   1.228   6.304   2.849
 7522SOL    HW223466   1.068   6.293   2.881
 7523SOL     OW23467   5.704   1.372   6.177
 7523SOL    HW123468   5.779   1.371   6.111
 7523SOL    HW223469   5.736   1.406   6.265
 7524SOL     OW23470   0.290   2.316   4.705
 7524SOL    HW123471   0.214   2.380   4.712
 7524SOL    HW223472   0.373   2.365   4.677
 7525SOL     OW23473   4.455   6.102   6.309
 7525SOL    HW123474   4.440   6.023   6.249
 7525SOL    HW223475   4.477   6.182   6.254
 7526SOL     OW23476   1.960   3.568   1.885
 7526SOL    HW123477   1.972   3.646   1.822
 7526SOL    HW223478   2.048   3.545   1.927
 7527SOL     OW23479   3.981   5.681   3.648
 7527SOL    HW123480   3.942   5.772   3.634
 7527SOL    HW223481   3.947   5.618   3.578
 7528SOL     OW23482   6.360   2.648   6.272
 7528SOL    HW123483   6.260   2.646   6.267
 7528SOL    HW223484   6.393   2.740   6.251
 7529SOL     OW23485   6.079   2.174   4.164
 7529SOL    HW123486   6.130   2.089   4.181
 7529SOL    HW223487   6.091   2.200   4.068
 7530SOL     OW23488   6.752   1.515   2.094
 7530SOL    HW123489   6.805   1.430   2.099
 7530SOL    HW223490   6.735   1.549   2.186
 7531SOL     OW23491   4.509   2.095   3.689
 7531SOL    HW123492   4.588   2.153   3.708
 7531SOL    HW223493   4.496   2.031   3.766
 7532SOL     OW23494   4.472   5.720   6.860
 7532SOL    HW123495   4.559   5.674   6.841
 7532SOL    HW223496   4.402   5.685   6.798
 7533SOL     OW23497   4.475   3.298   1.680
 7533SOL    HW123498   4.446   3.209   1.715
 7533SOL    HW223499   4.400   3.364   1.693
 7534SOL     OW23500   4.803   0.273   3.849
 7534SOL    HW123501   4.841   0.188   3.813
 7534SOL    HW223502   4.847   0.351   3.805
 7535SOL     OW23503   0.848   5.887   4.322
 7535SOL    HW123504   0.894   5.971   4.350
 7535SOL    HW223505   0.915   5.813   4.317
 7536SOL     OW23506   4.697   5.656   3.751
 7536SOL    HW123507   4.615   5.677   3.697
 7536SOL    HW223508   4.736   5.570   3.720
 7537SOL     OW23509   2.839   6.137   2.603
 7537SOL    HW123510   2.861   6.227   2.641
 7537SOL    HW223511   2.743   6.116   2.621
 7538SOL     OW23512   0.640   3.522   1.581
 7538SOL    HW123513   0.694   3.514   1.497
 7538SOL    HW223514   0.700   3.505   1.660
 7539SOL     OW23515   0.273   5.262   3.756
 7539SOL    HW123516   0.340   5.199   3.718
 7539SOL    HW223517   0.199   5.210   3.799
 7540SOL     OW23518   5.714   5.744   4.102
 7540SOL    HW123519   5.641   5.676   4.108
 7540SOL    HW223520   5.679   5.834   4.127
 7541SOL     OW23521   0.797   3.915   6.561
 7541SOL    HW123522   0.858   3.929   6.483
 7541SOL    HW223523   0.710   3.877   6.529
 7542SOL     OW23524   6.080   5.519   6.151
 7542SOL    HW123525   6.149   5.575   6.105
 7542SOL    HW223526   6.027   5.469   6.082
 7543SOL     OW23527   2.694   0.752   5.337
 7543SOL    HW123528   2.669   0.730   5.242
 7543SOL    HW223529   2.638   0.828   5.369
 7544SOL     OW23530   6.869   2.900   3.712
 7544SOL    HW123531   6.911   2.991   3.711
 7544SOL    HW223532   6.770   2.909   3.724
 7545SOL     OW23533   0.941   5.215   6.938
 7545SOL    HW123534   0.868   5.282   6.929
 7545SOL    HW223535   0.945   5.159   6.855
 7546SOL     OW23536   3.169   3.025   1.726
 7546SOL    HW123537   3.258   3.064   1.704
 7546SOL    HW223538   3.174   2.978   1.814
 7547SOL     OW23539   4.436   0.383   1.684
 7547SOL    HW123540   4.449   0.441   1.764
 7547SOL    HW223541   4.378   0.306   1.708
 7548SOL     OW23542   4.617   2.427   6.071
 7548SOL    HW123543   4.705   2.432   6.024
 7548SOL    HW223544   4.548   2.475   6.017
 7549SOL     OW23545   4.440   2.610   5.060
 7549SOL    HW123546   4.367   2.547   5.087
 7549SOL    HW223547   4.400   2.697   5.030
 7550SOL     OW23548   1.811   3.999   3.772
 7550SOL    HW123549   1.852   3.950   3.695
 7550SOL    HW223550   1.883   4.048   3.822
 7551SOL     OW23551   5.707   1.853   5.091
 7551SOL    HW123552   5.768   1.820   5.163
 7551SOL    HW223553   5.721   1.799   5.008
 7552SOL     OW23554   2.181   5.819   4.985
 7552SOL    HW123555   2.216   5.725   4.984
 7552SOL    HW223556   2.136   5.839   4.898
 7553SOL     OW23557   5.484   6.330   6.539
 7553SOL    HW123558   5.424   6.405   6.510
 7553SOL    HW223559   5.576   6.366   6.553
 7554SOL     OW23560   5.064   1.272   0.600
 7554SOL    HW123561   5.097   1.193   0.549
 7554SOL    HW223562   5.120   1.285   0.682
 7555SOL     OW23563   3.650   5.362   6.656
 7555SOL    HW123564   3.644   5.264   6.672
 7555SOL    HW223565   3.574   5.392   6.598
 7556SOL     OW23566   0.539   0.694   0.680
 7556SOL    HW123567   0.489   0.660   0.601
 7556SOL    HW223568   0.621   0.639   0.695
 7557SOL     OW23569   4.791   0.384   0.311
 7557SOL    HW123570   4.889   0.393   0.295
 7557SOL    HW223571   4.775   0.341   0.400
 7558SOL     OW23572   1.452   2.485   4.220
 7558SOL    HW123573   1.482   2.446   4.133
 7558SOL    HW223574   1.482   2.426   4.295
 7559SOL     OW23575   3.871   2.152   4.948
 7559SOL    HW123576   3.901   2.115   4.860
 7559SOL    HW223577   3.941   2.216   4.981
 7560SOL     OW23578   6.867   0.527   6.357
 7560SOL    HW123579   6.778   0.562   6.328
 7560SOL    HW223580   6.935   0.545   6.285
 7561SOL     OW23581   5.525   2.256   5.346
 7561SOL    HW123582   5.613   2.228   5.384
 7561SOL    HW223583   5.538   2.284   5.251
 7562SOL     OW23584   1.350   5.053   4.565
 7562SOL    HW123585   1.277   5.120   4.547
 7562SOL    HW223586   1.378   5.061   4.660
 7563SOL     OW23587   3.699   6.234   2.224
 7563SOL    HW123588   3.765   6.161   2.243
 7563SOL    HW223589   3.748   6.321   2.215
 7564SOL     OW23590   4.357   1.258   3.995
 7564SOL    HW123591   4.404   1.237   3.909
 7564SOL    HW223592   4.423   1.258   4.070
 7565SOL     OW23593   5.552   3.462   6.247
 7565SOL    HW123594   5.597   3.373   6.251
 7565SOL    HW223595   5.617   3.534   6.272
 7566SOL     OW23596   4.517   4.323   1.541
 7566SOL    HW123597   4.506   4.373   1.455
 7566SOL    HW223598   4.444   4.254   1.549
 7567SOL     OW23599   0.637   0.781   4.711
 7567SOL    HW123600   0.636   0.686   4.741
 7567SOL    HW223601   0.606   0.787   4.616
 7568SOL     OW23602   6.112   5.558   1.333
 7568SOL    HW123603   6.159   5.544   1.420
 7568SOL    HW223604   6.022   5.513   1.336
 7569SOL     OW23605   4.200   3.818   6.983
 7569SOL    HW123606   4.119   3.790   6.931
 7569SOL    HW223607   4.276   3.834   6.920
 7570SOL     OW23608   6.363   2.760   3.221
 7570SOL    HW123609   6.307   2.750   3.138
 7570SOL    HW223610   6.399   2.853   3.225
 7571SOL     OW23611   5.178   3.512   2.723
 7571SOL    HW123612   5.112   3.438   2.734
 7571SOL    HW223613   5.266   3.474   2.693
 7572SOL     OW23614   5.246   6.345   2.666
 7572SOL    HW123615   5.274   6.328   2.572
 7572SOL    HW223616   5.164   6.403   2.667
 7573SOL     OW23617   5.532   6.472   5.775
 7573SOL    HW123618   5.502   6.438   5.686
 7573SOL    HW223619   5.549   6.394   5.836
 7574SOL     OW23620   6.600   1.419   4.238
 7574SOL    HW123621   6.656   1.355   4.186
 7574SOL    HW223622   6.508   1.383   4.249
 7575SOL     OW23623   6.918   6.141   1.260
 7575SOL    HW123624   7.007   6.101   1.238
 7575SOL    HW223625   6.885   6.195   1.183
 7576SOL     OW23626   5.562   2.831   0.510
 7576SOL    HW123627   5.497   2.756   0.516
 7576SOL    HW223628   5.651   2.796   0.480
 7577SOL     OW23629   0.691   0.082   6.777
 7577SOL    HW123630   0.613   0.145   6.779
 7577SOL    HW223631   0.765   0.123   6.724
 7578SOL     OW23632   0.015   5.658   3.748
 7578SOL    HW123633   0.064   5.713   3.680
 7578SOL    HW223634   6.990   5.581   3.703
 7579SOL     OW23635   6.757   1.187   0.707
 7579SOL    HW123636   6.658   1.170   0.716
 7579SOL    HW223637   6.787   1.160   0.616
 7580SOL     OW23638   2.254   4.877   3.642
 7580SOL    HW123639   2.279   4.961   3.690
 7580SOL    HW223640   2.267   4.798   3.704
 7581SOL     OW23641   6.994   0.924   1.639
 7581SOL    HW123642   0.016   0.835   1.660
 7581SOL    HW223643   0.015   0.994   1.697
 7582SOL     OW23644   3.439   2.098   4.378
 7582SOL    HW123645   3.499   2.152   4.319
 7582SOL    HW223646   3.471   2.104   4.473
 7583SOL     OW23647   5.013   3.472   3.617
 7583SOL    HW123648   4.943   3.524   3.666
 7583SOL    HW223649   5.069   3.421   3.682
 7584SOL     OW23650   0.724   1.289   3.278
 7584SOL    HW123651   0.778   1.338   3.210
 7584SOL    HW223652   0.628   1.292   3.253
 7585SOL     OW23653   1.121   2.246   6.756
 7585SOL    HW123654   1.198   2.205   6.805
 7585SOL    HW223655   1.038   2.238   6.811
 7586SOL     OW23656   1.050   1.179   2.681
 7586SOL    HW123657   1.055   1.132   2.593
 7586SOL    HW223658   0.967   1.234   2.685
 7587SOL     OW23659   3.318   1.210   0.812
 7587SOL    HW123660   3.367   1.218   0.725
 7587SOL    HW223661   3.379   1.233   0.887
 7588SOL     OW23662   1.480   2.674   4.618
 7588SOL    HW123663   1.403   2.684   4.556
 7588SOL    HW223664   1.457   2.713   4.707
 7589SOL     OW23665   0.126   1.313   3.110
 7589SOL    HW123666   0.174   1.227   3.127
 7589SOL    HW223667   0.031   1.293   3.085
 7590SOL     OW23668   6.884   1.593   0.303
 7590SOL    HW123669   6.786   1.591   0.326
 7590SOL    HW223670   6.920   1.685   0.319
 7591SOL     OW23671   4.218   3.015   6.189
 7591SOL    HW123672   4.185   3.068   6.267
 7591SOL    HW223673   4.317   3.027   6.181
 7592SOL     OW23674   6.652   6.227   5.024
 7592SOL    HW123675   6.601   6.213   4.939
 7592SOL    HW223676   6.720   6.155   5.035
 7593SOL     OW23677   0.125   1.330   5.723
 7593SOL    HW123678   0.216   1.372   5.724
 7593SOL    HW223679   0.127   1.248   5.667
 7594SOL     OW23680   0.252   3.994   1.282
 7594SOL    HW123681   0.229   3.965   1.189
 7594SOL    HW223682   0.352   3.996   1.293
 7595SOL     OW23683   6.096   2.440   6.181
 7595SOL    HW123684   6.052   2.494   6.252
 7595SOL    HW223685   6.108   2.496   6.099
 7596SOL     OW23686   2.952   1.004   5.221
 7596SOL    HW123687   3.039   0.958   5.209
 7596SOL    HW223688   2.945   1.080   5.156
 7597SOL     OW23689   1.734   5.009   2.082
 7597SOL    HW123690   1.778   4.923   2.055
 7597SOL    HW223691   1.643   5.015   2.041
 7598SOL     OW23692   5.993   0.899   3.309
 7598SOL    HW123693   5.959   0.816   3.353
 7598SOL    HW223694   5.928   0.973   3.324
 7599SOL     OW23695   4.044   3.414   0.902
 7599SOL    HW123696   3.953   3.382   0.878
 7599SOL    HW223697   4.086   3.351   0.967
 7600SOL     OW23698   1.109   1.350   3.989
 7600SOL    HW123699   1.023   1.389   4.021
 7600SOL    HW223700   1.153   1.412   3.924
 7601SOL     OW23701   3.845   5.808   2.090
 7601SOL    HW123702   3.909   5.737   2.119
 7601SOL    HW223703   3.768   5.766   2.041
 7602SOL     OW23704   0.188   1.527   0.909
 7602SOL    HW123705   0.165   1.557   0.816
 7602SOL    HW223706   0.158   1.432   0.921
 7603SOL     OW23707   2.275   0.547   5.963
 7603SOL    HW123708   2.293   0.527   5.866
 7603SOL    HW223709   2.344   0.612   5.996
 7604SOL     OW23710   1.233   2.103   4.962
 7604SOL    HW123711   1.144   2.063   4.943
 7604SOL    HW223712   1.304   2.049   4.918
 7605SOL     OW23713   3.067   0.035   6.913
 7605SOL    HW123714   3.068   0.113   6.851
 7605SOL    HW223715   3.017   0.058   6.996
 7606SOL     OW23716   6.388   1.541   3.701
 7606SOL    HW123717   6.427   1.510   3.787
 7606SOL    HW223718   6.320   1.613   3.718
 7607SOL     OW23719   3.115   5.888   5.917
 7607SOL    HW123720   3.137   5.952   5.991
 7607SOL    HW223721   3.191   5.884   5.853
 7608SOL     OW23722   5.787   2.833   5.960
 7608SOL    HW123723   5.886   2.822   5.962
 7608SOL    HW223724   5.761   2.908   6.021
 7609SOL     OW23725   0.549   2.025   4.819
 7609SOL    HW123726   0.475   2.048   4.755
 7609SOL    HW223727   0.637   2.037   4.773
 7610SOL     OW23728   3.453   4.834   5.919
 7610SOL    HW123729   3.531   4.869   5.867
 7610SOL    HW223730   3.439   4.891   6.001
 7611SOL     OW23731   4.739   3.188   1.577
 7611SOL    HW123732   4.686   3.255   1.628
 7611SOL    HW223733   4.688   3.102   1.572
 7612SOL     OW23734   2.989   1.888   2.971
 7612SOL    HW123735   3.027   1.917   3.059
 7612SOL    HW223736   2.906   1.834   2.986
 7613SOL     OW23737   1.481   1.799   2.217
 7613SOL    HW123738   1.561   1.778   2.272
 7613SOL    HW223739   1.425   1.868   2.263
 7614SOL     OW23740   4.964   3.328   0.669
 7614SOL    HW123741   4.985   3.268   0.592
 7614SOL    HW223742   4.988   3.282   0.754
 7615SOL     OW23743   5.340   3.098   4.531
 7615SOL    HW123744   5.332   3.025   4.463
 7615SOL    HW223745   5.437   3.122   4.543
 7616SOL     OW23746   6.320   6.826   3.370
 7616SOL    HW123747   6.232   6.816   3.324
 7616SOL    HW223748   6.308   6.879   3.454
 7617SOL     OW23749   5.032   5.344   3.352
 7617SOL    HW123750   5.030   5.443   3.338
 7617SOL    HW223751   5.083   5.301   3.278
 7618SOL     OW23752   2.989   2.575   0.236
 7618SOL    HW123753   2.967   2.481   0.209
 7618SOL    HW223754   3.050   2.574   0.315
 7619SOL     OW23755   0.622   2.349   4.201
 7619SOL    HW123756   0.667   2.360   4.289
 7619SOL    HW223757   0.556   2.423   4.188
 7620SOL     OW23758   3.926   4.037   1.196
 7620SOL    HW123759   3.893   4.074   1.283
 7620SOL    HW223760   4.022   4.010   1.206
 7621SOL     OW23761   0.481   5.742   0.958
 7621SOL    HW123762   0.452   5.838   0.954
 7621SOL    HW223763   0.579   5.736   0.939
 7622SOL     OW23764   3.818   4.660   0.552
 7622SOL    HW123765   3.875   4.711   0.616
 7622SOL    HW223766   3.745   4.720   0.519
 7623SOL     OW23767   4.896   4.942   1.141
 7623SOL    HW123768   4.948   5.008   1.195
 7623SOL    HW223769   4.907   4.851   1.181
 7624SOL     OW23770   0.532   2.890   2.137
 7624SOL    HW123771   0.567   2.849   2.053
 7624SOL    HW223772   0.491   2.820   2.195
 7625SOL     OW23773   5.394   2.148   0.234
 7625SOL    HW123774   5.400   2.171   0.136
 7625SOL    HW223775   5.420   2.053   0.248
 7626SOL     OW23776   5.433   0.272   5.060
 7626SOL    HW123777   5.392   0.218   4.986
 7626SOL    HW223778   5.497   0.338   5.020
 7627SOL     OW23779   3.069   1.584   6.919
 7627SOL    HW123780   3.066   1.555   7.015
 7627SOL    HW223781   2.980   1.566   6.876
 7628SOL     OW23782   3.648   3.052   0.530
 7628SOL    HW123783   3.590   3.063   0.611
 7628SOL    HW223784   3.734   3.008   0.556
 7629SOL     OW23785   5.793   3.066   4.240
 7629SOL    HW123786   5.844   3.020   4.313
 7629SOL    HW223787   5.835   3.154   4.221
 7630SOL     OW23788   1.710   0.195   5.076
 7630SOL    HW123789   1.798   0.219   5.116
 7630SOL    HW223790   1.723   0.163   4.982
 7631SOL     OW23791   1.998   0.010   5.149
 7631SOL    HW123792   2.081   6.994   5.193
 7631SOL    HW223793   1.990   0.108   5.166
 7632SOL     OW23794   4.878   5.983   1.059
 7632SOL    HW123795   4.877   5.919   0.982
 7632SOL    HW223796   4.968   6.026   1.066
 7633SOL     OW23797   6.236   1.133   1.032
 7633SOL    HW123798   6.159   1.079   0.998
 7633SOL    HW223799   6.299   1.074   1.083
 7634SOL     OW23800   1.092   2.246   0.664
 7634SOL    HW123801   1.132   2.231   0.573
 7634SOL    HW223802   1.001   2.205   0.667
 7635SOL     OW23803   2.571   5.177   5.929
 7635SOL    HW123804   2.612   5.089   5.954
 7635SOL    HW223805   2.501   5.162   5.858
 7636SOL     OW23806   0.681   3.758   4.933
 7636SOL    HW123807   0.640   3.805   5.012
 7636SOL    HW223808   0.762   3.708   4.962
 7637SOL     OW23809   0.517   6.229   4.448
 7637SOL    HW123810   0.532   6.154   4.383
 7637SOL    HW223811   0.449   6.200   4.516
 7638SOL     OW23812   0.900   5.371   1.570
 7638SOL    HW123813   0.955   5.455   1.568
 7638SOL    HW223814   0.960   5.291   1.575
 7639SOL     OW23815   1.051   1.259   0.574
 7639SOL    HW123816   1.038   1.162   0.593
 7639SOL    HW223817   1.076   1.272   0.478
 7640SOL     OW23818   3.332   1.021   6.357
 7640SOL    HW123819   3.297   0.928   6.367
 7640SOL    HW223820   3.255   1.083   6.339
 7641SOL     OW23821   6.938   3.947   2.891
 7641SOL    HW123822   6.970   3.868   2.943
 7641SOL    HW223823   7.006   3.971   2.821
 7642SOL     OW23824   5.949   1.264   3.717
 7642SOL    HW123825   5.918   1.359   3.706
 7642SOL    HW223826   6.048   1.259   3.704
 7643SOL     OW23827   4.965   2.785   2.972
 7643SOL    HW123828   4.918   2.865   3.008
 7643SOL    HW223829   4.917   2.702   2.999
 7644SOL     OW23830   4.879   3.556   1.385
 7644SOL    HW123831   4.786   3.527   1.365
 7644SOL    HW223832   4.877   3.643   1.436
 7645SOL     OW23833   3.071   3.606   5.856
 7645SOL    HW123834   3.101   3.701   5.852
 7645SOL    HW223835   2.981   3.601   5.899
 7646SOL     OW23836   0.872   2.476   3.234
 7646SOL    HW123837   0.932   2.435   3.164
 7646SOL    HW223838   0.806   2.536   3.189
 7647SOL     OW23839   6.950   2.812   5.006
 7647SOL    HW123840   6.886   2.802   5.082
 7647SOL    HW223841   0.025   2.801   5.039
 7648SOL     OW23842   2.343   2.171   2.699
 7648SOL    HW123843   2.411   2.102   2.726
 7648SOL    HW223844   2.345   2.247   2.764
 7649SOL     OW23845   6.305   0.627   5.445
 7649SOL    HW123846   6.355   0.571   5.511
 7649SOL    HW223847   6.313   0.723   5.469
 7650SOL     OW23848   4.105   1.176   1.486
 7650SOL    HW123849   4.155   1.131   1.412
 7650SOL    HW223850   4.161   1.251   1.522
 7651SOL     OW23851   2.431   4.922   4.981
 7651SOL    HW123852   2.474   4.889   5.065
 7651SOL    HW223853   2.408   5.019   4.991
 7652SOL     OW23854   5.793   1.445   4.405
 7652SOL    HW123855   5.702   1.440   4.448
 7652SOL    HW223856   5.842   1.524   4.442
 7653SOL     OW23857   0.553   2.379   6.891
 7653SOL    HW123858   0.594   2.340   6.808
 7653SOL    HW223859   0.626   2.402   6.956
 7654SOL     OW23860   5.924   2.963   5.478
 7654SOL    HW123861   5.977   2.881   5.458
 7654SOL    HW223862   5.872   2.950   5.563
 7655SOL     OW23863   3.077   0.699   3.379
 7655SOL    HW123864   3.013   0.731   3.309
 7655SOL    HW223865   3.151   0.765   3.389
 7656SOL     OW23866   6.617   3.596   6.955
 7656SOL    HW123867   6.699   3.631   6.911
 7656SOL    HW223868   6.607   3.498   6.934
 7657SOL     OW23869   1.710   3.756   4.727
 7657SOL    HW123870   1.715   3.843   4.678
 7657SOL    HW223871   1.618   3.744   4.765
 7658SOL     OW23872   2.517   0.998   0.584
 7658SOL    HW123873   2.575   1.019   0.663
 7658SOL    HW223874   2.550   1.049   0.504
 7659SOL     OW23875   4.321   3.832   5.282
 7659SOL    HW123876   4.417   3.847   5.260
 7659SOL    HW223877   4.301   3.869   5.373
 7660SOL     OW23878   7.000   4.438   4.518
 7660SOL    HW123879   6.934   4.364   4.503
 7660SOL    HW223880   6.951   4.521   4.547
 7661SOL     OW23881   4.757   2.991   5.589
 7661SOL    HW123882   4.729   2.899   5.563
 7661SOL    HW223883   4.678   3.052   5.585
 7662SOL     OW23884   1.129   2.248   2.413
 7662SOL    HW123885   1.190   2.173   2.391
 7662SOL    HW223886   1.183   2.327   2.443
 7663SOL     OW23887   6.219   5.461   5.545
 7663SOL    HW123888   6.269   5.495   5.465
 7663SOL    HW223889   6.276   5.470   5.626
 7664SOL     OW23890   3.571   2.025   3.078
 7664SOL    HW123891   3.478   2.053   3.100
 7664SOL    HW223892   3.582   1.927   3.098
 7665SOL     OW23893   4.104   1.763   4.368
 7665SOL    HW123894   4.013   1.743   4.333
 7665SOL    HW223895   4.172   1.709   4.317
 7666SOL     OW23896   6.029   5.665   3.491
 7666SOL    HW123897   6.040   5.713   3.404
 7666SOL    HW223898   5.936   5.630   3.499
 7667SOL     OW23899   5.316   6.286   2.142
 7667SOL    HW123900   5.227   6.329   2.129
 7667SOL    HW223901   5.355   6.262   2.053
 7668SOL     OW23902   2.067   5.091   1.378
 7668SOL    HW123903   2.102   5.181   1.354
 7668SOL    HW223904   2.052   5.086   1.477
 7669SOL     OW23905   2.520   6.610   6.000
 7669SOL    HW123906   2.620   6.615   6.001
 7669SOL    HW223907   2.486   6.635   5.910
 7670SOL     OW23908   0.435   6.665   6.960
 7670SOL    HW123909   0.425   6.617   0.028
 7670SOL    HW223910   0.486   6.607   6.896
 7671SOL     OW23911   4.812   0.876   1.284
 7671SOL    HW123912   4.755   0.831   1.353
 7671SOL    HW223913   4.878   0.936   1.329
 7672SOL     OW23914   5.309   4.828   2.742
 7672SOL    HW123915   5.306   4.768   2.663
 7672SOL    HW223916   5.293   4.774   2.825
 7673SOL     OW23917   0.778   5.242   3.822
 7673SOL    HW123918   0.743   5.336   3.820
 7673SOL    HW223919   0.799   5.213   3.729
 7674SOL     OW23920   4.354   0.153   4.339
 7674SOL    HW123921   4.326   0.209   4.418
 7674SOL    HW223922   4.452   0.165   4.323
 7675SOL     OW23923   3.435   6.676   2.552
 7675SOL    HW123924   3.490   6.644   2.475
 7675SOL    HW223925   3.339   6.649   2.536
 7676SOL     OW23926   3.024   2.750   5.533
 7676SOL    HW123927   2.990   2.690   5.462
 7676SOL    HW223928   2.960   2.826   5.546
 7677SOL     OW23929   5.791   4.925   1.946
 7677SOL    HW123930   5.785   4.871   1.862
 7677SOL    HW223931   5.699   4.939   1.983
 7678SOL     OW23932   1.236   1.269   5.636
 7678SOL    HW123933   1.152   1.302   5.679
 7678SOL    HW223934   1.221   1.178   5.599
 7679SOL     OW23935   1.603   5.428   5.416
 7679SOL    HW123936   1.638   5.460   5.328
 7679SOL    HW223937   1.676   5.378   5.464
 7680SOL     OW23938   1.786   0.848   5.288
 7680SOL    HW123939   1.847   0.817   5.215
 7680SOL    HW223940   1.825   0.827   5.377
 7681SOL     OW23941   2.965   3.387   6.426
 7681SOL    HW123942   2.973   3.348   6.517
 7681SOL    HW223943   2.868   3.400   6.404
 7682SOL     OW23944   3.127   1.539   2.690
 7682SOL    HW123945   3.084   1.602   2.625
 7682SOL    HW223946   3.067   1.527   2.769
 7683SOL     OW23947   0.726   1.101   4.467
 7683SOL    HW123948   0.631   1.085   4.494
 7683SOL    HW223949   0.778   1.016   4.479
 7684SOL     OW23950   3.816   1.939   1.301
 7684SOL    HW123951   3.830   2.006   1.374
 7684SOL    HW223952   3.733   1.887   1.318
 7685SOL     OW23953   3.020   1.169   0.133
 7685SOL    HW123954   2.945   1.144   0.071
 7685SOL    HW223955   2.989   1.161   0.228
 7686SOL     OW23956   5.541   0.813   4.073
 7686SOL    HW123957   5.457   0.852   4.112
 7686SOL    HW223958   5.570   0.867   3.995
 7687SOL     OW23959   5.775   5.602   4.811
 7687SOL    HW123960   5.837   5.530   4.838
 7687SOL    HW223961   5.687   5.562   4.784
 7688SOL     OW23962   0.922   5.031   6.724
 7688SOL    HW123963   0.922   5.049   6.626
 7688SOL    HW223964   0.970   4.945   6.743
 7689SOL     OW23965   4.929   0.242   2.076
 7689SOL    HW123966   5.027   0.260   2.080
 7689SOL    HW223967   4.913   0.143   2.087
 7690SOL     OW23968   6.587   5.138   0.915
 7690SOL    HW123969   6.618   5.229   0.888
 7690SOL    HW223970   6.666   5.081   0.937
 7691SOL     OW23971   4.572   4.768   3.294
 7691SOL    HW123972   4.495   4.707   3.313
 7691SOL    HW223973   4.566   4.848   3.355
 7692SOL     OW23974   1.688   6.440   2.347
 7692SOL    HW123975   1.761   6.509   2.353
 7692SOL    HW223976   1.671   6.419   2.251
 7693SOL     OW23977   2.654   1.441   1.047
 7693SOL    HW123978   2.751   1.416   1.045
 7693SOL    HW223979   2.623   1.446   1.142
 7694SOL     OW23980   6.076   2.147   4.821
 7694SOL    HW123981   6.007   2.087   4.861
 7694SOL    HW223982   6.059   2.241   4.850
 7695SOL     OW23983   5.867   0.681   2.626
 7695SOL    HW123984   5.944   0.729   2.584
 7695SOL    HW223985   5.888   0.661   2.722
 7696SOL     OW23986   0.501   2.906   6.272
 7696SOL    HW123987   0.405   2.916   6.247
 7696SOL    HW223988   0.514   2.933   6.367
 7697SOL     OW23989   4.213   0.244   2.876
 7697SOL    HW123990   4.181   0.240   2.781
 7697SOL    HW223991   4.145   0.203   2.936
 7698SOL     OW23992   6.250   1.796   6.821
 7698SOL    HW123993   6.290   1.746   6.897
 7698SOL    HW223994   6.302   1.880   6.806
 7699SOL     OW23995   3.608   5.446   6.002
 7699SOL    HW123996   3.532   5.510   6.009
 7699SOL    HW223997   3.654   5.439   6.091
 7700SOL     OW23998   4.891   5.342   2.457
 7700SOL    HW123999   4.800   5.317   2.490
 7700SOL    HW224000   4.959   5.286   2.504
 7701SOL     OW24001   0.166   2.558   5.948
 7701SOL    HW124002   0.243   2.578   6.009
 7701SOL    HW224003   0.101   2.634   5.952
 7702SOL     OW24004   4.764   0.218   4.514
 7702SOL    HW124005   4.826   0.295   4.524
 7702SOL    HW224006   4.716   0.224   4.426
 7703SOL     OW24007   6.441   6.453   4.726
 7703SOL    HW124008   6.474   6.483   4.816
 7703SOL    HW224009   6.440   6.531   4.663
 7704SOL     OW24010   6.241   1.181   4.488
 7704SOL    HW124011   6.277   1.190   4.396
 7704SOL    HW224012   6.148   1.219   4.491
 7705SOL     OW24013   2.259   5.228   0.400
 7705SOL    HW124014   2.294   5.271   0.483
 7705SOL    HW224015   2.186   5.285   0.361
 7706SOL     OW24016   3.643   3.252   2.272
 7706SOL    HW124017   3.585   3.333   2.280
 7706SOL    HW224018   3.621   3.204   2.187
 7707SOL     OW24019   6.624   5.609   6.742
 7707SOL    HW124020   6.686   5.537   6.711
 7707SOL    HW224021   6.677   5.680   6.788
 7708SOL     OW24022   2.205   6.732   4.815
 7708SOL    HW124023   2.165   6.642   4.835
 7708SOL    HW224024   2.144   6.804   4.848
 7709SOL     OW24025   0.492   4.898   1.461
 7709SOL    HW124026   0.433   4.916   1.540
 7709SOL    HW224027   0.464   4.813   1.417
 7710SOL     OW24028   1.394   3.548   0.658
 7710SOL    HW124029   1.464   3.551   0.729
 7710SOL    HW224030   1.421   3.608   0.583
 7711SOL     OW24031   6.630   5.052   5.062
 7711SOL    HW124032   6.591   4.960   5.056
 7711SOL    HW224033   6.695   5.056   5.138
 7712SOL     OW24034   6.710   4.781   6.051
 7712SOL    HW124035   6.659   4.807   5.969
 7712SOL    HW224036   6.648   4.737   6.116
 7713SOL     OW24037   1.909   4.998   0.428
 7713SOL    HW124038   1.958   4.913   0.409
 7713SOL    HW224039   1.866   4.993   0.518
 7714SOL     OW24040   6.640   0.621   4.515
 7714SOL    HW124041   6.637   0.721   4.523
 7714SOL    HW224042   6.734   0.590   4.529
 7715SOL     OW24043   2.392   2.702   5.872
 7715SOL    HW124044   2.399   2.737   5.965
 7715SOL    HW224045   2.370   2.776   5.809
 7716SOL     OW24046   0.985   5.502   5.798
 7716SOL    HW124047   1.027   5.501   5.708
 7716SOL    HW224048   1.046   5.457   5.864
 7717SOL     OW24049   1.640   1.716   0.019
 7717SOL    HW124050   1.627   1.744   0.114
 7717SOL    HW224051   1.551   1.712   6.992
 7718SOL     OW24052   1.400   4.335   2.731
 7718SOL    HW124053   1.412   4.315   2.828
 7718SOL    HW224054   1.318   4.391   2.719
 7719SOL     OW24055   1.591   3.780   5.168
 7719SOL    HW124056   1.532   3.827   5.102
 7719SOL    HW224057   1.641   3.707   5.122
 7720SOL     OW24058   5.925   1.444   6.715
 7720SOL    HW124059   5.934   1.466   6.618
 7720SOL    HW224060   5.960   1.519   6.770
 7721SOL     OW24061   0.560   0.635   2.634
 7721SOL    HW124062   0.616   0.658   2.555
 7721SOL    HW224063   0.476   0.689   2.633
 7722SOL     OW24064   2.273   5.858   3.923
 7722SOL    HW124065   2.361   5.811   3.921
 7722SOL    HW224066   2.263   5.912   3.839
 7723SOL     OW24067   4.728   4.008   0.567
 7723SOL    HW124068   4.782   4.047   0.642
 7723SOL    HW224069   4.672   3.933   0.603
 7724SOL     OW24070   2.549   4.324   1.729
 7724SOL    HW124071   2.545   4.331   1.629
 7724SOL    HW224072   2.461   4.293   1.764
 7725SOL     OW24073   5.551   3.141   3.449
 7725SOL    HW124074   5.458   3.159   3.482
 7725SOL    HW224075   5.570   3.196   3.368
 7726SOL     OW24076   0.182   3.623   6.220
 7726SOL    HW124077   0.182   3.578   6.131
 7726SOL    HW224078   0.275   3.628   6.255
 7727SOL     OW24079   4.963   2.432   2.364
 7727SOL    HW124080   4.873   2.446   2.404
 7727SOL    HW224081   4.956   2.433   2.265
 7728SOL     OW24082   2.102   3.116   5.032
 7728SOL    HW124083   2.194   3.079   5.048
 7728SOL    HW224084   2.060   3.142   5.119
 7729SOL     OW24085   5.885   2.087   3.816
 7729SOL    HW124086   5.846   2.057   3.903
 7729SOL    HW224087   5.973   2.132   3.833
 7730SOL     OW24088   6.170   4.016   5.215
 7730SOL    HW124089   6.093   3.995   5.154
 7730SOL    HW224090   6.141   4.080   5.286
 7731SOL     OW24091   5.753   6.862   0.433
 7731SOL    HW124092   5.844   6.896   0.453
 7731SOL    HW224093   5.692   6.881   0.510
 7732SOL     OW24094   4.527   0.319   6.393
 7732SOL    HW124095   4.462   0.339   6.320
 7732SOL    HW224096   4.564   0.227   6.381
 7733SOL     OW24097   6.675   5.998   2.215
 7733SOL    HW124098   6.641   6.045   2.134
 7733SOL    HW224099   6.750   6.051   2.254
 7734SOL     OW24100   3.068   3.824   5.096
 7734SOL    HW124101   3.153   3.856   5.055
 7734SOL    HW224102   3.002   3.805   5.024
 7735SOL     OW24103   6.857   6.081   0.799
 7735SOL    HW124104   6.783   6.018   0.778
 7735SOL    HW224105   6.885   6.129   0.715
 7736SOL     OW24106   3.013   3.107   0.433
 7736SOL    HW124107   2.975   3.155   0.512
 7736SOL    HW224108   2.941   3.055   0.387
 7737SOL     OW24109   4.030   4.489   1.732
 7737SOL    HW124110   3.944   4.539   1.747
 7737SOL    HW224111   4.020   4.428   1.654
 7738SOL     OW24112   2.970   6.564   6.719
 7738SOL    HW124113   2.973   6.656   6.759
 7738SOL    HW224114   2.935   6.569   6.625
 7739SOL     OW24115   1.259   2.133   1.058
 7739SOL    HW124116   1.352   2.095   1.058
 7739SOL    HW224117   1.194   2.060   1.038
 7740SOL     OW24118   1.388   0.883   4.377
 7740SOL    HW124119   1.346   0.958   4.326
 7740SOL    HW224120   1.446   0.920   4.450
 7741SOL     OW24121   1.637   4.377   5.980
 7741SOL    HW124122   1.638   4.296   5.921
 7741SOL    HW224123   1.692   4.360   6.061
 7742SOL     OW24124   3.850   1.484   4.048
 7742SOL    HW124125   3.781   1.524   3.988
 7742SOL    HW224126   3.908   1.421   3.996
 7743SOL     OW24127   4.908   1.621   6.057
 7743SOL    HW124128   4.995   1.590   6.019
 7743SOL    HW224129   4.893   1.578   6.145
 7744SOL     OW24130   0.193   6.321   4.394
 7744SOL    HW124131   0.226   6.376   4.317
 7744SOL    HW224132   0.226   6.362   4.480
 7745SOL     OW24133   1.942   6.298   0.411
 7745SOL    HW124134   1.968   6.391   0.387
 7745SOL    HW224135   1.898   6.254   0.333
 7746SOL     OW24136   1.400   6.376   0.751
 7746SOL    HW124137   1.377   6.279   0.758
 7746SOL    HW224138   1.461   6.401   0.826
 7747SOL     OW24139   1.019   6.256   1.083
 7747SOL    HW124140   0.949   6.202   1.037
 7747SOL    HW224141   1.075   6.302   1.014
 7748SOL     OW24142   4.371   2.921   5.435
 7748SOL    HW124143   4.355   3.012   5.396
 7748SOL    HW224144   4.297   2.860   5.407
 7749SOL     OW24145   3.544   3.498   4.118
 7749SOL    HW124146   3.460   3.474   4.167
 7749SOL    HW224147   3.587   3.416   4.081
 7750SOL     OW24148   5.741   5.084   5.593
 7750SOL    HW124149   5.838   5.063   5.601
 7750SOL    HW224150   5.724   5.132   5.506
 7751SOL     OW24151   0.023   0.977   4.888
 7751SOL    HW124152   6.976   0.934   4.826
 7751SOL    HW224153   0.074   0.907   4.937
 7752SOL     OW24154   5.805   5.584   5.327
 7752SOL    HW124155   5.755   5.630   5.253
 7752SOL    HW224156   5.887   5.637   5.349
 7753SOL     OW24157   1.965   0.821   4.347
 7753SOL    HW124158   2.050   0.852   4.389
 7753SOL    HW224159   1.902   0.789   4.419
 7754SOL     OW24160   5.771   0.527   0.702
 7754SOL    HW124161   5.714   0.566   0.774
 7754SOL    HW224162   5.782   0.429   0.718
 7755SOL     OW24163   0.568   5.783   5.343
 7755SOL    HW124164   0.521   5.721   5.280
 7755SOL    HW224165   0.502   5.843   5.387
 7756SOL     OW24166   3.073   5.150   2.329
 7756SOL    HW124167   3.050   5.172   2.234
 7756SOL    HW224168   3.025   5.067   2.358
 7757SOL     OW24169   4.341   6.457   5.589
 7757SOL    HW124170   4.424   6.469   5.533
 7757SOL    HW224171   4.262   6.450   5.529
 7758SOL     OW24172   2.632   2.247   6.065
 7758SOL    HW124173   2.635   2.185   6.144
 7758SOL    HW224174   2.650   2.195   5.981
 7759SOL     OW24175   2.166   0.528   4.250
 7759SOL    HW124176   2.157   0.566   4.342
 7759SOL    HW224177   2.172   0.603   4.184
 7760SOL     OW24178   5.068   3.000   1.989
 7760SOL    HW124179   4.990   2.986   1.928
 7760SOL    HW224180   5.058   3.088   2.035
 7761SOL     OW24181   3.092   0.208   6.709
 7761SOL    HW124182   3.171   0.212   6.647
 7761SOL    HW224183   3.011   0.178   6.658
 7762SOL     OW24184   4.121   1.775   0.356
 7762SOL    HW124185   4.185   1.751   0.282
 7762SOL    HW224186   4.072   1.858   0.331
 7763SOL     OW24187   1.897   2.044   0.748
 7763SOL    HW124188   1.839   2.061   0.827
 7763SOL    HW224189   1.969   2.114   0.743
 7764SOL     OW24190   3.869   2.947   2.131
 7764SOL    HW124191   3.884   3.045   2.132
 7764SOL    HW224192   3.937   2.902   2.188
 7765SOL     OW24193   6.466   2.992   2.870
 7765SOL    HW124194   6.466   3.018   2.967
 7765SOL    HW224195   6.506   3.066   2.816
 7766SOL     OW24196   5.981   1.685   6.787
 7766SOL    HW124197   6.055   1.747   6.814
 7766SOL    HW224198   5.895   1.735   6.788
 7767SOL     OW24199   3.892   6.038   3.907
 7767SOL    HW124200   3.898   6.136   3.890
 7767SOL    HW224201   3.851   5.993   3.827
 7768SOL     OW24202   3.833   4.879   2.120
 7768SOL    HW124203   3.738   4.855   2.101
 7768SOL    HW224204   3.840   4.910   2.215
 7769SOL     OW24205   5.351   2.099   0.559
 7769SOL    HW124206   5.282   2.032   0.585
 7769SOL    HW224207   5.308   2.171   0.503
 7770SOL     OW24208   3.148   4.806   1.536
 7770SOL    HW124209   3.061   4.759   1.548
 7770SOL    HW224210   3.207   4.788   1.615
 7771SOL     OW24211   2.940   2.175   5.778
 7771SOL    HW124212   2.918   2.267   5.809
 7771SOL    HW224213   2.910   2.163   5.683
 7772SOL     OW24214   4.844   0.767   3.890
 7772SOL    HW124215   4.789   0.850   3.886
 7772SOL    HW224216   4.786   0.691   3.919
 7773SOL     OW24217   4.287   3.881   5.537
 7773SOL    HW124218   4.355   3.949   5.566
 7773SOL    HW224219   4.236   3.849   5.616
 7774SOL     OW24220   5.268   1.632   5.875
 7774SOL    HW124221   5.258   1.655   5.778
 7774SOL    HW224222   5.262   1.716   5.930
 7775SOL     OW24223   3.310   6.878   2.217
 7775SOL    HW124224   3.379   6.812   2.189
 7775SOL    HW224225   3.349   6.970   2.215
 7776SOL     OW24226   3.789   3.623   6.070
 7776SOL    HW124227   3.696   3.623   6.035
 7776SOL    HW224228   3.790   3.658   6.164
 7777SOL     OW24229   2.409   1.166   6.910
 7777SOL    HW124230   2.377   1.085   6.960
 7777SOL    HW224231   2.428   1.239   6.975
 7778SOL     OW24232   5.725   0.348   6.641
 7778SOL    HW124233   5.725   0.419   6.712
 7778SOL    HW224234   5.792   0.371   6.571
 7779SOL     OW24235   3.469   2.405   0.776
 7779SOL    HW124236   3.493   2.500   0.755
 7779SOL    HW224237   3.553   2.350   0.777
 7780SOL     OW24238   1.776   6.109   4.608
 7780SOL    HW124239   1.716   6.172   4.656
 7780SOL    HW224240   1.730   6.072   4.528
 7781SOL     OW24241   1.350   3.681   5.808
 7781SOL    HW124242   1.301   3.711   5.727
 7781SOL    HW224243   1.408   3.603   5.785
 7782SOL     OW24244   2.393   4.090   6.330
 7782SOL    HW124245   2.300   4.121   6.347
 7782SOL    HW224246   2.431   4.140   6.251
 7783SOL     OW24247   2.436   6.161   6.900
 7783SOL    HW124248   2.345   6.145   6.861
 7783SOL    HW224249   2.459   6.258   6.889
 7784SOL     OW24250   0.749   2.868   6.656
 7784SOL    HW124251   0.752   2.940   6.725
 7784SOL    HW224252   0.842   2.838   6.635
 7785SOL     OW24253   2.176   6.431   4.126
 7785SOL    HW124254   2.124   6.494   4.185
 7785SOL    HW224255   2.112   6.370   4.079
 7786SOL     OW24256   2.996   4.706   5.352
 7786SOL    HW124257   2.931   4.762   5.403
 7786SOL    HW224258   2.945   4.641   5.295
 7787SOL     OW24259   2.259   2.879   4.795
 7787SOL    HW124260   2.280   2.935   4.876
 7787SOL    HW224261   2.240   2.938   4.717
 7788SOL     OW24262   0.977   1.564   1.823
 7788SOL    HW124263   1.043   1.631   1.856
 7788SOL    HW224264   0.921   1.531   1.899
 7789SOL     OW24265   2.734   0.592   1.261
 7789SOL    HW124266   2.770   0.637   1.179
 7789SOL    HW224267   2.637   0.572   1.248
 7790SOL     OW24268   6.452   3.854   2.836
 7790SOL    HW124269   6.447   3.814   2.744
 7790SOL    HW224270   6.449   3.954   2.829
 7791SOL     OW24271   2.862   5.083   4.612
 7791SOL    HW124272   2.774   5.036   4.615
 7791SOL    HW224273   2.846   5.182   4.614
 7792SOL     OW24274   2.486   6.101   6.149
 7792SOL    HW124275   2.579   6.075   6.177
 7792SOL    HW224276   2.458   6.182   6.199
 7793SOL     OW24277   1.198   1.047   6.014
 7793SOL    HW124278   1.195   0.971   5.949
 7793SOL    HW224279   1.167   1.131   5.969
 7794SOL     OW24280   5.312   5.336   4.670
 7794SOL    HW124281   5.240   5.405   4.658
 7794SOL    HW224282   5.325   5.286   4.584
 7795SOL     OW24283   2.017   3.829   5.941
 7795SOL    HW124284   2.024   3.883   5.858
 7795SOL    HW224285   1.966   3.745   5.923
 7796SOL     OW24286   3.428   4.001   3.419
 7796SOL    HW124287   3.439   3.912   3.464
 7796SOL    HW224288   3.517   4.046   3.413
 7797SOL     OW24289   0.130   6.304   2.957
 7797SOL    HW124290   0.141   6.394   2.915
 7797SOL    HW224291   0.038   6.296   2.995
 7798SOL     OW24292   3.524   5.646   0.277
 7798SOL    HW124293   3.496   5.550   0.267
 7798SOL    HW224294   3.612   5.650   0.325
 7799SOL     OW24295   0.174   5.295   1.011
 7799SOL    HW124296   0.232   5.356   0.957
 7799SOL    HW224297   0.114   5.243   0.950
 7800SOL     OW24298   0.454   4.907   1.933
 7800SOL    HW124299   0.514   4.978   1.968
 7800SOL    HW224300   0.501   4.853   1.864
 7801SOL     OW24301   2.045   1.472   0.207
 7801SOL    HW124302   2.059   1.474   0.108
 7801SOL    HW224303   2.068   1.561   0.246
 7802SOL     OW24304   5.513   2.528   1.738
 7802SOL    HW124305   5.420   2.562   1.732
 7802SOL    HW224306   5.570   2.592   1.790
 7803SOL     OW24307   3.970   4.186   6.063
 7803SOL    HW124308   3.974   4.087   6.076
 7803SOL    HW224309   3.920   4.206   5.979
 7804SOL     OW24310   4.971   1.747   5.081
 7804SOL    HW124311   4.973   1.840   5.042
 7804SOL    HW224312   5.028   1.687   5.025
 7805SOL     OW24313   5.274   2.542   1.939
 7805SOL    HW124314   5.269   2.442   1.939
 7805SOL    HW224315   5.350   2.571   1.997
 7806SOL     OW24316   5.402   2.799   6.266
 7806SOL    HW124317   5.493   2.760   6.249
 7806SOL    HW224318   5.353   2.807   6.179
 7807SOL     OW24319   6.621   4.056   6.378
 7807SOL    HW124320   6.706   4.017   6.412
 7807SOL    HW224321   6.588   4.126   6.441
 7808SOL     OW24322   0.391   1.164   4.580
 7808SOL    HW124323   0.438   1.148   4.494
 7808SOL    HW224324   0.402   1.085   4.640
 7809SOL     OW24325   2.155   5.450   4.484
 7809SOL    HW124326   2.210   5.369   4.505
 7809SOL    HW224327   2.138   5.453   4.385
 7810SOL     OW24328   2.956   0.653   5.291
 7810SOL    HW124329   3.017   0.732   5.282
 7810SOL    HW224330   2.873   0.681   5.340
 7811SOL     OW24331   5.394   4.459   3.419
 7811SOL    HW124332   5.313   4.511   3.391
 7811SOL    HW224333   5.475   4.496   3.373
 7812SOL     OW24334   1.991   1.636   4.379
 7812SOL    HW124335   2.087   1.632   4.349
 7812SOL    HW224336   1.936   1.576   4.320
 7813SOL     OW24337   5.867   2.945   6.711
 7813SOL    HW124338   5.954   2.960   6.759
 7813SOL    HW224339   5.796   2.924   6.778
 7814SOL     OW24340   6.588   2.980   3.726
 7814SOL    HW124341   6.564   3.020   3.637
 7814SOL    HW224342   6.574   2.881   3.721
 7815SOL     OW24343   6.195   1.511   6.164
 7815SOL    HW124344   6.173   1.577   6.235
 7815SOL    HW224345   6.156   1.541   6.077
 7816SOL     OW24346   0.194   3.462   5.719
 7816SOL    HW124347   0.279   3.427   5.678
 7816SOL    HW224348   0.212   3.487   5.814
 7817SOL     OW24349   5.693   4.077   4.958
 7817SOL    HW124350   5.655   3.985   4.963
 7817SOL    HW224351   5.624   4.143   4.986
 7818SOL     OW24352   6.422   6.503   1.623
 7818SOL    HW124353   6.409   6.407   1.600
 7818SOL    HW224354   6.333   6.547   1.635
 7819SOL     OW24355   6.615   2.570   1.175
 7819SOL    HW124356   6.573   2.613   1.255
 7819SOL    HW224357   6.554   2.579   1.097
 7820SOL     OW24358   1.647   1.690   6.575
 7820SOL    HW124359   1.663   1.633   6.495
 7820SOL    HW224360   1.644   1.631   6.657
 7821SOL     OW24361   3.720   5.741   1.171
 7821SOL    HW124362   3.689   5.653   1.208
 7821SOL    HW224363   3.812   5.761   1.207
 7822SOL     OW24364   1.135   5.597   4.896
 7822SOL    HW124365   1.228   5.635   4.888
 7822SOL    HW224366   1.096   5.623   4.984
 7823SOL     OW24367   2.190   4.290   5.111
 7823SOL    HW124368   2.203   4.204   5.063
 7823SOL    HW224369   2.266   4.306   5.173
 7824SOL     OW24370   0.341   2.567   5.425
 7824SOL    HW124371   0.439   2.563   5.440
 7824SOL    HW224372   0.306   2.475   5.408
 7825SOL     OW24373   2.304   1.970   6.693
 7825SOL    HW124374   2.348   2.059   6.701
 7825SOL    HW224375   2.326   1.913   6.772
 7826SOL     OW24376   6.472   2.635   6.772
 7826SOL    HW124377   6.559   2.658   6.816
 7826SOL    HW224378   6.481   2.548   6.724
 7827SOL     OW24379   6.982   6.020   3.035
 7827SOL    HW124380   6.902   5.971   3.001
 7827SOL    HW224381   6.956   6.112   3.065
 7828SOL     OW24382   0.004   3.807   6.611
 7828SOL    HW124383   0.022   3.745   6.535
 7828SOL    HW224384   0.090   3.842   6.647
 7829SOL     OW24385   3.384   2.864   1.493
 7829SOL    HW124386   3.409   2.928   1.566
 7829SOL    HW224387   3.323   2.794   1.530
 7830SOL     OW24388   2.867   5.143   4.299
 7830SOL    HW124389   2.921   5.059   4.311
 7830SOL    HW224390   2.856   5.162   4.202
 7831SOL     OW24391   1.806   2.091   0.998
 7831SOL    HW124392   1.725   2.144   1.023
 7831SOL    HW224393   1.803   2.002   1.043
 7832SOL     OW24394   5.558   0.513   4.933
 7832SOL    HW124395   5.505   0.593   4.908
 7832SOL    HW224396   5.581   0.460   4.851
 7833SOL     OW24397   1.938   0.384   4.201
 7833SOL    HW124398   1.886   0.465   4.176
 7833SOL    HW224399   2.019   0.410   4.253
 7834SOL     OW24400   6.415   2.744   4.724
 7834SOL    HW124401   6.447   2.837   4.706
 7834SOL    HW224402   6.437   2.685   4.646
 7835SOL     OW24403   4.294   1.851   5.083
 7835SOL    HW124404   4.270   1.907   5.004
 7835SOL    HW224405   4.231   1.774   5.090
 7836SOL     OW24406   3.677   4.119   5.168
 7836SOL    HW124407   3.765   4.071   5.169
 7836SOL    HW224408   3.614   4.073   5.105
 7837SOL     OW24409   6.253   6.611   6.939
 7837SOL    HW124410   6.281   6.707   6.947
 7837SOL    HW224411   6.246   6.586   6.843
 7838SOL     OW24412   5.366   5.415   0.980
 7838SOL    HW124413   5.366   5.486   1.050
 7838SOL    HW224414   5.445   5.427   0.921
 7839SOL     OW24415   6.158   4.238   5.004
 7839SOL    HW124416   6.143   4.257   4.907
 7839SOL    HW224417   6.111   4.153   5.028
 7840SOL     OW24418   2.174   3.912   3.135
 7840SOL    HW124419   2.271   3.903   3.157
 7840SOL    HW224420   2.156   3.873   3.045
 7841SOL     OW24421   5.357   2.154   5.584
 7841SOL    HW124422   5.334   2.143   5.487
 7841SOL    HW224423   5.286   2.210   5.628
 7842SOL     OW24424   1.804   1.301   2.402
 7842SOL    HW124425   1.796   1.263   2.309
 7842SOL    HW224426   1.851   1.389   2.398
 7843SOL     OW24427   0.324   6.605   3.359
 7843SOL    HW124428   0.333   6.702   3.382
 7843SOL    HW224429   0.408   6.558   3.384
 7844SOL     OW24430   3.746   0.801   2.416
 7844SOL    HW124431   3.655   0.842   2.409
 7844SOL    HW224432   3.767   0.784   2.512
 7845SOL     OW24433   6.019   1.934   1.519
 7845SOL    HW124434   5.977   2.024   1.501
 7845SOL    HW224435   6.046   1.892   1.432
 7846SOL     OW24436   1.078   2.603   0.062
 7846SOL    HW124437   1.123   2.692   0.051
 7846SOL    HW224438   0.997   2.614   0.120
 7847SOL     OW24439   5.834   2.177   4.440
 7847SOL    HW124440   5.837   2.084   4.478
 7847SOL    HW224441   5.913   2.192   4.381
 7848SOL     OW24442   2.709   4.996   0.500
 7848SOL    HW124443   2.665   4.931   0.562
 7848SOL    HW224444   2.719   4.954   0.410
 7849SOL     OW24445   4.788   3.980   5.866
 7849SOL    HW124446   4.795   3.880   5.873
 7849SOL    HW224447   4.855   4.014   5.801
 7850SOL     OW24448   6.604   1.260   3.512
 7850SOL    HW124449   6.505   1.257   3.499
 7850SOL    HW224450   6.649   1.236   3.426
 7851SOL     OW24451   1.172   4.458   1.553
 7851SOL    HW124452   1.245   4.505   1.602
 7851SOL    HW224453   1.097   4.522   1.536
 7852SOL     OW24454   2.053   2.172   0.439
 7852SOL    HW124455   1.989   2.172   0.363
 7852SOL    HW224456   2.063   2.080   0.475
 7853SOL     OW24457   4.020   2.938   1.572
 7853SOL    HW124458   3.960   2.940   1.652
 7853SOL    HW224459   4.061   2.848   1.563
 7854SOL     OW24460   4.678   1.868   5.735
 7854SOL    HW124461   4.682   1.830   5.643
 7854SOL    HW224462   4.603   1.934   5.742
 7855SOL     OW24463   5.355   0.026   4.423
 7855SOL    HW124464   5.356   7.009   4.330
 7855SOL    HW224465   5.399   0.116   4.425
 7856SOL     OW24466   1.898   5.471   4.733
 7856SOL    HW124467   1.928   5.566   4.744
 7856SOL    HW224468   1.910   5.443   4.638
 7857SOL     OW24469   5.200   4.069   0.222
 7857SOL    HW124470   5.274   4.060   0.155
 7857SOL    HW224471   5.136   4.140   0.191
 7858SOL     OW24472   0.387   5.144   6.072
 7858SOL    HW124473   0.411   5.205   5.997
 7858SOL    HW224474   0.288   5.147   6.088
 7859SOL     OW24475   4.989   2.654   6.707
 7859SOL    HW124476   5.014   2.666   6.611
 7859SOL    HW224477   4.986   2.556   6.728
 7860SOL     OW24478   2.954   0.948   4.833
 7860SOL    HW124479   2.925   0.853   4.848
 7860SOL    HW224480   2.877   1.001   4.798
 7861SOL     OW24481   2.749   6.293   1.432
 7861SOL    HW124482   2.772   6.284   1.335
 7861SOL    HW224483   2.810   6.235   1.486
 7862SOL     OW24484   2.684   6.222   1.182
 7862SOL    HW124485   2.717   6.136   1.143
 7862SOL    HW224486   2.609   6.258   1.127
 7863SOL     OW24487   7.006   4.184   3.800
 7863SOL    HW124488   6.996   4.249   3.725
 7863SOL    HW224489   0.032   4.101   3.766
 7864SOL     OW24490   2.514   6.361   5.678
 7864SOL    HW124491   2.436   6.344   5.739
 7864SOL    HW224492   2.544   6.274   5.638
 7865SOL     OW24493   6.298   6.392   3.950
 7865SOL    HW124494   6.202   6.363   3.958
 7865SOL    HW224495   6.355   6.313   3.927
 7866SOL     OW24496   1.431   0.495   6.306
 7866SOL    HW124497   1.503   0.475   6.372
 7866SOL    HW224498   1.431   0.426   6.234
 7867SOL     OW24499   5.361   0.353   3.740
 7867SOL    HW124500   5.279   0.298   3.757
 7867SOL    HW224501   5.381   0.354   3.643
 7868SOL     OW24502   3.635   6.603   1.076
 7868SOL    HW124503   3.666   6.564   1.163
 7868SOL    HW224504   3.702   6.582   1.005
 7869SOL     OW24505   5.013   4.052   5.705
 7869SOL    HW124506   4.955   4.008   5.636
 7869SOL    HW224507   5.109   4.039   5.680
 7870SOL     OW24508   4.580   6.368   4.978
 7870SOL    HW124509   4.643   6.445   4.972
 7870SOL    HW224510   4.575   6.336   5.072
 7871SOL     OW24511   5.323   1.592   2.005
 7871SOL    HW124512   5.354   1.518   1.945
 7871SOL    HW224513   5.239   1.632   1.969
 7872SOL     OW24514   1.948   6.046   2.662
 7872SOL    HW124515   1.913   6.011   2.575
 7872SOL    HW224516   1.888   6.015   2.737
 7873SOL     OW24517   6.663   1.354   0.143
 7873SOL    HW124518   6.654   1.385   0.237
 7873SOL    HW224519   6.747   1.300   0.133
 7874SOL     OW24520   5.693   2.439   0.944
 7874SOL    HW124521   5.600   2.473   0.934
 7874SOL    HW224522   5.692   2.351   0.992
 7875SOL     OW24523   4.339   4.360   6.486
 7875SOL    HW124524   4.368   4.268   6.461
 7875SOL    HW224525   4.255   4.383   6.437
 7876SOL     OW24526   0.744   0.352   2.732
 7876SOL    HW124527   0.737   0.337   2.634
 7876SOL    HW224528   0.700   0.276   2.781
 7877SOL     OW24529   6.665   1.495   3.138
 7877SOL    HW124530   6.717   1.533   3.061
 7877SOL    HW224531   6.717   1.421   3.180
 7878SOL     OW24532   4.802   4.639   3.573
 7878SOL    HW124533   4.849   4.710   3.626
 7878SOL    HW224534   4.826   4.649   3.477
 7879SOL     OW24535   2.684   4.873   3.446
 7879SOL    HW124536   2.636   4.899   3.361
 7879SOL    HW224537   2.620   4.878   3.523
 7880SOL     OW24538   1.662   3.835   1.614
 7880SOL    HW124539   1.612   3.873   1.536
 7880SOL    HW224540   1.599   3.813   1.687
 7881SOL     OW24541   4.961   3.654   4.112
 7881SOL    HW124542   4.948   3.667   4.211
 7881SOL    HW224543   4.987   3.559   4.094
 7882SOL     OW24544   1.701   3.113   1.494
 7882SOL    HW124545   1.758   3.191   1.518
 7882SOL    HW224546   1.715   3.040   1.562
 7883SOL     OW24547   0.870   1.402   5.026
 7883SOL    HW124548   0.891   1.304   5.027
 7883SOL    HW224549   0.956   1.454   5.020
 7884SOL     OW24550   0.397   3.329   4.678
 7884SOL    HW124551   0.329   3.261   4.650
 7884SOL    HW224552   0.464   3.286   4.738
 7885SOL     OW24553   6.185   5.491   0.110
 7885SOL    HW124554   6.180   5.394   0.136
 7885SOL    HW224555   6.220   5.544   0.187
 7886SOL     OW24556   4.666   5.435   7.003
 7886SOL    HW124557   4.705   5.496   6.934
 7886SOL    HW224558   4.566   5.436   6.995
 7887SOL     OW24559   4.784   2.264   0.079
 7887SOL    HW124560   4.826   2.182   0.039
 7887SOL    HW224561   4.687   2.247   0.095
 7888SOL     OW24562   4.650   0.854   4.488
 7888SOL    HW124563   4.714   0.878   4.561
 7888SOL    HW224564   4.632   0.756   4.490
 7889SOL     OW24565   0.119   5.984   2.298
 7889SOL    HW124566   0.196   6.025   2.347
 7889SOL    HW224567   0.133   5.885   2.291
 7890SOL     OW24568   1.718   3.926   2.372
 7890SOL    HW124569   1.804   3.896   2.330
 7890SOL    HW224570   1.715   4.026   2.373
 7891SOL     OW24571   2.533   4.667   2.064
 7891SOL    HW124572   2.626   4.631   2.057
 7891SOL    HW224573   2.478   4.628   1.990
 7892SOL     OW24574   2.283   2.371   6.036
 7892SOL    HW124575   2.204   2.323   6.075
 7892SOL    HW224576   2.321   2.317   5.961
 7893SOL     OW24577   6.172   6.432   0.991
 7893SOL    HW124578   6.257   6.482   0.972
 7893SOL    HW224579   6.165   6.415   1.090
 7894SOL     OW24580   2.589   6.536   1.953
 7894SOL    HW124581   2.652   6.590   2.009
 7894SOL    HW224582   2.638   6.495   1.876
 7895SOL     OW24583   6.577   1.129   4.553
 7895SOL    HW124584   6.557   1.215   4.508
 7895SOL    HW224585   6.494   1.073   4.556
 7896SOL     OW24586   4.869   4.297   5.707
 7896SOL    HW124587   4.917   4.210   5.709
 7896SOL    HW224588   4.774   4.282   5.679
 7897SOL     OW24589   2.525   3.542   6.668
 7897SOL    HW124590   2.492   3.562   6.576
 7897SOL    HW224591   2.625   3.550   6.671
 7898SOL     OW24592   4.294   2.278   3.708
 7898SOL    HW124593   4.370   2.213   3.704
 7898SOL    HW224594   4.240   2.271   3.624
 7899SOL     OW24595   5.711   2.220   2.761
 7899SOL    HW124596   5.690   2.238   2.665
 7899SOL    HW224597   5.654   2.278   2.819
 7900SOL     OW24598   1.927   5.902   1.334
 7900SOL    HW124599   1.908   5.888   1.237
 7900SOL    HW224600   2.025   5.918   1.347
 7901SOL     OW24601   6.449   6.503   6.473
 7901SOL    HW124602   6.406   6.557   6.401
 7901SOL    HW224603   6.538   6.470   6.442
 7902SOL     OW24604   4.500   4.315   0.626
 7902SOL    HW124605   4.511   4.262   0.542
 7902SOL    HW224606   4.478   4.253   0.702
 7903SOL     OW24607   6.360   1.662   0.063
 7903SOL    HW124608   6.358   1.688   0.159
 7903SOL    HW224609   6.308   1.579   0.049
 7904SOL     OW24610   6.843   1.317   2.623
 7904SOL    HW124611   6.872   1.412   2.610
 7904SOL    HW224612   6.764   1.314   2.685
 7905SOL     OW24613   4.011   0.691   1.238
 7905SOL    HW124614   4.054   0.750   1.171
 7905SOL    HW224615   3.964   0.747   1.307
 7906SOL     OW24616   5.214   6.120   0.030
 7906SOL    HW124617   5.281   6.107   6.975
 7906SOL    HW224618   5.122   6.129   7.009
 7907SOL     OW24619   0.046   3.092   3.612
 7907SOL    HW124620   0.035   3.182   3.655
 7907SOL    HW224621   0.109   3.037   3.667
 7908SOL     OW24622   6.491   2.160   3.663
 7908SOL    HW124623   6.547   2.078   3.675
 7908SOL    HW224624   6.501   2.193   3.569
 7909SOL     OW24625   4.758   4.223   5.050
 7909SOL    HW124626   4.842   4.172   5.030
 7909SOL    HW224627   4.769   4.272   5.137
 7910SOL     OW24628   4.706   3.228   5.851
 7910SOL    HW124629   4.715   3.150   5.913
 7910SOL    HW224630   4.615   3.227   5.809
 7911SOL     OW24631   6.470   4.650   0.193
 7911SOL    HW124632   6.417   4.565   0.192
 7911SOL    HW224633   6.418   4.721   0.242
 7912SOL     OW24634   5.655   4.543   6.329
 7912SOL    HW124635   5.583   4.553   6.260
 7912SOL    HW224636   5.699   4.632   6.344
 7913SOL     OW24637   6.419   5.355   6.661
 7913SOL    HW124638   6.321   5.372   6.671
 7913SOL    HW224639   6.468   5.388   6.743
 7914SOL     OW24640   6.043   3.786   1.595
 7914SOL    HW124641   6.068   3.715   1.530
 7914SOL    HW224642   5.950   3.819   1.574
 7915SOL     OW24643   4.063   1.927   3.308
 7915SOL    HW124644   4.002   1.906   3.385
 7915SOL    HW224645   4.056   1.855   3.239
 7916SOL     OW24646   5.574   3.426   5.645
 7916SOL    HW124647   5.507   3.461   5.711
 7916SOL    HW224648   5.528   3.404   5.559
 7917SOL     OW24649   3.575   3.860   4.399
 7917SOL    HW124650   3.477   3.843   4.400
 7917SOL    HW224651   3.591   3.959   4.407
 7918SOL     OW24652   5.659   1.605   2.872
 7918SOL    HW124653   5.723   1.546   2.823
 7918SOL    HW224654   5.586   1.635   2.811
 7919SOL     OW24655   5.200   5.285   2.094
 7919SOL    HW124656   5.122   5.286   2.031
 7919SOL    HW224657   5.282   5.258   2.045
 7920SOL     OW24658   0.551   5.190   1.417
 7920SOL    HW124659   0.530   5.093   1.428
 7920SOL    HW224660   0.638   5.200   1.367
 7921SOL     OW24661   2.169   6.691   1.568
 7921SOL    HW124662   2.217   6.627   1.629
 7921SOL    HW224663   2.149   6.645   1.481
 7922SOL     OW24664   1.139   5.763   6.437
 7922SOL    HW124665   1.209   5.812   6.386
 7922SOL    HW224666   1.051   5.810   6.429
 7923SOL     OW24667   1.350   1.251   3.641
 7923SOL    HW124668   1.326   1.307   3.562
 7923SOL    HW224669   1.267   1.220   3.688
 7924SOL     OW24670   2.840   6.839   3.974
 7924SOL    HW124671   2.824   6.924   3.924
 7924SOL    HW224672   2.887   6.859   4.060
 7925SOL     OW24673   6.029   1.596   5.919
 7925SOL    HW124674   6.066   1.672   5.866
 7925SOL    HW224675   5.930   1.608   5.930
 7926SOL     OW24676   4.043   0.376   2.192
 7926SOL    HW124677   4.040   0.451   2.125
 7926SOL    HW224678   4.067   0.413   2.282
 7927SOL     OW24679   4.059   4.838   4.985
 7927SOL    HW124680   4.039   4.790   5.070
 7927SOL    HW224681   4.155   4.823   4.960
 7928SOL     OW24682   1.728   5.378   2.328
 7928SOL    HW124683   1.762   5.367   2.235
 7928SOL    HW224684   1.660   5.308   2.348
 7929SOL     OW24685   3.927   3.609   4.172
 7929SOL    HW124686   3.977   3.695   4.170
 7929SOL    HW224687   3.841   3.622   4.222
 7930SOL     OW24688   4.708   5.135   3.658
 7930SOL    HW124689   4.641   5.207   3.677
 7930SOL    HW224690   4.695   5.102   3.564
 7931SOL     OW24691   2.573   1.842   0.564
 7931SOL    HW124692   2.505   1.789   0.615
 7931SOL    HW224693   2.545   1.937   0.559
 7932SOL     OW24694   2.032   6.957   0.392
 7932SOL    HW124695   2.060   7.018   0.318
 7932SOL    HW224696   1.932   6.957   0.399
 7933SOL     OW24697   1.242   0.695   6.694
 7933SOL    HW124698   1.219   0.753   6.772
 7933SOL    HW224699   1.341   0.695   6.680
 7934SOL     OW24700   2.732   3.809   6.822
 7934SOL    HW124701   2.781   3.733   6.778
 7934SOL    HW224702   2.656   3.838   6.764
 7935SOL     OW24703   4.546   6.626   1.856
 7935SOL    HW124704   4.457   6.607   1.815
 7935SOL    HW224705   4.548   6.590   1.949
 7936SOL     OW24706   4.152   5.817   3.063
 7936SOL    HW124707   4.128   5.802   2.967
 7936SOL    HW224708   4.076   5.786   3.121
 7937SOL     OW24709   6.475   6.472   5.651
 7937SOL    HW124710   6.512   6.423   5.730
 7937SOL    HW224711   6.550   6.507   5.595
 7938SOL     OW24712   4.392   5.233   4.712
 7938SOL    HW124713   4.307   5.269   4.750
 7938SOL    HW224714   4.465   5.241   4.780
 7939SOL     OW24715   1.145   0.816   5.802
 7939SOL    HW124716   1.198   0.734   5.779
 7939SOL    HW224717   1.048   0.793   5.803
 7940SOL     OW24718   2.356   5.696   1.279
 7940SOL    HW124719   2.316   5.648   1.201
 7940SOL    HW224720   2.327   5.652   1.364
 7941SOL     OW24721   0.292   1.014   0.658
 7941SOL    HW124722   0.314   1.013   0.561
 7941SOL    HW224723   0.193   1.008   0.670
 7942SOL     OW24724   0.512   0.040   1.653
 7942SOL    HW124725   0.490   0.044   1.750
 7942SOL    HW224726   0.554   6.970   1.632
 7943SOL     OW24727   5.552   1.989   0.921
 7943SOL    HW124728   5.559   1.981   0.822
 7943SOL    HW224729   5.464   1.952   0.951
 7944SOL     OW24730   0.732   4.211   1.123
 7944SOL    HW124731   0.828   4.220   1.147
 7944SOL    HW224732   0.700   4.296   1.080
 7945SOL     OW24733   5.442   6.466   2.840
 7945SOL    HW124734   5.397   6.412   2.768
 7945SOL    HW224735   5.541   6.457   2.832
 7946SOL     OW24736   2.027   2.133   5.895
 7946SOL    HW124737   2.014   2.226   5.861
 7946SOL    HW224738   1.982   2.124   5.984
 7947SOL     OW24739   4.502   2.882   6.570
 7947SOL    HW124740   4.466   2.805   6.517
 7947SOL    HW224741   4.600   2.893   6.550
 7948SOL     OW24742   0.009   6.530   0.560
 7948SOL    HW124743   6.986   6.593   0.494
 7948SOL    HW224744   0.097   6.568   0.590
 7949SOL     OW24745   5.398   4.837   3.783
 7949SOL    HW124746   5.416   4.777   3.861
 7949SOL    HW224747   5.474   4.830   3.718
 7950SOL     OW24748   3.906   5.140   4.103
 7950SOL    HW124749   3.902   5.199   4.183
 7950SOL    HW224750   3.991   5.087   4.104
 7951SOL     OW24751   3.429   3.461   0.707
 7951SOL    HW124752   3.342   3.414   0.696
 7951SOL    HW224753   3.467   3.440   0.797
 7952SOL     OW24754   6.205   3.371   0.879
 7952SOL    HW124755   6.213   3.451   0.819
 7952SOL    HW224756   6.277   3.374   0.948
 7953SOL     OW24757   2.542   2.548   3.221
 7953SOL    HW124758   2.495   2.578   3.138
 7953SOL    HW224759   2.566   2.452   3.213
 7954SOL     OW24760   4.022   5.517   4.656
 7954SOL    HW124761   4.028   5.417   4.661
 7954SOL    HW224762   4.072   5.549   4.575
 7955SOL     OW24763   0.378   6.196   6.489
 7955SOL    HW124764   0.312   6.123   6.470
 7955SOL    HW224765   0.441   6.204   6.413
 7956SOL     OW24766   6.380   6.153   4.223
 7956SOL    HW124767   6.371   6.053   4.219
 7956SOL    HW224768   6.367   6.190   4.131
 7957SOL     OW24769   1.301   1.365   1.254
 7957SOL    HW124770   1.297   1.465   1.256
 7957SOL    HW224771   1.216   1.329   1.215
 7958SOL     OW24772   3.053   4.836   3.257
 7958SOL    HW124773   2.973   4.824   3.199
 7958SOL    HW224774   3.111   4.909   3.220
 7959SOL     OW24775   6.292   4.831   0.427
 7959SOL    HW124776   6.308   4.893   0.503
 7959SOL    HW224777   6.310   4.737   0.457
 7960SOL     OW24778   2.561   1.428   1.322
 7960SOL    HW124779   2.618   1.510   1.332
 7960SOL    HW224780   2.606   1.350   1.366
 7961SOL     OW24781   1.291   5.853   6.041
 7961SOL    HW124782   1.233   5.827   5.964
 7961SOL    HW224783   1.370   5.792   6.046
 7962SOL     OW24784   1.750   0.784   2.055
 7962SOL    HW124785   1.781   0.865   2.104
 7962SOL    HW224786   1.827   0.745   2.004
 7963SOL     OW24787   0.875   0.774   5.766
 7963SOL    HW124788   0.826   0.830   5.832
 7963SOL    HW224789   0.867   0.678   5.791
 7964SOL     OW24790   5.496   5.282   3.676
 7964SOL    HW124791   5.446   5.367   3.686
 7964SOL    HW224792   5.483   5.226   3.758
 7965SOL     OW24793   5.093   2.281   0.357
 7965SOL    HW124794   5.118   2.223   0.280
 7965SOL    HW224795   5.029   2.351   0.326
 7966SOL     OW24796   0.167   4.953   4.268
 7966SOL    HW124797   0.102   4.905   4.209
 7966SOL    HW224798   0.236   4.889   4.302
 7967SOL     OW24799   3.155   6.612   2.442
 7967SOL    HW124800   3.146   6.540   2.374
 7967SOL    HW224801   3.155   6.701   2.397
 7968SOL     OW24802   2.288   2.378   3.281
 7968SOL    HW124803   2.361   2.329   3.233
 7968SOL    HW224804   2.312   2.388   3.378
 7969SOL     OW24805   3.466   1.363   3.392
 7969SOL    HW124806   3.515   1.444   3.424
 7969SOL    HW224807   3.511   1.281   3.426
 7970SOL     OW24808   0.581   4.194   3.027
 7970SOL    HW124809   0.580   4.290   2.999
 7970SOL    HW224810   0.522   4.141   2.966
 7971SOL     OW24811   3.326   0.347   0.974
 7971SOL    HW124812   3.232   0.358   1.007
 7971SOL    HW224813   3.390   0.385   1.041
 7972SOL     OW24814   0.228   4.569   1.735
 7972SOL    HW124815   0.236   4.668   1.719
 7972SOL    HW224816   0.177   4.554   1.820
 7973SOL     OW24817   4.932   3.221   3.493
 7973SOL    HW124818   4.942   3.309   3.539
 7973SOL    HW224819   4.958   3.231   3.397
 7974SOL     OW24820   5.204   0.608   4.133
 7974SOL    HW124821   5.164   0.519   4.155
 7974SOL    HW224822   5.298   0.595   4.102
 7975SOL     OW24823   3.287   1.124   4.242
 7975SOL    HW124824   3.385   1.118   4.225
 7975SOL    HW224825   3.246   1.186   4.175
 7976SOL     OW24826   1.043   6.092   5.400
 7976SOL    HW124827   1.092   6.038   5.469
 7976SOL    HW224828   0.947   6.063   5.397
 7977SOL     OW24829   5.367   6.380   1.621
 7977SOL    HW124830   5.464   6.399   1.611
 7977SOL    HW224831   5.321   6.394   1.533
 7978SOL     OW24832   4.441   3.699   5.846
 7978SOL    HW124833   4.460   3.671   5.752
 7978SOL    HW224834   4.419   3.618   5.901
 7979SOL     OW24835   2.700   0.226   3.931
 7979SOL    HW124836   2.759   0.268   4.000
 7979SOL    HW224837   2.611   0.205   3.972
 7980SOL     OW24838   3.131   5.820   7.002
 7980SOL    HW124839   3.124   5.743   0.047
 7980SOL    HW224840   3.169   5.788   6.916
 7981SOL     OW24841   1.238   5.107   2.676
 7981SOL    HW124842   1.232   5.189   2.734
 7981SOL    HW224843   1.177   5.118   2.598
 7982SOL     OW24844   6.432   2.389   0.332
 7982SOL    HW124845   6.505   2.328   0.301
 7982SOL    HW224846   6.472   2.470   0.374
 7983SOL     OW24847   5.252   1.999   2.205
 7983SOL    HW124848   5.185   2.074   2.200
 7983SOL    HW224849   5.322   2.021   2.273
 7984SOL     OW24850   0.237   2.398   2.190
 7984SOL    HW124851   0.173   2.343   2.137
 7984SOL    HW224852   0.315   2.423   2.133
 7985SOL     OW24853   0.794   1.322   2.693
 7985SOL    HW124854   0.761   1.354   2.782
 7985SOL    HW224855   0.849   1.393   2.650
 7986SOL     OW24856   4.065   0.826   6.377
 7986SOL    HW124857   4.108   0.915   6.390
 7986SOL    HW224858   4.047   0.811   6.280
 7987SOL     OW24859   0.609   2.534   5.412
 7987SOL    HW124860   0.655   2.496   5.492
 7987SOL    HW224861   0.621   2.472   5.334
 7988SOL     OW24862   2.596   2.047   4.592
 7988SOL    HW124863   2.680   2.005   4.557
 7988SOL    HW224864   2.602   2.056   4.692
 7989SOL     OW24865   3.299   2.443   5.742
 7989SOL    HW124866   3.208   2.478   5.761
 7989SOL    HW224867   3.328   2.470   5.651
 7990SOL     OW24868   1.087   2.461   4.586
 7990SOL    HW124869   1.131   2.421   4.666
 7990SOL    HW224870   1.129   2.550   4.566
 7991SOL     OW24871   0.400   2.633   6.115
 7991SOL    HW124872   0.492   2.654   6.147
 7991SOL    HW224873   0.344   2.602   6.192
 7992SOL     OW24874   1.867   0.154   0.705
 7992SOL    HW124875   1.856   0.159   0.804
 7992SOL    HW224876   1.777   0.151   0.662
 7993SOL     OW24877   2.030   5.704   6.766
 7993SOL    HW124878   2.013   5.797   6.799
 7993SOL    HW224879   2.125   5.678   6.786
 7994SOL     OW24880   4.921   1.366   3.445
 7994SOL    HW124881   4.968   1.402   3.526
 7994SOL    HW224882   4.974   1.391   3.363
 7995SOL     OW24883   2.960   5.351   3.976
 7995SOL    HW124884   2.891   5.424   3.976
 7995SOL    HW224885   2.926   5.272   3.925
 7996SOL     OW24886   3.651   6.873   4.862
 7996SOL    HW124887   3.641   6.971   4.877
 7996SOL    HW224888   3.575   6.839   4.807
 7997SOL     OW24889   5.786   2.352   0.695
 7997SOL    HW124890   5.715   2.346   0.625
 7997SOL    HW224891   5.747   2.391   0.778
 7998SOL     OW24892   5.574   4.293   0.516
 7998SOL    HW124893   5.530   4.211   0.479
 7998SOL    HW224894   5.580   4.363   0.445
 7999SOL     OW24895   1.766   6.910   5.301
 7999SOL    HW124896   1.829   6.980   5.268
 7999SOL    HW224897   1.672   6.940   5.286
 8000SOL     OW24898   6.433   6.820   5.762
 8000SOL    HW124899   6.512   6.759   5.764
 8000SOL    HW224900   6.459   6.907   5.721
 8001SOL     OW24901   1.995   6.785   1.295
 8001SOL    HW124902   1.940   6.860   1.257
 8001SOL    HW224903   1.937   6.728   1.353
 8002SOL     OW24904   5.913   2.758   4.849
 8002SOL    HW124905   5.923   2.720   4.941
 8002SOL    HW224906   5.990   2.728   4.792
 8003SOL     OW24907   3.640   5.153   3.242
 8003SOL    HW124908   3.703   5.108   3.306
 8003SOL    HW224909   3.546   5.138   3.273
 8004SOL     OW24910   2.017   4.075   2.883
 8004SOL    HW124911   2.102   4.117   2.916
 8004SOL    HW224912   2.016   3.978   2.907
 8005SOL     OW24913   3.311   0.809   1.617
 8005SOL    HW124914   3.358   0.851   1.695
 8005SOL    HW224915   3.368   0.737   1.578
 8006SOL     OW24916   2.722   5.688   0.496
 8006SOL    HW124917   2.633   5.695   0.450
 8006SOL    HW224918   2.709   5.696   0.595
 8007SOL     OW24919   0.131   0.509   4.297
 8007SOL    HW124920   0.130   0.410   4.305
 8007SOL    HW224921   0.172   0.536   4.210
 8008SOL     OW24922   6.026   6.814   0.477
 8008SOL    HW124923   6.040   6.722   0.514
 8008SOL    HW224924   6.048   6.814   0.379
 8009SOL     OW24925   6.679   6.871   3.751
 8009SOL    HW124926   6.645   6.933   3.821
 8009SOL    HW224927   6.749   6.916   3.696
 8010SOL     OW24928   2.282   2.262   0.543
 8010SOL    HW124929   2.260   2.348   0.589
 8010SOL    HW224930   2.204   2.233   0.488
 8011SOL     OW24931   3.113   2.492   0.971
 8011SOL    HW124932   3.143   2.555   1.043
 8011SOL    HW224933   3.140   2.399   0.995
 8012SOL     OW24934   2.252   6.460   1.683
 8012SOL    HW124935   2.215   6.383   1.631
 8012SOL    HW224936   2.342   6.436   1.718
 8013SOL     OW24937   5.528   4.898   4.470
 8013SOL    HW124938   5.436   4.917   4.506
 8013SOL    HW224939   5.522   4.875   4.373
 8014SOL     OW24940   2.033   6.936   6.671
 8014SOL    HW124941   2.018   6.968   6.577
 8014SOL    HW224942   2.100   6.862   6.670
 8015SOL     OW24943   2.568   2.539   0.425
 8015SOL    HW124944   2.526   2.477   0.359
 8015SOL    HW224945   2.590   2.489   0.509
 8016SOL     OW24946   4.231   6.696   0.026
 8016SOL    HW124947   4.147   6.682   0.078
 8016SOL    HW224948   4.227   6.785   6.999
 8017SOL     OW24949   6.528   3.740   4.803
 8017SOL    HW124950   6.444   3.737   4.858
 8017SOL    HW224951   6.526   3.821   4.745
 8018SOL     OW24952   4.702   1.752   5.474
 8018SOL    HW124953   4.716   1.653   5.479
 8018SOL    HW224954   4.726   1.784   5.382
 8019SOL     OW24955   1.656   5.828   0.484
 8019SOL    HW124956   1.674   5.898   0.553
 8019SOL    HW224957   1.729   5.759   0.488
 8020SOL     OW24958   5.116   5.417   6.566
 8020SOL    HW124959   5.200   5.366   6.585
 8020SOL    HW224960   5.066   5.373   6.492
 8021SOL     OW24961   0.598   1.028   0.772
 8021SOL    HW124962   0.622   0.931   0.782
 8021SOL    HW224963   0.529   1.052   0.841
 8022SOL     OW24964   4.379   6.451   2.932
 8022SOL    HW124965   4.299   6.448   2.991
 8022SOL    HW224966   4.434   6.368   2.947
 8023SOL     OW24967   6.236   5.804   2.508
 8023SOL    HW124968   6.271   5.872   2.444
 8023SOL    HW224969   6.306   5.734   2.525
 8024SOL     OW24970   4.643   5.601   5.441
 8024SOL    HW124971   4.554   5.581   5.482
 8024SOL    HW224972   4.659   5.539   5.364
 8025SOL     OW24973   3.651   5.786   6.485
 8025SOL    HW124974   3.751   5.781   6.489
 8025SOL    HW224975   3.615   5.701   6.448
 8026SOL     OW24976   1.709   3.348   6.570
 8026SOL    HW124977   1.793   3.327   6.619
 8026SOL    HW224978   1.699   3.447   6.562
 8027SOL     OW24979   4.558   1.853   5.051
 8027SOL    HW124980   4.600   1.796   4.980
 8027SOL    HW224981   4.467   1.818   5.073
 8028SOL     OW24982   4.860   5.066   6.469
 8028SOL    HW124983   4.907   5.130   6.409
 8028SOL    HW224984   4.898   4.974   6.457
 8029SOL     OW24985   4.006   4.341   0.552
 8029SOL    HW124986   4.047   4.361   0.463
 8029SOL    HW224987   3.907   4.332   0.541
 8030SOL     OW24988   5.827   4.428   6.149
 8030SOL    HW124989   5.816   4.353   6.084
 8030SOL    HW224990   5.753   4.425   6.216
 8031SOL     OW24991   3.902   5.362   1.708
 8031SOL    HW124992   3.805   5.368   1.682
 8031SOL    HW224993   3.950   5.443   1.676
 8032SOL     OW24994   5.408   4.047   5.433
 8032SOL    HW124995   5.411   4.147   5.426
 8032SOL    HW224996   5.363   4.009   5.351
 8033SOL     OW24997   5.944   2.372   0.165
 8033SOL    HW124998   6.037   2.377   0.204
 8033SOL    HW224999   5.877   2.394   0.236
 8034SOL     OW25000   5.043   0.053   4.705
 8034SOL    HW125001   5.062   6.974   4.692
 8034SOL    HW225002   5.061   0.102   4.620
 8035SOL     OW25003   5.678   6.516   6.882
 8035SOL    HW125004   5.659   6.496   6.979
 8035SOL    HW225005   5.763   6.567   6.875
 8036SOL     OW25006   2.015   4.013   1.924
 8036SOL    HW125007   2.074   4.071   1.980
 8036SOL    HW225008   2.038   3.917   1.940
 8037SOL     OW25009   1.508   2.707   0.978
 8037SOL    HW125010   1.435   2.770   1.004
 8037SOL    HW225011   1.522   2.711   0.879
 8038SOL     OW25012   0.367   2.242   3.621
 8038SOL    HW125013   0.394   2.216   3.714
 8038SOL    HW225014   0.307   2.171   3.583
 8039SOL     OW25015   2.118   7.000   3.350
 8039SOL    HW125016   2.077   6.972   3.263
 8039SOL    HW225017   2.201   6.946   3.366
 8040SOL     OW25018   0.400   5.487   0.993
 8040SOL    HW125019   0.416   5.585   0.979
 8040SOL    HW225020   0.415   5.464   1.089
 8041SOL     OW25021   4.282   1.354   0.691
 8041SOL    HW125022   4.219   1.295   0.740
 8041SOL    HW225023   4.373   1.347   0.732
 8042SOL     OW25024   3.328   2.950   2.494
 8042SOL    HW125025   3.262   2.952   2.569
 8042SOL    HW225026   3.308   3.025   2.430
 8043SOL     OW25027   2.706   0.194   1.416
 8043SOL    HW125028   2.634   0.263   1.426
 8043SOL    HW225029   2.665   0.106   1.390
 8044SOL     OW25030   2.976   3.515   1.209
 8044SOL    HW125031   3.038   3.443   1.240
 8044SOL    HW225032   2.983   3.525   1.109
 8045SOL     OW25033   5.799   2.534   3.402
 8045SOL    HW125034   5.859   2.531   3.323
 8045SOL    HW225035   5.803   2.625   3.443
 8046SOL     OW25036   6.210   4.720   5.759
 8046SOL    HW125037   6.132   4.695   5.702
 8046SOL    HW225038   6.271   4.780   5.707
 8047SOL     OW25039   3.676   5.844   4.514
 8047SOL    HW125040   3.680   5.784   4.594
 8047SOL    HW225041   3.766   5.887   4.501
 8048SOL     OW25042   6.530   0.076   5.740
 8048SOL    HW125043   6.465   0.084   5.816
 8048SOL    HW225044   6.621   0.103   5.772
 8049SOL     OW25045   1.335   6.678   1.188
 8049SOL    HW125046   1.355   6.629   1.272
 8049SOL    HW225047   1.420   6.706   1.144
 8050SOL     OW25048   1.865   3.187   0.901
 8050SOL    HW125049   1.824   3.194   0.992
 8050SOL    HW225050   1.947   3.129   0.906
 8051SOL     OW25051   4.796   0.945   3.189
 8051SOL    HW125052   4.771   1.027   3.138
 8051SOL    HW225053   4.843   0.971   3.273
 8052SOL     OW25054   3.223   1.888   2.830
 8052SOL    HW125055   3.251   1.795   2.805
 8052SOL    HW225056   3.136   1.884   2.880
 8053SOL     OW25057   3.791   4.063   2.756
 8053SOL    HW125058   3.878   4.019   2.734
 8053SOL    HW225059   3.779   4.066   2.855
 8054SOL     OW25060   4.738   6.975   4.272
 8054SOL    HW125061   4.732   6.921   4.356
 8054SOL    HW225062   4.703   0.048   4.289
 8055SOL     OW25063   1.766   6.994   5.963
 8055SOL    HW125064   1.784   7.008   6.060
 8055SOL    HW225065   1.671   0.000   5.943
 8056SOL     OW25066   4.567   1.541   3.102
 8056SOL    HW125067   4.536   1.616   3.044
 8056SOL    HW225068   4.566   1.570   3.197
 8057SOL     OW25069   3.135   6.913   3.203
 8057SOL    HW125070   3.148   6.876   3.295
 8057SOL    HW225071   3.063   6.982   3.205
 8058SOL     OW25072   3.112   0.693   2.344
 8058SOL    HW125073   3.030   0.704   2.288
 8058SOL    HW225074   3.109   0.604   2.389
 8059SOL     OW25075   2.958   2.269   4.790
 8059SOL    HW125076   3.025   2.258   4.863
 8059SOL    HW225077   2.992   2.224   4.707
 8060SOL     OW25078   6.592   0.727   4.790
 8060SOL    HW125079   6.549   0.695   4.706
 8060SOL    HW225080   6.586   0.826   4.796
 8061SOL     OW25081   6.551   5.453   3.085
 8061SOL    HW125082   6.605   5.399   3.021
 8061SOL    HW225083   6.612   5.490   3.156
 8062SOL     OW25084   1.447   4.032   3.835
 8062SOL    HW125085   1.386   4.019   3.756
 8062SOL    HW225086   1.505   3.951   3.845
 8063SOL     OW25087   3.173   3.087   6.595
 8063SOL    HW125088   3.241   3.038   6.540
 8063SOL    HW225089   3.083   3.077   6.552
 8064SOL     OW25090   0.168   3.342   0.352
 8064SOL    HW125091   0.075   3.315   0.378
 8064SOL    HW225092   0.190   3.430   0.393
 8065SOL     OW25093   4.843   0.318   4.129
 8065SOL    HW125094   4.942   0.322   4.136
 8065SOL    HW225095   4.817   0.286   4.038
 8066SOL     OW25096   1.736   0.906   1.450
 8066SOL    HW125097   1.812   0.854   1.489
 8066SOL    HW225098   1.651   0.877   1.493
 8067SOL     OW25099   4.713   2.612   1.479
 8067SOL    HW125100   4.759   2.594   1.392
 8067SOL    HW225101   4.618   2.579   1.474
 8068SOL     OW25102   0.955   4.221   5.002
 8068SOL    HW125103   1.027   4.288   4.984
 8068SOL    HW225104   0.990   4.129   4.985
 8069SOL     OW25105   1.389   6.289   1.534
 8069SOL    HW125106   1.361   6.288   1.629
 8069SOL    HW225107   1.311   6.312   1.476
 8070SOL     OW25108   3.969   6.429   1.630
 8070SOL    HW125109   3.946   6.345   1.581
 8070SOL    HW225110   3.911   6.439   1.710
 8071SOL     OW25111   3.447   0.208   6.036
 8071SOL    HW125112   3.373   0.141   6.040
 8071SOL    HW225113   3.535   0.161   6.043
 8072SOL     OW25114   4.986   1.567   0.451
 8072SOL    HW125115   4.931   1.650   0.464
 8072SOL    HW225116   4.964   1.501   0.523
 8073SOL     OW25117   4.260   6.429   5.857
 8073SOL    HW125118   4.296   6.505   5.911
 8073SOL    HW225119   4.297   6.434   5.764
 8074SOL     OW25120   3.256   3.579   0.016
 8074SOL    HW125121   3.183   3.580   6.966
 8074SOL    HW225122   3.280   3.673   0.041
 8075SOL     OW25123   6.928   1.223   2.970
 8075SOL    HW125124   6.847   1.257   2.923
 8075SOL    HW225125   6.949   1.131   2.938
 8076SOL     OW25126   5.989   2.647   5.097
 8076SOL    HW125127   5.957   2.560   5.133
 8076SOL    HW225128   6.080   2.668   5.135
 8077SOL     OW25129   1.028   0.039   1.123
 8077SOL    HW125130   0.947   0.089   1.154
 8077SOL    HW225131   1.107   0.070   1.175
 8078SOL     OW25132   6.163   2.656   1.028
 8078SOL    HW125133   6.106   2.724   1.074
 8078SOL    HW225134   6.205   2.596   1.096
 8079SOL     OW25135   6.847   2.141   2.468
 8079SOL    HW125136   6.829   2.234   2.436
 8079SOL    HW225137   6.783   2.078   2.424
 8080SOL     OW25138   3.001   4.212   0.621
 8080SOL    HW125139   3.007   4.132   0.680
 8080SOL    HW225140   3.015   4.185   0.526
 8081SOL     OW25141   6.079   0.420   5.061
 8081SOL    HW125142   6.058   0.469   5.145
 8081SOL    HW225143   5.996   0.377   5.026
 8082SOL     OW25144   7.016   2.532   3.734
 8082SOL    HW125145   6.958   2.554   3.812
 8082SOL    HW225146   6.985   2.584   3.654
 8083SOL     OW25147   4.507   2.530   3.259
 8083SOL    HW125148   4.538   2.606   3.315
 8083SOL    HW225149   4.437   2.478   3.309
 8084SOL     OW25150   7.010   6.632   1.717
 8084SOL    HW125151   6.920   6.589   1.719
 8084SOL    HW225152   0.058   6.569   1.676
 8085SOL     OW25153   5.896   0.753   1.120
 8085SOL    HW125154   5.836   0.675   1.137
 8085SOL    HW225155   5.878   0.789   1.028
 8086SOL     OW25156   3.951   0.874   5.023
 8086SOL    HW125157   3.975   0.935   4.947
 8086SOL    HW225158   3.857   0.843   5.012
 8087SOL     OW25159   2.837   2.357   1.273
 8087SOL    HW125160   2.870   2.434   1.328
 8087SOL    HW225161   2.903   2.282   1.276
 8088SOL     OW25162   4.822   1.179   2.307
 8088SOL    HW125163   4.724   1.202   2.306
 8088SOL    HW225164   4.833   1.080   2.311
 8089SOL     OW25165   5.438   3.285   0.396
 8089SOL    HW125166   5.404   3.353   0.331
 8089SOL    HW225167   5.401   3.195   0.372
 8090SOL     OW25168   5.245   1.669   5.597
 8090SOL    HW125169   5.184   1.737   5.558
 8090SOL    HW225170   5.333   1.670   5.549
 8091SOL     OW25171   2.779   4.547   6.066
 8091SOL    HW125172   2.681   4.565   6.071
 8091SOL    HW225173   2.829   4.622   6.109
 8092SOL     OW25174   1.289   1.546   4.774
 8092SOL    HW125175   1.204   1.580   4.733
 8092SOL    HW225176   1.315   1.605   4.850
 8093SOL     OW25177   5.602   5.426   0.847
 8093SOL    HW125178   5.680   5.386   0.895
 8093SOL    HW225179   5.628   5.515   0.809
 8094SOL     OW25180   1.034   4.194   6.037
 8094SOL    HW125181   0.995   4.236   6.119
 8094SOL    HW225182   1.121   4.238   6.015
 8095SOL     OW25183   5.638   3.197   4.566
 8095SOL    HW125184   5.735   3.217   4.583
 8095SOL    HW225185   5.594   3.277   4.525
 8096SOL     OW25186   3.578   6.325   1.758
 8096SOL    HW125187   3.579   6.236   1.803
 8096SOL    HW225188   3.514   6.322   1.681
 8097SOL     OW25189   4.931   1.101   3.363
 8097SOL    HW125190   4.931   1.201   3.365
 8097SOL    HW225191   4.969   1.065   3.448
 8098SOL     OW25192   3.038   6.274   4.079
 8098SOL    HW125193   2.999   6.352   4.030
 8098SOL    HW225194   2.998   6.269   4.171
 8099SOL     OW25195   4.516   6.826   5.005
 8099SOL    HW125196   4.587   6.788   4.945
 8099SOL    HW225197   4.509   6.770   5.087
 8100SOL     OW25198   0.228   6.661   0.683
 8100SOL    HW125199   0.166   6.707   0.747
 8100SOL    HW225200   0.268   6.729   0.621
 8101SOL     OW25201   1.201   6.574   3.452
 8101SOL    HW125202   1.144   6.645   3.492
 8101SOL    HW225203   1.143   6.498   3.421
 8102SOL     OW25204   6.604   5.787   5.763
 8102SOL    HW125205   6.703   5.794   5.776
 8102SOL    HW225206   6.582   5.700   5.720
 8103SOL     OW25207   3.402   1.321   2.429
 8103SOL    HW125208   3.479   1.359   2.481
 8103SOL    HW225209   3.364   1.392   2.369
 8104SOL     OW25210   2.622   6.774   6.536
 8104SOL    HW125211   2.566   6.855   6.519
 8104SOL    HW225212   2.709   6.782   6.487
 8105SOL     OW25213   2.338   1.781   3.450
 8105SOL    HW125214   2.370   1.875   3.446
 8105SOL    HW225215   2.416   1.719   3.438
 8106SOL     OW25216   1.035   4.183   4.052
 8106SOL    HW125217   1.015   4.135   4.138
 8106SOL    HW225218   1.128   4.162   4.024
 8107SOL     OW25219   2.077   6.387   5.795
 8107SOL    HW125220   2.078   6.303   5.741
 8107SOL    HW225221   2.163   6.394   5.847
 8108SOL     OW25222   1.066   3.268   4.305
 8108SOL    HW125223   1.057   3.179   4.350
 8108SOL    HW225224   0.975   3.309   4.295
 8109SOL     OW25225   1.468   4.687   4.945
 8109SOL    HW125226   1.465   4.745   5.026
 8109SOL    HW225227   1.428   4.598   4.966
 8110SOL     OW25228   2.442   5.924   0.502
 8110SOL    HW125229   2.375   5.985   0.544
 8110SOL    HW225230   2.440   5.835   0.548
 8111SOL     OW25231   3.117   5.269   4.753
 8111SOL    HW125232   3.193   5.232   4.806
 8111SOL    HW225233   3.064   5.193   4.716
 8112SOL     OW25234   2.305   0.595   4.915
 8112SOL    HW125235   2.237   0.522   4.918
 8112SOL    HW225236   2.285   0.662   4.987
 8113SOL     OW25237   3.620   2.614   6.267
 8113SOL    HW125238   3.626   2.625   6.366
 8113SOL    HW225239   3.677   2.683   6.222
 8114SOL     OW25240   2.109   3.020   2.060
 8114SOL    HW125241   2.201   2.990   2.087
 8114SOL    HW225242   2.074   2.961   1.987
 8115SOL     OW25243   3.409   1.641   1.301
 8115SOL    HW125244   3.433   1.560   1.355
 8115SOL    HW225245   3.310   1.652   1.299
 8116SOL     OW25246   6.071   0.172   5.316
 8116SOL    HW125247   5.971   0.173   5.314
 8116SOL    HW225248   6.102   0.163   5.411
 8117SOL     OW25249   1.599   1.820   5.479
 8117SOL    HW125250   1.654   1.902   5.498
 8117SOL    HW225251   1.618   1.788   5.386
 8118SOL     OW25252   0.729   3.269   5.312
 8118SOL    HW125253   0.758   3.183   5.355
 8118SOL    HW225254   0.787   3.288   5.233
 8119SOL     OW25255   0.695   6.281   2.772
 8119SOL    HW125256   0.687   6.248   2.866
 8119SOL    HW225257   0.730   6.207   2.713
 8120SOL     OW25258   4.212   4.009   1.217
 8120SOL    HW125259   4.278   3.948   1.262
 8120SOL    HW225260   4.221   4.000   1.118
 8121SOL     OW25261   6.382   0.690   2.573
 8121SOL    HW125262   6.461   0.672   2.515
 8121SOL    HW225263   6.310   0.624   2.553
 8122SOL     OW25264   6.430   6.313   2.279
 8122SOL    HW125265   6.380   6.356   2.354
 8122SOL    HW225266   6.449   6.380   2.208
 8123SOL     OW25267   1.743   6.503   6.929
 8123SOL    HW125268   1.716   6.416   6.889
 8123SOL    HW225269   1.707   6.579   6.874
 8124SOL     OW25270   1.072   5.907   1.670
 8124SOL    HW125271   1.029   5.931   1.583
 8124SOL    HW225272   1.160   5.862   1.652
 8125SOL     OW25273   5.920   4.973   3.045
 8125SOL    HW125274   6.012   4.973   3.005
 8125SOL    HW225275   5.854   4.943   2.976
 8126SOL     OW25276   5.708   4.490   2.670
 8126SOL    HW125277   5.746   4.582   2.682
 8126SOL    HW225278   5.726   4.458   2.578
 8127SOL     OW25279   2.251   5.151   0.075
 8127SOL    HW125280   2.312   5.100   0.015
 8127SOL    HW225281   2.166   5.100   0.086
 8128SOL     OW25282   3.695   2.403   5.446
 8128SOL    HW125283   3.665   2.348   5.369
 8128SOL    HW225284   3.716   2.496   5.415
 8129SOL     OW25285   5.462   0.537   6.122
 8129SOL    HW125286   5.430   0.459   6.067
 8129SOL    HW225287   5.487   0.612   6.061
 8130SOL     OW25288   1.730   6.261   6.791
 8130SOL    HW125289   1.825   6.232   6.787
 8130SOL    HW225290   1.670   6.181   6.777
 8131SOL     OW25291   2.867   1.141   0.657
 8131SOL    HW125292   2.790   1.107   0.711
 8131SOL    HW225293   2.944   1.161   0.718
 8132SOL     OW25294   5.820   5.234   3.918
 8132SOL    HW125295   5.789   5.281   3.836
 8132SOL    HW225296   5.842   5.139   3.897
 8133SOL     OW25297   2.155   5.353   2.448
 8133SOL    HW125298   2.121   5.315   2.363
 8133SOL    HW225299   2.189   5.446   2.432
 8134SOL     OW25300   2.192   2.392   3.698
 8134SOL    HW125301   2.133   2.333   3.754
 8134SOL    HW225302   2.136   2.456   3.647
 8135SOL     OW25303   3.949   5.366   2.031
 8135SOL    HW125304   3.963   5.291   2.095
 8135SOL    HW225305   3.955   5.332   1.937
 8136SOL     OW25306   4.065   5.622   2.110
 8136SOL    HW125307   4.032   5.534   2.077
 8136SOL    HW225308   4.147   5.608   2.166
 8137SOL     OW25309   2.282   4.301   4.831
 8137SOL    HW125310   2.206   4.349   4.875
 8137SOL    HW225311   2.306   4.220   4.885
 8138SOL     OW25312   4.941   0.978   2.847
 8138SOL    HW125313   4.972   1.043   2.778
 8138SOL    HW225314   5.020   0.933   2.888
 8139SOL     OW25315   1.654   1.971   3.435
 8139SOL    HW125316   1.692   2.039   3.373
 8139SOL    HW225317   1.658   2.005   3.529
 8140SOL     OW25318   4.985   0.953   0.895
 8140SOL    HW125319   4.939   0.877   0.942
 8140SOL    HW225320   4.967   1.038   0.944
 8141SOL     OW25321   4.820   1.396   5.705
 8141SOL    HW125322   4.752   1.338   5.660
 8141SOL    HW225323   4.775   1.474   5.748
 8142SOL     OW25324   2.448   5.470   0.627
 8142SOL    HW125325   2.490   5.390   0.585
 8142SOL    HW225326   2.359   5.445   0.665
 8143SOL     OW25327   5.599   4.622   0.912
 8143SOL    HW125328   5.690   4.620   0.952
 8143SOL    HW225329   5.582   4.535   0.864
 8144SOL     OW25330   0.205   4.720   5.973
 8144SOL    HW125331   0.124   4.691   6.024
 8144SOL    HW225332   0.242   4.643   5.922
 8145SOL     OW25333   5.096   5.610   6.973
 8145SOL    HW125334   5.025   5.655   0.008
 8145SOL    HW225335   5.073   5.614   6.876
 8146SOL     OW25336   5.824   0.328   4.576
 8146SOL    HW125337   5.805   0.337   4.478
 8146SOL    HW225338   5.858   0.415   4.611
 8147SOL     OW25339   1.447   0.873   5.790
 8147SOL    HW125340   1.359   0.826   5.783
 8147SOL    HW225341   1.500   0.832   5.864
 8148SOL     OW25342   3.963   4.934   0.367
 8148SOL    HW125343   4.006   4.863   0.312
 8148SOL    HW225344   3.882   4.969   0.320
 8149SOL     OW25345   1.262   6.280   4.647
 8149SOL    HW125346   1.301   6.347   4.712
 8149SOL    HW225347   1.333   6.217   4.618
 8150SOL     OW25348   0.924   3.149   0.531
 8150SOL    HW125349   0.892   3.159   0.437
 8150SOL    HW225350   0.849   3.115   0.588
 8151SOL     OW25351   6.278   4.610   3.670
 8151SOL    HW125352   6.326   4.595   3.757
 8151SOL    HW225353   6.333   4.573   3.595
 8152SOL     OW25354   4.648   1.841   3.160
 8152SOL    HW125355   4.693   1.790   3.233
 8152SOL    HW225356   4.685   1.934   3.157
 8153SOL     OW25357   0.111   2.125   4.126
 8153SOL    HW125358   0.073   2.047   4.077
 8153SOL    HW225359   0.120   2.203   4.063
 8154SOL     OW25360   1.887   1.350   3.573
 8154SOL    HW125361   1.926   1.428   3.524
 8154SOL    HW225362   1.954   1.317   3.640
 8155SOL     OW25363   1.511   5.195   2.322
 8155SOL    HW125364   1.423   5.162   2.358
 8155SOL    HW225365   1.580   5.124   2.333
 8156SOL     OW25366   6.353   5.367   1.592
 8156SOL    HW125367   6.289   5.294   1.615
 8156SOL    HW225368   6.434   5.361   1.650
 8157SOL     OW25369   6.731   2.839   6.130
 8157SOL    HW125370   6.773   2.749   6.139
 8157SOL    HW225371   6.801   2.907   6.107
 8158SOL     OW25372   5.542   4.970   6.621
 8158SOL    HW125373   5.489   4.950   6.539
 8158SOL    HW225374   5.500   4.924   6.700
 8159SOL     OW25375   2.917   5.997   5.313
 8159SOL    HW125376   2.901   6.088   5.351
 8159SOL    HW225377   3.015   5.982   5.303
 8160SOL     OW25378   5.263   1.308   3.342
 8160SOL    HW125379   5.245   1.391   3.396
 8160SOL    HW225380   5.190   1.296   3.274
 8161SOL     OW25381   5.768   3.104   0.859
 8161SOL    HW125382   5.800   3.129   0.951
 8161SOL    HW225383   5.698   3.033   0.866
 8162SOL     OW25384   0.353   4.690   6.472
 8162SOL    HW125385   0.424   4.737   6.420
 8162SOL    HW225386   0.383   4.597   6.494
 8163SOL     OW25387   4.681   4.659   5.177
 8163SOL    HW125388   4.703   4.661   5.079
 8163SOL    HW225389   4.712   4.744   5.220
 8164SOL     OW25390   5.356   1.200   0.051
 8164SOL    HW125391   5.453   1.197   0.026
 8164SOL    HW225392   5.301   1.172   6.991
 8165SOL     OW25393   0.005   2.063   6.552
 8165SOL    HW125394   0.001   2.144   6.611
 8165SOL    HW225395   6.989   1.984   6.603
 8166SOL     OW25396   1.669   2.005   4.974
 8166SOL    HW125397   1.753   1.975   4.929
 8166SOL    HW225398   1.676   2.103   4.996
 8167SOL     OW25399   0.442   2.809   4.339
 8167SOL    HW125400   0.345   2.798   4.317
 8167SOL    HW225401   0.497   2.789   4.257
 8168SOL     OW25402   2.597   0.788   1.678
 8168SOL    HW125403   2.689   0.764   1.646
 8168SOL    HW225404   2.545   0.829   1.603
 8169SOL     OW25405   5.206   2.595   1.415
 8169SOL    HW125406   5.156   2.607   1.501
 8169SOL    HW225407   5.237   2.500   1.408
 8170SOL     OW25408   6.601   4.912   2.610
 8170SOL    HW125409   6.502   4.924   2.601
 8170SOL    HW225410   6.647   4.951   2.531
 8171SOL     OW25411   1.643   1.087   0.469
 8171SOL    HW125412   1.543   1.081   0.470
 8171SOL    HW225413   1.672   1.167   0.521
 8172SOL     OW25414   0.716   2.669   1.722
 8172SOL    HW125415   0.709   2.570   1.733
 8172SOL    HW225416   0.801   2.691   1.674
 8173SOL     OW25417   5.559   1.085   1.703
 8173SOL    HW125418   5.571   1.179   1.736
 8173SOL    HW225419   5.634   1.061   1.642
 8174SOL     OW25420   2.727   5.238   2.609
 8174SOL    HW125421   2.784   5.175   2.662
 8174SOL    HW225422   2.635   5.200   2.598
 8175SOL     OW25423   0.586   1.741   4.633
 8175SOL    HW125424   0.675   1.744   4.588
 8175SOL    HW225425   0.526   1.809   4.592
 8176SOL     OW25426   2.145   4.196   1.027
 8176SOL    HW125427   2.179   4.260   0.957
 8176SOL    HW225428   2.212   4.189   1.101
 8177SOL     OW25429   3.859   1.477   2.749
 8177SOL    HW125430   3.872   1.496   2.651
 8177SOL    HW225431   3.861   1.378   2.764
 8178SOL     OW25432   2.101   6.507   0.696
 8178SOL    HW125433   2.147   6.594   0.714
 8178SOL    HW225434   2.155   6.453   0.631
 8179SOL     OW25435   5.281   0.991   3.374
 8179SOL    HW125436   5.311   1.085   3.393
 8179SOL    HW225437   5.331   0.928   3.433
 8180SOL     OW25438   4.500   6.244   6.856
 8180SOL    HW125439   4.539   6.217   6.768
 8180SOL    HW225440   4.463   6.337   6.848
 8181SOL     OW25441   0.384   0.742   1.094
 8181SOL    HW125442   0.354   0.789   1.011
 8181SOL    HW225443   0.471   0.782   1.125
 8182SOL     OW25444   2.950   3.334   4.334
 8182SOL    HW125445   2.955   3.260   4.268
 8182SOL    HW225446   2.936   3.421   4.286
 8183SOL     OW25447   6.866   0.180   5.153
 8183SOL    HW125448   6.859   0.280   5.159
 8183SOL    HW225449   6.778   0.139   5.177
 8184SOL     OW25450   0.765   6.051   6.902
 8184SOL    HW125451   0.730   6.064   6.994
 8184SOL    HW225452   0.855   6.094   6.893
 8185SOL     OW25453   0.736   6.958   7.002
 8185SOL    HW125454   0.704   7.012   6.924
 8185SOL    HW225455   0.830   6.982   0.004
 8186SOL     OW25456   1.402   5.400   6.844
 8186SOL    HW125457   1.461   5.441   6.774
 8186SOL    HW225458   1.455   5.382   6.926
 8187SOL     OW25459   1.359   0.757   6.342
 8187SOL    HW125460   1.368   0.667   6.299
 8187SOL    HW225461   1.265   0.767   6.377
 8188SOL     OW25462   2.609   2.042   3.810
 8188SOL    HW125463   2.522   2.088   3.829
 8188SOL    HW225464   2.663   2.036   3.893
 8189SOL     OW25465   5.112   4.334   3.794
 8189SOL    HW125466   5.094   4.381   3.708
 8189SOL    HW225467   5.180   4.385   3.847
 8190SOL     OW25468   6.387   3.869   3.297
 8190SOL    HW125469   6.354   3.839   3.207
 8190SOL    HW225470   6.426   3.792   3.346
 8191SOL     OW25471   4.190   5.026   1.641
 8191SOL    HW125472   4.246   4.954   1.682
 8191SOL    HW225473   4.181   5.010   1.543
 8192SOL     OW25474   1.436   5.120   3.760
 8192SOL    HW125475   1.461   5.031   3.723
 8192SOL    HW225476   1.492   5.191   3.716
 8193SOL     OW25477   0.229   4.116   5.027
 8193SOL    HW125478   0.155   4.077   5.083
 8193SOL    HW225479   0.234   4.215   5.042
 8194SOL     OW25480   4.788   6.525   1.813
 8194SOL    HW125481   4.824   6.589   1.880
 8194SOL    HW225482   4.688   6.531   1.811
 8195SOL     OW25483   5.548   6.519   3.090
 8195SOL    HW125484   5.488   6.509   3.011
 8195SOL    HW225485   5.642   6.498   3.063
 8196SOL     OW25486   4.437   0.155   0.198
 8196SOL    HW125487   4.487   0.175   0.113
 8196SOL    HW225488   4.384   0.236   0.225
 8197SOL     OW25489   5.013   1.925   1.836
 8197SOL    HW125490   5.016   1.835   1.879
 8197SOL    HW225491   5.056   1.992   1.897
 8198SOL     OW25492   1.886   0.608   2.457
 8198SOL    HW125493   1.922   0.700   2.476
 8198SOL    HW225494   1.830   0.611   2.374
 8199SOL     OW25495   5.439   2.679   5.944
 8199SOL    HW125496   5.432   2.618   5.865
 8199SOL    HW225497   5.520   2.656   5.997
 8200SOL     OW25498   4.171   3.283   1.117
 8200SOL    HW125499   4.185   3.215   1.045
 8200SOL    HW225500   4.175   3.238   1.207
 8201SOL     OW25501   0.388   6.949   5.469
 8201SOL    HW125502   0.360   7.015   5.539
 8201SOL    HW225503   0.335   6.965   5.385
 8202SOL     OW25504   0.629   6.136   2.298
 8202SOL    HW125505   0.596   6.212   2.355
 8202SOL    HW225506   0.641   6.055   2.355
 8203SOL     OW25507   1.312   3.277   1.062
 8203SOL    HW125508   1.332   3.206   0.995
 8203SOL    HW225509   1.267   3.354   1.018
 8204SOL     OW25510   4.383   3.171   1.454
 8204SOL    HW125511   4.284   3.172   1.437
 8204SOL    HW225512   4.403   3.214   1.542
 8205SOL     OW25513   0.808   3.644   0.645
 8205SOL    HW125514   0.769   3.634   0.737
 8205SOL    HW225515   0.866   3.565   0.625
 8206SOL     OW25516   4.371   1.265   6.797
 8206SOL    HW125517   4.370   1.352   6.846
 8206SOL    HW225518   4.350   1.280   6.701
 8207SOL     OW25519   3.689   3.221   4.639
 8207SOL    HW125520   3.603   3.251   4.680
 8207SOL    HW225521   3.715   3.284   4.566
 8208SOL     OW25522   1.322   1.488   0.236
 8208SOL    HW125523   1.393   1.435   0.191
 8208SOL    HW225524   1.364   1.547   0.306
 8209SOL     OW25525   6.536   0.475   5.546
 8209SOL    HW125526   6.560   0.451   5.639
 8209SOL    HW225527   6.584   0.559   5.519
 8210SOL     OW25528   2.011   2.959   0.474
 8210SOL    HW125529   2.046   2.895   0.542
 8210SOL    HW225530   2.014   3.052   0.510
 8211SOL     OW25531   2.967   4.409   0.968
 8211SOL    HW125532   2.959   4.452   1.058
 8211SOL    HW225533   2.945   4.312   0.975
 8212SOL     OW25534   1.837   2.293   3.316
 8212SOL    HW125535   1.930   2.269   3.290
 8212SOL    HW225536   1.774   2.270   3.242
 8213SOL     OW25537   0.311   4.842   1.712
 8213SOL    HW125538   0.338   4.881   1.800
 8213SOL    HW225539   0.217   4.870   1.691
 8214SOL     OW25540   5.953   4.295   3.287
 8214SOL    HW125541   5.915   4.292   3.194
 8214SOL    HW225542   6.023   4.367   3.292
 8215SOL     OW25543   3.659   5.043   4.908
 8215SOL    HW125544   3.746   5.077   4.944
 8215SOL    HW225545   3.670   5.018   4.812
 8216SOL     OW25546   5.095   4.568   4.322
 8216SOL    HW125547   5.049   4.482   4.297
 8216SOL    HW225548   5.053   4.644   4.272
 8217SOL     OW25549   2.184   5.990   0.598
 8217SOL    HW125550   2.125   5.979   0.518
 8217SOL    HW225551   2.162   6.077   0.643
 8218SOL     OW25552   0.264   1.884   0.338
 8218SOL    HW125553   0.346   1.882   0.395
 8218SOL    HW225554   0.290   1.908   0.244
 8219SOL     OW25555   5.494   1.856   5.988
 8219SOL    HW125556   5.456   1.900   5.906
 8219SOL    HW225557   5.419   1.824   6.046
 8220SOL     OW25558   3.505   3.670   2.469
 8220SOL    HW125559   3.436   3.729   2.428
 8220SOL    HW225560   3.585   3.725   2.493
 8221SOL     OW25561   5.309   5.981   3.664
 8221SOL    HW125562   5.320   6.052   3.595
 8221SOL    HW225563   5.392   5.976   3.719
 8222SOL     OW25564   6.026   1.454   1.795
 8222SOL    HW125565   6.007   1.371   1.848
 8222SOL    HW225566   6.116   1.489   1.820
 8223SOL     OW25567   0.548   4.198   6.351
 8223SOL    HW125568   0.575   4.172   6.444
 8223SOL    HW225569   0.551   4.298   6.342
 8224SOL     OW25570   0.940   2.803   2.629
 8224SOL    HW125571   0.961   2.882   2.571
 8224SOL    HW225572   0.962   2.719   2.579
 8225SOL     OW25573   4.852   1.484   6.289
 8225SOL    HW125574   4.896   1.542   6.358
 8225SOL    HW225575   4.880   1.389   6.302
 8226SOL     OW25576   4.850   0.419   1.136
 8226SOL    HW125577   4.754   0.403   1.161
 8226SOL    HW225578   4.868   0.517   1.138
 8227SOL     OW25579   6.428   3.039   3.182
 8227SOL    HW125580   6.492   3.114   3.199
 8227SOL    HW225581   6.336   3.075   3.172
 8228SOL     OW25582   0.350   2.099   5.160
 8228SOL    HW125583   0.345   2.156   5.078
 8228SOL    HW225584   0.264   2.049   5.171
 8229SOL     OW25585   3.124   5.553   6.855
 8229SOL    HW125586   3.175   5.502   6.923
 8229SOL    HW225587   3.027   5.557   6.881
 8230SOL     OW25588   4.562   0.342   5.119
 8230SOL    HW125589   4.658   0.318   5.125
 8230SOL    HW225590   4.532   0.384   5.205
 8231SOL     OW25591   5.395   5.169   1.142
 8231SOL    HW125592   5.360   5.263   1.132
 8231SOL    HW225593   5.366   5.114   1.064
 8232SOL     OW25594   4.187   1.372   0.014
 8232SOL    HW125595   4.253   1.341   0.081
 8232SOL    HW225596   4.096   1.337   0.038
 8233SOL     OW25597   0.807   5.402   6.094
 8233SOL    HW125598   0.895   5.446   6.077
 8233SOL    HW225599   0.821   5.311   6.133
 8234SOL     OW25600   3.304   2.281   6.778
 8234SOL    HW125601   3.389   2.332   6.768
 8234SOL    HW225602   3.235   2.318   6.716
 8235SOL     OW25603   3.688   3.444   1.056
 8235SOL    HW125604   3.714   3.399   1.142
 8235SOL    HW225605   3.670   3.541   1.073
 8236SOL     OW25606   6.546   2.688   0.062
 8236SOL    HW125607   6.617   2.647   0.118
 8236SOL    HW225608   6.588   2.752   7.016
 8237SOL     OW25609   4.161   5.900   5.130
 8237SOL    HW125610   4.155   5.996   5.104
 8237SOL    HW225611   4.232   5.889   5.200
 8238SOL     OW25612   2.202   3.561   0.049
 8238SOL    HW125613   2.174   3.485   7.009
 8238SOL    HW225614   2.261   3.527   0.122
 8239SOL     OW25615   6.753   1.705   5.383
 8239SOL    HW125616   6.832   1.651   5.353
 8239SOL    HW225617   6.671   1.673   5.336
 8240SOL     OW25618   3.050   4.013   2.622
 8240SOL    HW125619   3.143   4.039   2.649
 8240SOL    HW225620   3.013   3.948   2.688
 8241SOL     OW25621   3.585   0.145   0.390
 8241SOL    HW125622   3.529   0.090   0.328
 8241SOL    HW225623   3.677   0.154   0.352
 8242SOL     OW25624   0.785   4.545   5.986
 8242SOL    HW125625   0.815   4.478   5.918
 8242SOL    HW225626   0.825   4.634   5.965
 8243SOL     OW25627   0.364   2.843   5.930
 8243SOL    HW125628   0.407   2.765   5.976
 8243SOL    HW225629   0.281   2.869   5.979
 8244SOL     OW25630   0.785   6.619   4.046
 8244SOL    HW125631   0.735   6.699   4.013
 8244SOL    HW225632   0.846   6.586   3.974
 8245SOL     OW25633   4.601   1.645   0.847
 8245SOL    HW125634   4.577   1.732   0.889
 8245SOL    HW225635   4.674   1.659   0.780
 8246SOL     OW25636   5.713   3.955   6.106
 8246SOL    HW125637   5.762   4.012   6.040
 8246SOL    HW225638   5.702   3.863   6.068
 8247SOL     OW25639   0.699   0.455   1.303
 8247SOL    HW125640   0.745   0.544   1.298
 8247SOL    HW225641   0.707   0.420   1.397
 8248SOL     OW25642   5.844   4.557   3.833
 8248SOL    HW125643   5.801   4.470   3.860
 8248SOL    HW225644   5.900   4.591   3.909
 8249SOL     OW25645   1.879   4.736   4.392
 8249SOL    HW125646   1.944   4.674   4.348
 8249SOL    HW225647   1.876   4.822   4.341
 8250SOL     OW25648   3.292   4.115   3.247
 8250SOL    HW125649   3.254   4.205   3.266
 8250SOL    HW225650   3.333   4.078   3.331
 8251SOL     OW25651   5.044   1.978   4.971
 8251SOL    HW125652   5.038   2.077   4.984
 8251SOL    HW225653   5.133   1.945   5.002
 8252SOL     OW25654   2.915   2.827   5.859
 8252SOL    HW125655   2.926   2.923   5.833
 8252SOL    HW225656   2.819   2.800   5.847
 8253SOL     OW25657   3.501   2.734   5.272
 8253SOL    HW125658   3.407   2.707   5.292
 8253SOL    HW225659   3.504   2.831   5.249
 8254SOL     OW25660   4.140   4.870   4.426
 8254SOL    HW125661   4.116   4.804   4.498
 8254SOL    HW225662   4.194   4.824   4.356
 8255SOL     OW25663   4.350   5.618   3.927
 8255SOL    HW125664   4.264   5.650   3.967
 8255SOL    HW225665   4.426   5.648   3.984
 8256SOL     OW25666   5.355   1.286   3.859
 8256SOL    HW125667   5.292   1.362   3.841
 8256SOL    HW225668   5.363   1.229   3.778
 8257SOL     OW25669   5.853   4.779   3.377
 8257SOL    HW125670   5.937   4.799   3.327
 8257SOL    HW225671   5.865   4.806   3.473
 8258SOL     OW25672   4.747   1.355   0.400
 8258SOL    HW125673   4.793   1.305   0.473
 8258SOL    HW225674   4.721   1.291   0.327
 8259SOL     OW25675   3.475   1.864   3.891
 8259SOL    HW125676   3.496   1.961   3.876
 8259SOL    HW225677   3.378   1.847   3.875
 8260SOL     OW25678   2.721   6.743   2.103
 8260SOL    HW125679   2.736   6.802   2.024
 8260SOL    HW225680   2.792   6.759   2.170
 8261SOL     OW25681   5.506   1.226   0.961
 8261SOL    HW125682   5.564   1.218   0.880
 8261SOL    HW225683   5.514   1.317   1.000
 8262SOL     OW25684   1.014   2.367   1.422
 8262SOL    HW125685   1.100   2.419   1.416
 8262SOL    HW225686   0.939   2.430   1.442
 8263SOL     OW25687   6.884   1.201   1.415
 8263SOL    HW125688   6.859   1.128   1.351
 8263SOL    HW225689   6.957   1.256   1.375
 8264SOL     OW25690   1.240   5.922   2.311
 8264SOL    HW125691   1.216   5.839   2.260
 8264SOL    HW225692   1.222   6.002   2.255
 8265SOL     OW25693   1.674   0.417   1.510
 8265SOL    HW125694   1.615   0.351   1.556
 8265SOL    HW225695   1.712   0.376   1.427
 8266SOL     OW25696   2.405   6.707   3.135
 8266SOL    HW125697   2.344   6.776   3.174
 8266SOL    HW225698   2.480   6.689   3.198
 8267SOL     OW25699   1.815   3.470   1.160
 8267SOL    HW125700   1.719   3.443   1.148
 8267SOL    HW225701   1.821   3.539   1.231
 8268SOL     OW25702   2.322   0.027   6.642
 8268SOL    HW125703   2.259   0.084   6.590
 8268SOL    HW225704   2.271   6.971   6.685
 8269SOL     OW25705   5.715   1.781   1.016
 8269SOL    HW125706   5.792   1.833   1.053
 8269SOL    HW225707   5.659   1.840   0.958
 8270SOL     OW25708   3.445   6.570   3.992
 8270SOL    HW125709   3.371   6.513   3.956
 8270SOL    HW225710   3.444   6.566   4.092
 8271SOL     OW25711   6.729   1.889   2.870
 8271SOL    HW125712   6.818   1.891   2.824
 8271SOL    HW225713   6.741   1.852   2.962
 8272SOL     OW25714   4.350   0.434   2.175
 8272SOL    HW125715   4.315   0.382   2.097
 8272SOL    HW225716   4.278   0.443   2.243
 8273SOL     OW25717   2.085   0.101   1.042
 8273SOL    HW125718   2.124   0.079   0.953
 8273SOL    HW225719   2.157   0.104   1.110
 8274SOL     OW25720   4.292   5.012   3.321
 8274SOL    HW125721   4.264   4.921   3.353
 8274SOL    HW225722   4.312   5.007   3.223
 8275SOL     OW25723   4.578   2.193   5.822
 8275SOL    HW125724   4.586   2.136   5.904
 8275SOL    HW225725   4.664   2.243   5.808
 8276SOL     OW25726   0.803   2.093   4.136
 8276SOL    HW125727   0.769   2.186   4.155
 8276SOL    HW225728   0.786   2.071   4.040
 8277SOL     OW25729   6.941   0.760   6.532
 8277SOL    HW125730   6.919   0.672   6.490
 8277SOL    HW225731   6.949   0.830   6.461
 8278SOL     OW25732   2.442   1.955   0.222
 8278SOL    HW125733   2.470   2.031   0.280
 8278SOL    HW225734   2.418   1.877   0.279
 8279SOL     OW25735   0.584   6.001   4.292
 8279SOL    HW125736   0.680   5.975   4.291
 8279SOL    HW225737   0.539   5.966   4.210
 8280SOL     OW25738   3.120   2.579   6.781
 8280SOL    HW125739   3.094   2.675   6.772
 8280SOL    HW225740   3.123   2.553   6.877
 8281SOL     OW25741   1.049   5.586   1.581
 8281SOL    HW125742   1.136   5.607   1.538
 8281SOL    HW225743   0.978   5.646   1.544
 8282SOL     OW25744   5.455   3.064   6.422
 8282SOL    HW125745   5.445   2.979   6.371
 8282SOL    HW225746   5.553   3.081   6.439
 8283SOL     OW25747   1.094   4.569   6.006
 8283SOL    HW125748   1.046   4.538   6.088
 8283SOL    HW225749   1.165   4.503   5.983
 8284SOL     OW25750   0.583   4.156   2.077
 8284SOL    HW125751   0.578   4.192   1.983
 8284SOL    HW225752   0.674   4.121   2.094
 8285SOL     OW25753   4.132   3.334   5.083
 8285SOL    HW125754   4.102   3.239   5.087
 8285SOL    HW225755   4.139   3.370   5.176
 8286SOL     OW25756   6.474   2.412   5.560
 8286SOL    HW125757   6.551   2.474   5.571
 8286SOL    HW225758   6.445   2.378   5.650
 8287SOL     OW25759   1.122   5.181   4.522
 8287SOL    HW125760   1.070   5.121   4.583
 8287SOL    HW225761   1.077   5.186   4.433
 8288SOL     OW25762   2.666   2.371   2.970
 8288SOL    HW125763   2.700   2.327   2.887
 8288SOL    HW225764   2.666   2.470   2.957
 8289SOL     OW25765   0.856   0.251   0.433
 8289SOL    HW125766   0.911   0.268   0.352
 8289SOL    HW225767   0.812   0.162   0.425
 8290SOL     OW25768   6.573   1.616   0.340
 8290SOL    HW125769   6.505   1.687   0.355
 8290SOL    HW225770   6.615   1.591   0.427
 8291SOL     OW25771   4.386   0.343   6.693
 8291SOL    HW125772   4.464   0.399   6.718
 8291SOL    HW225773   4.369   0.350   6.595
 8292SOL     OW25774   2.567   6.607   0.605
 8292SOL    HW125775   2.624   6.664   0.664
 8292SOL    HW225776   2.553   6.652   0.517
 8293SOL     OW25777   4.168   0.039   6.171
 8293SOL    HW125778   4.086   0.092   6.194
 8293SOL    HW225779   4.175   6.979   6.232
 8294SOL     OW25780   6.171   2.856   6.458
 8294SOL    HW125781   6.132   2.801   6.531
 8294SOL    HW225782   6.135   2.949   6.463
 8295SOL     OW25783   5.520   4.964   2.050
 8295SOL    HW125784   5.438   4.926   2.007
 8295SOL    HW225785   5.518   5.064   2.046
 8296SOL     OW25786   1.660   6.193   6.364
 8296SOL    HW125787   1.577   6.236   6.400
 8296SOL    HW225788   1.667   6.210   6.266
 8297SOL     OW25789   6.638   2.598   3.198
 8297SOL    HW125790   6.553   2.645   3.222
 8297SOL    HW225791   6.625   2.550   3.111
 8298SOL     OW25792   4.976   1.665   1.661
 8298SOL    HW125793   5.004   1.578   1.702
 8298SOL    HW225794   5.055   1.707   1.615
 8299SOL     OW25795   0.306   3.110   1.903
 8299SOL    HW125796   0.327   3.195   1.953
 8299SOL    HW225797   0.225   3.067   1.943
 8300SOL     OW25798   0.815   4.629   5.110
 8300SOL    HW125799   0.753   4.610   5.186
 8300SOL    HW225800   0.772   4.695   5.048
 8301SOL     OW25801   4.298   2.379   1.221
 8301SOL    HW125802   4.379   2.328   1.251
 8301SOL    HW225803   4.283   2.456   1.283
 8302SOL     OW25804   5.997   6.597   6.538
 8302SOL    HW125805   6.079   6.639   6.577
 8302SOL    HW225806   5.940   6.667   6.496
 8303SOL     OW25807   0.364   0.017   4.564
 8303SOL    HW125808   0.324   7.004   4.650
 8303SOL    HW225809   0.292   0.052   4.504
 8304SOL     OW25810   0.693   3.561   6.119
 8304SOL    HW125811   0.771   3.520   6.072
 8304SOL    HW225812   0.696   3.536   6.216
 8305SOL     OW25813   3.376   5.368   3.744
 8305SOL    HW125814   3.320   5.422   3.808
 8305SOL    HW225815   3.336   5.277   3.734
 8306SOL     OW25816   0.612   2.167   5.795
 8306SOL    HW125817   0.543   2.233   5.826
 8306SOL    HW225818   0.607   2.085   5.852
 8307SOL     OW25819   3.549   5.073   0.885
 8307SOL    HW125820   3.602   5.143   0.933
 8307SOL    HW225821   3.454   5.103   0.877
 8308SOL     OW25822   4.339   6.792   1.445
 8308SOL    HW125823   4.314   6.800   1.541
 8308SOL    HW225824   4.350   6.884   1.406
 8309SOL     OW25825   5.955   5.799   2.913
 8309SOL    HW125826   5.868   5.849   2.920
 8309SOL    HW225827   5.967   5.742   2.994
 8310SOL     OW25828   0.931   4.266   0.713
 8310SOL    HW125829   0.932   4.356   0.756
 8310SOL    HW225830   0.838   4.229   0.714
 8311SOL     OW25831   0.353   0.964   6.401
 8311SOL    HW125832   0.384   0.891   6.462
 8311SOL    HW225833   0.363   1.052   6.447
 8312SOL     OW25834   4.717   6.636   1.512
 8312SOL    HW125835   4.659   6.554   1.523
 8312SOL    HW225836   4.811   6.608   1.492
 8313SOL     OW25837   3.904   1.815   2.853
 8313SOL    HW125838   3.951   1.782   2.771
 8313SOL    HW225839   3.827   1.755   2.873
 8314SOL     OW25840   5.139   6.818   1.011
 8314SOL    HW125841   5.181   6.813   0.920
 8314SOL    HW225842   5.049   6.860   1.004
 8315SOL     OW25843   4.539   2.980   0.896
 8315SOL    HW125844   4.591   2.972   0.811
 8315SOL    HW225845   4.558   3.069   0.939
 8316SOL     OW25846   0.549   4.035   1.297
 8316SOL    HW125847   0.622   4.080   1.246
 8316SOL    HW225848   0.566   3.937   1.301
 8317SOL     OW25849   2.040   3.538   2.838
 8317SOL    HW125850   1.942   3.521   2.845
 8317SOL    HW225851   2.070   3.522   2.744
 8318SOL     OW25852   4.139   1.605   5.061
 8318SOL    HW125853   4.199   1.525   5.068
 8318SOL    HW225854   4.077   1.593   4.983
 8319SOL     OW25855   3.481   1.373   5.283
 8319SOL    HW125856   3.528   1.393   5.197
 8319SOL    HW225857   3.383   1.391   5.273
 8320SOL     OW25858   3.449   4.742   1.280
 8320SOL    HW125859   3.488   4.834   1.286
 8320SOL    HW225860   3.349   4.749   1.277
 8321SOL     OW25861   0.467   1.219   6.918
 8321SOL    HW125862   0.526   1.223   6.999
 8321SOL    HW225863   0.390   1.282   6.930
 8322SOL     OW25864   6.890   0.203   6.733
 8322SOL    HW125865   6.944   0.258   6.669
 8322SOL    HW225866   6.951   0.158   6.798
 8323SOL     OW25867   0.764   0.383   2.456
 8323SOL    HW125868   0.718   0.396   2.368
 8323SOL    HW225869   0.863   0.383   2.442
 8324SOL     OW25870   6.164   0.505   2.568
 8324SOL    HW125871   6.087   0.503   2.504
 8324SOL    HW225872   6.131   0.518   2.661
 8325SOL     OW25873   3.806   3.352   4.082
 8325SOL    HW125874   3.835   3.447   4.066
 8325SOL    HW225875   3.849   3.293   4.014
 8326SOL     OW25876   4.411   3.540   5.545
 8326SOL    HW125877   4.318   3.552   5.580
 8326SOL    HW225878   4.410   3.548   5.445
 8327SOL     OW25879   5.190   2.459   5.790
 8327SOL    HW125880   5.196   2.557   5.771
 8327SOL    HW225881   5.160   2.411   5.708
 8328SOL     OW25882   2.416   3.824   6.311
 8328SOL    HW125883   2.401   3.919   6.338
 8328SOL    HW225884   2.483   3.822   6.237
 8329SOL     OW25885   0.452   2.702   5.171
 8329SOL    HW125886   0.499   2.628   5.220
 8329SOL    HW225887   0.442   2.781   5.231
 8330SOL     OW25888   1.822   6.518   0.777
 8330SOL    HW125889   1.918   6.527   0.750
 8330SOL    HW225890   1.768   6.487   0.698
 8331SOL     OW25891   3.512   6.964   1.337
 8331SOL    HW125892   3.474   6.941   1.248
 8331SOL    HW225893   3.497   0.042   1.356
 8332SOL     OW25894   4.579   5.163   2.084
 8332SOL    HW125895   4.625   5.210   2.159
 8332SOL    HW225896   4.628   5.078   2.064
 8333SOL     OW25897   0.251   6.029   6.804
 8333SOL    HW125898   0.205   5.980   6.878
 8333SOL    HW225899   0.350   6.018   6.814
 8334SOL     OW25900   5.556   1.417   4.009
 8334SOL    HW125901   5.521   1.364   3.932
 8334SOL    HW225902   5.539   1.368   4.095
 8335SOL     OW25903   6.231   5.897   5.796
 8335SOL    HW125904   6.308   5.858   5.846
 8335SOL    HW225905   6.249   5.893   5.698
 8336SOL     OW25906   6.682   1.303   2.880
 8336SOL    HW125907   6.682   1.398   2.847
 8336SOL    HW225908   6.597   1.259   2.854
 8337SOL     OW25909   0.619   6.387   3.744
 8337SOL    HW125910   0.716   6.411   3.746
 8337SOL    HW225911   0.583   6.400   3.652
 8338SOL     OW25912   1.832   4.660   1.311
 8338SOL    HW125913   1.904   4.654   1.380
 8338SOL    HW225914   1.771   4.581   1.318
 8339SOL     OW25915   6.414   0.851   2.904
 8339SOL    HW125916   6.347   0.859   2.979
 8339SOL    HW225917   6.397   0.768   2.852
 8340SOL     OW25918   4.776   3.804   1.065
 8340SOL    HW125919   4.726   3.783   1.148
 8340SOL    HW225920   4.773   3.903   1.048
 8341SOL     OW25921   1.752   6.959   0.291
 8341SOL    HW125922   1.655   6.947   0.310
 8341SOL    HW225923   1.766   0.024   0.239
 8342SOL     OW25924   3.703   0.444   0.987
 8342SOL    HW125925   3.787   0.496   0.977
 8342SOL    HW225926   3.631   0.484   0.930
 8343SOL     OW25927   1.753   5.481   6.095
 8343SOL    HW125928   1.720   5.387   6.087
 8343SOL    HW225929   1.687   5.534   6.149
 8344SOL     OW25930   4.500   6.357   6.161
 8344SOL    HW125931   4.483   6.446   6.203
 8344SOL    HW225932   4.593   6.354   6.124
 8345SOL     OW25933   5.755   1.930   3.613
 8345SOL    HW125934   5.684   1.894   3.673
 8345SOL    HW225935   5.802   2.006   3.657
 8346SOL     OW25936   2.437   4.781   0.446
 8346SOL    HW125937   2.502   4.728   0.392
 8346SOL    HW225938   2.355   4.726   0.462
 8347SOL     OW25939   2.660   6.523   5.271
 8347SOL    HW125940   2.747   6.535   5.319
 8347SOL    HW225941   2.656   6.432   5.231
 8348SOL     OW25942   1.374   0.659   1.647
 8348SOL    HW125943   1.361   0.563   1.622
 8348SOL    HW225944   1.419   0.707   1.571
 8349SOL     OW25945   5.769   3.912   1.212
 8349SOL    HW125946   5.697   3.857   1.171
 8349SOL    HW225947   5.755   4.008   1.187
 8350SOL     OW25948   6.088   0.695   4.838
 8350SOL    HW125949   6.119   0.623   4.899
 8350SOL    HW225950   6.030   0.655   4.766
 8351SOL     OW25951   3.671   5.615   4.118
 8351SOL    HW125952   3.719   5.597   4.032
 8351SOL    HW225953   3.724   5.577   4.194
 8352SOL     OW25954   6.321   0.172   1.766
 8352SOL    HW125955   6.338   0.158   1.863
 8352SOL    HW225956   6.320   0.084   1.718
 8353SOL     OW25957   5.872   3.797   2.041
 8353SOL    HW125958   5.822   3.856   1.977
 8353SOL    HW225959   5.957   3.767   1.998
 8354SOL     OW25960   3.442   1.486   6.696
 8354SOL    HW125961   3.513   1.530   6.642
 8354SOL    HW225962   3.404   1.551   6.762
 8355SOL     OW25963   3.177   0.776   6.986
 8355SOL    HW125964   3.083   0.792   7.014
 8355SOL    HW225965   3.182   0.691   6.932
 8356SOL     OW25966   1.037   6.251   0.156
 8356SOL    HW125967   0.974   6.226   0.082
 8356SOL    HW225968   1.001   6.218   0.243
 8357SOL     OW25969   3.303   5.438   5.115
 8357SOL    HW125970   3.251   5.473   5.037
 8357SOL    HW225971   3.400   5.438   5.093
 8358SOL     OW25972   1.970   2.403   5.501
 8358SOL    HW125973   1.875   2.407   5.533
 8358SOL    HW225974   2.012   2.318   5.532
 8359SOL     OW25975   3.913   5.962   4.487
 8359SOL    HW125976   3.942   6.054   4.463
 8359SOL    HW225977   3.965   5.895   4.434
 8360SOL     OW25978   4.004   0.133   3.007
 8360SOL    HW125979   3.965   0.041   2.996
 8360SOL    HW225980   3.931   0.200   3.005
 8361SOL     OW25981   1.925   1.577   2.331
 8361SOL    HW125982   1.932   1.630   2.415
 8361SOL    HW225983   1.856   1.618   2.271
 8362SOL     OW25984   2.833   2.232   0.400
 8362SOL    HW125985   2.854   2.317   0.449
 8362SOL    HW225986   2.912   2.172   0.403
 8363SOL     OW25987   1.221   2.807   0.659
 8363SOL    HW125988   1.154   2.848   0.597
 8363SOL    HW225989   1.173   2.760   0.733
 8364SOL     OW25990   6.449   3.291   2.667
 8364SOL    HW125991   6.529   3.304   2.608
 8364SOL    HW225992   6.365   3.301   2.613
 8365SOL     OW25993   2.310   3.440   0.740
 8365SOL    HW125994   2.236   3.478   0.684
 8365SOL    HW225995   2.398   3.467   0.703
 8366SOL     OW25996   4.700   6.178   2.286
 8366SOL    HW125997   4.661   6.114   2.353
 8366SOL    HW225998   4.780   6.223   2.326
 8367SOL     OW25999   4.527   6.215   3.616
 8367SOL    HW126000   4.603   6.150   3.625
 8367SOL    HW226001   4.563   6.306   3.595
 8368SOL     OW26002   2.786   5.554   6.203
 8368SOL    HW126003   2.808   5.604   6.287
 8368SOL    HW226004   2.855   5.575   6.134
 8369SOL     OW26005   2.042   0.670   0.365
 8369SOL    HW126006   2.024   0.604   0.438
 8369SOL    HW226007   2.067   0.758   0.404
 8370SOL     OW26008   2.468   1.988   6.095
 8370SOL    HW126009   2.461   2.004   6.193
 8370SOL    HW226010   2.377   1.980   6.056
 8371SOL     OW26011   1.501   3.157   0.138
 8371SOL    HW126012   1.491   3.256   0.142
 8371SOL    HW226013   1.581   3.129   0.191
 8372SOL     OW26014   0.655   0.071   2.745
 8372SOL    HW126015   0.569   0.038   2.783
 8372SOL    HW226016   0.730   0.051   2.809
 8373SOL     OW26017   0.839   6.336   5.556
 8373SOL    HW126018   0.790   6.249   5.544
 8373SOL    HW226019   0.772   6.409   5.573
 8374SOL     OW26020   6.413   1.182   0.127
 8374SOL    HW126021   6.466   1.266   0.114
 8374SOL    HW226022   6.374   1.154   0.039
 8375SOL     OW26023   3.369   5.787   5.843
 8375SOL    HW126024   3.408   5.701   5.877
 8375SOL    HW226025   3.389   5.797   5.746
 8376SOL     OW26026   2.706   0.605   4.300
 8376SOL    HW126027   2.728   0.696   4.335
 8376SOL    HW226028   2.607   0.598   4.285
 8377SOL     OW26029   5.809   5.809   1.190
 8377SOL    HW126030   5.817   5.842   1.096
 8377SOL    HW226031   5.788   5.711   1.189
 8378SOL     OW26032   5.602   3.508   2.999
 8378SOL    HW126033   5.533   3.499   3.070
 8378SOL    HW226034   5.574   3.456   2.918
 8379SOL     OW26035   6.413   4.142   2.219
 8379SOL    HW126036   6.500   4.099   2.193
 8379SOL    HW226037   6.340   4.108   2.161
 8380SOL     OW26038   5.903   1.273   2.470
 8380SOL    HW126039   5.806   1.277   2.493
 8380SOL    HW226040   5.921   1.328   2.388
 8381SOL     OW26041   0.756   5.145   4.633
 8381SOL    HW126042   0.811   5.228   4.630
 8381SOL    HW226043   0.723   5.124   4.541
 8382SOL     OW26044   1.691   1.782   2.435
 8382SOL    HW126045   1.687   1.852   2.506
 8382SOL    HW226046   1.651   1.697   2.469
 8383SOL     OW26047   2.945   2.289   6.715
 8383SOL    HW126048   2.883   2.366   6.730
 8383SOL    HW226049   2.952   2.270   6.617
 8384SOL     OW26050   7.004   6.599   1.114
 8384SOL    HW126051   0.031   6.608   1.202
 8384SOL    HW226052   6.908   6.627   1.124
 8385SOL     OW26053   5.268   2.261   1.923
 8385SOL    HW126054   5.308   2.225   1.838
 8385SOL    HW226055   5.169   2.248   1.920
 8386SOL     OW26056   0.940   4.280   2.754
 8386SOL    HW126057   0.848   4.309   2.782
 8386SOL    HW226058   0.993   4.254   2.835
 8387SOL     OW26059   1.682   1.151   1.164
 8387SOL    HW126060   1.596   1.184   1.124
 8387SOL    HW226061   1.700   1.201   1.249
 8388SOL     OW26062   2.936   6.068   1.547
 8388SOL    HW126063   2.963   6.103   1.637
 8388SOL    HW226064   2.863   6.001   1.559
 8389SOL     OW26065   5.449   2.861   2.196
 8389SOL    HW126066   5.478   2.852   2.101
 8389SOL    HW226067   5.406   2.950   2.210
 8390SOL     OW26068   3.956   2.302   5.883
 8390SOL    HW126069   3.867   2.260   5.866
 8390SOL    HW226070   3.992   2.339   5.797
 8391SOL     OW26071   6.214   0.081   0.613
 8391SOL    HW126072   6.301   0.082   0.565
 8391SOL    HW226073   6.203   0.166   0.665
 8392SOL     OW26074   6.080   3.493   4.530
 8392SOL    HW126075   6.178   3.510   4.531
 8392SOL    HW226076   6.030   3.578   4.549
 8393SOL     OW26077   4.698   0.366   2.077
 8393SOL    HW126078   4.785   0.320   2.063
 8393SOL    HW226079   4.689   0.442   2.012
 8394SOL     OW26080   6.042   3.999   2.252
 8394SOL    HW126081   6.083   3.988   2.161
 8394SOL    HW226082   5.944   3.982   2.247
 8395SOL     OW26083   2.065   0.570   5.256
 8395SOL    HW126084   2.129   0.562   5.332
 8395SOL    HW226085   2.058   0.483   5.208
 8396SOL     OW26086   4.208   5.680   4.460
 8396SOL    HW126087   4.264   5.597   4.457
 8396SOL    HW226088   4.267   5.760   4.470
 8397SOL     OW26089   6.704   1.295   3.880
 8397SOL    HW126090   6.763   1.235   3.827
 8397SOL    HW226091   6.727   1.390   3.860
 8398SOL     OW26092   5.101   1.980   5.816
 8398SOL    HW126093   5.031   1.996   5.746
 8398SOL    HW226094   5.072   2.021   5.902
 8399SOL     OW26095   6.961   5.988   0.030
 8399SOL    HW126096   6.985   6.083   0.009
 8399SOL    HW226097   0.026   5.934   0.037
 8400SOL     OW26098   1.768   2.181   4.281
 8400SOL    HW126099   1.681   2.157   4.324
 8400SOL    HW226100   1.844   2.148   4.337
 8401SOL     OW26101   2.812   0.153   5.376
 8401SOL    HW126102   2.827   0.066   5.329
 8401SOL    HW226103   2.871   0.223   5.336
 8402SOL     OW26104   4.737   0.824   5.733
 8402SOL    HW126105   4.709   0.894   5.799
 8402SOL    HW226106   4.657   0.771   5.705
 8403SOL     OW26107   6.391   4.484   4.325
 8403SOL    HW126108   6.400   4.583   4.323
 8403SOL    HW226109   6.450   4.447   4.397
 8404SOL     OW26110   2.683   1.815   6.389
 8404SOL    HW126111   2.612   1.876   6.425
 8404SOL    HW226112   2.674   1.808   6.290
 8405SOL     OW26113   3.660   1.533   5.730
 8405SOL    HW126114   3.647   1.435   5.743
 8405SOL    HW226115   3.717   1.549   5.649
 8406SOL     OW26116   4.891   1.003   6.191
 8406SOL    HW126117   4.865   0.914   6.230
 8406SOL    HW226118   4.989   1.004   6.174
 8407SOL     OW26119   3.790   6.509   3.603
 8407SOL    HW126120   3.763   6.560   3.685
 8407SOL    HW226121   3.735   6.540   3.526
 8408SOL     OW26122   5.190   6.910   0.752
 8408SOL    HW126123   5.114   6.968   0.779
 8408SOL    HW226124   5.162   6.851   0.677
 8409SOL     OW26125   4.384   2.456   1.944
 8409SOL    HW126126   4.386   2.490   2.038
 8409SOL    HW226127   4.389   2.534   1.880
 8410SOL     OW26128   6.988   1.563   1.794
 8410SOL    HW126129   0.066   1.588   1.788
 8410SOL    HW226130   6.979   1.464   1.785
 8411SOL     OW26131   0.416   5.998   0.996
 8411SOL    HW126132   0.445   6.084   0.955
 8411SOL    HW226133   0.395   6.013   1.093
 8412SOL     OW26134   2.856   3.183   0.709
 8412SOL    HW126135   2.937   3.218   0.756
 8412SOL    HW226136   2.783   3.252   0.713
 8413SOL     OW26137   4.237   5.545   5.903
 8413SOL    HW126138   4.200   5.588   5.820
 8413SOL    HW226139   4.173   5.475   5.935
 8414SOL     OW26140   1.620   1.053   2.354
 8414SOL    HW126141   1.534   1.032   2.308
 8414SOL    HW226142   1.615   1.023   2.450
 8415SOL     OW26143   2.684   6.880   4.267
 8415SOL    HW126144   2.675   6.912   4.361
 8415SOL    HW226145   2.776   6.900   4.233
 8416SOL     OW26146   6.138   1.423   4.702
 8416SOL    HW126147   6.184   1.486   4.765
 8416SOL    HW226148   6.143   1.330   4.739
 8417SOL     OW26149   1.246   2.857   5.301
 8417SOL    HW126150   1.295   2.773   5.277
 8417SOL    HW226151   1.240   2.917   5.222
 8418SOL     OW26152   0.620   5.557   2.029
 8418SOL    HW126153   0.709   5.549   2.076
 8418SOL    HW226154   0.547   5.532   2.092
 8419SOL     OW26155   5.056   0.594   2.906
 8419SOL    HW126156   5.113   0.673   2.928
 8419SOL    HW226157   5.103   0.510   2.929
 8420SOL     OW26158   3.257   6.236   2.134
 8420SOL    HW126159   3.264   6.166   2.204
 8420SOL    HW226160   3.346   6.248   2.089
 8421SOL     OW26161   3.966   6.344   5.905
 8421SOL    HW126162   3.924   6.254   5.917
 8421SOL    HW226163   4.043   6.337   5.843
 8422SOL     OW26164   4.721   2.318   2.512
 8422SOL    HW126165   4.715   2.379   2.433
 8422SOL    HW226166   4.629   2.290   2.540
 8423SOL     OW26167   5.445   4.326   5.821
 8423SOL    HW126168   5.349   4.300   5.809
 8423SOL    HW226169   5.476   4.298   5.912
 8424SOL     OW26170   1.860   0.394   3.410
 8424SOL    HW126171   1.892   0.304   3.440
 8424SOL    HW226172   1.824   0.444   3.488
 8425SOL     OW26173   3.261   3.348   3.538
 8425SOL    HW126174   3.176   3.302   3.513
 8425SOL    HW226175   3.332   3.324   3.472
 8426SOL     OW26176   4.000   3.020   2.449
 8426SOL    HW126177   4.092   2.996   2.479
 8426SOL    HW226178   3.933   2.980   2.511
 8427SOL     OW26179   3.103   2.999   3.278
 8427SOL    HW126180   3.116   2.915   3.330
 8427SOL    HW226181   3.130   2.983   3.182
 8428SOL     OW26182   0.193   0.509   0.501
 8428SOL    HW126183   0.168   0.414   0.520
 8428SOL    HW226184   0.138   0.570   0.558
 8429SOL     OW26185   2.143   5.733   6.120
 8429SOL    HW126186   2.166   5.830   6.127
 8429SOL    HW226187   2.199   5.681   6.185
 8430SOL     OW26188   4.594   5.987   4.073
 8430SOL    HW126189   4.514   5.932   4.050
 8430SOL    HW226190   4.574   6.043   4.154
 8431SOL     OW26191   2.585   2.806   6.363
 8431SOL    HW126192   2.655   2.791   6.294
 8431SOL    HW226193   2.503   2.842   6.319
 8432SOL     OW26194   6.654   5.534   5.629
 8432SOL    HW126195   6.639   5.436   5.618
 8432SOL    HW226196   6.637   5.581   5.543
 8433SOL     OW26197   4.591   2.331   1.250
 8433SOL    HW126198   4.575   2.429   1.251
 8433SOL    HW226199   4.641   2.306   1.166
 8434SOL     OW26200   2.010   5.746   4.731
 8434SOL    HW126201   2.009   5.839   4.768
 8434SOL    HW226202   1.988   5.748   4.633
 8435SOL     OW26203   5.052   0.641   2.627
 8435SOL    HW126204   5.062   0.612   2.723
 8435SOL    HW226205   5.137   0.684   2.596
 8436SOL     OW26206   2.389   6.424   3.616
 8436SOL    HW126207   2.330   6.383   3.547
 8436SOL    HW226208   2.357   6.399   3.707
 8437SOL     OW26209   2.165   3.074   2.520
 8437SOL    HW126210   2.172   3.151   2.456
 8437SOL    HW226211   2.220   3.094   2.602
 8438SOL     OW26212   1.505   3.947   3.156
 8438SOL    HW126213   1.549   3.934   3.245
 8438SOL    HW226214   1.570   3.923   3.084
 8439SOL     OW26215   6.235   4.878   3.638
 8439SOL    HW126216   6.237   4.779   3.647
 8439SOL    HW226217   6.286   4.906   3.557
 8440SOL     OW26218   1.983   1.553   3.433
 8440SOL    HW126219   2.072   1.599   3.443
 8440SOL    HW226220   1.910   1.621   3.433
 8441SOL     OW26221   5.709   6.238   5.415
 8441SOL    HW126222   5.794   6.216   5.464
 8441SOL    HW226223   5.679   6.157   5.364
 8442SOL     OW26224   3.682   0.769   5.038
 8442SOL    HW126225   3.690   0.724   4.949
 8442SOL    HW226226   3.612   0.841   5.033
 8443SOL     OW26227   1.733   4.824   3.374
 8443SOL    HW126228   1.818   4.774   3.392
 8443SOL    HW226229   1.655   4.762   3.379
 8444SOL     OW26230   4.507   6.046   3.065
 8444SOL    HW126231   4.442   6.047   3.141
 8444SOL    HW226232   4.458   6.065   2.980
 8445SOL     OW26233   3.509   0.085   6.761
 8445SOL    HW126234   3.444   0.036   6.819
 8445SOL    HW226235   3.595   0.034   6.757
 8446SOL     OW26236   0.493   6.370   5.408
 8446SOL    HW126237   0.553   6.349   5.331
 8446SOL    HW226238   0.533   6.443   5.463
 8447SOL     OW26239   4.279   1.471   2.722
 8447SOL    HW126240   4.353   1.537   2.739
 8447SOL    HW226241   4.204   1.487   2.786
 8448SOL     OW26242   4.482   6.502   3.221
 8448SOL    HW126243   4.569   6.455   3.235
 8448SOL    HW226244   4.452   6.489   3.127
 8449SOL     OW26245   1.797   2.556   3.265
 8449SOL    HW126246   1.820   2.468   3.305
 8449SOL    HW226247   1.876   2.617   3.271
 8450SOL     OW26248   6.598   0.613   0.221
 8450SOL    HW126249   6.534   0.689   0.215
 8450SOL    HW226250   6.571   0.541   0.156
 8451SOL     OW26251   4.183   1.826   1.280
 8451SOL    HW126252   4.128   1.823   1.197
 8451SOL    HW226253   4.236   1.741   1.290
 8452SOL     OW26254   4.727   2.191   4.960
 8452SOL    HW126255   4.796   2.130   4.922
 8452SOL    HW226256   4.758   2.286   4.952
 8453SOL     OW26257   1.186   6.060   6.782
 8453SOL    HW126258   1.122   6.025   6.850
 8453SOL    HW226259   1.154   6.034   6.690
 8454SOL     OW26260   0.673   4.139   6.868
 8454SOL    HW126261   0.581   4.178   6.863
 8454SOL    HW226262   0.697   4.122   6.963
 8455SOL     OW26263   1.147   0.735   2.440
 8455SOL    HW126264   1.114   0.721   2.346
 8455SOL    HW226265   1.106   0.667   2.500
 8456SOL     OW26266   5.162   0.839   2.973
 8456SOL    HW126267   5.226   0.914   2.956
 8456SOL    HW226268   5.162   0.817   3.071
 8457SOL     OW26269   5.938   6.362   4.645
 8457SOL    HW126270   5.865   6.322   4.701
 8457SOL    HW226271   6.018   6.380   4.703
 8458SOL     OW26272   0.369   0.379   6.982
 8458SOL    HW126273   0.289   0.371   0.023
 8458SOL    HW226274   0.395   0.288   6.948
 8459SOL     OW26275   1.500   5.786   3.304
 8459SOL    HW126276   1.593   5.793   3.268
 8459SOL    HW226277   1.462   5.696   3.285
 8460SOL     OW26278   3.546   4.129   4.815
 8460SOL    HW126279   3.582   4.036   4.818
 8460SOL    HW226280   3.498   4.149   4.901
 8461SOL     OW26281   0.200   2.721   4.668
 8461SOL    HW126282   0.153   2.801   4.632
 8461SOL    HW226283   0.260   2.683   4.598
 8462SOL     OW26284   2.704   1.883   1.474
 8462SOL    HW126285   2.668   1.970   1.441
 8462SOL    HW226286   2.746   1.897   1.564
 8463SOL     OW26287   6.062   0.813   2.480
 8463SOL    HW126288   6.092   0.792   2.387
 8463SOL    HW226289   6.141   0.845   2.533
 8464SOL     OW26290   5.926   2.955   4.454
 8464SOL    HW126291   5.946   2.982   4.548
 8464SOL    HW226292   5.924   2.856   4.448
 8465SOL     OW26293   1.190   1.920   0.666
 8465SOL    HW126294   1.126   1.993   0.642
 8465SOL    HW226295   1.278   1.960   0.693
 8466SOL     OW26296   0.921   6.047   3.273
 8466SOL    HW126297   1.017   6.050   3.248
 8466SOL    HW226298   0.912   6.026   3.371
 8467SOL     OW26299   2.937   5.479   0.949
 8467SOL    HW126300   2.993   5.406   0.910
 8467SOL    HW226301   2.963   5.567   0.911
 8468SOL     OW26302   4.267   2.091   6.786
 8468SOL    HW126303   4.321   2.115   6.705
 8468SOL    HW226304   4.263   1.991   6.795
 8469SOL     OW26305   3.448   3.200   6.494
 8469SOL    HW126306   3.383   3.255   6.443
 8469SOL    HW226307   3.429   3.103   6.479
 8470SOL     OW26308   2.932   3.159   6.949
 8470SOL    HW126309   2.834   3.158   6.966
 8470SOL    HW226310   2.981   3.132   0.013
 8471SOL     OW26311   3.011   0.622   3.886
 8471SOL    HW126312   2.992   0.720   3.877
 8471SOL    HW226313   2.991   0.593   3.980
 8472SOL     OW26314   0.680   6.807   4.426
 8472SOL    HW126315   0.683   6.790   4.524
 8472SOL    HW226316   0.651   6.723   4.379
 8473SOL     OW26317   6.583   5.148   6.613
 8473SOL    HW126318   6.662   5.194   6.654
 8473SOL    HW226319   6.499   5.196   6.639
 8474SOL     OW26320   3.368   3.318   1.308
 8474SOL    HW126321   3.430   3.251   1.268
 8474SOL    HW226322   3.274   3.283   1.307
 8475SOL     OW26323   6.065   1.996   2.305
 8475SOL    HW126324   6.092   2.064   2.237
 8475SOL    HW226325   6.116   2.012   2.390
 8476SOL     OW26326   4.902   0.831   1.885
 8476SOL    HW126327   4.975   0.886   1.925
 8476SOL    HW226328   4.815   0.853   1.929
 8477SOL     OW26329   2.772   6.897   1.143
 8477SOL    HW126330   2.744   6.811   1.101
 8477SOL    HW226331   2.857   6.883   1.194
 8478SOL     OW26332   1.599   0.750   6.002
 8478SOL    HW126333   1.617   0.652   5.997
 8478SOL    HW226334   1.543   0.770   6.082
 8479SOL     OW26335   5.995   1.190   0.771
 8479SOL    HW126336   5.958   1.283   0.761
 8479SOL    HW226337   5.970   1.135   0.692
 8480SOL     OW26338   3.251   0.501   1.238
 8480SOL    HW126339   3.350   0.514   1.235
 8480SOL    HW226340   3.225   0.461   1.326
 8481SOL     OW26341   3.485   1.454   4.410
 8481SOL    HW126342   3.539   1.457   4.325
 8481SOL    HW226343   3.389   1.472   4.389
 8482SOL     OW26344   1.343   6.972   2.109
 8482SOL    HW126345   1.355   6.877   2.138
 8482SOL    HW226346   1.297   6.974   2.020
 8483SOL     OW26347   3.623   5.772   1.518
 8483SOL    HW126348   3.587   5.725   1.598
 8483SOL    HW226349   3.723   5.767   1.519
 8484SOL     OW26350   0.650   4.924   4.778
 8484SOL    HW126351   0.609   4.989   4.842
 8484SOL    HW226352   0.690   4.973   4.701
 8485SOL     OW26353   1.964   4.369   6.941
 8485SOL    HW126354   1.950   4.293   6.878
 8485SOL    HW226355   1.952   4.337   0.016
 8486SOL     OW26356   5.974   0.986   2.145
 8486SOL    HW126357   5.917   1.008   2.225
 8486SOL    HW226358   5.915   0.969   2.066
 8487SOL     OW26359   5.310   0.318   1.740
 8487SOL    HW126360   5.320   0.225   1.776
 8487SOL    HW226361   5.393   0.344   1.691
 8488SOL     OW26362   5.275   4.024   4.492
 8488SOL    HW126363   5.236   4.000   4.581
 8488SOL    HW226364   5.354   3.966   4.473
 8489SOL     OW26365   5.101   4.766   1.462
 8489SOL    HW126366   5.048   4.799   1.540
 8489SOL    HW226367   5.039   4.733   1.391
 8490SOL     OW26368   4.284   5.324   3.136
 8490SOL    HW126369   4.247   5.232   3.140
 8490SOL    HW226370   4.370   5.328   3.187
 8491SOL     OW26371   2.663   0.526   1.978
 8491SOL    HW126372   2.649   0.584   2.058
 8491SOL    HW226373   2.730   0.455   1.999
 8492SOL     OW26374   6.466   2.477   5.300
 8492SOL    HW126375   6.478   2.466   5.398
 8492SOL    HW226376   6.382   2.431   5.270
 8493SOL     OW26377   4.251   1.843   6.710
 8493SOL    HW126378   4.267   1.773   6.780
 8493SOL    HW226379   4.339   1.875   6.675
 8494SOL     OW26380   2.849   5.578   6.894
 8494SOL    HW126381   2.825   5.665   6.937
 8494SOL    HW226382   2.791   5.563   6.814
 8495SOL     OW26383   6.713   2.382   0.942
 8495SOL    HW126384   6.615   2.361   0.933
 8495SOL    HW226385   6.733   2.412   1.035
 8496SOL     OW26386   6.953   2.312   3.356
 8496SOL    HW126387   6.860   2.347   3.369
 8496SOL    HW226388   6.988   2.279   3.444
 8497SOL     OW26389   6.165   5.009   3.877
 8497SOL    HW126390   6.209   5.099   3.883
 8497SOL    HW226391   6.205   4.958   3.801
 8498SOL     OW26392   6.938   0.314   1.162
 8498SOL    HW126393   6.947   0.380   1.237
 8498SOL    HW226394   7.013   0.326   1.098
 8499SOL     OW26395   2.921   4.402   6.287
 8499SOL    HW126396   2.941   4.428   6.193
 8499SOL    HW226397   2.842   4.340   6.289
 8500SOL     OW26398   2.425   6.797   6.194
 8500SOL    HW126399   2.452   6.736   6.120
 8500SOL    HW226400   2.484   6.878   6.194
 8501SOL     OW26401   2.198   3.373   6.617
 8501SOL    HW126402   2.278   3.316   6.635
 8501SOL    HW226403   2.187   3.383   6.518
 8502SOL     OW26404   6.689   6.472   2.001
 8502SOL    HW126405   6.751   6.453   1.924
 8502SOL    HW226406   6.739   6.463   2.087
 8503SOL     OW26407   2.936   4.830   3.505
 8503SOL    HW126408   2.846   4.868   3.485
 8503SOL    HW226409   2.986   4.814   3.419
 8504SOL     OW26410   1.700   5.382   3.339
 8504SOL    HW126411   1.700   5.287   3.371
 8504SOL    HW226412   1.768   5.435   3.391
 8505SOL     OW26413   5.252   3.832   3.731
 8505SOL    HW126414   5.197   3.838   3.647
 8505SOL    HW226415   5.218   3.899   3.797
 8506SOL     OW26416   1.211   6.843   0.389
 8506SOL    HW126417   1.257   6.778   0.449
 8506SOL    HW226418   1.116   6.815   0.376
 8507SOL     OW26419   1.984   1.299   6.481
 8507SOL    HW126420   1.968   1.242   6.400
 8507SOL    HW226421   2.037   1.380   6.455
 8508SOL     OW26422   0.185   2.112   5.653
 8508SOL    HW126423   0.133   2.075   5.730
 8508SOL    HW226424   0.210   2.207   5.672
 8509SOL     OW26425   5.877   1.707   4.051
 8509SOL    HW126426   5.869   1.805   4.033
 8509SOL    HW226427   5.826   1.684   4.134
 8510SOL     OW26428   5.603   5.543   3.005
 8510SOL    HW126429   5.546   5.625   3.011
 8510SOL    HW226430   5.648   5.527   3.093
 8511SOL     OW26431   6.715   4.794   1.299
 8511SOL    HW126432   6.665   4.834   1.222
 8511SOL    HW226433   6.672   4.708   1.326
 8512SOL     OW26434   4.515   2.179   0.141
 8512SOL    HW126435   4.456   2.225   0.076
 8512SOL    HW226436   4.462   2.111   0.193
 8513SOL     OW26437   5.725   4.154   1.054
 8513SOL    HW126438   5.777   4.127   0.973
 8513SOL    HW226439   5.781   4.212   1.112
 8514SOL     OW26440   3.053   1.564   4.745
 8514SOL    HW126441   3.146   1.574   4.709
 8514SOL    HW226442   2.996   1.516   4.679
 8515SOL     OW26443   0.635   1.231   0.110
 8515SOL    HW126444   0.724   1.276   0.117
 8515SOL    HW226445   0.649   1.133   0.091
 8516SOL     OW26446   5.816   3.114   2.533
 8516SOL    HW126447   5.842   3.139   2.440
 8516SOL    HW226448   5.719   3.093   2.537
 8517SOL     OW26449   1.930   2.447   5.123
 8517SOL    HW126450   1.938   2.492   5.034
 8517SOL    HW226451   2.020   2.446   5.168
 8518SOL     OW26452   5.171   4.861   6.457
 8518SOL    HW126453   5.113   4.868   6.538
 8518SOL    HW226454   5.222   4.947   6.446
 8519SOL     OW26455   1.646   4.385   1.046
 8519SOL    HW126456   1.701   4.302   1.035
 8519SOL    HW226457   1.658   4.444   0.966
 8520SOL     OW26458   3.943   4.034   4.710
 8520SOL    HW126459   3.937   3.970   4.633
 8520SOL    HW226460   3.863   4.094   4.710
 8521SOL     OW26461   1.211   6.662   5.569
 8521SOL    HW126462   1.221   6.563   5.563
 8521SOL    HW226463   1.297   6.706   5.545
 8522SOL     OW26464   1.170   0.119   0.420
 8522SOL    HW126465   1.085   0.105   0.470
 8522SOL    HW226466   1.205   0.031   0.389
 8523SOL     OW26467   2.537   0.006   6.454
 8523SOL    HW126468   2.540   0.067   6.375
 8523SOL    HW226469   2.455   0.025   6.507
 8524SOL     OW26470   1.368   5.120   4.838
 8524SOL    HW126471   1.345   5.061   4.914
 8524SOL    HW226472   1.298   5.192   4.829
 8525SOL     OW26473   6.611   4.953   1.524
 8525SOL    HW126474   6.664   4.875   1.491
 8525SOL    HW226475   6.562   4.927   1.607
 8526SOL     OW26476   2.262   6.747   0.412
 8526SOL    HW126477   2.361   6.757   0.422
 8526SOL    HW226478   2.217   6.772   0.498
 8527SOL     OW26479   3.454   0.363   6.418
 8527SOL    HW126480   3.467   0.462   6.409
 8527SOL    HW226481   3.536   0.316   6.387
 8528SOL     OW26482   4.681   2.281   1.000
 8528SOL    HW126483   4.638   2.199   0.962
 8528SOL    HW226484   4.711   2.341   0.925
 8529SOL     OW26485   1.292   6.044   0.141
 8529SOL    HW126486   1.387   6.040   0.174
 8529SOL    HW226487   1.253   6.133   0.165
 8530SOL     OW26488   3.015   3.162   4.129
 8530SOL    HW126489   2.931   3.137   4.081
 8530SOL    HW226490   3.043   3.254   4.101
 8531SOL     OW26491   6.751   5.775   3.678
 8531SOL    HW126492   6.654   5.757   3.696
 8531SOL    HW226493   6.806   5.737   3.752
 8532SOL     OW26494   3.938   6.202   4.332
 8532SOL    HW126495   3.947   6.272   4.261
 8532SOL    HW226496   3.842   6.191   4.356
 8533SOL     OW26497   1.435   6.129   6.844
 8533SOL    HW126498   1.352   6.085   6.812
 8533SOL    HW226499   1.412   6.205   6.904
 8534SOL     OW26500   4.478   2.049   3.976
 8534SOL    HW126501   4.457   1.958   4.012
 8534SOL    HW226502   4.407   2.113   4.004
 8535SOL     OW26503   5.394   0.793   3.531
 8535SOL    HW126504   5.484   0.838   3.530
 8535SOL    HW226505   5.388   0.732   3.609
 8536SOL     OW26506   0.311   0.914   4.759
 8536SOL    HW126507   0.392   0.866   4.725
 8536SOL    HW226508   0.264   0.857   4.826
 8537SOL     OW26509   6.520   0.947   3.509
 8537SOL    HW126510   6.431   0.926   3.470
 8537SOL    HW226511   6.511   1.021   3.576
 8538SOL     OW26512   1.181   1.850   0.363
 8538SOL    HW126513   1.255   1.857   0.296
 8538SOL    HW226514   1.211   1.889   0.450
 8539SOL     OW26515   6.066   2.727   2.969
 8539SOL    HW126516   6.060   2.820   2.931
 8539SOL    HW226517   5.996   2.716   3.041
 8540SOL     OW26518   4.124   0.167   6.594
 8540SOL    HW126519   4.211   0.118   6.603
 8540SOL    HW226520   4.140   0.265   6.599
 8541SOL     OW26521   2.368   2.146   3.825
 8541SOL    HW126522   2.315   2.207   3.766
 8541SOL    HW226523   2.306   2.097   3.887
 8542SOL     OW26524   4.125   4.426   6.367
 8542SOL    HW126525   4.124   4.437   6.267
 8542SOL    HW226526   4.071   4.346   6.392
 8543SOL     OW26527   2.210   2.617   0.231
 8543SOL    HW126528   2.114   2.642   0.232
 8543SOL    HW226529   2.220   2.527   0.188
 8544SOL     OW26530   5.327   2.685   3.648
 8544SOL    HW126531   5.282   2.756   3.594
 8544SOL    HW226532   5.377   2.726   3.724
 8545SOL     OW26533   4.722   6.238   5.479
 8545SOL    HW126534   4.638   6.190   5.504
 8545SOL    HW226535   4.738   6.230   5.381
 8546SOL     OW26536   5.220   1.806   3.820
 8546SOL    HW126537   5.173   1.854   3.746
 8546SOL    HW226538   5.313   1.783   3.791
 8547SOL     OW26539   1.215   4.836   4.287
 8547SOL    HW126540   1.121   4.852   4.316
 8547SOL    HW226541   1.248   4.750   4.326
 8548SOL     OW26542   5.392   1.094   5.509
 8548SOL    HW126543   5.366   1.052   5.422
 8548SOL    HW226544   5.361   1.036   5.584
 8549SOL     OW26545   6.432   3.345   4.046
 8549SOL    HW126546   6.367   3.276   4.077
 8549SOL    HW226547   6.391   3.436   4.054
 8550SOL     OW26548   1.747   5.277   6.454
 8550SOL    HW126549   1.833   5.309   6.413
 8550SOL    HW226550   1.744   5.177   6.451
 8551SOL     OW26551   3.750   4.400   6.675
 8551SOL    HW126552   3.766   4.351   6.761
 8551SOL    HW226553   3.805   4.359   6.602
 8552SOL     OW26554   3.322   5.865   3.161
 8552SOL    HW126555   3.307   5.946   3.104
 8552SOL    HW226556   3.323   5.783   3.103
 8553SOL     OW26557   4.746   6.616   0.257
 8553SOL    HW126558   4.653   6.643   0.231
 8553SOL    HW226559   4.744   6.527   0.302
 8554SOL     OW26560   0.119   4.319   6.724
 8554SOL    HW126561   0.183   4.273   6.663
 8554SOL    HW226562   0.053   4.371   6.670
 8555SOL     OW26563   0.601   0.870   4.009
 8555SOL    HW126564   0.635   0.776   4.019
 8555SOL    HW226565   0.631   0.906   3.920
 8556SOL     OW26566   6.708   0.783   3.956
 8556SOL    HW126567   6.661   0.709   4.004
 8556SOL    HW226568   6.727   0.858   4.020
 8557SOL     OW26569   6.973   6.851   1.555
 8557SOL    HW126570   6.933   6.937   1.588
 8557SOL    HW226571   7.011   6.800   1.632
 8558SOL     OW26572   1.895   5.366   2.559
 8558SOL    HW126573   1.987   5.343   2.529
 8558SOL    HW226574   1.834   5.371   2.480
 8559SOL     OW26575   1.007   0.499   1.711
 8559SOL    HW126576   0.940   0.564   1.678
 8559SOL    HW226577   0.963   0.411   1.730
 8560SOL     OW26578   6.347   1.495   0.298
 8560SOL    HW126579   6.439   1.533   0.289
 8560SOL    HW226580   6.332   1.466   0.393
 8561SOL     OW26581   4.951   6.049   2.988
 8561SOL    HW126582   5.040   6.050   2.943
 8561SOL    HW226583   4.964   6.044   3.087
 8562SOL     OW26584   3.546   6.854   4.447
 8562SOL    HW126585   3.465   6.846   4.390
 8562SOL    HW226586   3.520   6.853   4.544
 8563SOL     OW26587   2.624   2.903   6.617
 8563SOL    HW126588   2.616   2.874   6.522
 8563SOL    HW226589   2.671   2.832   6.670
 8564SOL     OW26590   0.675   0.121   3.704
 8564SOL    HW126591   0.700   0.055   3.775
 8564SOL    HW226592   0.590   0.166   3.729
 8565SOL     OW26593   3.791   0.040   0.595
 8565SOL    HW126594   3.752   6.985   0.540
 8565SOL    HW226595   3.884   0.060   0.564
 8566SOL     OW26596   1.090   2.013   2.700
 8566SOL    HW126597   1.020   2.031   2.632
 8566SOL    HW226598   1.126   2.101   2.735
 8567SOL     OW26599   5.541   1.493   1.010
 8567SOL    HW126600   5.640   1.488   1.013
 8567SOL    HW226601   5.513   1.569   0.951
 8568SOL     OW26602   5.541   1.920   0.285
 8568SOL    HW126603   5.591   1.852   0.339
 8568SOL    HW226604   5.606   1.982   0.240
 8569SOL     OW26605   4.728   1.426   4.247
 8569SOL    HW126606   4.637   1.388   4.260
 8569SOL    HW226607   4.731   1.520   4.282
 8570SOL     OW26608   0.452   3.955   6.253
 8570SOL    HW126609   0.487   4.037   6.298
 8570SOL    HW226610   0.380   3.980   6.188
 8571SOL     OW26611   6.508   4.099   4.417
 8571SOL    HW126612   6.550   4.008   4.409
 8571SOL    HW226613   6.577   4.169   4.400
 8572SOL     OW26614   1.792   5.243   5.200
 8572SOL    HW126615   1.781   5.322   5.141
 8572SOL    HW226616   1.830   5.167   5.148
 8573SOL     OW26617   4.501   5.810   5.939
 8573SOL    HW126618   4.483   5.802   6.037
 8573SOL    HW226619   4.573   5.745   5.913
 8574SOL     OW26620   6.975   3.629   5.637
 8574SOL    HW126621   0.013   3.565   5.689
 8574SOL    HW226622   6.944   3.586   5.553
 8575SOL     OW26623   2.756   2.702   0.376
 8575SOL    HW126624   2.686   2.631   0.388
 8575SOL    HW226625   2.825   2.670   0.312
 8576SOL     OW26626   0.848   0.179   1.612
 8576SOL    HW126627   0.943   0.162   1.584
 8576SOL    HW226628   0.823   0.115   1.686
 8577SOL     OW26629   6.144   5.691   3.219
 8577SOL    HW126630   6.149   5.789   3.235
 8577SOL    HW226631   6.051   5.666   3.192
 8578SOL     OW26632   4.612   0.476   3.707
 8578SOL    HW126633   4.669   0.496   3.786
 8578SOL    HW226634   4.542   0.409   3.731
 8579SOL     OW26635   1.385   4.810   3.397
 8579SOL    HW126636   1.323   4.774   3.467
 8579SOL    HW226637   1.410   4.904   3.418
 8580SOL     OW26638   1.685   6.357   1.884
 8580SOL    HW126639   1.644   6.389   1.969
 8580SOL    HW226640   1.756   6.421   1.855
 8581SOL     OW26641   3.117   1.562   1.056
 8581SOL    HW126642   3.215   1.561   1.039
 8581SOL    HW226643   3.086   1.657   1.065
 8582SOL     OW26644   4.496   4.503   2.150
 8582SOL    HW126645   4.501   4.422   2.092
 8582SOL    HW226646   4.406   4.545   2.140
 8583SOL     OW26647   5.987   0.001   5.805
 8583SOL    HW126648   5.954   6.984   5.717
 8583SOL    HW226649   5.935   0.083   5.829
 8584SOL     OW26650   0.437   5.405   0.341
 8584SOL    HW126651   0.472   5.480   0.397
 8584SOL    HW226652   0.374   5.350   0.395
 8585SOL     OW26653   0.292   0.992   0.375
 8585SOL    HW126654   0.219   0.975   0.308
 8585SOL    HW226655   0.362   1.050   0.334
 8586SOL     OW26656   3.778   5.719   2.573
 8586SOL    HW126657   3.771   5.650   2.501
 8586SOL    HW226658   3.723   5.799   2.549
 8587SOL     OW26659   6.955   1.537   2.503
 8587SOL    HW126660   6.996   1.592   2.575
 8587SOL    HW226661   0.002   1.525   2.428
 8588SOL     OW26662   4.132   2.659   0.181
 8588SOL    HW126663   4.136   2.575   0.127
 8588SOL    HW226664   4.108   2.736   0.122
 8589SOL     OW26665   3.678   0.850   4.203
 8589SOL    HW126666   3.745   0.825   4.273
 8589SOL    HW226667   3.587   0.826   4.234
 8590SOL     OW26668   6.277   5.465   4.737
 8590SOL    HW126669   6.266   5.447   4.834
 8590SOL    HW226670   6.280   5.564   4.722
 8591SOL     OW26671   1.160   3.565   6.298
 8591SOL    HW126672   1.209   3.613   6.225
 8591SOL    HW226673   1.144   3.628   6.374
 8592SOL     OW26674   0.076   4.200   1.006
 8592SOL    HW126675   0.151   4.250   1.048
 8592SOL    HW226676   7.008   4.228   1.047
 8593SOL     OW26677   1.831   6.954   2.322
 8593SOL    HW126678   1.820   6.975   2.225
 8593SOL    HW226679   1.808   0.016   2.376
 8594SOL     OW26680   2.897   3.434   3.949
 8594SOL    HW126681   2.844   3.459   4.030
 8594SOL    HW226682   2.993   3.422   3.975
 8595SOL     OW26683   2.006   2.169   2.403
 8595SOL    HW126684   1.988   2.077   2.368
 8595SOL    HW226685   2.094   2.201   2.368
 8596SOL     OW26686   5.841   5.556   1.551
 8596SOL    HW126687   5.829   5.461   1.522
 8596SOL    HW226688   5.911   5.560   1.623
 8597SOL     OW26689   2.844   1.443   0.688
 8597SOL    HW126690   2.777   1.410   0.621
 8597SOL    HW226691   2.895   1.365   0.724
 8598SOL     OW26692   6.245   3.708   1.000
 8598SOL    HW126693   6.149   3.735   1.005
 8598SOL    HW226694   6.273   3.670   1.088
 8599SOL     OW26695   1.390   2.781   3.105
 8599SOL    HW126696   1.357   2.771   3.199
 8599SOL    HW226697   1.422   2.692   3.072
 8600SOL     OW26698   6.315   4.966   6.465
 8600SOL    HW126699   6.266   5.040   6.418
 8600SOL    HW226700   6.413   4.988   6.468
 8601SOL     OW26701   0.078   6.901   4.047
 8601SOL    HW126702   0.151   6.912   4.115
 8601SOL    HW226703   0.119   6.886   3.957
 8602SOL     OW26704   2.609   5.646   2.238
 8602SOL    HW126705   2.693   5.700   2.246
 8602SOL    HW226706   2.565   5.663   2.150
 8603SOL     OW26707   4.114   3.046   0.315
 8603SOL    HW126708   4.081   3.139   0.329
 8603SOL    HW226709   4.213   3.043   0.325
 8604SOL     OW26710   5.675   2.986   3.656
 8604SOL    HW126711   5.740   2.916   3.626
 8604SOL    HW226712   5.639   3.034   3.576
 8605SOL     OW26713   2.447   5.991   3.344
 8605SOL    HW126714   2.433   6.069   3.283
 8605SOL    HW226715   2.506   6.018   3.419
 8606SOL     OW26716   3.849   4.625   6.034
 8606SOL    HW126717   3.775   4.619   5.968
 8606SOL    HW226718   3.843   4.710   6.085
 8607SOL     OW26719   4.298   5.597   2.236
 8607SOL    HW126720   4.266   5.536   2.308
 8607SOL    HW226721   4.344   5.676   2.277
 8608SOL     OW26722   4.117   5.329   2.731
 8608SOL    HW126723   4.207   5.285   2.733
 8608SOL    HW226724   4.051   5.268   2.685
 8609SOL     OW26725   3.435   0.369   5.211
 8609SOL    HW126726   3.469   0.375   5.305
 8609SOL    HW226727   3.498   0.414   5.149
 8610SOL     OW26728   0.948   6.453   3.575
 8610SOL    HW126729   0.891   6.457   3.493
 8610SOL    HW226730   0.976   6.359   3.592
 8611SOL     OW26731   1.904   1.939   4.799
 8611SOL    HW126732   1.943   2.025   4.765
 8611SOL    HW226733   1.963   1.863   4.773
 8612SOL     OW26734   4.066   3.124   6.469
 8612SOL    HW126735   4.047   3.027   6.485
 8612SOL    HW226736   4.036   3.148   6.376
 8613SOL     OW26737   1.891   1.872   1.153
 8613SOL    HW126738   1.936   1.787   1.126
 8613SOL    HW226739   1.933   1.908   1.236
 8614SOL     OW26740   1.130   2.541   2.943
 8614SOL    HW126741   1.114   2.631   2.982
 8614SOL    HW226742   1.226   2.532   2.916
 8615SOL     OW26743   4.102   1.994   5.818
 8615SOL    HW126744   4.117   2.053   5.738
 8615SOL    HW226745   4.071   1.904   5.787
 8616SOL     OW26746   0.873   4.584   0.330
 8616SOL    HW126747   0.876   4.594   0.429
 8616SOL    HW226748   0.779   4.566   0.301
 8617SOL     OW26749   5.743   2.729   1.004
 8617SOL    HW126750   5.710   2.787   0.929
 8617SOL    HW226751   5.710   2.636   0.990
 8618SOL     OW26752   4.566   6.885   3.202
 8618SOL    HW126753   4.563   6.858   3.298
 8618SOL    HW226754   4.480   6.929   3.177
 8619SOL     OW26755   4.572   4.935   0.007
 8619SOL    HW126756   4.607   5.020   6.985
 8619SOL    HW226757   4.558   4.867   6.954
 8620SOL     OW26758   5.727   6.102   2.186
 8620SOL    HW126759   5.741   6.166   2.262
 8620SOL    HW226760   5.632   6.072   2.185
 8621SOL     OW26761   5.878   1.535   3.636
 8621SOL    HW126762   5.805   1.577   3.691
 8621SOL    HW226763   5.946   1.604   3.612
 8622SOL     OW26764   4.773   5.304   0.351
 8622SOL    HW126765   4.808   5.355   0.430
 8622SOL    HW226766   4.673   5.299   0.356
 8623SOL     OW26767   1.157   3.521   3.044
 8623SOL    HW126768   1.069   3.535   3.088
 8623SOL    HW226769   1.193   3.431   3.069
 8624SOL     OW26770   1.001   3.880   2.899
 8624SOL    HW126771   0.903   3.900   2.892
 8624SOL    HW226772   1.014   3.788   2.935
 8625SOL     OW26773   4.146   1.058   4.516
 8625SOL    HW126774   4.136   0.975   4.570
 8625SOL    HW226775   4.214   1.117   4.560
 8626SOL     OW26776   3.291   3.516   4.237
 8626SOL    HW126777   3.293   3.476   4.329
 8626SOL    HW226778   3.304   3.615   4.244
 8627SOL     OW26779   0.802   1.019   1.062
 8627SOL    HW126780   0.758   1.108   1.070
 8627SOL    HW226781   0.885   1.018   1.117
 8628SOL     OW26782   5.425   1.003   6.705
 8628SOL    HW126783   5.492   1.046   6.766
 8628SOL    HW226784   5.392   1.070   6.639
 8629SOL     OW26785   1.401   4.493   4.116
 8629SOL    HW126786   1.359   4.424   4.175
 8629SOL    HW226787   1.501   4.488   4.123
 8630SOL     OW26788   5.905   4.235   4.121
 8630SOL    HW126789   5.862   4.268   4.037
 8630SOL    HW226790   5.903   4.135   4.122
 8631SOL     OW26791   3.704   6.287   4.748
 8631SOL    HW126792   3.654   6.234   4.680
 8631SOL    HW226793   3.793   6.244   4.764
 8632SOL     OW26794   3.415   0.533   3.297
 8632SOL    HW126795   3.339   0.530   3.363
 8632SOL    HW226796   3.412   0.452   3.239
 8633SOL     OW26797   5.438   1.170   4.108
 8633SOL    HW126798   5.405   1.213   4.025
 8633SOL    HW226799   5.383   1.088   4.127
 8634SOL     OW26800   6.671   4.703   1.829
 8634SOL    HW126801   6.713   4.783   1.872
 8634SOL    HW226802   6.706   4.620   1.873
 8635SOL     OW26803   6.043   3.584   5.826
 8635SOL    HW126804   6.081   3.674   5.808
 8635SOL    HW226805   5.973   3.562   5.758
 8636SOL     OW26806   6.651   6.219   0.632
 8636SOL    HW126807   6.596   6.179   0.705
 8636SOL    HW226808   6.714   6.286   0.670
 8637SOL     OW26809   1.783   0.921   0.804
 8637SOL    HW126810   1.855   0.947   0.868
 8637SOL    HW226811   1.823   0.907   0.713
 8638SOL     OW26812   2.758   4.458   0.153
 8638SOL    HW126813   2.796   4.369   0.128
 8638SOL    HW226814   2.766   4.520   0.075
 8639SOL     OW26815   5.617   3.674   1.753
 8639SOL    HW126816   5.547   3.678   1.824
 8639SOL    HW226817   5.660   3.763   1.742
 8640SOL     OW26818   5.017   4.411   0.776
 8640SOL    HW126819   4.937   4.432   0.718
 8640SOL    HW226820   5.099   4.447   0.732
 8641SOL     OW26821   6.962   4.033   3.368
 8641SOL    HW126822   6.984   4.127   3.394
 8641SOL    HW226823   6.975   4.021   3.270
 8642SOL     OW26824   4.250   0.887   2.026
 8642SOL    HW126825   4.330   0.903   2.084
 8642SOL    HW226826   4.196   0.971   2.021
 8643SOL     OW26827   4.253   0.631   6.455
 8643SOL    HW126828   4.274   0.564   6.384
 8643SOL    HW226829   4.179   0.690   6.424
 8644SOL     OW26830   5.730   1.964   4.760
 8644SOL    HW126831   5.739   2.052   4.805
 8644SOL    HW226832   5.783   1.964   4.675
 8645SOL     OW26833   6.451   3.906   1.282
 8645SOL    HW126834   6.521   3.956   1.333
 8645SOL    HW226835   6.431   3.820   1.328
 8646SOL     OW26836   4.912   0.866   6.904
 8646SOL    HW126837   4.847   0.934   6.869
 8646SOL    HW226838   4.936   0.803   6.830
 8647SOL     OW26839   3.768   4.613   0.119
 8647SOL    HW126840   3.702   4.686   0.136
 8647SOL    HW226841   3.793   4.614   0.022
 8648SOL     OW26842   5.299   0.814   4.617
 8648SOL    HW126843   5.382   0.870   4.609
 8648SOL    HW226844   5.264   0.792   4.526
 8649SOL     OW26845   6.059   3.875   5.523
 8649SOL    HW126846   5.991   3.943   5.493
 8649SOL    HW226847   6.070   3.880   5.622
 8650SOL     OW26848   2.044   5.052   4.008
 8650SOL    HW126849   2.004   5.008   3.928
 8650SOL    HW226850   2.116   5.115   3.978
 8651SOL     OW26851   4.057   1.608   0.104
 8651SOL    HW126852   4.114   1.528   0.084
 8651SOL    HW226853   3.961   1.588   0.083
 8652SOL     OW26854   2.077   3.853   3.532
 8652SOL    HW126855   2.134   3.936   3.527
 8652SOL    HW226856   2.066   3.815   3.440
 8653SOL     OW26857   0.344   2.661   6.577
 8653SOL    HW126858   0.433   2.685   6.616
 8653SOL    HW226859   0.293   2.603   6.642
 8654SOL     OW26860   0.247   6.587   2.961
 8654SOL    HW126861   0.284   6.670   3.001
 8654SOL    HW226862   0.167   6.558   3.013
 8655SOL     OW26863   5.545   6.517   4.343
 8655SOL    HW126864   5.532   6.477   4.252
 8655SOL    HW226865   5.590   6.606   4.334
 8656SOL     OW26866   6.436   0.957   1.173
 8656SOL    HW126867   6.367   0.890   1.198
 8656SOL    HW226868   6.473   1.000   1.255
 8657SOL     OW26869   4.842   4.763   6.332
 8657SOL    HW126870   4.924   4.782   6.277
 8657SOL    HW226871   4.763   4.755   6.272
 8658SOL     OW26872   5.544   4.731   0.446
 8658SOL    HW126873   5.575   4.806   0.505
 8658SOL    HW226874   5.458   4.695   0.481
 8659SOL     OW26875   4.560   0.591   3.141
 8659SOL    HW126876   4.551   0.659   3.215
 8659SOL    HW226877   4.647   0.604   3.094
 8660SOL     OW26878   5.733   3.579   0.281
 8660SOL    HW126879   5.653   3.635   0.264
 8660SOL    HW226880   5.810   3.637   0.308
 8661SOL     OW26881   6.709   4.228   1.750
 8661SOL    HW126882   6.698   4.129   1.758
 8661SOL    HW226883   6.807   4.251   1.748
 8662SOL     OW26884   6.365   6.245   1.226
 8662SOL    HW126885   6.306   6.268   1.303
 8662SOL    HW226886   6.334   6.296   1.145
 8663SOL     OW26887   2.281   5.577   1.053
 8663SOL    HW126888   2.204   5.513   1.048
 8663SOL    HW226889   2.358   5.541   1.000
 8664SOL     OW26890   4.028   6.024   6.950
 8664SOL    HW126891   4.099   6.082   6.909
 8664SOL    HW226892   4.070   5.961   7.014
 8665SOL     OW26893   4.358   5.476   4.977
 8665SOL    HW126894   4.296   5.501   4.903
 8665SOL    HW226895   4.398   5.559   5.017
 8666SOL     OW26896   5.021   2.567   5.258
 8666SOL    HW126897   5.083   2.513   5.315
 8666SOL    HW226898   4.934   2.519   5.250
 8667SOL     OW26899   5.189   1.755   3.311
 8667SOL    HW126900   5.139   1.790   3.232
 8667SOL    HW226901   5.258   1.821   3.339
 8668SOL     OW26902   5.110   2.181   4.227
 8668SOL    HW126903   5.198   2.194   4.273
 8668SOL    HW226904   5.097   2.085   4.203
 8669SOL     OW26905   4.506   0.679   5.641
 8669SOL    HW126906   4.498   0.617   5.562
 8669SOL    HW226907   4.448   0.759   5.625
 8670SOL     OW26908   3.786   5.499   4.324
 8670SOL    HW126909   3.716   5.516   4.393
 8670SOL    HW226910   3.870   5.468   4.369
 8671SOL     OW26911   6.069   6.844   3.695
 8671SOL    HW126912   5.997   6.795   3.645
 8671SOL    HW226913   6.069   6.814   3.790
 8672SOL     OW26914   3.162   4.972   4.224
 8672SOL    HW126915   3.153   5.066   4.193
 8672SOL    HW226916   3.192   4.971   4.319
 8673SOL     OW26917   0.036   1.744   0.695
 8673SOL    HW126918   0.074   1.833   0.718
 8673SOL    HW226919   0.085   1.705   0.617
 8674SOL     OW26920   6.964   0.424   2.911
 8674SOL    HW126921   6.909   0.353   2.955
 8674SOL    HW226922   0.038   0.423   2.949
 8675SOL     OW26923   2.707   1.580   3.653
 8675SOL    HW126924   2.651   1.645   3.705
 8675SOL    HW226925   2.803   1.592   3.677
 8676SOL     OW26926   3.905   0.333   2.633
 8676SOL    HW126927   3.816   0.302   2.668
 8676SOL    HW226928   3.973   0.262   2.649
 8677SOL     OW26929   2.726   3.988   6.226
 8677SOL    HW126930   2.807   4.032   6.188
 8677SOL    HW226931   2.658   3.976   6.153
 8678SOL     OW26932   1.460   0.235   6.477
 8678SOL    HW126933   1.408   0.317   6.500
 8678SOL    HW226934   1.398   0.156   6.475
 8679SOL     OW26935   6.313   1.727   5.353
 8679SOL    HW126936   6.271   1.643   5.319
 8679SOL    HW226937   6.355   1.777   5.277
 8680SOL     OW26938   1.876   3.618   0.141
 8680SOL    HW126939   1.952   3.609   0.206
 8680SOL    HW226940   1.912   3.645   0.052
 8681SOL     OW26941   4.213   4.604   0.663
 8681SOL    HW126942   4.120   4.567   0.667
 8681SOL    HW226943   4.248   4.594   0.569
 8682SOL     OW26944   2.579   6.462   2.755
 8682SOL    HW126945   2.608   6.557   2.746
 8682SOL    HW226946   2.501   6.457   2.817
 8683SOL     OW26947   1.021   2.905   1.219
 8683SOL    HW126948   1.095   2.908   1.286
 8683SOL    HW226949   1.043   2.965   1.142
 8684SOL     OW26950   6.279   2.678   5.073
 8684SOL    HW126951   6.331   2.625   5.005
 8684SOL    HW226952   6.302   2.775   5.063
 8685SOL     OW26953   0.846   2.001   6.947
 8685SOL    HW126954   0.756   1.961   6.961
 8685SOL    HW226955   0.876   1.984   6.853
 8686SOL     OW26956   0.189   2.048   2.728
 8686SOL    HW126957   0.227   1.999   2.649
 8686SOL    HW226958   0.248   2.036   2.807
 8687SOL     OW26959   3.432   6.587   2.177
 8687SOL    HW126960   3.468   6.520   2.112
 8687SOL    HW226961   3.333   6.577   2.183
 8688SOL     OW26962   3.072   6.901   1.241
 8688SOL    HW126963   3.114   6.826   1.294
 8688SOL    HW226964   3.115   6.905   1.151
 8689SOL     OW26965   4.226   5.633   0.311
 8689SOL    HW126966   4.307   5.690   0.299
 8689SOL    HW226967   4.204   5.587   0.225
 8690SOL     OW26968   0.959   1.965   3.483
 8690SOL    HW126969   1.037   1.921   3.439
 8690SOL    HW226970   0.991   2.041   3.540
 8691SOL     OW26971   4.751   2.614   6.560
 8691SOL    HW126972   4.833   2.618   6.616
 8691SOL    HW226973   4.755   2.684   6.489
 8692SOL     OW26974   2.929   1.870   3.368
 8692SOL    HW126975   2.892   1.789   3.323
 8692SOL    HW226976   2.891   1.877   3.460
 8693SOL     OW26977   5.874   1.958   0.649
 8693SOL    HW126978   5.849   2.009   0.566
 8693SOL    HW226979   5.884   2.022   0.725
 8694SOL     OW26980   4.924   0.015   6.770
 8694SOL    HW126981   4.970   0.051   6.852
 8694SOL    HW226982   4.864   0.085   6.732
 8695SOL     OW26983   5.186   3.042   5.397
 8695SOL    HW126984   5.099   3.063   5.441
 8695SOL    HW226985   5.261   3.056   5.462
 8696SOL     OW26986   3.371   5.434   0.841
 8696SOL    HW126987   3.335   5.416   0.749
 8696SOL    HW226988   3.381   5.532   0.855
 8697SOL     OW26989   6.707   3.447   1.167
 8697SOL    HW126990   6.687   3.544   1.154
 8697SOL    HW226991   6.803   3.429   1.148
 8698SOL     OW26992   5.353   5.663   4.515
 8698SOL    HW126993   5.359   5.739   4.451
 8698SOL    HW226994   5.380   5.694   4.606
 8699SOL     OW26995   0.873   1.755   5.622
 8699SOL    HW126996   0.887   1.748   5.523
 8699SOL    HW226997   0.845   1.848   5.645
 8700SOL     OW26998   1.977   0.738   4.784
 8700SOL    HW126999   1.979   0.725   4.883
 8700SOL    HW227000   2.031   0.819   4.759
 8701SOL     OW27001   0.959   1.125   5.248
 8701SOL    HW127002   0.967   1.220   5.279
 8701SOL    HW227003   1.051   1.086   5.238
 8702SOL     OW27004   5.588   4.838   0.719
 8702SOL    HW127005   5.600   4.768   0.790
 8702SOL    HW227006   5.654   4.911   0.734
 8703SOL     OW27007   3.409   5.435   1.208
 8703SOL    HW127008   3.387   5.399   1.117
 8703SOL    HW227009   3.331   5.420   1.269
 8704SOL     OW27010   6.791   4.561   2.446
 8704SOL    HW127011   6.734   4.555   2.528
 8704SOL    HW227012   6.865   4.626   2.462
 8705SOL     OW27013   4.970   0.439   6.102
 8705SOL    HW127014   4.930   0.526   6.072
 8705SOL    HW227015   4.937   0.365   6.042
 8706SOL     OW27016   4.891   2.070   6.914
 8706SOL    HW127017   4.937   1.989   6.878
 8706SOL    HW227018   4.846   2.119   6.840
 8707SOL     OW27019   4.492   3.021   6.837
 8707SOL    HW127020   4.438   3.043   6.756
 8707SOL    HW227021   4.439   3.044   6.919
 8708SOL     OW27022   3.589   1.108   1.568
 8708SOL    HW127023   3.552   1.171   1.636
 8708SOL    HW227024   3.686   1.127   1.554
 8709SOL     OW27025   6.928   4.717   0.129
 8709SOL    HW127026   6.900   4.721   0.034
 8709SOL    HW227027   7.017   4.671   0.136
 8710SOL     OW27028   1.585   3.444   2.760
 8710SOL    HW127029   1.525   3.523   2.762
 8710SOL    HW227030   1.572   3.394   2.674
 8711SOL     OW27031   6.339   0.590   2.842
 8711SOL    HW127032   6.243   0.589   2.868
 8711SOL    HW227033   6.348   0.612   2.745
 8712SOL     OW27034   3.266   1.867   4.448
 8712SOL    HW127035   3.317   1.940   4.404
 8712SOL    HW227036   3.328   1.792   4.472
 8713SOL     OW27037   7.000   4.270   4.068
 8713SOL    HW127038   0.004   4.219   3.984
 8713SOL    HW227039   6.942   4.348   4.045
 8714SOL     OW27040   1.450   1.151   6.072
 8714SOL    HW127041   1.495   1.091   6.138
 8714SOL    HW227042   1.357   1.118   6.056
 8715SOL     OW27043   6.212   0.898   1.480
 8715SOL    HW127044   6.217   0.998   1.476
 8715SOL    HW227045   6.259   0.859   1.402
 8716SOL     OW27046   0.555   1.658   1.592
 8716SOL    HW127047   0.546   1.559   1.594
 8716SOL    HW227048   0.643   1.685   1.631
 8717SOL     OW27049   4.073   3.682   2.246
 8717SOL    HW127050   3.988   3.635   2.269
 8717SOL    HW227051   4.109   3.727   2.328
 8718SOL     OW27052   0.032   2.410   4.671
 8718SOL    HW127053   7.004   2.323   4.686
 8718SOL    HW227054   0.041   2.427   4.573
 8719SOL     OW27055   1.464   0.695   5.340
 8719SOL    HW127056   1.451   0.778   5.394
 8719SOL    HW227057   1.561   0.685   5.317
 8720SOL     OW27058   5.950   5.391   5.028
 8720SOL    HW127059   5.918   5.419   5.119
 8720SOL    HW227060   6.022   5.453   4.997
 8721SOL     OW27061   6.360   1.766   4.379
 8721SOL    HW127062   6.291   1.694   4.376
 8721SOL    HW227063   6.316   1.856   4.381
 8722SOL     OW27064   3.660   1.997   0.617
 8722SOL    HW127065   3.630   1.957   0.703
 8722SOL    HW227066   3.680   1.924   0.551
 8723SOL     OW27067   6.499   5.477   0.574
 8723SOL    HW127068   6.586   5.525   0.588
 8723SOL    HW227069   6.426   5.528   0.619
 8724SOL     OW27070   5.512   0.083   5.726
 8724SOL    HW127071   5.539   0.003   5.673
 8724SOL    HW227072   5.452   0.141   5.670
 8725SOL     OW27073   2.133   0.341   0.265
 8725SOL    HW127074   2.035   0.347   0.247
 8725SOL    HW227075   2.183   0.393   0.196
 8726SOL     OW27076   6.091   6.817   1.238
 8726SOL    HW127077   6.046   6.731   1.214
 8726SOL    HW227078   6.188   6.811   1.215
 8727SOL     OW27079   6.659   6.095   1.718
 8727SOL    HW127080   6.628   6.116   1.810
 8727SOL    HW227081   6.752   6.130   1.705
 8728SOL     OW27082   3.004   6.581   5.097
 8728SOL    HW127083   2.969   6.490   5.116
 8728SOL    HW227084   3.049   6.618   5.178
 8729SOL     OW27085   4.172   5.540   3.280
 8729SOL    HW127086   4.075   5.520   3.267
 8729SOL    HW227087   4.227   5.470   3.236
 8730SOL     OW27088   0.152   5.692   2.305
 8730SOL    HW127089   0.087   5.622   2.273
 8730SOL    HW227090   0.241   5.649   2.323
 8731SOL     OW27091   1.292   2.137   3.377
 8731SOL    HW127092   1.345   2.123   3.461
 8731SOL    HW227093   1.207   2.185   3.399
 8732SOL     OW27094   5.354   4.260   1.981
 8732SOL    HW127095   5.372   4.180   2.039
 8732SOL    HW227096   5.392   4.342   2.024
 8733SOL     OW27097   0.930   6.412   1.968
 8733SOL    HW127098   0.847   6.365   1.998
 8733SOL    HW227099   0.980   6.353   1.904
 8734SOL     OW27100   0.782   5.232   1.253
 8734SOL    HW127101   0.785   5.332   1.256
 8734SOL    HW227102   0.841   5.196   1.326
 8735SOL     OW27103   0.552   1.932   0.403
 8735SOL    HW127104   0.602   1.942   0.317
 8735SOL    HW227105   0.509   2.019   0.427
 8736SOL     OW27106   0.867   5.609   6.783
 8736SOL    HW127107   0.805   5.552   6.837
 8736SOL    HW227108   0.916   5.551   6.717
 8737SOL     OW27109   3.486   6.277   5.980
 8737SOL    HW127110   3.513   6.190   5.939
 8737SOL    HW227111   3.434   6.259   6.064
 8738SOL     OW27112   1.696   3.734   4.066
 8738SOL    HW127113   1.728   3.795   4.138
 8738SOL    HW227114   1.769   3.669   4.043
 8739SOL     OW27115   6.738   3.414   5.842
 8739SOL    HW127116   6.651   3.464   5.839
 8739SOL    HW227117   6.744   3.353   5.763
 8740SOL     OW27118   2.737   0.326   6.479
 8740SOL    HW127119   2.694   0.324   6.388
 8740SOL    HW227120   2.794   0.408   6.486
 8741SOL     OW27121   1.396   2.711   2.229
 8741SOL    HW127122   1.409   2.613   2.213
 8741SOL    HW227123   1.420   2.762   2.146
 8742SOL     OW27124   5.040   6.754   1.467
 8742SOL    HW127125   5.050   6.674   1.527
 8742SOL    HW227126   5.045   6.837   1.521
 8743SOL     OW27127   2.014   5.918   2.089
 8743SOL    HW127128   2.062   6.004   2.107
 8743SOL    HW227129   2.066   5.842   2.127
 8744SOL     OW27130   4.552   2.541   6.714
 8744SOL    HW127131   4.624   2.603   6.683
 8744SOL    HW227132   4.531   2.561   6.810
 8745SOL     OW27133   6.029   2.104   5.128
 8745SOL    HW127134   6.002   2.026   5.071
 8745SOL    HW227135   6.107   2.077   5.186
 8746SOL     OW27136   4.940   4.958   5.725
 8746SOL    HW127137   4.982   4.937   5.813
 8746SOL    HW227138   4.841   4.970   5.738
 8747SOL     OW27139   1.118   2.760   3.805
 8747SOL    HW127140   1.119   2.763   3.905
 8747SOL    HW227141   1.039   2.707   3.775
 8748SOL     OW27142   1.499   0.746   6.616
 8748SOL    HW127143   1.587   0.700   6.627
 8748SOL    HW227144   1.475   0.749   6.518
 8749SOL     OW27145   3.601   0.895   3.826
 8749SOL    HW127146   3.678   0.840   3.858
 8749SOL    HW227147   3.577   0.868   3.733
 8750SOL     OW27148   1.934   2.124   5.095
 8750SOL    HW127149   1.913   2.219   5.117
 8750SOL    HW227150   1.945   2.114   4.997
 8751SOL     OW27151   0.613   6.983   2.089
 8751SOL    HW127152   0.653   0.043   2.136
 8751SOL    HW227153   0.513   6.990   2.092
 8752SOL     OW27154   2.445   3.554   6.414
 8752SOL    HW127155   2.423   3.636   6.361
 8752SOL    HW227156   2.372   3.487   6.404
 8753SOL     OW27157   5.097   1.296   5.315
 8753SOL    HW127158   5.072   1.200   5.328
 8753SOL    HW227159   5.071   1.348   5.396
 8754SOL     OW27160   0.520   1.598   5.994
 8754SOL    HW127161   0.538   1.505   6.026
 8754SOL    HW227162   0.576   1.617   5.914
 8755SOL     OW27163   2.596   0.820   0.237
 8755SOL    HW127164   2.503   0.784   0.232
 8755SOL    HW227165   2.622   0.834   0.332
 8756SOL     OW27166   2.114   2.766   3.768
 8756SOL    HW127167   2.176   2.689   3.781
 8756SOL    HW227168   2.019   2.736   3.782
 8757SOL     OW27169   4.294   6.598   4.703
 8757SOL    HW127170   4.292   6.534   4.780
 8757SOL    HW227171   4.294   6.691   4.737
 8758SOL     OW27172   5.705   6.470   1.688
 8758SOL    HW127173   5.716   6.570   1.682
 8758SOL    HW227174   5.703   6.443   1.784
 8759SOL     OW27175   4.989   0.707   5.788
 8759SOL    HW127176   4.897   0.746   5.793
 8759SOL    HW227177   5.041   0.731   5.870
 8760SOL     OW27178   1.664   1.878   4.568
 8760SOL    HW127179   1.727   1.857   4.494
 8760SOL    HW227180   1.716   1.906   4.649
 8761SOL     OW27181   5.371   0.486   6.938
 8761SOL    HW127182   5.404   0.569   6.892
 8761SOL    HW227183   5.385   0.407   6.879
 8762SOL     OW27184   1.534   3.436   1.109
 8762SOL    HW127185   1.468   3.511   1.115
 8762SOL    HW227186   1.487   3.351   1.085
 8763SOL     OW27187   6.973   6.286   5.730
 8763SOL    HW127188   6.969   6.375   5.684
 8763SOL    HW227189   6.882   6.263   5.765
 8764SOL     OW27190   4.848   1.319   3.983
 8764SOL    HW127191   4.879   1.228   4.010
 8764SOL    HW227192   4.791   1.358   4.056
 8765SOL     OW27193   5.273   6.631   4.896
 8765SOL    HW127194   5.365   6.633   4.855
 8765SOL    HW227195   5.269   6.698   4.971
 8766SOL     OW27196   2.821   4.837   3.081
 8766SOL    HW127197   2.842   4.825   2.984
 8766SOL    HW227198   2.727   4.808   3.098
 8767SOL     OW27199   4.659   1.156   3.004
 8767SOL    HW127200   4.583   1.211   3.039
 8767SOL    HW227201   4.624   1.069   2.969
 8768SOL     OW27202   1.783   3.353   0.581
 8768SOL    HW127203   1.748   3.443   0.557
 8768SOL    HW227204   1.883   3.357   0.586
 8769SOL     OW27205   1.063   0.102   5.766
 8769SOL    HW127206   1.101   0.013   5.791
 8769SOL    HW227207   1.126   0.150   5.705
 8770SOL     OW27208   4.884   4.308   1.431
 8770SOL    HW127209   4.950   4.235   1.448
 8770SOL    HW227210   4.798   4.268   1.398
 8771SOL     OW27211   1.857   1.418   6.744
 8771SOL    HW127212   1.897   1.331   6.773
 8771SOL    HW227213   1.890   1.440   6.652
 8772SOL     OW27214   6.000   1.471   6.445
 8772SOL    HW127215   6.091   1.459   6.485
 8772SOL    HW227216   5.971   1.386   6.403
 8773SOL     OW27217   3.320   2.131   3.104
 8773SOL    HW127218   3.332   2.157   3.009
 8773SOL    HW227219   3.243   2.180   3.144
 8774SOL     OW27220   0.957   1.671   0.657
 8774SOL    HW127221   0.984   1.727   0.735
 8774SOL    HW227222   0.953   1.727   0.574
 8775SOL     OW27223   6.048   6.765   3.216
 8775SOL    HW127224   6.032   6.672   3.248
 8775SOL    HW227225   6.042   6.768   3.116
 8776SOL     OW27226   3.011   3.151   4.902
 8776SOL    HW127227   2.982   3.076   4.843
 8776SOL    HW227228   3.086   3.121   4.960
 8777SOL     OW27229   6.347   5.676   2.007
 8777SOL    HW127230   6.395   5.589   1.994
 8777SOL    HW227231   6.274   5.684   1.939
 8778SOL     OW27232   0.227   2.043   3.537
 8778SOL    HW127233   0.214   1.946   3.519
 8778SOL    HW227234   0.141   2.084   3.568
 8779SOL     OW27235   1.917   4.354   1.472
 8779SOL    HW127236   1.841   4.372   1.534
 8779SOL    HW227237   1.884   4.298   1.395
 8780SOL     OW27238   0.618   5.420   4.301
 8780SOL    HW127239   0.593   5.498   4.243
 8780SOL    HW227240   0.703   5.440   4.349
 8781SOL     OW27241   0.629   1.799   2.797
 8781SOL    HW127242   0.609   1.891   2.830
 8781SOL    HW227243   0.692   1.753   2.860
 8782SOL     OW27244   4.619   1.446   2.480
 8782SOL    HW127245   4.564   1.510   2.425
 8782SOL    HW227246   4.615   1.473   2.576
 8783SOL     OW27247   5.926   3.915   4.341
 8783SOL    HW127248   5.910   4.004   4.384
 8783SOL    HW227249   5.902   3.920   4.244
 8784SOL     OW27250   5.578   5.540   5.483
 8784SOL    HW127251   5.670   5.561   5.450
 8784SOL    HW227252   5.510   5.583   5.423
 8785SOL     OW27253   5.373   4.209   6.719
 8785SOL    HW127254   5.386   4.121   6.674
 8785SOL    HW227255   5.458   4.235   6.765
 8786SOL     OW27256   1.745   6.441   0.169
 8786SOL    HW127257   1.811   6.499   0.217
 8786SOL    HW227258   1.738   6.471   0.074
 8787SOL     OW27259   1.964   3.493   1.568
 8787SOL    HW127260   1.977   3.557   1.492
 8787SOL    HW227261   2.011   3.527   1.649
 8788SOL     OW27262   6.535   1.885   5.214
 8788SOL    HW127263   6.554   1.969   5.266
 8788SOL    HW227264   6.594   1.882   5.133
 8789SOL     OW27265   6.587   0.204   6.415
 8789SOL    HW127266   6.585   0.184   6.513
 8789SOL    HW227267   6.516   0.271   6.393
 8790SOL     OW27268   6.945   1.811   6.661
 8790SOL    HW127269   6.956   1.747   6.585
 8790SOL    HW227270   6.866   1.784   6.716
 8791SOL     OW27271   4.771   6.744   5.619
 8791SOL    HW127272   4.805   6.817   5.678
 8791SOL    HW227273   4.847   6.704   5.569
 8792SOL     OW27274   4.286   6.882   3.161
 8792SOL    HW127275   4.265   6.896   3.258
 8792SOL    HW227276   4.305   6.970   3.118
 8793SOL     OW27277   2.223   6.022   3.712
 8793SOL    HW127278   2.307   6.074   3.694
 8793SOL    HW227279   2.146   6.086   3.715
 8794SOL     OW27280   1.895   6.769   2.909
 8794SOL    HW127281   1.888   6.670   2.895
 8794SOL    HW227282   1.824   6.815   2.855
 8795SOL     OW27283   1.835   6.460   5.725
 8795SOL    HW127284   1.785   6.427   5.805
 8795SOL    HW227285   1.933   6.459   5.745
 8796SOL     OW27286   4.467   2.236   5.364
 8796SOL    HW127287   4.490   2.162   5.427
 8796SOL    HW227288   4.473   2.203   5.270
 8797SOL     OW27289   0.588   6.242   6.297
 8797SOL    HW127290   0.657   6.275   6.362
 8797SOL    HW227291   0.571   6.314   6.229
 8798SOL     OW27292   5.442   3.670   5.241
 8798SOL    HW127293   5.468   3.602   5.172
 8798SOL    HW227294   5.360   3.638   5.289
 8799SOL     OW27295   3.049   4.804   2.869
 8799SOL    HW127296   3.101   4.855   2.800
 8799SOL    HW227297   2.961   4.776   2.830
 8800SOL     OW27298   4.648   4.721   6.149
 8800SOL    HW127299   4.565   4.667   6.162
 8800SOL    HW227300   4.704   4.679   6.077
 8801SOL     OW27301   2.544   1.486   4.452
 8801SOL    HW127302   2.634   1.524   4.433
 8801SOL    HW227303   2.526   1.489   4.550
 8802SOL     OW27304   1.873   6.218   2.313
 8802SOL    HW127305   1.826   6.302   2.342
 8802SOL    HW227306   1.872   6.212   2.213
 8803SOL     OW27307   2.580   5.680   0.069
 8803SOL    HW127308   2.671   5.721   0.066
 8803SOL    HW227309   2.569   5.630   0.154
 8804SOL     OW27310   3.925   0.429   1.258
 8804SOL    HW127311   3.983   0.509   1.238
 8804SOL    HW227312   3.943   0.357   1.191
 8805SOL     OW27313   0.886   0.415   3.462
 8805SOL    HW127314   0.937   0.417   3.548
 8805SOL    HW227315   0.933   0.472   3.395
 8806SOL     OW27316   1.626   4.953   0.368
 8806SOL    HW127317   1.578   4.978   0.452
 8806SOL    HW227318   1.725   4.963   0.381
 8807SOL     OW27319   0.212   6.252   5.782
 8807SOL    HW127320   0.219   6.158   5.748
 8807SOL    HW227321   0.123   6.289   5.759
 8808SOL     OW27322   5.295   1.126   0.310
 8808SOL    HW127323   5.340   1.162   0.228
 8808SOL    HW227324   5.197   1.142   0.304
 8809SOL     OW27325   5.582   4.228   1.812
 8809SOL    HW127326   5.614   4.162   1.879
 8809SOL    HW227327   5.485   4.246   1.826
 8810SOL     OW27328   4.555   1.639   3.545
 8810SOL    HW127329   4.472   1.694   3.548
 8810SOL    HW227330   4.570   1.596   3.634
 8811SOL     OW27331   2.749   1.757   2.989
 8811SOL    HW127332   2.774   1.699   2.911
 8811SOL    HW227333   2.662   1.727   3.027
 8812SOL     OW27334   0.947   0.998   0.631
 8812SOL    HW127335   0.914   0.947   0.710
 8812SOL    HW227336   0.874   1.007   0.564
 8813SOL     OW27337   1.324   6.412   1.808
 8813SOL    HW127338   1.270   6.492   1.835
 8813SOL    HW227339   1.345   6.357   1.889
 8814SOL     OW27340   6.389   0.922   6.951
 8814SOL    HW127341   6.416   0.962   0.020
 8814SOL    HW227342   6.470   0.911   6.893
 8815SOL     OW27343   0.308   6.062   1.984
 8815SOL    HW127344   0.328   6.159   1.996
 8815SOL    HW227345   0.221   6.051   1.936
 8816SOL     OW27346   1.344   5.850   1.568
 8816SOL    HW127347   1.408   5.778   1.595
 8816SOL    HW227348   1.394   5.937   1.561
 8817SOL     OW27349   1.309   5.789   5.056
 8817SOL    HW127350   1.309   5.886   5.081
 8817SOL    HW227351   1.356   5.777   4.968
 8818SOL     OW27352   0.363   4.530   4.264
 8818SOL    HW127353   0.448   4.511   4.312
 8818SOL    HW227354   0.339   4.627   4.274
 8819SOL     OW27355   5.016   6.559   4.244
 8819SOL    HW127356   5.053   6.490   4.306
 8819SOL    HW227357   4.966   6.513   4.170
 8820SOL     OW27358   1.942   2.633   4.238
 8820SOL    HW127359   1.944   2.733   4.242
 8820SOL    HW227360   1.997   2.596   4.313
 8821SOL     OW27361   2.878   0.567   6.497
 8821SOL    HW127362   2.956   0.567   6.560
 8821SOL    HW227363   2.796   0.596   6.545
 8822SOL     OW27364   0.653   1.529   3.463
 8822SOL    HW127365   0.724   1.459   3.456
 8822SOL    HW227366   0.694   1.618   3.482
 8823SOL     OW27367   1.780   6.978   0.904
 8823SOL    HW127368   1.811   6.912   0.835
 8823SOL    HW227369   1.680   6.974   0.912
 8824SOL     OW27370   3.397   4.029   0.664
 8824SOL    HW127371   3.421   4.108   0.720
 8824SOL    HW227372   3.445   3.948   0.699
 8825SOL     OW27373   1.402   1.005   2.211
 8825SOL    HW127374   1.394   0.995   2.112
 8825SOL    HW227375   1.353   1.087   2.240
 8826SOL     OW27376   5.610   0.964   6.456
 8826SOL    HW127377   5.546   1.005   6.520
 8826SOL    HW227378   5.565   0.950   6.368
 8827SOL     OW27379   1.865   1.478   3.162
 8827SOL    HW127380   1.926   1.479   3.241
 8827SOL    HW227381   1.919   1.481   3.078
 8828SOL     OW27382   2.586   6.214   2.816
 8828SOL    HW127383   2.601   6.309   2.787
 8828SOL    HW227384   2.491   6.189   2.799
 8829SOL     OW27385   0.365   2.189   6.887
 8829SOL    HW127386   0.422   2.265   6.917
 8829SOL    HW227387   0.270   2.205   6.915
 8830SOL     OW27388   0.889   1.251   0.201
 8830SOL    HW127389   0.937   1.323   0.250
 8830SOL    HW227390   0.952   1.176   0.182
 8831SOL     OW27391   6.166   0.857   3.059
 8831SOL    HW127392   6.117   0.923   3.002
 8831SOL    HW227393   6.119   0.846   3.146
 8832SOL     OW27394   6.651   0.404   2.454
 8832SOL    HW127395   6.729   0.347   2.429
 8832SOL    HW227396   6.683   0.486   2.501
 8833SOL     OW27397   2.351   5.276   4.564
 8833SOL    HW127398   2.329   5.284   4.661
 8833SOL    HW227399   2.357   5.180   4.538
 8834SOL     OW27400   5.954   3.000   4.714
 8834SOL    HW127401   6.005   3.069   4.765
 8834SOL    HW227402   5.947   2.916   4.768
 8835SOL     OW27403   6.865   6.599   5.378
 8835SOL    HW127404   6.876   6.551   5.291
 8835SOL    HW227405   6.922   6.555   5.448
 8836SOL     OW27406   4.534   1.433   0.098
 8836SOL    HW127407   4.516   1.524   0.134
 8836SOL    HW227408   4.564   1.441   0.002
 8837SOL     OW27409   0.412   0.799   1.650
 8837SOL    HW127410   0.341   0.768   1.588
 8837SOL    HW227411   0.371   0.838   1.732
 8838SOL     OW27412   2.817   5.225   3.362
 8838SOL    HW127413   2.887   5.182   3.305
 8838SOL    HW227414   2.829   5.197   3.457
 8839SOL     OW27415   6.186   6.032   3.490
 8839SOL    HW127416   6.268   6.002   3.538
 8839SOL    HW227417   6.145   6.110   3.538
 8840SOL     OW27418   5.615   2.438   2.403
 8840SOL    HW127419   5.664   2.401   2.324
 8840SOL    HW227420   5.680   2.453   2.478
 8841SOL     OW27421   1.068   1.840   5.131
 8841SOL    HW127422   1.055   1.799   5.222
 8841SOL    HW227423   0.980   1.875   5.098
 8842SOL     OW27424   2.462   2.615   1.563
 8842SOL    HW127425   2.391   2.678   1.532
 8842SOL    HW227426   2.477   2.544   1.494
 8843SOL     OW27427   1.312   2.556   4.903
 8843SOL    HW127428   1.337   2.648   4.872
 8843SOL    HW227429   1.217   2.556   4.934
 8844SOL     OW27430   6.565   1.209   5.991
 8844SOL    HW127431   6.565   1.118   5.949
 8844SOL    HW227432   6.523   1.204   6.082
 8845SOL     OW27433   4.561   4.172   0.410
 8845SOL    HW127434   4.618   4.195   0.331
 8845SOL    HW227435   4.611   4.108   0.469
 8846SOL     OW27436   2.030   4.337   4.070
 8846SOL    HW127437   2.119   4.347   4.026
 8846SOL    HW227438   2.013   4.416   4.129
 8847SOL     OW27439   3.015   0.106   1.917
 8847SOL    HW127440   3.036   0.203   1.934
 8847SOL    HW227441   3.027   0.086   1.820
 8848SOL     OW27442   1.761   0.448   2.092
 8848SOL    HW127443   1.716   0.500   2.165
 8848SOL    HW227444   1.847   0.493   2.067
 8849SOL     OW27445   2.375   6.699   2.030
 8849SOL    HW127446   2.449   6.632   2.018
 8849SOL    HW227447   2.370   6.759   1.951
 8850SOL     OW27448   3.510   2.441   6.722
 8850SOL    HW127449   3.566   2.448   6.640
 8850SOL    HW227450   3.500   2.532   6.763
 8851SOL     OW27451   1.542   4.531   2.135
 8851SOL    HW127452   1.538   4.564   2.041
 8851SOL    HW227453   1.630   4.557   2.176
 8852SOL     OW27454   0.918   1.588   5.976
 8852SOL    HW127455   0.924   1.560   6.072
 8852SOL    HW227456   1.004   1.569   5.930
 8853SOL     OW27457   3.655   1.001   0.585
 8853SOL    HW127458   3.649   1.088   0.635
 8853SOL    HW227459   3.582   0.940   0.614
 8854SOL     OW27460   1.471   3.091   5.147
 8854SOL    HW127461   1.503   3.088   5.053
 8854SOL    HW227462   1.481   3.000   5.188
 8855SOL     OW27463   5.659   5.055   1.145
 8855SOL    HW127464   5.659   4.963   1.183
 8855SOL    HW227465   5.567   5.093   1.150
 8856SOL     OW27466   0.974   5.677   6.085
 8856SOL    HW127467   0.993   5.708   6.178
 8856SOL    HW227468   1.051   5.702   6.025
 8857SOL     OW27469   6.332   0.947   5.129
 8857SOL    HW127470   6.376   0.970   5.042
 8857SOL    HW227471   6.339   0.849   5.145
 8858SOL     OW27472   6.183   4.620   4.607
 8858SOL    HW127473   6.225   4.700   4.565
 8858SOL    HW227474   6.240   4.588   4.683
 8859SOL     OW27475   0.708   0.901   3.744
 8859SOL    HW127476   0.628   0.870   3.693
 8859SOL    HW227477   0.745   0.984   3.701
 8860SOL     OW27478   6.525   2.214   1.634
 8860SOL    HW127479   6.461   2.150   1.591
 8860SOL    HW227480   6.535   2.189   1.731
 8861SOL     OW27481   4.132   2.070   1.354
 8861SOL    HW127482   4.229   2.073   1.378
 8861SOL    HW227483   4.108   1.977   1.322
 8862SOL     OW27484   4.690   5.086   5.181
 8862SOL    HW127485   4.758   5.138   5.233
 8862SOL    HW227486   4.737   5.032   5.111
 8863SOL     OW27487   2.214   4.046   3.781
 8863SOL    HW127488   2.301   4.013   3.818
 8863SOL    HW227489   2.140   4.022   3.844
 8864SOL     OW27490   5.841   1.374   5.393
 8864SOL    HW127491   5.937   1.396   5.408
 8864SOL    HW227492   5.789   1.391   5.476
 8865SOL     OW27493   2.165   1.505   6.610
 8865SOL    HW127494   2.139   1.429   6.669
 8865SOL    HW227495   2.265   1.511   6.606
 8866SOL     OW27496   6.022   5.854   2.049
 8866SOL    HW127497   6.055   5.775   1.998
 8866SOL    HW227498   6.059   5.938   2.008
 8867SOL     OW27499   6.446   3.847   2.522
 8867SOL    HW127500   6.355   3.879   2.495
 8867SOL    HW227501   6.442   3.751   2.549
 8868SOL     OW27502   0.017   3.582   3.271
 8868SOL    HW127503   6.955   3.522   3.273
 8868SOL    HW227504   0.004   3.656   3.337
 8869SOL     OW27505   3.046   6.284   3.659
 8869SOL    HW127506   3.051   6.187   3.686
 8869SOL    HW227507   3.052   6.291   3.560
 8870SOL     OW27508   1.826   0.020   2.049
 8870SOL    HW127509   1.902   7.003   1.995
 8870SOL    HW227510   1.751   0.045   1.988
 8871SOL     OW27511   0.582   1.156   3.030
 8871SOL    HW127512   0.535   1.104   2.959
 8871SOL    HW227513   0.667   1.110   3.055
 8872SOL     OW27514   0.143   4.550   5.031
 8872SOL    HW127515   0.144   4.618   4.957
 8872SOL    HW227516   0.049   4.519   5.046
 8873SOL     OW27517   1.355   0.746   2.251
 8873SOL    HW127518   1.366   0.844   2.233
 8873SOL    HW227519   1.296   0.732   2.330
 8874SOL     OW27520   2.964   5.589   0.391
 8874SOL    HW127521   2.926   5.578   0.299
 8874SOL    HW227522   2.891   5.620   0.453
 8875SOL     OW27523   0.329   3.352   3.813
 8875SOL    HW127524   0.283   3.417   3.752
 8875SOL    HW227525   0.428   3.361   3.802
 8876SOL     OW27526   3.501   0.627   6.386
 8876SOL    HW127527   3.503   0.677   6.299
 8876SOL    HW227528   3.592   0.628   6.427
 8877SOL     OW27529   1.625   4.038   1.184
 8877SOL    HW127530   1.579   3.963   1.137
 8877SOL    HW227531   1.692   4.080   1.123
 8878SOL     OW27532   4.217   4.365   0.846
 8878SOL    HW127533   4.272   4.436   0.802
 8878SOL    HW227534   4.200   4.291   0.782
 8879SOL     OW27535   6.221   4.689   2.535
 8879SOL    HW127536   6.142   4.738   2.498
 8879SOL    HW227537   6.210   4.680   2.634
 8880SOL     OW27538   4.639   6.794   3.809
 8880SOL    HW127539   4.737   6.776   3.795
 8880SOL    HW227540   4.622   6.811   3.906
 8881SOL     OW27541   4.013   5.338   4.362
 8881SOL    HW127542   4.091   5.281   4.387
 8881SOL    HW227543   4.036   5.390   4.279
 8882SOL     OW27544   4.305   0.439   0.948
 8882SOL    HW127545   4.355   0.365   0.905
 8882SOL    HW227546   4.370   0.504   0.988
 8883SOL     OW27547   0.454   6.147   4.702
 8883SOL    HW127548   0.552   6.124   4.703
 8883SOL    HW227549   0.405   6.087   4.765
 8884SOL     OW27550   5.235   3.655   5.000
 8884SOL    HW127551   5.175   3.581   5.033
 8884SOL    HW227552   5.298   3.619   4.931
 8885SOL     OW27553   6.150   5.694   0.337
 8885SOL    HW127554   6.129   5.611   0.390
 8885SOL    HW227555   6.070   5.723   0.286
 8886SOL     OW27556   3.278   5.758   6.728
 8886SOL    HW127557   3.259   5.675   6.781
 8886SOL    HW227558   3.375   5.778   6.731
 8887SOL     OW27559   4.911   1.828   1.293
 8887SOL    HW127560   4.890   1.920   1.327
 8887SOL    HW227561   4.847   1.763   1.333
 8888SOL     OW27562   2.552   1.639   3.411
 8888SOL    HW127563   2.568   1.590   3.325
 8888SOL    HW227564   2.608   1.598   3.484
 8889SOL     OW27565   0.496   6.471   6.128
 8889SOL    HW127566   0.401   6.501   6.138
 8889SOL    HW227567   0.556   6.543   6.162
 8890SOL     OW27568   0.493   6.912   0.060
 8890SOL    HW127569   0.450   6.837   0.009
 8890SOL    HW227570   0.589   6.919   0.035
 8891SOL     OW27571   6.145   4.512   0.273
 8891SOL    HW127572   6.057   4.544   0.309
 8891SOL    HW227573   6.132   4.424   0.226
 8892SOL     OW27574   2.978   5.748   3.437
 8892SOL    HW127575   3.060   5.713   3.483
 8892SOL    HW227576   2.938   5.676   3.380
 8893SOL     OW27577   1.319   4.999   5.098
 8893SOL    HW127578   1.345   5.079   5.150
 8893SOL    HW227579   1.377   4.922   5.123
 8894SOL     OW27580   4.349   1.970   0.234
 8894SOL    HW127581   4.275   1.969   0.167
 8894SOL    HW227582   4.316   2.011   0.319
 8895SOL     OW27583   0.559   3.754   1.188
 8895SOL    HW127584   0.512   3.684   1.135
 8895SOL    HW227585   0.628   3.798   1.132
 8896SOL     OW27586   0.465   2.109   4.213
 8896SOL    HW127587   0.524   2.190   4.215
 8896SOL    HW227588   0.400   2.114   4.289
 8897SOL     OW27589   2.210   4.155   4.242
 8897SOL    HW127590   2.185   4.059   4.230
 8897SOL    HW227591   2.222   4.174   4.339
 8898SOL     OW27592   4.909   3.903   2.792
 8898SOL    HW127593   4.837   3.952   2.744
 8898SOL    HW227594   4.948   3.834   2.732
 8899SOL     OW27595   6.835   3.485   6.188
 8899SOL    HW127596   6.846   3.567   6.131
 8899SOL    HW227597   6.855   3.403   6.134
 8900SOL     OW27598   5.069   2.835   4.066
 8900SOL    HW127599   4.976   2.868   4.081
 8900SOL    HW227600   5.069   2.735   4.065
 8901SOL     OW27601   1.200   2.716   4.505
 8901SOL    HW127602   1.161   2.792   4.557
 8901SOL    HW227603   1.224   2.747   4.413
 8902SOL     OW27604   0.694   4.140   0.166
 8902SOL    HW127605   0.711   4.227   0.213
 8902SOL    HW227606   0.614   4.095   0.206
 8903SOL     OW27607   1.388   0.283   4.811
 8903SOL    HW127608   1.353   0.299   4.903
 8903SOL    HW227609   1.474   0.331   4.799
 8904SOL     OW27610   0.427   1.401   3.383
 8904SOL    HW127611   0.439   1.427   3.287
 8904SOL    HW227612   0.507   1.432   3.435
 8905SOL     OW27613   1.741   3.812   1.997
 8905SOL    HW127614   1.825   3.772   1.958
 8905SOL    HW227615   1.746   3.809   2.097
 8906SOL     OW27616   6.947   6.939   0.564
 8906SOL    HW127617   6.850   6.927   0.583
 8906SOL    HW227618   6.981   7.019   0.613
 8907SOL     OW27619   3.943   3.147   5.097
 8907SOL    HW127620   3.864   3.091   5.125
 8907SOL    HW227621   3.922   3.195   5.012
 8908SOL     OW27622   1.249   5.992   1.028
 8908SOL    HW127623   1.162   5.966   0.985
 8908SOL    HW227624   1.300   5.909   1.053
 8909SOL     OW27625   2.911   0.847   0.031
 8909SOL    HW127626   2.892   0.823   0.126
 8909SOL    HW227627   2.867   0.934   0.009
 8910SOL     OW27628   1.950   1.974   4.058
 8910SOL    HW127629   1.932   2.046   4.126
 8910SOL    HW227630   1.873   1.911   4.055
 8911SOL     OW27631   4.498   1.554   3.988
 8911SOL    HW127632   4.524   1.480   3.925
 8911SOL    HW227633   4.555   1.634   3.970
 8912SOL     OW27634   3.368   3.831   4.703
 8912SOL    HW127635   3.458   3.872   4.719
 8912SOL    HW227636   3.371   3.775   4.620
 8913SOL     OW27637   4.961   6.072   6.899
 8913SOL    HW127638   4.878   6.017   6.908
 8913SOL    HW227639   5.016   6.038   6.823
 8914SOL     OW27640   4.943   6.586   6.184
 8914SOL    HW127641   4.877   6.579   6.110
 8914SOL    HW227642   4.936   6.675   6.228
 8915SOL     OW27643   1.068   1.203   3.641
 8915SOL    HW127644   1.031   1.134   3.579
 8915SOL    HW227645   1.000   1.225   3.711
 8916SOL     OW27646   5.162   1.443   6.658
 8916SOL    HW127647   5.153   1.517   6.725
 8916SOL    HW227648   5.256   1.439   6.625
 8917SOL     OW27649   5.822   1.735   0.146
 8917SOL    HW127650   5.893   1.798   0.175
 8917SOL    HW227651   5.781   1.768   0.060
 8918SOL     OW27652   0.804   4.419   1.757
 8918SOL    HW127653   0.780   4.514   1.776
 8918SOL    HW227654   0.897   4.401   1.790
 8919SOL     OW27655   5.381   4.078   0.034
 8919SOL    HW127656   5.335   4.146   6.995
 8919SOL    HW227657   5.420   4.006   6.996
 8920SOL     OW27658   6.610   1.528   6.972
 8920SOL    HW127659   6.642   1.467   0.026
 8920SOL    HW227660   6.543   1.592   7.010
 8921SOL     OW27661   1.383   3.072   0.879
 8921SOL    HW127662   1.463   3.061   0.938
 8921SOL    HW227663   1.411   3.069   0.783
 8922SOL     OW27664   3.638   0.701   3.605
 8922SOL    HW127665   3.631   0.672   3.510
 8922SOL    HW227666   3.682   0.629   3.659
 8923SOL     OW27667   1.634   2.253   5.054
 8923SOL    HW127668   1.633   2.329   4.988
 8923SOL    HW227669   1.549   2.255   5.107
 8924SOL     OW27670   4.892   5.146   4.762
 8924SOL    HW127671   4.971   5.124   4.705
 8924SOL    HW227672   4.883   5.078   4.834
 8925SOL     OW27673   1.293   0.837   3.771
 8925SOL    HW127674   1.345   0.839   3.685
 8925SOL    HW227675   1.338   0.895   3.838
 8926SOL     OW27676   6.770   3.048   5.230
 8926SOL    HW127677   6.781   3.138   5.273
 8926SOL    HW227678   6.771   2.977   5.301
 8927SOL     OW27679   6.635   1.644   6.326
 8927SOL    HW127680   6.628   1.697   6.242
 8927SOL    HW227681   6.586   1.557   6.316
 8928SOL     OW27682   2.028   6.513   5.134
 8928SOL    HW127683   1.960   6.585   5.117
 8928SOL    HW227684   2.063   6.479   5.046
 8929SOL     OW27685   0.295   2.060   4.682
 8929SOL    HW127686   0.199   2.034   4.671
 8929SOL    HW227687   0.302   2.159   4.686
 8930SOL     OW27688   1.867   4.729   3.642
 8930SOL    HW127689   1.780   4.696   3.605
 8930SOL    HW227690   1.910   4.656   3.695
 8931SOL     OW27691   3.804   2.875   1.168
 8931SOL    HW127692   3.792   2.779   1.195
 8931SOL    HW227693   3.801   2.933   1.250
 8932SOL     OW27694   6.961   2.716   3.015
 8932SOL    HW127695   6.943   2.731   2.917
 8932SOL    HW227696   6.967   2.618   3.033
 8933SOL     OW27697   3.780   1.963   5.940
 8933SOL    HW127698   3.855   2.009   5.893
 8933SOL    HW227699   3.749   2.020   6.017
 8934SOL     OW27700   2.857   5.697   4.397
 8934SOL    HW127701   2.845   5.610   4.350
 8934SOL    HW227702   2.773   5.719   4.447
 8935SOL     OW27703   6.984   4.750   1.270
 8935SOL    HW127704   6.886   4.760   1.285
 8935SOL    HW227705   0.014   4.768   1.356
 8936SOL     OW27706   2.108   3.028   0.932
 8936SOL    HW127707   2.165   2.992   1.005
 8936SOL    HW227708   2.158   3.027   0.846
 8937SOL     OW27709   0.479   6.760   5.727
 8937SOL    HW127710   0.430   6.766   5.640
 8937SOL    HW227711   0.415   6.769   5.803
 8938SOL     OW27712   6.616   5.561   1.277
 8938SOL    HW127713   6.579   5.561   1.184
 8938SOL    HW227714   6.647   5.469   1.301
 8939SOL     OW27715   5.017   2.186   4.627
 8939SOL    HW127716   5.046   2.271   4.584
 8939SOL    HW227717   4.933   2.153   4.584
 8940SOL     OW27718   6.385   0.926   3.917
 8940SOL    HW127719   6.433   0.962   3.998
 8940SOL    HW227720   6.375   0.999   3.849
 8941SOL     OW27721   5.439   2.424   6.171
 8941SOL    HW127722   5.515   2.489   6.167
 8941SOL    HW227723   5.432   2.376   6.084
 8942SOL     OW27724   0.313   2.286   5.360
 8942SOL    HW127725   0.350   2.225   5.430
 8942SOL    HW227726   0.344   2.256   5.270
 8943SOL     OW27727   4.801   3.166   1.175
 8943SOL    HW127728   4.897   3.156   1.198
 8943SOL    HW227729   4.756   3.076   1.176
 8944SOL     OW27730   4.469   5.891   0.597
 8944SOL    HW127731   4.481   5.973   0.542
 8944SOL    HW227732   4.500   5.908   0.691
 8945SOL     OW27733   2.525   0.636   4.557
 8945SOL    HW127734   2.545   0.570   4.485
 8945SOL    HW227735   2.514   0.588   4.644
 8946SOL     OW27736   3.581   1.732   4.992
 8946SOL    HW127737   3.679   1.744   4.975
 8946SOL    HW227738   3.566   1.724   5.091
 8947SOL     OW27739   3.659   3.543   5.707
 8947SOL    HW127740   3.660   3.584   5.615
 8947SOL    HW227741   3.568   3.507   5.727
 8948SOL     OW27742   5.421   4.822   3.376
 8948SOL    HW127743   5.486   4.807   3.450
 8948SOL    HW227744   5.463   4.799   3.288
 8949SOL     OW27745   1.400   6.971   6.833
 8949SOL    HW127746   1.490   6.968   6.876
 8949SOL    HW227747   1.341   0.017   6.882
 8950SOL     OW27748   4.887   3.267   5.194
 8950SOL    HW127749   4.869   3.175   5.226
 8950SOL    HW227750   4.814   3.328   5.224
 8951SOL     OW27751   1.705   2.990   5.434
 8951SOL    HW127752   1.721   2.895   5.462
 8951SOL    HW227753   1.739   3.003   5.341
 8952SOL     OW27754   1.373   1.179   3.292
 8952SOL    HW127755   1.388   1.190   3.194
 8952SOL    HW227756   1.317   1.256   3.325
 8953SOL     OW27757   1.842   3.306   0.249
 8953SOL    HW127758   1.799   3.318   0.339
 8953SOL    HW227759   1.857   3.396   0.207
 8954SOL     OW27760   1.181   6.050   6.220
 8954SOL    HW127761   1.120   6.119   6.182
 8954SOL    HW227762   1.210   5.987   6.148
 8955SOL     OW27763   0.042   4.280   3.488
 8955SOL    HW127764   6.975   4.316   3.524
 8955SOL    HW227765   0.058   4.316   3.396
 8956SOL     OW27766   0.569   1.270   6.293
 8956SOL    HW127767   0.553   1.223   6.380
 8956SOL    HW227768   0.511   1.230   6.222
 8957SOL     OW27769   2.925   4.813   1.821
 8957SOL    HW127770   2.877   4.742   1.872
 8957SOL    HW227771   2.949   4.778   1.730
 8958SOL     OW27772   1.832   6.772   3.956
 8958SOL    HW127773   1.845   6.682   3.913
 8958SOL    HW227774   1.812   6.759   4.053
 8959SOL     OW27775   1.400   4.726   0.675
 8959SOL    HW127776   1.454   4.723   0.591
 8959SOL    HW227777   1.333   4.800   0.669
 8960SOL     OW27778   3.736   5.511   1.939
 8960SOL    HW127779   3.812   5.458   1.976
 8960SOL    HW227780   3.652   5.457   1.944
 8961SOL     OW27781   1.223   2.349   4.113
 8961SOL    HW127782   1.231   2.258   4.152
 8961SOL    HW227783   1.251   2.417   4.182
 8962SOL     OW27784   6.058   0.811   3.580
 8962SOL    HW127785   5.999   0.730   3.572
 8962SOL    HW227786   6.093   0.836   3.490
 8963SOL     OW27787   5.436   0.460   4.574
 8963SOL    HW127788   5.489   0.403   4.637
 8963SOL    HW227789   5.475   0.552   4.571
 8964SOL     OW27790   4.866   4.896   2.302
 8964SOL    HW127791   4.961   4.927   2.305
 8964SOL    HW227792   4.820   4.938   2.224
 8965SOL     OW27793   1.321   5.206   1.656
 8965SOL    HW127794   1.347   5.109   1.663
 8965SOL    HW227795   1.341   5.252   1.742
 8966SOL     OW27796   2.025   2.255   6.150
 8966SOL    HW127797   1.930   2.273   6.122
 8966SOL    HW227798   2.051   2.316   6.224
 8967SOL     OW27799   4.041   0.379   0.714
 8967SOL    HW127800   3.942   0.384   0.699
 8967SOL    HW227801   4.072   0.463   0.760
 8968SOL     OW27802   5.231   6.441   1.398
 8968SOL    HW127803   5.193   6.520   1.351
 8968SOL    HW227804   5.156   6.385   1.435
 8969SOL     OW27805   5.840   0.987   3.663
 8969SOL    HW127806   5.864   1.084   3.663
 8969SOL    HW227807   5.922   0.932   3.648
 8970SOL     OW27808   3.491   2.430   1.328
 8970SOL    HW127809   3.531   2.520   1.348
 8970SOL    HW227810   3.563   2.361   1.324
 8971SOL     OW27811   3.606   5.826   2.230
 8971SOL    HW127812   3.703   5.844   2.210
 8971SOL    HW227813   3.591   5.728   2.233
 8972SOL     OW27814   5.559   6.234   5.902
 8972SOL    HW127815   5.528   6.140   5.889
 8972SOL    HW227816   5.606   6.242   5.990
 8973SOL     OW27817   1.743   4.938   0.662
 8973SOL    HW127818   1.738   4.912   0.759
 8973SOL    HW227819   1.667   4.998   0.641
 8974SOL     OW27820   0.712   4.152   6.125
 8974SOL    HW127821   0.629   4.173   6.177
 8974SOL    HW227822   0.737   4.056   6.139
 8975SOL     OW27823   2.896   0.089   0.845
 8975SOL    HW127824   2.974   0.083   0.783
 8975SOL    HW227825   2.817   0.042   0.804
 8976SOL     OW27826   1.828   5.403   4.462
 8976SOL    HW127827   1.743   5.352   4.479
 8976SOL    HW227828   1.873   5.366   4.380
 8977SOL     OW27829   6.081   1.473   5.449
 8977SOL    HW127830   6.119   1.396   5.501
 8977SOL    HW227831   6.136   1.488   5.367
 8978SOL     OW27832   5.879   6.053   0.505
 8978SOL    HW127833   5.960   6.045   0.447
 8978SOL    HW227834   5.869   6.148   0.535
 8979SOL     OW27835   1.934   4.137   4.912
 8979SOL    HW127836   1.994   4.074   4.863
 8979SOL    HW227837   1.957   4.138   5.009
 8980SOL     OW27838   3.355   3.263   4.782
 8980SOL    HW127839   3.339   3.172   4.743
 8980SOL    HW227840   3.273   3.319   4.772
 8981SOL     OW27841   3.562   1.191   4.912
 8981SOL    HW127842   3.542   1.228   4.821
 8981SOL    HW227843   3.487   1.131   4.941
 8982SOL     OW27844   2.546   3.633   0.777
 8982SOL    HW127845   2.622   3.693   0.801
 8982SOL    HW227846   2.582   3.546   0.742
 8983SOL     OW27847   3.602   5.444   0.050
 8983SOL    HW127848   3.701   5.430   0.040
 8983SOL    HW227849   3.565   5.377   0.114
 8984SOL     OW27850   2.392   5.662   3.573
 8984SOL    HW127851   2.419   5.753   3.607
 8984SOL    HW227852   2.457   5.594   3.606
 8985SOL     OW27853   3.490   2.649   0.504
 8985SOL    HW127854   3.584   2.644   0.538
 8985SOL    HW227855   3.441   2.722   0.552
 8986SOL     OW27856   3.509   5.035   2.986
 8986SOL    HW127857   3.527   5.125   3.026
 8986SOL    HW227858   3.410   5.023   2.976
 8987SOL     OW27859   5.329   5.743   3.081
 8987SOL    HW127860   5.276   5.659   3.085
 8987SOL    HW227861   5.357   5.770   3.173
 8988SOL     OW27862   0.634   5.556   3.529
 8988SOL    HW127863   0.577   5.491   3.479
 8988SOL    HW227864   0.638   5.530   3.625
 8989SOL     OW27865   4.754   2.847   6.412
 8989SOL    HW127866   4.749   2.805   6.321
 8989SOL    HW227867   4.747   2.946   6.403
 8990SOL     OW27868   0.862   4.744   4.000
 8990SOL    HW127869   0.943   4.760   3.943
 8990SOL    HW227870   0.883   4.677   4.070
 8991SOL     OW27871   1.495   2.237   4.707
 8991SOL    HW127872   1.403   2.274   4.719
 8991SOL    HW227873   1.560   2.292   4.760
 8992SOL     OW27874   5.745   2.189   6.753
 8992SOL    HW127875   5.785   2.257   6.814
 8992SOL    HW227876   5.647   2.181   6.773
 8993SOL     OW27877   3.861   3.376   6.185
 8993SOL    HW127878   3.785   3.338   6.238
 8993SOL    HW227879   3.841   3.472   6.162
 8994SOL     OW27880   2.087   4.591   4.807
 8994SOL    HW127881   1.995   4.606   4.771
 8994SOL    HW227882   2.148   4.565   4.732
 8995SOL     OW27883   0.227   1.609   1.876
 8995SOL    HW127884   0.272   1.520   1.876
 8995SOL    HW227885   0.296   1.681   1.883
 8996SOL     OW27886   5.268   3.751   6.955
 8996SOL    HW127887   5.357   3.782   6.924
 8996SOL    HW227888   5.270   3.736   0.035
 8997SOL     OW27889   4.891   0.562   5.045
 8997SOL    HW127890   4.817   0.618   5.083
 8997SOL    HW227891   4.854   0.499   4.977
 8998SOL     OW27892   6.289   3.927   3.972
 8998SOL    HW127893   6.383   3.953   3.990
 8998SOL    HW227894   6.228   4.001   3.998
 8999SOL     OW27895   4.596   6.982   5.842
 8999SOL    HW127896   4.527   0.035   5.854
 8999SOL    HW227897   4.554   6.901   5.800
 9000SOL     OW27898   1.469   3.933   1.439
 9000SOL    HW127899   1.417   3.915   1.356
 9000SOL    HW227900   1.407   3.949   1.515
 9001SOL     OW27901   0.239   4.831   2.090
 9001SOL    HW127902   0.323   4.846   2.037
 9001SOL    HW227903   0.255   4.760   2.158
 9002SOL     OW27904   1.127   4.437   5.480
 9002SOL    HW127905   1.146   4.493   5.400
 9002SOL    HW227906   1.074   4.357   5.452
 9003SOL     OW27907   5.459   2.667   1.392
 9003SOL    HW127908   5.491   2.575   1.373
 9003SOL    HW227909   5.360   2.667   1.405
 9004SOL     OW27910   4.132   5.081   0.915
 9004SOL    HW127911   4.173   5.167   0.884
 9004SOL    HW227912   4.151   5.009   0.848
 9005SOL     OW27913   5.587   1.194   5.888
 9005SOL    HW127914   5.566   1.290   5.871
 9005SOL    HW227915   5.625   1.153   5.805
 9006SOL     OW27916   3.118   0.088   0.708
 9006SOL    HW127917   3.196   0.071   0.769
 9006SOL    HW227918   3.139   0.054   0.617
 9007SOL     OW27919   2.463   1.056   2.732
 9007SOL    HW127920   2.419   0.969   2.753
 9007SOL    HW227921   2.397   1.130   2.739
 9008SOL     OW27922   0.418   5.175   3.048
 9008SOL    HW127923   0.460   5.134   2.968
 9008SOL    HW227924   0.489   5.216   3.106
 9009SOL     OW27925   3.735   5.247   1.023
 9009SOL    HW127926   3.692   5.296   1.099
 9009SOL    HW227927   3.785   5.168   1.059
 9010SOL     OW27928   2.059   6.900   4.247
 9010SOL    HW127929   2.003   6.944   4.176
 9010SOL    HW227930   2.045   6.946   4.334
 9011SOL     OW27931   3.870   0.881   1.854
 9011SOL    HW127932   3.931   0.828   1.912
 9011SOL    HW227933   3.923   0.949   1.804
 9012SOL     OW27934   2.577   5.720   0.763
 9012SOL    HW127935   2.539   5.802   0.806
 9012SOL    HW227936   2.540   5.639   0.809
 9013SOL     OW27937   1.365   6.953   4.319
 9013SOL    HW127938   1.350   6.942   4.417
 9013SOL    HW227939   1.278   6.974   4.274
 9014SOL     OW27940   6.273   3.137   1.935
 9014SOL    HW127941   6.339   3.118   1.862
 9014SOL    HW227942   6.223   3.054   1.957
 9015SOL     OW27943   4.839   2.555   1.059
 9015SOL    HW127944   4.829   2.501   0.975
 9015SOL    HW227945   4.778   2.634   1.055
 9016SOL     OW27946   5.776   5.086   6.674
 9016SOL    HW127947   5.712   5.028   6.624
 9016SOL    HW227948   5.731   5.124   6.756
 9017SOL     OW27949   3.720   1.006   4.789
 9017SOL    HW127950   3.819   1.024   4.787
 9017SOL    HW227951   3.672   1.089   4.818
 9018SOL     OW27952   3.919   3.568   6.652
 9018SOL    HW127953   4.005   3.543   6.607
 9018SOL    HW227954   3.937   3.640   6.720
 9019SOL     OW27955   1.382   3.627   2.752
 9019SOL    HW127956   1.307   3.599   2.692
 9019SOL    HW227957   1.383   3.726   2.760
 9020SOL     OW27958   6.618   5.340   1.677
 9020SOL    HW127959   6.691   5.272   1.686
 9020SOL    HW227960   6.658   5.430   1.659
 9021SOL     OW27961   6.862   0.291   4.067
 9021SOL    HW127962   6.790   0.333   4.123
 9021SOL    HW227963   6.823   0.265   3.978
 9022SOL     OW27964   3.839   2.574   6.634
 9022SOL    HW127965   3.816   2.484   6.597
 9022SOL    HW227966   3.903   2.564   6.710
 9023SOL     OW27967   4.033   2.912   1.045
 9023SOL    HW127968   4.055   2.829   0.995
 9023SOL    HW227969   3.948   2.899   1.096
 9024SOL     OW27970   0.878   5.072   5.747
 9024SOL    HW127971   0.788   5.101   5.778
 9024SOL    HW227972   0.898   4.980   5.781
 9025SOL     OW27973   0.521   5.393   0.749
 9025SOL    HW127974   0.507   5.381   0.848
 9025SOL    HW227975   0.496   5.486   0.723
 9026SOL     OW27976   3.870   1.371   0.469
 9026SOL    HW127977   3.909   1.293   0.418
 9026SOL    HW227978   3.788   1.404   0.422
 9027SOL     OW27979   1.132   3.721   3.681
 9027SOL    HW127980   1.115   3.623   3.678
 9027SOL    HW227981   1.098   3.760   3.766
 9028SOL     OW27982   3.501   3.165   4.991
 9028SOL    HW127983   3.445   3.192   4.913
 9028SOL    HW227984   3.530   3.246   5.042
 9029SOL     OW27985   4.341   0.754   4.586
 9029SOL    HW127986   4.332   0.812   4.667
 9029SOL    HW227987   4.421   0.783   4.533
 9030SOL     OW27988   2.300   2.512   3.900
 9030SOL    HW127989   2.274   2.449   3.973
 9030SOL    HW227990   2.286   2.468   3.811
 9031SOL     OW27991   4.478   0.419   4.363
 9031SOL    HW127992   4.380   0.428   4.350
 9031SOL    HW227993   4.509   0.485   4.432
 9032SOL     OW27994   4.622   3.711   1.265
 9032SOL    HW127995   4.579   3.628   1.300
 9032SOL    HW227996   4.665   3.760   1.341
 9033SOL     OW27997   0.530   5.159   2.344
 9033SOL    HW127998   0.570   5.250   2.358
 9033SOL    HW227999   0.504   5.149   2.248
 9034SOL     OW28000   3.471   6.037   5.235
 9034SOL    HW128001   3.438   6.089   5.157
 9034SOL    HW228002   3.562   6.069   5.261
 9035SOL     OW28003   2.152   5.773   0.053
 9035SOL    HW128004   2.214   5.766   0.131
 9035SOL    HW228005   2.078   5.837   0.076
 9036SOL     OW28006   1.475   3.426   4.997
 9036SOL    HW128007   1.569   3.430   5.030
 9036SOL    HW228008   1.412   3.433   5.074
 9037SOL     OW28009   0.868   2.859   4.258
 9037SOL    HW128010   0.807   2.800   4.311
 9037SOL    HW228011   0.814   2.912   4.192
 9038SOL     OW28012   4.705   3.110   6.415
 9038SOL    HW128013   4.681   3.142   6.507
 9038SOL    HW228014   4.744   3.186   6.363
 9039SOL     OW28015   3.448   4.639   6.680
 9039SOL    HW128016   3.509   4.655   6.602
 9039SOL    HW228017   3.355   4.664   6.656
 9040SOL     OW28018   2.454   2.125   1.959
 9040SOL    HW128019   2.363   2.158   1.982
 9040SOL    HW228020   2.520   2.199   1.971
 9041SOL     OW28021   0.801   2.189   1.045
 9041SOL    HW128022   0.827   2.268   0.989
 9041SOL    HW228023   0.870   2.174   1.115
 9042SOL     OW28024   3.790   6.015   5.165
 9042SOL    HW128025   3.822   6.099   5.209
 9042SOL    HW228026   3.797   6.025   5.065
 9043SOL     OW28027   2.566   1.516   6.855
 9043SOL    HW128028   2.607   1.591   6.908
 9043SOL    HW228029   2.490   1.476   6.907
 9044SOL     OW28030   0.834   0.657   0.179
 9044SOL    HW128031   0.743   0.668   0.219
 9044SOL    HW228032   0.847   0.726   0.107
 9045SOL     OW28033   4.374   0.325   3.425
 9045SOL    HW128034   4.378   0.307   3.523
 9045SOL    HW228035   4.283   0.359   3.401
 9046SOL     OW28036   3.978   3.309   2.479
 9046SOL    HW128037   3.993   3.332   2.575
 9046SOL    HW228038   3.970   3.210   2.469
 9047SOL     OW28039   1.631   4.502   5.463
 9047SOL    HW128040   1.655   4.463   5.374
 9047SOL    HW228041   1.552   4.453   5.501
 9048SOL     OW28042   5.751   2.167   6.284
 9048SOL    HW128043   5.790   2.195   6.371
 9048SOL    HW228044   5.807   2.202   6.209
 9049SOL     OW28045   3.360   6.354   6.218
 9049SOL    HW128046   3.322   6.347   6.310
 9049SOL    HW228047   3.431   6.424   6.217
 9050SOL     OW28048   0.582   4.244   1.811
 9050SOL    HW128049   0.555   4.174   1.746
 9050SOL    HW228050   0.657   4.298   1.773
 9051SOL     OW28051   2.609   1.161   1.241
 9051SOL    HW128052   2.670   1.085   1.263
 9051SOL    HW228053   2.551   1.136   1.163
 9052SOL     OW28054   1.976   2.915   4.241
 9052SOL    HW128055   2.057   2.957   4.284
 9052SOL    HW228056   1.944   2.973   4.167
 9053SOL     OW28057   2.272   1.436   1.284
 9053SOL    HW128058   2.361   1.402   1.253
 9053SOL    HW228059   2.201   1.405   1.222
 9054SOL     OW28060   2.832   5.628   3.835
 9054SOL    HW128061   2.907   5.693   3.830
 9054SOL    HW228062   2.800   5.622   3.930
 9055SOL     OW28063   6.719   4.032   4.703
 9055SOL    HW128064   6.785   3.976   4.753
 9055SOL    HW228065   6.636   4.044   4.758
 9056SOL     OW28066   6.331   2.271   2.610
 9056SOL    HW128067   6.337   2.356   2.663
 9056SOL    HW228068   6.415   2.258   2.558
 9057SOL     OW28069   4.753   1.722   4.332
 9057SOL    HW128070   4.730   1.706   4.428
 9057SOL    HW228071   4.764   1.821   4.317
 9058SOL     OW28072   1.443   0.290   6.160
 9058SOL    HW128073   1.479   0.197   6.160
 9058SOL    HW228074   1.344   0.287   6.148
 9059SOL     OW28075   1.738   2.286   2.478
 9059SOL    HW128076   1.825   2.293   2.526
 9059SOL    HW228077   1.743   2.340   2.393
 9060SOL     OW28078   5.189   3.077   4.759
 9060SOL    HW128079   5.235   3.102   4.673
 9060SOL    HW228080   5.192   2.978   4.770
 9061SOL     OW28081   4.554   5.507   2.444
 9061SOL    HW128082   4.500   5.516   2.528
 9061SOL    HW228083   4.607   5.591   2.430
 9062SOL     OW28084   1.434   5.355   1.878
 9062SOL    HW128085   1.346   5.402   1.876
 9062SOL    HW228086   1.500   5.409   1.930
 9063SOL     OW28087   2.960   1.716   3.703
 9063SOL    HW128088   2.929   1.686   3.794
 9063SOL    HW228089   3.005   1.639   3.657
 9064SOL     OW28090   6.490   3.649   0.233
 9064SOL    HW128091   6.485   3.558   0.273
 9064SOL    HW228092   6.505   3.641   0.134
 9065SOL     OW28093   3.020   0.735   0.453
 9065SOL    HW128094   3.049   0.650   0.410
 9065SOL    HW228095   2.927   0.725   0.487
 9066SOL     OW28096   5.221   6.906   6.961
 9066SOL    HW128097   5.188   6.868   6.875
 9066SOL    HW228098   5.151   6.966   7.000
 9067SOL     OW28099   1.486   6.972   3.070
 9067SOL    HW128100   1.404   6.915   3.075
 9067SOL    HW228101   1.505   7.012   3.160
 9068SOL     OW28102   1.487   6.112   5.770
 9068SOL    HW128103   1.466   6.014   5.768
 9068SOL    HW228104   1.418   6.160   5.823
 9069SOL     OW28105   1.927   2.676   5.979
 9069SOL    HW128106   1.862   2.744   5.946
 9069SOL    HW228107   1.978   2.637   5.902
 9070SOL     OW28108   1.720   3.985   4.555
 9070SOL    HW128109   1.622   3.986   4.539
 9070SOL    HW228110   1.752   4.078   4.577
 9071SOL     OW28111   6.352   6.856   6.899
 9071SOL    HW128112   6.398   6.847   6.811
 9071SOL    HW228113   6.420   6.867   6.971
 9072SOL     OW28114   6.599   3.829   0.696
 9072SOL    HW128115   6.555   3.916   0.720
 9072SOL    HW228116   6.584   3.809   0.600
 9073SOL     OW28117   2.256   0.926   2.070
 9073SOL    HW128118   2.265   0.967   2.161
 9073SOL    HW228119   2.274   0.828   2.076
 9074SOL     OW28120   1.197   6.894   2.866
 9074SOL    HW128121   1.157   6.952   2.937
 9074SOL    HW228122   1.190   6.798   2.892
 9075SOL     OW28123   6.633   0.754   2.261
 9075SOL    HW128124   6.602   0.663   2.235
 9075SOL    HW228125   6.662   0.754   2.357
 9076SOL     OW28126   6.857   0.975   5.653
 9076SOL    HW128127   6.862   0.950   5.556
 9076SOL    HW228128   6.919   0.917   5.706
 9077SOL     OW28129   5.518   6.571   2.119
 9077SOL    HW128130   5.497   6.544   2.213
 9077SOL    HW228131   5.433   6.596   2.072
 9078SOL     OW28132   3.973   3.421   4.577
 9078SOL    HW128133   3.989   3.365   4.496
 9078SOL    HW228134   4.036   3.394   4.649
 9079SOL     OW28135   3.254   6.601   4.781
 9079SOL    HW128136   3.314   6.521   4.771
 9079SOL    HW228137   3.158   6.571   4.776
 9080SOL     OW28138   5.384   2.556   0.018
 9080SOL    HW128139   5.314   2.628   0.024
 9080SOL    HW228140   5.446   2.576   6.961
 9081SOL     OW28141   5.709   6.444   1.980
 9081SOL    HW128142   5.766   6.386   2.039
 9081SOL    HW228143   5.661   6.510   2.037
 9082SOL     OW28144   3.274   1.218   3.796
 9082SOL    HW128145   3.264   1.297   3.735
 9082SOL    HW228146   3.221   1.142   3.760
 9083SOL     OW28147   4.987   4.385   5.464
 9083SOL    HW128148   5.010   4.478   5.436
 9083SOL    HW228149   4.965   4.383   5.561
 9084SOL     OW28150   3.093   3.907   3.288
 9084SOL    HW128151   3.147   3.977   3.241
 9084SOL    HW228152   3.094   3.926   3.387
 9085SOL     OW28153   2.202   2.325   1.443
 9085SOL    HW128154   2.262   2.290   1.515
 9085SOL    HW228155   2.246   2.314   1.354
 9086SOL     OW28156   0.612   3.804   1.452
 9086SOL    HW128157   0.550   3.767   1.522
 9086SOL    HW228158   0.610   3.745   1.372
 9087SOL     OW28159   4.807   3.927   2.349
 9087SOL    HW128160   4.886   3.893   2.297
 9087SOL    HW228161   4.723   3.896   2.305
 9088SOL     OW28162   6.352   0.678   6.410
 9088SOL    HW128163   6.371   0.712   6.502
 9088SOL    HW228164   6.262   0.709   6.380
 9089SOL     OW28165   4.419   0.165   5.913
 9089SOL    HW128166   4.322   0.153   5.892
 9089SOL    HW228167   4.462   0.219   5.842
 9090SOL     OW28168   5.696   0.765   4.335
 9090SOL    HW128169   5.637   0.771   4.416
 9090SOL    HW228170   5.641   0.781   4.253
 9091SOL     OW28171   3.055   3.739   6.845
 9091SOL    HW128172   3.066   3.839   6.846
 9091SOL    HW228173   3.009   3.710   6.929
 9092SOL     OW28174   6.909   2.082   0.103
 9092SOL    HW128175   6.833   2.058   0.163
 9092SOL    HW228176   6.988   2.108   0.158
 9093SOL     OW28177   1.500   6.960   5.283
 9093SOL    HW128178   1.479   6.998   5.193
 9093SOL    HW228179   1.432   6.993   5.349
 9094SOL     OW28180   0.578   3.481   1.976
 9094SOL    HW128181   0.649   3.533   1.928
 9094SOL    HW228182   0.612   3.389   1.996
 9095SOL     OW28183   5.585   6.044   5.231
 9095SOL    HW128184   5.569   5.956   5.186
 9095SOL    HW228185   5.579   6.118   5.164
 9096SOL     OW28186   6.371   5.730   2.838
 9096SOL    HW128187   6.295   5.670   2.812
 9096SOL    HW228188   6.342   5.792   2.911
 9097SOL     OW28189   1.058   3.020   5.839
 9097SOL    HW128190   0.980   3.053   5.892
 9097SOL    HW228191   1.100   2.942   5.886
 9098SOL     OW28192   2.157   3.373   4.622
 9098SOL    HW128193   2.165   3.370   4.721
 9098SOL    HW228194   2.065   3.342   4.595
 9099SOL     OW28195   2.093   3.371   6.901
 9099SOL    HW128196   2.033   3.371   6.821
 9099SOL    HW228197   2.123   3.277   6.920
 9100SOL     OW28198   1.239   4.643   2.965
 9100SOL    HW128199   1.185   4.712   3.013
 9100SOL    HW228200   1.258   4.567   3.027
 9101SOL     OW28201   1.932   1.508   1.940
 9101SOL    HW128202   1.897   1.484   1.849
 9101SOL    HW228203   2.029   1.483   1.946
 9102SOL     OW28204   4.654   5.782   2.447
 9102SOL    HW128205   4.628   5.815   2.356
 9102SOL    HW228206   4.637   5.854   2.514
 9103SOL     OW28207   6.436   1.835   0.568
 9103SOL    HW128208   6.481   1.900   0.629
 9103SOL    HW228209   6.369   1.783   0.620
 9104SOL     OW28210   6.403   0.809   0.226
 9104SOL    HW128211   6.362   0.862   0.301
 9104SOL    HW228212   6.333   0.790   0.157
 9105SOL     OW28213   2.192   0.630   6.452
 9105SOL    HW128214   2.187   0.730   6.454
 9105SOL    HW228215   2.276   0.601   6.406
 9106SOL     OW28216   1.552   4.877   6.924
 9106SOL    HW128217   1.556   4.951   6.857
 9106SOL    HW228218   1.643   4.856   6.957
 9107SOL     OW28219   2.195   1.161   0.318
 9107SOL    HW128220   2.154   1.188   0.231
 9107SOL    HW228221   2.184   1.235   0.385
 9108SOL     OW28222   5.800   5.163   6.166
 9108SOL    HW128223   5.768   5.071   6.144
 9108SOL    HW228224   5.900   5.166   6.159
 9109SOL     OW28225   5.126   3.007   2.369
 9109SOL    HW128226   5.073   3.028   2.287
 9109SOL    HW228227   5.131   2.908   2.381
 9110SOL     OW28228   1.412   5.571   4.250
 9110SOL    HW128229   1.425   5.472   4.249
 9110SOL    HW228230   1.351   5.597   4.175
 9111SOL     OW28231   4.612   3.178   5.327
 9111SOL    HW128232   4.692   3.122   5.303
 9111SOL    HW228233   4.563   3.134   5.402
 9112SOL     OW28234   1.308   5.404   2.361
 9112SOL    HW128235   1.324   5.437   2.454
 9112SOL    HW228236   1.389   5.355   2.329
 9113SOL     OW28237   4.892   1.906   3.462
 9113SOL    HW128238   4.841   1.840   3.408
 9113SOL    HW228239   4.904   1.990   3.410
 9114SOL     OW28240   1.218   6.260   5.020
 9114SOL    HW128241   1.150   6.210   4.967
 9114SOL    HW228242   1.296   6.282   4.961
 9115SOL     OW28243   5.598   4.550   4.180
 9115SOL    HW128244   5.575   4.617   4.110
 9115SOL    HW228245   5.516   4.502   4.210
 9116SOL     OW28246   0.407   6.906   3.441
 9116SOL    HW128247   0.482   6.944   3.387
 9116SOL    HW228248   0.439   6.885   3.533
 9117SOL     OW28249   3.971   0.746   6.652
 9117SOL    HW128250   4.060   0.768   6.692
 9117SOL    HW228251   3.973   0.768   6.554
 9118SOL     OW28252   6.352   4.377   1.147
 9118SOL    HW128253   6.343   4.299   1.209
 9118SOL    HW228254   6.267   4.389   1.095
 9119SOL     OW28255   3.582   0.560   0.558
 9119SOL    HW128256   3.593   0.584   0.461
 9119SOL    HW228257   3.649   0.490   0.582
 9120SOL     OW28258   5.609   3.103   5.115
 9120SOL    HW128259   5.572   3.188   5.078
 9120SOL    HW228260   5.535   3.046   5.150
 9121SOL     OW28261   3.318   0.148   5.177
 9121SOL    HW128262   3.380   0.222   5.204
 9121SOL    HW228263   3.292   0.095   5.258
 9122SOL     OW28264   2.487   4.516   2.288
 9122SOL    HW128265   2.540   4.545   2.368
 9122SOL    HW228266   2.521   4.564   2.207
 9123SOL     OW28267   1.261   0.487   4.279
 9123SOL    HW128268   1.270   0.419   4.206
 9123SOL    HW228269   1.328   0.560   4.265
 9124SOL     OW28270   3.121   5.550   1.440
 9124SOL    HW128271   3.112   5.481   1.367
 9124SOL    HW228272   3.117   5.641   1.401
 9125SOL     OW28273   4.615   6.716   0.903
 9125SOL    HW128274   4.662   6.735   0.817
 9125SOL    HW228275   4.552   6.639   0.891
 9126SOL     OW28276   3.651   4.368   0.099
 9126SOL    HW128277   3.674   4.464   0.112
 9126SOL    HW228278   3.714   4.311   0.153
 9127SOL     OW28279   6.866   3.919   5.579
 9127SOL    HW128280   6.881   3.821   5.568
 9127SOL    HW228281   6.948   3.961   5.618
 9128SOL     OW28282   5.716   3.363   5.310
 9128SOL    HW128283   5.658   3.444   5.318
 9128SOL    HW228284   5.667   3.291   5.260
 9129SOL     OW28285   1.584   2.441   0.435
 9129SOL    HW128286   1.657   2.386   0.476
 9129SOL    HW228287   1.542   2.499   0.504
 9130SOL     OW28288   2.638   3.934   5.297
 9130SOL    HW128289   2.556   3.948   5.240
 9130SOL    HW228290   2.701   4.011   5.284
 9131SOL     OW28291   5.572   2.877   0.793
 9131SOL    HW128292   5.486   2.844   0.834
 9131SOL    HW228293   5.561   2.882   0.694
 9132SOL     OW28294   0.356   4.474   3.812
 9132SOL    HW128295   0.348   4.427   3.900
 9132SOL    HW228296   0.338   4.409   3.738
 9133SOL     OW28297   4.533   1.202   0.687
 9133SOL    HW128298   4.515   1.155   0.601
 9133SOL    HW228299   4.603   1.272   0.672
 9134SOL     OW28300   4.128   5.319   0.739
 9134SOL    HW128301   4.210   5.338   0.792
 9134SOL    HW228302   4.076   5.404   0.725
 9135SOL     OW28303   0.111   6.800   2.776
 9135SOL    HW128304   0.116   6.707   2.812
 9135SOL    HW228305   0.193   6.820   2.723
 9136SOL     OW28306   6.148   4.558   6.897
 9136SOL    HW128307   6.096   4.473   6.911
 9136SOL    HW228308   6.245   4.539   6.910
 9137SOL     OW28309   5.064   6.430   6.371
 9137SOL    HW128310   5.018   6.497   6.312
 9137SOL    HW228311   5.003   6.402   6.444
 9138SOL     OW28312   3.359   3.324   0.952
 9138SOL    HW128313   3.387   3.251   1.014
 9138SOL    HW228314   3.267   3.306   0.918
 9139SOL     OW28315   6.425   0.250   1.184
 9139SOL    HW128316   6.471   0.280   1.100
 9139SOL    HW228317   6.326   0.261   1.172
 9140SOL     OW28318   1.046   4.318   3.168
 9140SOL    HW128319   0.980   4.386   3.135
 9140SOL    HW228320   1.056   4.245   3.100
 9141SOL     OW28321   6.591   6.140   5.540
 9141SOL    HW128322   6.638   6.064   5.495
 9141SOL    HW228323   6.519   6.174   5.479
 9142SOL     OW28324   1.143   4.431   3.859
 9142SOL    HW128325   1.170   4.356   3.799
 9142SOL    HW228326   1.056   4.469   3.826
 9143SOL     OW28327   0.284   3.894   2.603
 9143SOL    HW128328   0.240   3.848   2.525
 9143SOL    HW228329   0.250   3.854   2.688
 9144SOL     OW28330   2.392   4.335   5.701
 9144SOL    HW128331   2.314   4.298   5.651
 9144SOL    HW228332   2.437   4.405   5.645
 9145SOL     OW28333   1.429   6.513   5.830
 9145SOL    HW128334   1.374   6.493   5.911
 9145SOL    HW228335   1.378   6.487   5.748
 9146SOL     OW28336   6.341   2.753   2.912
 9146SOL    HW128337   6.242   2.751   2.925
 9146SOL    HW228338   6.367   2.841   2.873
 9147SOL     OW28339   4.094   0.192   4.273
 9147SOL    HW128340   4.183   0.164   4.310
 9147SOL    HW228341   4.022   0.135   4.313
 9148SOL     OW28342   5.999   6.403   1.927
 9148SOL    HW128343   6.007   6.368   2.021
 9148SOL    HW228344   5.951   6.336   1.871
 9149SOL     OW28345   0.204   3.702   2.413
 9149SOL    HW128346   0.153   3.654   2.341
 9149SOL    HW228347   0.218   3.641   2.491
 9150SOL     OW28348   2.716   2.329   0.947
 9150SOL    HW128349   2.742   2.425   0.954
 9150SOL    HW228350   2.792   2.271   0.977
 9151SOL     OW28351   1.872   3.335   3.700
 9151SOL    HW128352   1.850   3.258   3.640
 9151SOL    HW228353   1.971   3.336   3.716
 9152SOL     OW28354   2.231   4.583   3.152
 9152SOL    HW128355   2.240   4.504   3.091
 9152SOL    HW228356   2.144   4.577   3.201
 9153SOL     OW28357   6.592   4.006   0.389
 9153SOL    HW128358   6.621   4.003   0.293
 9153SOL    HW228359   6.535   3.926   0.408
 9154SOL     OW28360   5.952   4.771   2.521
 9154SOL    HW128361   5.967   4.700   2.452
 9154SOL    HW228362   5.971   4.861   2.482
 9155SOL     OW28363   1.229   6.227   2.409
 9155SOL    HW128364   1.195   6.308   2.361
 9155SOL    HW228365   1.324   6.211   2.383
 9156SOL     OW28366   6.822   3.984   6.886
 9156SOL    HW128367   6.761   3.998   6.808
 9156SOL    HW228368   6.917   3.989   6.855
 9157SOL     OW28369   1.951   5.133   6.166
 9157SOL    HW128370   1.927   5.118   6.070
 9157SOL    HW228371   1.884   5.086   6.224
 9158SOL     OW28372   6.771   3.307   4.838
 9158SOL    HW128373   6.842   3.293   4.770
 9158SOL    HW228374   6.691   3.349   4.795
 9159SOL     OW28375   3.684   1.621   3.873
 9159SOL    HW128376   3.593   1.623   3.916
 9159SOL    HW228377   3.701   1.708   3.827
 9160SOL     OW28378   0.052   4.466   1.293
 9160SOL    HW128379   0.134   4.452   1.238
 9160SOL    HW228380   0.010   4.554   1.269
 9161SOL     OW28381   6.287   4.601   1.567
 9161SOL    HW128382   6.302   4.578   1.664
 9161SOL    HW228383   6.368   4.577   1.514
 9162SOL     OW28384   4.289   1.879   1.529
 9162SOL    HW128385   4.269   1.872   1.431
 9162SOL    HW228386   4.347   1.802   1.557
 9163SOL     OW28387   1.447   2.497   3.403
 9163SOL    HW128388   1.371   2.534   3.349
 9163SOL    HW228389   1.528   2.491   3.346
 9164SOL     OW28390   3.051   6.978   0.185
 9164SOL    HW128391   3.132   7.011   0.234
 9164SOL    HW228392   3.059   6.879   0.170
 9165SOL     OW28393   5.239   1.798   6.104
 9165SOL    HW128394   5.239   1.880   6.162
 9165SOL    HW228395   5.165   1.738   6.133
 9166SOL     OW28396   5.202   5.887   1.590
 9166SOL    HW128397   5.266   5.964   1.591
 9166SOL    HW228398   5.207   5.841   1.501
 9167SOL     OW28399   1.469   1.482   4.543
 9167SOL    HW128400   1.401   1.499   4.614
 9167SOL    HW228401   1.467   1.386   4.517
 9168SOL     OW28402   6.662   6.028   4.470
 9168SOL    HW128403   6.627   6.114   4.433
 9168SOL    HW228404   6.591   5.984   4.524
 9169SOL     OW28405   6.758   5.627   0.704
 9169SOL    HW128406   6.833   5.606   0.641
 9169SOL    HW228407   6.697   5.694   0.661
 9170SOL     OW28408   1.500   1.418   6.170
 9170SOL    HW128409   1.496   1.320   6.149
 9170SOL    HW228410   1.524   1.469   6.087
 9171SOL     OW28411   3.291   4.724   0.145
 9171SOL    HW128412   3.279   4.726   0.046
 9171SOL    HW228413   3.253   4.807   0.186
 9172SOL     OW28414   4.562   1.428   3.711
 9172SOL    HW128415   4.541   1.331   3.714
 9172SOL    HW228416   4.658   1.443   3.736
 9173SOL     OW28417   5.691   3.316   4.861
 9173SOL    HW128418   5.788   3.326   4.839
 9173SOL    HW228419   5.655   3.234   4.815
 9174SOL     OW28420   0.655   4.414   0.215
 9174SOL    HW128421   0.626   4.432   0.121
 9174SOL    HW228422   0.579   4.431   0.277
 9175SOL     OW28423   2.310   0.507   0.071
 9175SOL    HW128424   2.334   0.577   0.138
 9175SOL    HW228425   2.366   0.518   7.008
 9176SOL     OW28426   1.570   1.580   2.556
 9176SOL    HW128427   1.620   1.494   2.560
 9176SOL    HW228428   1.562   1.618   2.648
 9177SOL     OW28429   0.578   4.185   3.741
 9177SOL    HW128430   0.633   4.227   3.814
 9177SOL    HW228431   0.614   4.094   3.720
 9178SOL     OW28432   1.991   5.957   0.432
 9178SOL    HW128433   1.994   5.973   0.334
 9178SOL    HW228434   1.926   5.884   0.452
 9179SOL     OW28435   3.401   5.491   4.484
 9179SOL    HW128436   3.426   5.395   4.477
 9179SOL    HW228437   3.423   5.525   4.575
 9180SOL     OW28438   6.741   0.714   5.239
 9180SOL    HW128439   6.832   0.711   5.197
 9180SOL    HW228440   6.677   0.659   5.185
 9181SOL     OW28441   2.826   1.941   3.607
 9181SOL    HW128442   2.767   1.988   3.674
 9181SOL    HW228443   2.864   1.859   3.649
 9182SOL     OW28444   1.278   1.299   2.794
 9182SOL    HW128445   1.200   1.315   2.855
 9182SOL    HW228446   1.247   1.252   2.712
 9183SOL     OW28447   0.749   1.935   6.302
 9183SOL    HW128448   0.839   1.975   6.283
 9183SOL    HW228449   0.734   1.856   6.243
 9184SOL     OW28450   3.745   3.369   0.309
 9184SOL    HW128451   3.836   3.331   0.321
 9184SOL    HW228452   3.684   3.334   0.380
 9185SOL     OW28453   1.210   1.089   6.684
 9185SOL    HW128454   1.181   1.026   6.757
 9185SOL    HW228455   1.266   1.162   6.723
 9186SOL     OW28456   5.412   1.111   6.088
 9186SOL    HW128457   5.479   1.139   6.018
 9186SOL    HW228458   5.411   1.178   6.162
 9187SOL     OW28459   5.792   2.113   0.443
 9187SOL    HW128460   5.727   2.175   0.486
 9187SOL    HW228461   5.790   2.126   0.344
 9188SOL     OW28462   1.526   0.390   1.958
 9188SOL    HW128463   1.608   0.392   2.015
 9188SOL    HW228464   1.481   0.479   1.961
 9189SOL     OW28465   4.069   1.469   4.645
 9189SOL    HW128466   4.052   1.412   4.726
 9189SOL    HW228467   4.167   1.478   4.630
 9190SOL     OW28468   6.774   2.266   5.488
 9190SOL    HW128469   6.770   2.227   5.580
 9190SOL    HW228470   6.843   2.339   5.485
 9191SOL     OW28471   5.414   6.435   0.730
 9191SOL    HW128472   5.396   6.484   0.815
 9191SOL    HW228473   5.426   6.500   0.655
 9192SOL     OW28474   5.754   4.449   4.675
 9192SOL    HW128475   5.697   4.510   4.619
 9192SOL    HW228476   5.696   4.379   4.717
 9193SOL     OW28477   3.719   2.893   3.823
 9193SOL    HW128478   3.784   2.957   3.864
 9193SOL    HW228479   3.684   2.831   3.893
 9194SOL     OW28480   3.198   5.759   2.626
 9194SOL    HW128481   3.190   5.683   2.691
 9194SOL    HW228482   3.122   5.822   2.639
 9195SOL     OW28483   6.627   3.278   3.088
 9195SOL    HW128484   6.543   3.281   3.034
 9195SOL    HW228485   6.700   3.234   3.035
 9196SOL     OW28486   4.415   0.285   3.754
 9196SOL    HW128487   4.322   0.296   3.720
 9196SOL    HW228488   4.426   0.193   3.791
 9197SOL     OW28489   3.334   3.201   6.045
 9197SOL    HW128490   3.323   3.291   6.002
 9197SOL    HW228491   3.423   3.163   6.021
 9198SOL     OW28492   5.280   2.598   5.057
 9198SOL    HW128493   5.225   2.539   5.115
 9198SOL    HW228494   5.227   2.679   5.030
 9199SOL     OW28495   1.327   3.541   6.641
 9199SOL    HW128496   1.277   3.575   6.562
 9199SOL    HW228497   1.344   3.616   6.705
 9200SOL     OW28498   6.206   6.412   0.575
 9200SOL    HW128499   6.209   6.314   0.556
 9200SOL    HW228500   6.268   6.432   0.651
 9201SOL     OW28501   1.669   4.200   3.245
 9201SOL    HW128502   1.695   4.145   3.166
 9201SOL    HW228503   1.618   4.143   3.309
 9202SOL     OW28504   3.170   5.523   3.850
 9202SOL    HW128505   3.117   5.478   3.921
 9202SOL    HW228506   3.114   5.593   3.805
 9203SOL     OW28507   4.975   0.774   6.450
 9203SOL    HW128508   4.913   0.703   6.415
 9203SOL    HW228509   4.924   0.860   6.462
 9204SOL     OW28510   4.660   4.163   1.701
 9204SOL    HW128511   4.641   4.221   1.622
 9204SOL    HW228512   4.587   4.174   1.769
 9205SOL     OW28513   4.803   3.135   2.419
 9205SOL    HW128514   4.836   3.046   2.449
 9205SOL    HW228515   4.712   3.151   2.456
 9206SOL     OW28516   0.561   6.774   3.009
 9206SOL    HW128517   0.547   6.869   2.982
 9206SOL    HW228518   0.557   6.716   2.927
 9207SOL     OW28519   4.203   6.336   0.083
 9207SOL    HW128520   4.244   6.411   0.031
 9207SOL    HW228521   4.272   6.267   0.102
 9208SOL     OW28522   4.464   4.789   2.490
 9208SOL    HW128523   4.528   4.859   2.520
 9208SOL    HW228524   4.406   4.825   2.416
 9209SOL     OW28525   4.006   0.710   2.904
 9209SOL    HW128526   4.042   0.680   2.992
 9209SOL    HW228527   4.038   0.648   2.832
 9210SOL     OW28528   1.321   0.055   0.861
 9210SOL    HW128529   1.261   0.115   0.808
 9210SOL    HW228530   1.336   6.989   0.811
 9211SOL     OW28531   4.900   1.910   6.257
 9211SOL    HW128532   4.944   1.831   6.299
 9211SOL    HW228533   4.801   1.905   6.273
 9212SOL     OW28534   5.946   3.342   4.727
 9212SOL    HW128535   6.015   3.308   4.792
 9212SOL    HW228536   5.990   3.405   4.663
 9213SOL     OW28537   6.463   0.013   2.413
 9213SOL    HW128538   6.404   0.058   2.480
 9213SOL    HW228539   6.558   0.038   2.429
 9214SOL     OW28540   2.111   2.561   5.346
 9214SOL    HW128541   2.063   2.504   5.412
 9214SOL    HW228542   2.180   2.616   5.393
 9215SOL     OW28543   0.670   3.210   2.867
 9215SOL    HW128544   0.630   3.136   2.813
 9215SOL    HW228545   0.600   3.281   2.882
 9216SOL     OW28546   2.737   5.704   4.665
 9216SOL    HW128547   2.835   5.711   4.645
 9216SOL    HW228548   2.722   5.721   4.763
 9217SOL     OW28549   4.459   1.072   6.086
 9217SOL    HW128550   4.435   0.992   6.031
 9217SOL    HW228551   4.414   1.153   6.048
 9218SOL     OW28552   6.134   5.396   6.680
 9218SOL    HW128553   6.085   5.409   6.766
 9218SOL    HW228554   6.068   5.380   6.606
 9219SOL     OW28555   3.609   2.698   5.583
 9219SOL    HW128556   3.626   2.705   5.485
 9219SOL    HW228557   3.689   2.658   5.628
 9220SOL     OW28558   1.012   6.557   3.831
 9220SOL    HW128559   0.979   6.502   3.754
 9220SOL    HW228560   1.071   6.630   3.797
 9221SOL     OW28561   2.405   1.655   0.699
 9221SOL    HW128562   2.441   1.654   0.793
 9221SOL    HW228563   2.399   1.560   0.666
 9222SOL     OW28564   1.904   3.077   4.035
 9222SOL    HW128565   1.906   3.038   3.943
 9222SOL    HW228566   1.811   3.107   4.056
 9223SOL     OW28567   0.537   3.209   4.921
 9223SOL    HW128568   0.559   3.128   4.866
 9223SOL    HW228569   0.518   3.181   5.015
 9224SOL     OW28570   2.279   4.325   3.429
 9224SOL    HW128571   2.358   4.386   3.427
 9224SOL    HW228572   2.199   4.375   3.461
 9225SOL     OW28573   5.110   5.981   6.677
 9225SOL    HW128574   5.064   5.953   6.593
 9225SOL    HW228575   5.196   6.026   6.654
 9226SOL     OW28576   0.830   0.862   0.841
 9226SOL    HW128577   0.819   0.765   0.861
 9226SOL    HW228578   0.827   0.914   0.926
 9227SOL     OW28579   2.498   4.653   0.812
 9227SOL    HW128580   2.417   4.607   0.776
 9227SOL    HW228581   2.579   4.596   0.797
 9228SOL     OW28582   3.400   3.091   5.448
 9228SOL    HW128583   3.371   3.064   5.540
 9228SOL    HW228584   3.455   3.174   5.454
 9229SOL     OW28585   0.036   5.039   0.181
 9229SOL    HW128586   7.009   4.966   0.231
 9229SOL    HW228587   6.988   5.090   0.127
 9230SOL     OW28588   4.346   1.416   5.085
 9230SOL    HW128589   4.430   1.444   5.133
 9230SOL    HW228590   4.310   1.333   5.126
 9231SOL     OW28591   6.506   5.534   3.542
 9231SOL    HW128592   6.454   5.537   3.457
 9231SOL    HW228593   6.603   5.529   3.522
 9232SOL     OW28594   1.469   4.967   2.597
 9232SOL    HW128595   1.555   4.986   2.644
 9232SOL    HW228596   1.401   5.036   2.621
 9233SOL     OW28597   0.673   6.619   6.779
 9233SOL    HW128598   0.743   6.660   6.837
 9233SOL    HW228599   0.665   6.522   6.800
 9234SOL     OW28600   2.095   4.052   0.590
 9234SOL    HW128601   2.157   4.005   0.527
 9234SOL    HW228602   2.142   4.129   0.632
 9235SOL     OW28603   2.106   2.190   3.317
 9235SOL    HW128604   2.136   2.096   3.303
 9235SOL    HW228605   2.181   2.253   3.296
 9236SOL     OW28606   2.804   3.571   6.692
 9236SOL    HW128607   2.853   3.624   6.623
 9236SOL    HW228608   2.839   3.477   6.692
 9237SOL     OW28609   5.547   4.799   3.087
 9237SOL    HW128610   5.524   4.817   2.991
 9237SOL    HW228611   5.604   4.874   3.122
 9238SOL     OW28612   1.690   2.603   5.060
 9238SOL    HW128613   1.742   2.534   5.110
 9238SOL    HW228614   1.737   2.691   5.067
 9239SOL     OW28615   1.452   5.004   0.140
 9239SOL    HW128616   1.524   4.985   0.206
 9239SOL    HW228617   1.464   4.946   0.060
 9240SOL     OW28618   4.338   2.203   2.768
 9240SOL    HW128619   4.316   2.197   2.865
 9240SOL    HW228620   4.253   2.211   2.715
 9241SOL     OW28621   6.086   6.380   1.278
 9241SOL    HW128622   6.037   6.302   1.239
 9241SOL    HW228623   6.143   6.349   1.354
 9242SOL     OW28624   1.154   2.478   0.360
 9242SOL    HW128625   1.141   2.497   0.457
 9242SOL    HW228626   1.211   2.548   0.319
 9243SOL     OW28627   1.067   0.799   0.272
 9243SOL    HW128628   1.019   0.851   0.343
 9243SOL    HW228629   1.006   0.729   0.235
 9244SOL     OW28630   3.039   6.680   5.514
 9244SOL    HW128631   3.131   6.662   5.481
 9244SOL    HW228632   3.032   6.654   5.610
 9245SOL     OW28633   1.530   4.860   3.694
 9245SOL    HW128634   1.463   4.787   3.691
 9245SOL    HW228635   1.611   4.833   3.641
 9246SOL     OW28636   6.408   0.423   6.389
 9246SOL    HW128637   6.336   0.379   6.335
 9246SOL    HW228638   6.385   0.520   6.402
 9247SOL     OW28639   3.807   6.520   3.028
 9247SOL    HW128640   3.782   6.460   2.952
 9247SOL    HW228641   3.781   6.615   3.006
 9248SOL     OW28642   2.383   1.273   6.648
 9248SOL    HW128643   2.433   1.236   6.726
 9248SOL    HW228644   2.414   1.367   6.630
 9249SOL     OW28645   3.581   5.863   0.949
 9249SOL    HW128646   3.572   5.953   0.991
 9249SOL    HW228647   3.656   5.814   0.993
 9250SOL     OW28648   0.632   2.849   3.869
 9250SOL    HW128649   0.658   2.788   3.794
 9250SOL    HW228650   0.584   2.796   3.940
 9251SOL     OW28651   2.778   2.874   1.312
 9251SOL    HW128652   2.782   2.793   1.371
 9251SOL    HW228653   2.839   2.861   1.234
 9252SOL     OW28654   5.195   1.921   5.437
 9252SOL    HW128655   5.270   1.866   5.401
 9252SOL    HW228656   5.143   1.961   5.360
 9253SOL     OW28657   1.004   5.351   5.334
 9253SOL    HW128658   0.930   5.293   5.369
 9253SOL    HW228659   0.972   5.400   5.253
 9254SOL     OW28660   0.286   4.555   2.804
 9254SOL    HW128661   0.246   4.632   2.854
 9254SOL    HW228662   0.238   4.544   2.716
 9255SOL     OW28663   0.066   4.526   0.554
 9255SOL    HW128664   0.088   4.492   0.645
 9255SOL    HW228665   6.986   4.538   0.545
 9256SOL     OW28666   2.359   6.201   1.866
 9256SOL    HW128667   2.381   6.233   1.958
 9256SOL    HW228668   2.400   6.263   1.799
 9257SOL     OW28669   6.604   5.918   3.983
 9257SOL    HW128670   6.691   5.953   4.019
 9257SOL    HW228671   6.579   5.835   4.033
 9258SOL     OW28672   3.588   5.023   1.250
 9258SOL    HW128673   3.636   5.110   1.260
 9258SOL    HW228674   3.638   4.951   1.298
 9259SOL     OW28675   1.784   1.551   0.275
 9259SOL    HW128676   1.863   1.498   0.244
 9259SOL    HW228677   1.709   1.540   0.210
 9260SOL     OW28678   5.967   4.007   5.029
 9260SOL    HW128679   5.991   3.923   4.979
 9260SOL    HW228680   5.897   4.056   4.979
 9261SOL     OW28681   3.648   2.552   1.675
 9261SOL    HW128682   3.739   2.594   1.674
 9261SOL    HW228683   3.649   2.473   1.737
 9262SOL     OW28684   6.409   5.782   4.879
 9262SOL    HW128685   6.429   5.877   4.852
 9262SOL    HW228686   6.360   5.782   4.966
 9263SOL     OW28687   1.958   4.088   4.017
 9263SOL    HW128688   1.968   4.182   4.051
 9263SOL    HW228689   1.916   4.031   4.088
 9264SOL     OW28690   4.429   4.440   0.129
 9264SOL    HW128691   4.495   4.483   0.191
 9264SOL    HW228692   4.410   4.501   0.053
 9265SOL     OW28693   6.179   2.087   0.303
 9265SOL    HW128694   6.156   2.184   0.310
 9265SOL    HW228695   6.161   2.042   0.391
 9266SOL     OW28696   1.266   4.812   1.012
 9266SOL    HW128697   1.267   4.890   1.074
 9266SOL    HW228698   1.359   4.783   0.993
 9267SOL     OW28699   6.389   0.901   4.516
 9267SOL    HW128700   6.325   0.893   4.593
 9267SOL    HW228701   6.340   0.934   4.435
 9268SOL     OW28702   0.866   0.277   1.899
 9268SOL    HW128703   0.920   0.254   1.980
 9268SOL    HW228704   0.784   0.328   1.927
 9269SOL     OW28705   3.853   1.225   0.162
 9269SOL    HW128706   3.793   1.148   0.142
 9269SOL    HW228707   3.939   1.191   0.201
 9270SOL     OW28708   2.186   0.150   6.438
 9270SOL    HW128709   2.185   0.088   6.360
 9270SOL    HW228710   2.162   0.242   6.407
 9271SOL     OW28711   1.336   6.645   4.859
 9271SOL    HW128712   1.407   6.574   4.857
 9271SOL    HW228713   1.299   6.651   4.952
 9272SOL     OW28714   6.568   6.411   6.095
 9272SOL    HW128715   6.471   6.434   6.107
 9272SOL    HW228716   6.607   6.387   6.184
 9273SOL     OW28717   5.130   4.688   4.009
 9273SOL    HW128718   5.033   4.684   3.983
 9273SOL    HW228719   5.181   4.618   3.959
 9274SOL     OW28720   0.443   2.586   0.615
 9274SOL    HW128721   0.398   2.642   0.546
 9274SOL    HW228722   0.500   2.517   0.570
 9275SOL     OW28723   6.893   0.936   0.263
 9275SOL    HW128724   6.824   0.978   0.204
 9275SOL    HW228725   6.984   0.952   0.224
 9276SOL     OW28726   2.610   5.246   0.528
 9276SOL    HW128727   2.670   5.307   0.477
 9276SOL    HW228728   2.629   5.151   0.503
 9277SOL     OW28729   4.976   5.716   1.629
 9277SOL    HW128730   4.944   5.671   1.546
 9277SOL    HW228731   5.069   5.750   1.615
 9278SOL     OW28732   1.106   0.426   5.243
 9278SOL    HW128733   1.068   0.513   5.210
 9278SOL    HW228734   1.038   0.378   5.297
 9279SOL     OW28735   4.355   5.997   1.464
 9279SOL    HW128736   4.351   5.941   1.547
 9279SOL    HW228737   4.273   5.981   1.409
 9280SOL     OW28738   1.529   6.832   2.429
 9280SOL    HW128739   1.467   6.754   2.434
 9280SOL    HW228740   1.577   6.831   2.341
 9281SOL     OW28741   2.384   5.413   0.139
 9281SOL    HW128742   2.328   5.330   0.133
 9281SOL    HW228743   2.401   5.450   0.048
 9282SOL     OW28744   2.931   6.754   4.862
 9282SOL    HW128745   2.975   6.712   4.941
 9282SOL    HW228746   2.844   6.794   4.889
 9283SOL     OW28747   4.090   6.310   0.713
 9283SOL    HW128748   4.045   6.374   0.775
 9283SOL    HW228749   4.173   6.352   0.677
 9284SOL     OW28750   3.293   3.800   4.972
 9284SOL    HW128751   3.313   3.799   4.874
 9284SOL    HW228752   3.315   3.710   5.011
 9285SOL     OW28753   0.578   5.069   2.857
 9285SOL    HW128754   0.593   5.012   2.776
 9285SOL    HW228755   0.662   5.071   2.911
 9286SOL     OW28756   4.579   6.375   1.532
 9286SOL    HW128757   4.493   6.415   1.501
 9286SOL    HW228758   4.634   6.347   1.453
 9287SOL     OW28759   3.662   4.550   6.266
 9287SOL    HW128760   3.683   4.452   6.274
 9287SOL    HW228761   3.595   4.564   6.193
 9288SOL     OW28762   3.595   2.063   2.526
 9288SOL    HW128763   3.626   2.107   2.610
 9288SOL    HW228764   3.497   2.044   2.532
 9289SOL     OW28765   5.045   6.393   0.480
 9289SOL    HW128766   5.108   6.358   0.550
 9289SOL    HW228767   4.975   6.449   0.524
 9290SOL     OW28768   4.480   0.909   3.697
 9290SOL    HW128769   4.393   0.867   3.674
 9290SOL    HW228770   4.551   0.877   3.634
 9291SOL     OW28771   0.993   4.664   6.454
 9291SOL    HW128772   0.898   4.654   6.424
 9291SOL    HW228773   0.995   4.685   6.551
 9292SOL     OW28774   1.235   1.373   6.458
 9292SOL    HW128775   1.136   1.375   6.445
 9292SOL    HW228776   1.269   1.280   6.446
 9293SOL     OW28777   4.852   2.646   4.502
 9293SOL    HW128778   4.794   2.706   4.557
 9293SOL    HW228779   4.947   2.675   4.509
 9294SOL     OW28780   4.577   1.135   6.975
 9294SOL    HW128781   4.481   1.113   6.990
 9294SOL    HW228782   4.584   1.222   6.927
 9295SOL     OW28783   0.650   1.107   5.191
 9295SOL    HW128784   0.737   1.145   5.224
 9295SOL    HW228785   0.576   1.170   5.214
 9296SOL     OW28786   1.702   4.654   0.279
 9296SOL    HW128787   1.683   4.562   0.244
 9296SOL    HW228788   1.618   4.694   0.316
 9297SOL     OW28789   5.849   6.065   2.635
 9297SOL    HW128790   5.928   6.071   2.696
 9297SOL    HW228791   5.869   6.001   2.560
 9298SOL     OW28792   1.720   5.315   6.716
 9298SOL    HW128793   1.727   5.409   6.748
 9298SOL    HW228794   1.733   5.312   6.617
 9299SOL     OW28795   1.749   2.652   4.654
 9299SOL    HW128796   1.667   2.700   4.625
 9299SOL    HW228797   1.820   2.718   4.677
 9300SOL     OW28798   1.464   5.218   5.167
 9300SOL    HW128799   1.485   5.284   5.095
 9300SOL    HW228800   1.543   5.207   5.226
 9301SOL     OW28801   0.594   4.485   4.732
 9301SOL    HW128802   0.662   4.462   4.801
 9301SOL    HW228803   0.552   4.402   4.697
 9302SOL     OW28804   2.198   3.564   5.340
 9302SOL    HW128805   2.181   3.570   5.242
 9302SOL    HW228806   2.244   3.648   5.371
 9303SOL     OW28807   2.454   4.265   0.921
 9303SOL    HW128808   2.527   4.332   0.909
 9303SOL    HW228809   2.429   4.260   1.018
 9304SOL     OW28810   4.184   5.429   0.146
 9304SOL    HW128811   4.107   5.452   0.086
 9304SOL    HW228812   4.157   5.356   0.209
 9305SOL     OW28813   2.050   2.046   1.734
 9305SOL    HW128814   2.140   2.021   1.768
 9305SOL    HW228815   2.002   1.964   1.701
 9306SOL     OW28816   6.611   5.600   4.773
 9306SOL    HW128817   6.600   5.631   4.678
 9306SOL    HW228818   6.522   5.600   4.819
 9307SOL     OW28819   2.630   3.116   1.615
 9307SOL    HW128820   2.626   3.019   1.638
 9307SOL    HW228821   2.551   3.163   1.654
 9308SOL     OW28822   2.139   3.781   2.015
 9308SOL    HW128823   2.096   3.786   2.105
 9308SOL    HW228824   2.189   3.695   2.007
 9309SOL     OW28825   4.964   5.297   6.335
 9309SOL    HW128826   4.873   5.328   6.364
 9309SOL    HW228827   4.986   5.338   6.247
 9310SOL     OW28828   6.087   6.074   0.319
 9310SOL    HW128829   6.161   6.134   0.288
 9310SOL    HW228830   6.099   5.983   0.279
 9311SOL     OW28831   4.613   3.708   1.559
 9311SOL    HW128832   4.677   3.754   1.620
 9311SOL    HW228833   4.541   3.772   1.531
 9312SOL     OW28834   0.514   2.996   2.773
 9312SOL    HW128835   0.478   2.937   2.845
 9312SOL    HW228836   0.541   2.941   2.695
 9313SOL     OW28837   0.463   0.700   2.102
 9313SOL    HW128838   0.429   0.762   2.173
 9313SOL    HW228839   0.392   0.686   2.033
 9314SOL     OW28840   5.343   3.785   0.760
 9314SOL    HW128841   5.333   3.727   0.840
 9314SOL    HW228842   5.441   3.801   0.742
 9315SOL     OW28843   5.212   0.361   6.205
 9315SOL    HW128844   5.252   0.419   6.276
 9315SOL    HW228845   5.120   0.393   6.183
 9316SOL     OW28846   4.687   0.244   5.541
 9316SOL    HW128847   4.771   0.295   5.558
 9316SOL    HW228848   4.709   0.150   5.519
 9317SOL     OW28849   3.880   6.495   3.279
 9317SOL    HW128850   3.843   6.508   3.187
 9317SOL    HW228851   3.872   6.399   3.306
 9318SOL     OW28852   4.489   6.158   1.676
 9318SOL    HW128853   4.520   6.251   1.662
 9318SOL    HW228854   4.456   6.120   1.590
 9319SOL     OW28855   2.679   2.937   0.082
 9319SOL    HW128856   2.583   2.919   0.060
 9319SOL    HW228857   2.736   2.863   0.047
 9320SOL     OW28858   6.647   6.395   6.834
 9320SOL    HW128859   6.585   6.401   6.912
 9320SOL    HW228860   6.695   6.482   6.823
 9321SOL     OW28861   0.679   3.454   5.005
 9321SOL    HW128862   0.648   3.373   4.955
 9321SOL    HW228863   0.604   3.520   5.011
 9322SOL     OW28864   5.731   3.397   6.510
 9322SOL    HW128865   5.703   3.493   6.513
 9322SOL    HW228866   5.739   3.362   6.603
 9323SOL     OW28867   1.077   2.121   5.449
 9323SOL    HW128868   1.112   2.180   5.521
 9323SOL    HW228869   1.125   2.033   5.450
 9324SOL     OW28870   1.019   4.661   1.825
 9324SOL    HW128871   1.011   4.753   1.788
 9324SOL    HW228872   0.962   4.653   1.906
 9325SOL     OW28873   0.963   4.539   3.674
 9325SOL    HW128874   1.006   4.471   3.615
 9325SOL    HW228875   0.880   4.574   3.630
 9326SOL     OW28876   4.698   4.675   1.740
 9326SOL    HW128877   4.762   4.643   1.670
 9326SOL    HW228878   4.628   4.605   1.756
 9327SOL     OW28879   3.762   0.943   3.520
 9327SOL    HW128880   3.842   0.932   3.580
 9327SOL    HW228881   3.703   0.862   3.529
 9328SOL     OW28882   2.515   6.948   4.003
 9328SOL    HW128883   2.515   6.868   4.064
 9328SOL    HW228884   2.539   0.011   4.055
 9329SOL     OW28885   0.242   5.596   6.709
 9329SOL    HW128886   0.223   5.544   6.793
 9329SOL    HW228887   0.179   5.674   6.703
 9330SOL     OW28888   6.835   6.205   6.222
 9330SOL    HW128889   6.759   6.159   6.177
 9330SOL    HW228890   6.920   6.155   6.203
 9331SOL     OW28891   1.789   3.513   4.752
 9331SOL    HW128892   1.807   3.475   4.662
 9331SOL    HW228893   1.775   3.612   4.745
 9332SOL     OW28894   4.628   6.013   1.192
 9332SOL    HW128895   4.724   5.993   1.177
 9332SOL    HW228896   4.592   6.064   1.113
 9333SOL     OW28897   4.160   4.009   0.937
 9333SOL    HW128898   4.091   3.936   0.939
 9333SOL    HW228899   4.152   4.060   0.852
 9334SOL     OW28900   5.901   5.975   5.918
 9334SOL    HW128901   5.932   5.912   5.989
 9334SOL    HW228902   5.927   6.069   5.943
 9335SOL     OW28903   1.028   3.648   1.719
 9335SOL    HW128904   0.981   3.688   1.640
 9335SOL    HW228905   1.125   3.639   1.700
 9336SOL     OW28906   5.748   6.623   5.392
 9336SOL    HW128907   5.825   6.607   5.454
 9336SOL    HW228908   5.749   6.554   5.320
 9337SOL     OW28909   2.510   0.437   6.573
 9337SOL    HW128910   2.550   0.529   6.566
 9337SOL    HW228911   2.582   0.370   6.586
 9338SOL     OW28912   5.399   6.509   0.276
 9338SOL    HW128913   5.405   6.412   0.298
 9338SOL    HW228914   5.340   6.555   0.342
 9339SOL     OW28915   6.220   3.601   5.492
 9339SOL    HW128916   6.151   3.546   5.444
 9339SOL    HW228917   6.187   3.694   5.504
 9340SOL     OW28918   3.898   5.801   1.510
 9340SOL    HW128919   3.960   5.858   1.563
 9340SOL    HW228920   3.944   5.768   1.428
 9341SOL     OW28921   5.029   4.223   0.098
 9341SOL    HW128922   5.004   4.316   0.126
 9341SOL    HW228923   5.047   4.222   7.018
 9342SOL     OW28924   3.087   0.396   4.133
 9342SOL    HW128925   3.084   0.495   4.121
 9342SOL    HW228926   2.994   0.362   4.150
 9343SOL     OW28927   4.554   3.978   1.461
 9343SOL    HW128928   4.516   4.045   1.397
 9343SOL    HW228929   4.643   3.946   1.427
 9344SOL     OW28930   6.262   5.941   5.317
 9344SOL    HW128931   6.298   6.035   5.323
 9344SOL    HW228932   6.269   5.897   5.406
 9345SOL     OW28933   0.794   6.122   0.668
 9345SOL    HW128934   0.735   6.203   0.661
 9345SOL    HW228935   0.838   6.120   0.759
 9346SOL     OW28936   6.178   5.487   1.057
 9346SOL    HW128937   6.169   5.533   1.145
 9346SOL    HW228938   6.129   5.537   0.986
 9347SOL     OW28939   3.576   5.626   0.603
 9347SOL    HW128940   3.505   5.672   0.656
 9347SOL    HW228941   3.611   5.689   0.534
 9348SOL     OW28942   3.078   5.765   1.857
 9348SOL    HW128943   3.026   5.815   1.926
 9348SOL    HW228944   3.121   5.831   1.794
 9349SOL     OW28945   6.547   5.893   1.850
 9349SOL    HW128946   6.487   5.854   1.780
 9349SOL    HW228947   6.636   5.913   1.810
 9350SOL     OW28948   6.888   0.586   5.983
 9350SOL    HW128949   6.938   0.657   5.932
 9350SOL    HW228950   6.806   0.561   5.933
 9351SOL     OW28951   3.463   1.939   6.323
 9351SOL    HW128952   3.522   1.943   6.404
 9351SOL    HW228953   3.516   1.906   6.245
 9352SOL     OW28954   3.576   2.472   5.816
 9352SOL    HW128955   3.593   2.569   5.832
 9352SOL    HW228956   3.478   2.457   5.802
 9353SOL     OW28957   0.759   3.172   1.439
 9353SOL    HW128958   0.750   3.083   1.484
 9353SOL    HW228959   0.677   3.190   1.384
 9354SOL     OW28960   5.032   2.228   1.597
 9354SOL    HW128961   4.947   2.280   1.608
 9354SOL    HW228962   5.028   2.177   1.511
 9355SOL     OW28963   0.095   0.375   3.289
 9355SOL    HW128964   0.042   0.456   3.315
 9355SOL    HW228965   0.064   0.343   3.199
 9356SOL     OW28966   4.253   4.685   2.648
 9356SOL    HW128967   4.311   4.617   2.693
 9356SOL    HW228968   4.279   4.693   2.552
 9357SOL     OW28969   3.716   2.584   0.995
 9357SOL    HW128970   3.749   2.567   1.088
 9357SOL    HW228971   3.620   2.611   0.999
 9358SOL     OW28972   6.279   4.654   2.208
 9358SOL    HW128973   6.358   4.714   2.222
 9358SOL    HW228974   6.297   4.565   2.251
 9359SOL     OW28975   6.314   3.960   5.853
 9359SOL    HW128976   6.399   3.953   5.802
 9359SOL    HW228977   6.281   4.054   5.852
 9360SOL     OW28978   2.406   0.911   0.035
 9360SOL    HW128979   2.311   0.883   0.049
 9360SOL    HW228980   2.449   0.927   0.124
 9361SOL     OW28981   2.933   6.737   2.252
 9361SOL    HW128982   2.987   6.763   2.332
 9361SOL    HW228983   2.993   6.727   2.173
 9362SOL     OW28984   2.218   1.197   2.718
 9362SOL    HW128985   2.151   1.172   2.647
 9362SOL    HW228986   2.196   1.148   2.802
 9363SOL     OW28987   3.368   5.635   2.444
 9363SOL    HW128988   3.415   5.585   2.517
 9363SOL    HW228989   3.317   5.712   2.483
 9364SOL     OW28990   4.121   4.362   0.290
 9364SOL    HW128991   4.076   4.451   0.285
 9364SOL    HW228992   4.211   4.366   0.247
 9365SOL     OW28993   2.883   2.005   4.538
 9365SOL    HW128994   2.950   2.079   4.546
 9365SOL    HW228995   2.915   1.925   4.588
 9366SOL     OW28996   2.818   1.681   0.888
 9366SOL    HW128997   2.861   1.721   0.807
 9366SOL    HW228998   2.828   1.581   0.885
 9367SOL     OW28999   6.901   5.562   2.993
 9367SOL    HW129000   6.857   5.651   2.984
 9367SOL    HW229001   6.996   5.574   3.021
 9368SOL     OW29002   2.780   1.912   1.765
 9368SOL    HW129003   2.768   1.981   1.837
 9368SOL    HW229004   2.870   1.925   1.722
 9369SOL     OW29005   6.948   2.163   4.721
 9369SOL    HW129006   6.951   2.085   4.659
 9369SOL    HW229007   6.899   2.138   4.805
 9370SOL     OW29008   6.022   1.011   2.890
 9370SOL    HW129009   6.069   1.022   2.802
 9370SOL    HW229010   5.923   1.016   2.876
 9371SOL     OW29011   0.604   6.324   0.622
 9371SOL    HW129012   0.539   6.289   0.690
 9371SOL    HW229013   0.637   6.414   0.652
 9372SOL     OW29014   6.011   6.456   4.345
 9372SOL    HW129015   6.042   6.551   4.348
 9372SOL    HW229016   5.973   6.431   4.435
 9373SOL     OW29017   3.318   1.650   3.526
 9373SOL    HW129018   3.282   1.737   3.491
 9373SOL    HW229019   3.418   1.650   3.517
 9374SOL     OW29020   5.196   3.211   0.164
 9374SOL    HW129021   5.133   3.272   0.213
 9374SOL    HW229022   5.271   3.265   0.124
 9375SOL     OW29023   0.223   1.364   3.577
 9375SOL    HW129024   0.279   1.362   3.494
 9375SOL    HW229025   0.229   1.276   3.624
 9376SOL     OW29026   2.309   3.618   1.487
 9376SOL    HW129027   2.261   3.604   1.573
 9376SOL    HW229028   2.353   3.532   1.459
 9377SOL     OW29029   6.080   5.496   3.729
 9377SOL    HW129030   6.021   5.543   3.794
 9377SOL    HW229031   6.096   5.554   3.650
 9378SOL     OW29032   2.454   0.083   0.394
 9378SOL    HW129033   2.449   0.139   0.312
 9378SOL    HW229034   2.391   0.118   0.463
 9379SOL     OW29035   4.894   5.018   4.270
 9379SOL    HW129036   4.966   5.063   4.217
 9379SOL    HW229037   4.914   4.920   4.275
 9380SOL     OW29038   5.802   0.150   5.373
 9380SOL    HW129039   5.732   0.092   5.331
 9380SOL    HW229040   5.758   0.227   5.420
 9381SOL     OW29041   2.120   1.536   5.683
 9381SOL    HW129042   2.111   1.452   5.736
 9381SOL    HW229043   2.216   1.565   5.682
 9382SOL     OW29044   4.547   2.092   2.610
 9382SOL    HW129045   4.543   2.120   2.514
 9382SOL    HW229046   4.498   2.159   2.666
 9383SOL     OW29047   4.122   6.578   4.353
 9383SOL    HW129048   4.066   6.523   4.415
 9383SOL    HW229049   4.138   6.668   4.393
 9384SOL     OW29050   5.235   6.274   2.402
 9384SOL    HW129051   5.279   6.291   2.314
 9384SOL    HW229052   5.156   6.335   2.413
 9385SOL     OW29053   3.680   1.191   3.006
 9385SOL    HW129054   3.598   1.141   2.976
 9385SOL    HW229055   3.730   1.135   3.072
 9386SOL     OW29056   2.767   6.718   5.531
 9386SOL    HW129057   2.749   6.620   5.537
 9386SOL    HW229058   2.865   6.735   5.547
 9387SOL     OW29059   3.392   6.555   0.544
 9387SOL    HW129060   3.314   6.497   0.523
 9387SOL    HW229061   3.475   6.516   0.503
 9388SOL     OW29062   0.266   0.578   3.027
 9388SOL    HW129063   0.251   0.480   3.009
 9388SOL    HW229064   0.327   0.615   2.958
 9389SOL     OW29065   2.465   0.828   5.780
 9389SOL    HW129066   2.469   0.927   5.764
 9389SOL    HW229067   2.417   0.810   5.865
 9390SOL     OW29068   2.648   5.487   1.937
 9390SOL    HW129069   2.600   5.574   1.943
 9390SOL    HW229070   2.671   5.455   2.029
 9391SOL     OW29071   0.430   1.036   5.606
 9391SOL    HW129072   0.390   1.052   5.696
 9391SOL    HW229073   0.525   1.066   5.606
 9392SOL     OW29074   1.620   6.093   4.975
 9392SOL    HW129075   1.536   6.108   5.028
 9392SOL    HW229076   1.698   6.134   5.024
 9393SOL     OW29077   3.591   2.244   5.261
 9393SOL    HW129078   3.623   2.215   5.171
 9393SOL    HW229079   3.493   2.226   5.270
 9394SOL     OW29080   6.056   3.003   2.835
 9394SOL    HW129081   6.082   3.087   2.881
 9394SOL    HW229082   5.957   3.002   2.821
 9395SOL     OW29083   2.278   3.322   0.983
 9395SOL    HW129084   2.276   3.362   0.891
 9395SOL    HW229085   2.208   3.365   1.040
 9396SOL     OW29086   6.079   7.005   6.086
 9396SOL    HW129087   6.047   7.017   6.180
 9396SOL    HW229088   6.004   6.975   6.028
 9397SOL     OW29089   2.716   6.717   0.818
 9397SOL    HW129090   2.715   6.817   0.817
 9397SOL    HW229091   2.676   6.684   0.904
 9398SOL     OW29092   2.775   1.765   6.647
 9398SOL    HW129093   2.744   1.768   6.552
 9398SOL    HW229094   2.708   1.812   6.705
 9399SOL     OW29095   6.987   0.799   5.830
 9399SOL    HW129096   0.046   0.830   5.886
 9399SOL    HW229097   0.000   0.734   5.762
 9400SOL     OW29098   5.537   3.440   2.145
 9400SOL    HW129099   5.549   3.342   2.154
 9400SOL    HW229100   5.613   3.488   2.190
 9401SOL     OW29101   2.976   6.212   3.235
 9401SOL    HW129102   3.064   6.258   3.243
 9401SOL    HW229103   2.960   6.154   3.315
 9402SOL     OW29104   2.354   4.930   6.455
 9402SOL    HW129105   2.299   4.965   6.531
 9402SOL    HW229106   2.414   5.003   6.422
 9403SOL     OW29107   5.217   1.520   3.860
 9403SOL    HW129108   5.175   1.484   3.943
 9403SOL    HW229109   5.217   1.620   3.862
 9404SOL     OW29110   1.595   5.082   6.755
 9404SOL    HW129111   1.630   5.174   6.737
 9404SOL    HW229112   1.556   5.044   6.671
 9405SOL     OW29113   6.215   6.893   0.808
 9405SOL    HW129114   6.170   6.935   0.886
 9405SOL    HW229115   6.190   6.942   0.724
 9406SOL     OW29116   0.179   1.480   4.791
 9406SOL    HW129117   0.276   1.463   4.810
 9406SOL    HW229118   0.124   1.405   4.827
 9407SOL     OW29119   2.980   5.992   3.069
 9407SOL    HW129120   2.989   6.087   3.098
 9407SOL    HW229121   2.916   5.945   3.130
 9408SOL     OW29122   3.746   1.616   6.174
 9408SOL    HW129123   3.726   1.660   6.087
 9408SOL    HW229124   3.668   1.626   6.235
 9409SOL     OW29125   5.748   3.598   4.169
 9409SOL    HW129126   5.705   3.538   4.100
 9409SOL    HW229127   5.838   3.625   4.137
 9410SOL     OW29128   4.480   6.160   2.675
 9410SOL    HW129129   4.536   6.213   2.738
 9410SOL    HW229130   4.397   6.129   2.723
 9411SOL     OW29131   4.216   5.820   0.549
 9411SOL    HW129132   4.311   5.836   0.576
 9411SOL    HW229133   4.209   5.733   0.500
 9412SOL     OW29134   0.044   2.672   1.482
 9412SOL    HW129135   6.999   2.606   1.523
 9412SOL    HW229136   0.057   2.650   1.386
 9413SOL     OW29137   3.909   6.260   5.274
 9413SOL    HW129138   3.976   6.301   5.213
 9413SOL    HW229139   3.950   6.247   5.365
 9414SOL     OW29140   3.112   1.409   2.146
 9414SOL    HW129141   3.111   1.309   2.139
 9414SOL    HW229142   3.203   1.444   2.123
 9415SOL     OW29143   2.178   6.463   2.725
 9415SOL    HW129144   2.201   6.560   2.724
 9415SOL    HW229145   2.080   6.451   2.715
 9416SOL     OW29146   1.401   2.010   1.896
 9416SOL    HW129147   1.355   1.986   1.810
 9416SOL    HW229148   1.496   1.979   1.892
 9417SOL     OW29149   2.342   5.410   5.754
 9417SOL    HW129150   2.265   5.350   5.778
 9417SOL    HW229151   2.355   5.477   5.826
 9418SOL     OW29152   2.331   4.868   1.200
 9418SOL    HW129153   2.233   4.888   1.194
 9418SOL    HW229154   2.379   4.944   1.243
 9419SOL     OW29155   3.009   6.368   4.781
 9419SOL    HW129156   3.047   6.354   4.873
 9419SOL    HW229157   3.077   6.342   4.713
 9420SOL     OW29158   6.743   1.077   4.936
 9420SOL    HW129159   6.766   1.134   5.015
 9420SOL    HW229160   6.758   1.129   4.851
 9421SOL     OW29161   0.523   4.179   5.454
 9421SOL    HW129162   0.425   4.185   5.438
 9421SOL    HW229163   0.561   4.272   5.463
 9422SOL     OW29164   5.366   0.030   1.940
 9422SOL    HW129165   5.438   7.016   1.879
 9422SOL    HW229166   5.276   0.006   1.902
 9423SOL     OW29167   3.893   0.757   3.806
 9423SOL    HW129168   3.920   0.848   3.776
 9423SOL    HW229169   3.918   0.690   3.736
 9424SOL     OW29170   3.887   6.894   4.716
 9424SOL    HW129171   3.876   6.978   4.663
 9424SOL    HW229172   3.797   6.863   4.747
 9425SOL     OW29173   1.270   3.708   5.079
 9425SOL    HW129174   1.320   3.725   4.994
 9425SOL    HW229175   1.290   3.615   5.111
 9426SOL     OW29176   3.244   0.540   6.870
 9426SOL    HW129177   3.316   0.556   6.937
 9426SOL    HW229178   3.281   0.486   6.794
 9427SOL     OW29179   2.657   4.881   5.169
 9427SOL    HW129180   2.729   4.837   5.115
 9427SOL    HW229181   2.664   4.980   5.158
 9428SOL     OW29182   5.964   0.299   3.281
 9428SOL    HW129183   6.052   0.327   3.243
 9428SOL    HW229184   5.950   0.202   3.264
 9429SOL     OW29185   0.996   4.276   2.296
 9429SOL    HW129186   1.030   4.211   2.363
 9429SOL    HW229187   1.049   4.267   2.211
 9430SOL     OW29188   6.889   6.204   1.679
 9430SOL    HW129189   6.951   6.216   1.756
 9430SOL    HW229190   6.933   6.236   1.595
 9431SOL     OW29191   0.125   3.981   0.520
 9431SOL    HW129192   0.139   3.933   0.433
 9431SOL    HW229193   0.027   3.992   0.536
 9432SOL     OW29194   6.094   0.238   2.915
 9432SOL    HW129195   6.022   0.170   2.902
 9432SOL    HW229196   6.174   0.214   2.860
 9433SOL     OW29197   3.525   4.594   5.323
 9433SOL    HW129198   3.494   4.530   5.253
 9433SOL    HW229199   3.446   4.626   5.376
 9434SOL     OW29200   5.784   4.732   2.759
 9434SOL    HW129201   5.707   4.769   2.707
 9434SOL    HW229202   5.869   4.758   2.714
 9435SOL     OW29203   1.482   1.232   4.438
 9435SOL    HW129204   1.480   1.136   4.467
 9435SOL    HW229205   1.524   1.239   4.348
 9436SOL     OW29206   2.096   3.589   0.329
 9436SOL    HW129207   2.138   3.679   0.337
 9436SOL    HW229208   2.157   3.527   0.280
 9437SOL     OW29209   1.850   5.182   3.664
 9437SOL    HW129210   1.945   5.212   3.655
 9437SOL    HW229211   1.793   5.259   3.691
 9438SOL     OW29212   0.654   6.546   2.210
 9438SOL    HW129213   0.588   6.484   2.251
 9438SOL    HW229214   0.747   6.521   2.239
 9439SOL     OW29215   0.211   2.685   2.060
 9439SOL    HW129216   0.289   2.681   2.122
 9439SOL    HW229217   0.128   2.655   2.108
 9440SOL     OW29218   4.805   6.297   5.758
 9440SOL    HW129219   4.900   6.279   5.783
 9440SOL    HW229220   4.786   6.260   5.667
 9441SOL     OW29221   2.040   5.093   5.054
 9441SOL    HW129222   2.060   5.026   5.126
 9441SOL    HW229223   2.112   5.090   4.985
 9442SOL     OW29224   6.769   2.620   0.251
 9442SOL    HW129225   6.788   2.718   0.254
 9442SOL    HW229226   6.686   2.600   0.302
 9443SOL     OW29227   1.847   4.213   1.032
 9443SOL    HW129228   1.837   4.143   0.962
 9443SOL    HW229229   1.944   4.226   1.052
 9444SOL     OW29230   0.270   3.004   0.076
 9444SOL    HW129231   0.273   3.104   0.069
 9444SOL    HW229232   0.272   2.978   0.172
 9445SOL     OW29233   5.759   4.072   2.267
 9445SOL    HW129234   5.808   4.071   2.354
 9445SOL    HW229235   5.663   4.096   2.283
 9446SOL     OW29236   6.263   6.273   1.946
 9446SOL    HW129237   6.259   6.220   2.031
 9446SOL    HW229238   6.179   6.326   1.936
 9447SOL     OW29239   5.397   3.899   2.025
 9447SOL    HW129240   5.382   3.818   1.968
 9447SOL    HW229241   5.381   3.875   2.121
 9448SOL     OW29242   5.828   6.323   0.560
 9448SOL    HW129243   5.852   6.351   0.652
 9448SOL    HW229244   5.861   6.391   0.494
 9449SOL     OW29245   5.750   5.458   5.681
 9449SOL    HW129246   5.684   5.490   5.613
 9449SOL    HW229247   5.719   5.370   5.717
 9450SOL     OW29248   3.327   4.969   4.482
 9450SOL    HW129249   3.422   4.940   4.471
 9450SOL    HW229250   3.292   4.935   4.570
 9451SOL     OW29251   4.359   5.560   6.628
 9451SOL    HW129252   4.392   5.614   6.551
 9451SOL    HW229253   4.259   5.553   6.624
 9452SOL     OW29254   2.240   4.486   1.680
 9452SOL    HW129255   2.249   4.446   1.771
 9452SOL    HW229256   2.311   4.449   1.620
 9453SOL     OW29257   2.340   5.346   2.649
 9453SOL    HW129258   2.287   5.352   2.565
 9453SOL    HW229259   2.370   5.251   2.663
 9454SOL     OW29260   1.410   3.930   5.900
 9454SOL    HW129261   1.505   3.943   5.927
 9454SOL    HW229262   1.395   3.835   5.873
 9455SOL     OW29263   3.503   0.951   2.386
 9455SOL    HW129264   3.497   1.051   2.382
 9455SOL    HW229265   3.470   0.912   2.300
 9456SOL     OW29266   1.039   3.519   0.900
 9456SOL    HW129267   1.014   3.462   0.822
 9456SOL    HW229268   1.118   3.576   0.876
 9457SOL     OW29269   1.862   3.100   0.080
 9457SOL    HW129270   1.856   3.181   0.139
 9457SOL    HW229271   1.881   3.019   0.135
 9458SOL     OW29272   6.977   5.467   5.242
 9458SOL    HW129273   0.016   5.394   5.205
 9458SOL    HW229274   6.988   5.471   5.341
 9459SOL     OW29275   6.409   5.755   1.668
 9459SOL    HW129276   6.400   5.721   1.574
 9459SOL    HW229277   6.341   5.710   1.726
 9460SOL     OW29278   0.863   1.822   4.952
 9460SOL    HW129279   0.768   1.790   4.946
 9460SOL    HW229280   0.901   1.829   4.859
 9461SOL     OW29281   0.944   0.986   3.529
 9461SOL    HW129282   0.975   0.896   3.561
 9461SOL    HW229283   0.910   0.977   3.435
 9462SOL     OW29284   0.823   3.027   1.989
 9462SOL    HW129285   0.916   3.044   2.023
 9462SOL    HW229286   0.805   2.929   1.989
 9463SOL     OW29287   6.034   1.262   6.894
 9463SOL    HW129288   5.993   1.287   6.806
 9463SOL    HW229289   6.075   1.343   6.935
 9464SOL     OW29290   5.785   7.013   6.180
 9464SOL    HW129291   5.737   6.988   6.263
 9464SOL    HW229292   5.761   6.949   6.107
 9465SOL     OW29293   6.318   0.320   3.796
 9465SOL    HW129294   6.340   0.260   3.872
 9465SOL    HW229295   6.349   0.278   3.710
 9466SOL     OW29296   2.550   2.936   5.998
 9466SOL    HW129297   2.548   3.021   5.946
 9466SOL    HW229298   2.627   2.938   6.062
 9467SOL     OW29299   1.765   2.567   2.296
 9467SOL    HW129300   1.844   2.629   2.295
 9467SOL    HW229301   1.707   2.588   2.375
 9468SOL     OW29302   6.673   2.786   5.774
 9468SOL    HW129303   6.680   2.886   5.766
 9468SOL    HW229304   6.590   2.763   5.825
 9469SOL     OW29305   6.578   5.829   2.417
 9469SOL    HW129306   6.601   5.898   2.349
 9469SOL    HW229307   6.495   5.781   2.390
 9470SOL     OW29308   4.929   3.656   0.598
 9470SOL    HW129309   4.882   3.622   0.517
 9470SOL    HW229310   4.862   3.682   0.668
 9471SOL     OW29311   7.015   2.290   5.997
 9471SOL    HW129312   0.021   2.266   6.091
 9471SOL    HW229313   0.049   2.371   5.969
 9472SOL     OW29314   5.909   4.516   4.911
 9472SOL    HW129315   5.923   4.610   4.880
 9472SOL    HW229316   5.853   4.467   4.844
 9473SOL     OW29317   2.575   5.780   6.155
 9473SOL    HW129318   2.542   5.804   6.245
 9473SOL    HW229319   2.621   5.691   6.159
 9474SOL     OW29320   4.537   4.809   2.106
 9474SOL    HW129321   4.560   4.714   2.127
 9474SOL    HW229322   4.447   4.831   2.143
 9475SOL     OW29323   2.871   3.755   1.263
 9475SOL    HW129324   2.898   3.660   1.245
 9475SOL    HW229325   2.951   3.814   1.258
 9476SOL     OW29326   4.152   3.428   5.327
 9476SOL    HW129327   4.134   3.424   5.425
 9476SOL    HW229328   4.223   3.497   5.309
 9477SOL     OW29329   1.074   2.689   0.844
 9477SOL    HW129330   0.988   2.738   0.856
 9477SOL    HW229331   1.096   2.639   0.928
 9478SOL     OW29332   5.951   4.879   5.599
 9478SOL    HW129333   5.954   4.781   5.621
 9478SOL    HW229334   5.995   4.894   5.510
 9479SOL     OW29335   6.065   5.934   6.541
 9479SOL    HW129336   6.061   5.995   6.620
 9479SOL    HW229337   6.158   5.902   6.528
 9480SOL     OW29338   5.387   4.480   0.026
 9480SOL    HW129339   5.454   4.549   7.017
 9480SOL    HW229340   5.319   4.522   0.086
 9481SOL     OW29341   0.047   3.972   1.663
 9481SOL    HW129342   0.016   4.064   1.641
 9481SOL    HW229343   0.147   3.970   1.665
 9482SOL     OW29344   4.642   0.768   1.991
 9482SOL    HW129345   4.665   0.700   2.060
 9482SOL    HW229346   4.598   0.847   2.034
 9483SOL     OW29347   1.856   1.764   0.700
 9483SOL    HW129348   1.872   1.856   0.737
 9483SOL    HW229349   1.942   1.713   0.700
 9484SOL     OW29350   6.186   1.421   4.016
 9484SOL    HW129351   6.273   1.438   3.970
 9484SOL    HW229352   6.178   1.324   4.037
 9485SOL     OW29353   1.098   1.058   2.942
 9485SOL    HW129354   1.120   0.981   3.001
 9485SOL    HW229355   1.175   1.076   2.880
 9486SOL     OW29356   2.710   5.516   1.092
 9486SOL    HW129357   2.776   5.501   1.018
 9486SOL    HW229358   2.756   5.557   1.170
 9487SOL     OW29359   3.026   3.757   3.562
 9487SOL    HW129360   3.122   3.738   3.540
 9487SOL    HW229361   2.998   3.699   3.638
 9488SOL     OW29362   1.872   6.320   0.987
 9488SOL    HW129363   1.898   6.412   0.956
 9488SOL    HW229364   1.775   6.305   0.966
 9489SOL     OW29365   3.948   4.508   1.321
 9489SOL    HW129366   3.952   4.420   1.370
 9489SOL    HW229367   3.954   4.583   1.386
 9490SOL     OW29368   5.379   1.002   1.042
 9490SOL    HW129369   5.391   1.001   1.141
 9490SOL    HW229370   5.423   1.083   1.003
 9491SOL     OW29371   6.278   5.187   4.208
 9491SOL    HW129372   6.200   5.192   4.146
 9491SOL    HW229373   6.247   5.204   4.302
 9492SOL     OW29374   3.192   3.885   1.941
 9492SOL    HW129375   3.119   3.890   2.010
 9492SOL    HW229376   3.247   3.968   1.944
 9493SOL     OW29377   4.589   5.624   3.200
 9493SOL    HW129378   4.519   5.637   3.130
 9493SOL    HW229379   4.599   5.708   3.253
 9494SOL     OW29380   5.278   3.264   6.864
 9494SOL    HW129381   5.211   3.194   6.887
 9494SOL    HW229382   5.323   3.240   6.778
 9495SOL     OW29383   6.277   1.847   4.833
 9495SOL    HW129384   6.214   1.852   4.755
 9495SOL    HW229385   6.263   1.927   4.892
 9496SOL     OW29386   5.783   3.987   0.241
 9496SOL    HW129387   5.742   4.065   0.193
 9496SOL    HW229388   5.857   3.949   0.185
 9497SOL     OW29389   5.332   4.947   0.614
 9497SOL    HW129390   5.417   4.949   0.667
 9497SOL    HW229391   5.282   5.033   0.628
 9498SOL     OW29392   3.539   6.887   5.383
 9498SOL    HW129393   3.567   6.982   5.374
 9498SOL    HW229394   3.484   6.861   5.304
 9499SOL     OW29395   2.966   3.497   5.086
 9499SOL    HW129396   2.958   3.411   5.135
 9499SOL    HW229397   3.026   3.559   5.138
 9500SOL     OW29398   4.053   5.840   1.820
 9500SOL    HW129399   4.042   5.818   1.917
 9500SOL    HW229400   4.010   5.929   1.802
 9501SOL     OW29401   3.574   1.553   4.774
 9501SOL    HW129402   3.644   1.559   4.704
 9501SOL    HW229403   3.578   1.633   4.833
 9502SOL     OW29404   6.245   2.331   5.218
 9502SOL    HW129405   6.234   2.315   5.120
 9502SOL    HW229406   6.259   2.243   5.264
 9503SOL     OW29407   0.375   0.125   1.914
 9503SOL    HW129408   0.381   0.195   1.985
 9503SOL    HW229409   0.339   0.041   1.954
 9504SOL     OW29410   0.097   2.578   0.522
 9504SOL    HW129411   0.117   2.536   0.610
 9504SOL    HW229412   0.092   2.508   0.451
 9505SOL     OW29413   6.344   3.483   3.125
 9505SOL    HW129414   6.394   3.435   3.054
 9505SOL    HW229415   6.333   3.422   3.204
 9506SOL     OW29416   0.046   3.427   6.976
 9506SOL    HW129417   0.134   3.402   7.016
 9506SOL    HW229418   0.022   3.520   7.003
 9507SOL     OW29419   1.258   1.535   3.859
 9507SOL    HW129420   1.346   1.551   3.815
 9507SOL    HW229421   1.186   1.584   3.808
 9508SOL     OW29422   5.683   1.656   0.698
 9508SOL    HW129423   5.721   1.747   0.712
 9508SOL    HW229424   5.671   1.639   0.600
 9509SOL     OW29425   1.966   6.351   5.423
 9509SOL    HW129426   1.988   6.267   5.372
 9509SOL    HW229427   1.983   6.337   5.520
 9510SOL     OW29428   0.151   4.502   2.562
 9510SOL    HW129429   0.092   4.569   2.518
 9510SOL    HW229430   0.098   4.446   2.625
 9511SOL     OW29431   0.435   2.503   0.130
 9511SOL    HW129432   0.434   2.596   0.092
 9511SOL    HW229433   0.529   2.476   0.150
 9512SOL     OW29434   0.970   1.914   3.848
 9512SOL    HW129435   1.035   1.932   3.921
 9512SOL    HW229436   0.878   1.938   3.879
 9513SOL     OW29437   2.124   3.720   3.775
 9513SOL    HW129438   2.092   3.784   3.705
 9513SOL    HW229439   2.119   3.626   3.740
 9514SOL     OW29440   1.953   3.287   6.694
 9514SOL    HW129441   1.964   3.197   6.736
 9514SOL    HW229442   2.038   3.313   6.648
 9515SOL     OW29443   1.333   6.352   6.226
 9515SOL    HW129444   1.326   6.398   6.315
 9515SOL    HW229445   1.307   6.416   6.153
 9516SOL     OW29446   5.143   3.886   4.089
 9516SOL    HW129447   5.155   3.911   3.993
 9516SOL    HW229448   5.054   3.842   4.102
 9517SOL     OW29449   0.996   5.115   1.370
 9517SOL    HW129450   1.081   5.167   1.358
 9517SOL    HW229451   0.984   5.092   1.467
 9518SOL     OW29452   0.796   2.726   6.001
 9518SOL    HW129453   0.876   2.680   5.963
 9518SOL    HW229454   0.732   2.658   6.035
 9519SOL     OW29455   3.280   3.462   2.940
 9519SOL    HW129456   3.321   3.552   2.953
 9519SOL    HW229457   3.328   3.414   2.867
 9520SOL     OW29458   0.101   0.591   5.384
 9520SOL    HW129459   0.072   0.513   5.327
 9520SOL    HW229460   0.194   0.617   5.360
 9521SOL     OW29461   3.702   6.769   1.330
 9521SOL    HW129462   3.753   6.794   1.247
 9521SOL    HW229463   3.631   6.837   1.347
 9522SOL     OW29464   3.997   5.537   0.996
 9522SOL    HW129465   4.025   5.444   0.970
 9522SOL    HW229466   3.938   5.575   0.925
 9523SOL     OW29467   2.613   4.973   4.758
 9523SOL    HW129468   2.615   4.873   4.761
 9523SOL    HW229469   2.584   5.008   4.847
 9524SOL     OW29470   1.374   4.048   0.981
 9524SOL    HW129471   1.370   4.137   1.026
 9524SOL    HW229472   1.436   4.052   0.904
 9525SOL     OW29473   2.243   2.229   5.575
 9525SOL    HW129474   2.271   2.304   5.515
 9525SOL    HW229475   2.251   2.142   5.526
 9526SOL     OW29476   5.337   5.237   6.690
 9526SOL    HW129477   5.423   5.271   6.728
 9526SOL    HW229478   5.299   5.169   6.752
 9527SOL     OW29479   3.139   6.726   3.759
 9527SOL    HW129480   3.208   6.692   3.695
 9527SOL    HW229481   3.149   6.680   3.847
 9528SOL     OW29482   6.589   1.428   1.096
 9528SOL    HW129483   6.528   1.383   1.030
 9528SOL    HW229484   6.671   1.372   1.107
 9529SOL     OW29485   6.761   1.976   1.508
 9529SOL    HW129486   6.733   2.062   1.465
 9529SOL    HW229487   6.687   1.941   1.564
 9530SOL     OW29488   0.405   5.246   4.319
 9530SOL    HW129489   0.489   5.300   4.327
 9530SOL    HW229490   0.388   5.226   4.223
 9531SOL     OW29491   4.310   4.581   3.641
 9531SOL    HW129492   4.280   4.487   3.656
 9531SOL    HW229493   4.409   4.588   3.657
 9532SOL     OW29494   6.400   5.679   2.274
 9532SOL    HW129495   6.336   5.613   2.315
 9532SOL    HW229496   6.367   5.705   2.184
 9533SOL     OW29497   1.592   5.796   4.210
 9533SOL    HW129498   1.534   5.872   4.238
 9533SOL    HW229499   1.538   5.713   4.203
 9534SOL     OW29500   5.799   4.952   4.484
 9534SOL    HW129501   5.844   4.929   4.397
 9534SOL    HW229502   5.706   4.915   4.484
 9535SOL     OW29503   1.552   1.644   5.990
 9535SOL    HW129504   1.565   1.671   5.895
 9535SOL    HW229505   1.513   1.720   6.042
 9536SOL     OW29506   3.683   3.678   5.145
 9536SOL    HW129507   3.700   3.741   5.069
 9536SOL    HW229508   3.766   3.627   5.166
 9537SOL     OW29509   1.766   1.463   3.789
 9537SOL    HW129510   1.836   1.472   3.860
 9537SOL    HW229511   1.804   1.413   3.711
 9538SOL     OW29512   3.616   0.622   4.492
 9538SOL    HW129513   3.682   0.691   4.462
 9538SOL    HW229514   3.537   0.624   4.432
 9539SOL     OW29515   3.859   2.974   3.265
 9539SOL    HW129516   3.904   2.901   3.214
 9539SOL    HW229517   3.861   2.952   3.363
 9540SOL     OW29518   4.647   5.331   4.177
 9540SOL    HW129519   4.548   5.345   4.184
 9540SOL    HW229520   4.667   5.270   4.100
 9541SOL     OW29521   1.442   0.096   5.073
 9541SOL    HW129522   1.374   0.166   5.049
 9541SOL    HW229523   1.533   0.125   5.043
 9542SOL     OW29524   5.897   4.858   4.250
 9542SOL    HW129525   5.883   4.759   4.249
 9542SOL    HW229526   5.976   4.880   4.193
 9543SOL     OW29527   3.072   0.489   6.295
 9543SOL    HW129528   3.020   0.441   6.225
 9543SOL    HW229529   3.011   0.518   6.368
 9544SOL     OW29530   5.220   4.186   3.333
 9544SOL    HW129531   5.153   4.148   3.269
 9544SOL    HW229532   5.253   4.274   3.299
 9545SOL     OW29533   1.314   4.601   1.744
 9545SOL    HW129534   1.325   4.544   1.825
 9545SOL    HW229535   1.218   4.629   1.736
 9546SOL     OW29536   3.247   1.216   5.613
 9546SOL    HW129537   3.191   1.233   5.532
 9546SOL    HW229538   3.303   1.296   5.633
 9547SOL     OW29539   3.414   5.814   4.438
 9547SOL    HW129540   3.511   5.824   4.456
 9547SOL    HW229541   3.400   5.749   4.363
 9548SOL     OW29542   1.143   5.142   5.822
 9548SOL    HW129543   1.054   5.123   5.781
 9548SOL    HW229544   1.142   5.233   5.864
 9549SOL     OW29545   3.863   1.990   2.522
 9549SOL    HW129546   3.895   2.056   2.454
 9549SOL    HW229547   3.763   1.994   2.528
 9550SOL     OW29548   5.709   2.960   1.700
 9550SOL    HW129549   5.714   3.048   1.654
 9550SOL    HW229550   5.690   2.888   1.633
 9551SOL     OW29551   6.433   2.098   5.904
 9551SOL    HW129552   6.435   2.084   6.003
 9551SOL    HW229553   6.495   2.033   5.860
 9552SOL     OW29554   2.604   0.915   6.534
 9552SOL    HW129555   2.682   0.975   6.550
 9552SOL    HW229556   2.544   0.916   6.614
 9553SOL     OW29557   5.224   2.385   0.588
 9553SOL    HW129558   5.201   2.344   0.500
 9553SOL    HW229559   5.157   2.455   0.611
 9554SOL     OW29560   2.695   6.344   4.089
 9554SOL    HW129561   2.719   6.297   4.004
 9554SOL    HW229562   2.601   6.377   4.083
 9555SOL     OW29563   6.413   1.550   3.233
 9555SOL    HW129564   6.503   1.512   3.212
 9555SOL    HW229565   6.349   1.528   3.159
 9556SOL     OW29566   1.490   4.658   1.058
 9556SOL    HW129567   1.498   4.559   1.064
 9556SOL    HW229568   1.576   4.701   1.084
 9557SOL     OW29569   5.108   6.923   1.897
 9557SOL    HW129570   5.165   6.851   1.937
 9557SOL    HW229571   5.016   6.918   1.937
 9558SOL     OW29572   6.070   6.512   5.899
 9558SOL    HW129573   6.106   6.587   5.843
 9558SOL    HW229574   6.019   6.549   5.976
 9559SOL     OW29575   1.601   3.940   6.671
 9559SOL    HW129576   1.662   3.860   6.674
 9559SOL    HW229577   1.528   3.924   6.605
 9560SOL     OW29578   3.712   0.409   1.946
 9560SOL    HW129579   3.612   0.403   1.941
 9560SOL    HW229580   3.738   0.453   2.032
 9561SOL     OW29581   0.639   0.092   0.780
 9561SOL    HW129582   0.550   0.120   0.743
 9561SOL    HW229583   0.626   0.046   0.867
 9562SOL     OW29584   2.554   5.710   4.175
 9562SOL    HW129585   2.489   5.657   4.230
 9562SOL    HW229586   2.570   5.799   4.218
 9563SOL     OW29587   0.411   6.528   0.186
 9563SOL    HW129588   0.341   6.466   0.150
 9563SOL    HW229589   0.501   6.488   0.174
 9564SOL     OW29590   0.804   0.711   1.311
 9564SOL    HW129591   0.745   0.755   1.243
 9564SOL    HW229592   0.882   0.771   1.331
 9565SOL     OW29593   2.892   0.950   4.110
 9565SOL    HW129594   2.809   0.907   4.074
 9565SOL    HW229595   2.942   0.883   4.165
 9566SOL     OW29596   2.725   6.028   0.680
 9566SOL    HW129597   2.665   6.043   0.759
 9566SOL    HW229598   2.670   6.028   0.596
 9567SOL     OW29599   6.996   4.831   0.440
 9567SOL    HW129600   6.997   4.731   0.438
 9567SOL    HW229601   6.905   4.864   0.415
 9568SOL     OW29602   3.781   2.042   0.212
 9568SOL    HW129603   3.791   2.046   0.112
 9568SOL    HW229604   3.751   2.131   0.246
 9569SOL     OW29605   6.418   0.856   2.132
 9569SOL    HW129606   6.499   0.819   2.176
 9569SOL    HW229607   6.343   0.790   2.137
 9570SOL     OW29608   0.359   2.808   0.762
 9570SOL    HW129609   0.301   2.776   0.837
 9570SOL    HW229610   0.377   2.732   0.700
 9571SOL     OW29611   2.791   2.728   6.194
 9571SOL    HW129612   2.731   2.668   6.143
 9571SOL    HW229613   2.831   2.678   6.271
 9572SOL     OW29614   2.213   4.077   3.521
 9572SOL    HW129615   2.254   4.155   3.474
 9572SOL    HW229616   2.228   4.085   3.619
 9573SOL     OW29617   6.672   0.782   5.746
 9573SOL    HW129618   6.733   0.856   5.721
 9573SOL    HW229619   6.665   0.717   5.670
 9574SOL     OW29620   3.787   3.052   1.401
 9574SOL    HW129621   3.841   3.002   1.468
 9574SOL    HW229622   3.724   3.114   1.449
 9575SOL     OW29623   6.033   0.225   2.440
 9575SOL    HW129624   5.945   0.181   2.457
 9575SOL    HW229625   6.019   0.322   2.424
 9576SOL     OW29626   1.065   1.425   0.314
 9576SOL    HW129627   1.016   1.498   0.362
 9576SOL    HW229628   1.147   1.463   0.272
 9577SOL     OW29629   6.922   6.197   0.327
 9577SOL    HW129630   7.000   6.193   0.264
 9577SOL    HW229631   6.837   6.191   0.275
 9578SOL     OW29632   1.012   2.935   2.849
 9578SOL    HW129633   0.979   2.898   2.762
 9578SOL    HW229634   1.100   2.981   2.834
 9579SOL     OW29635   5.921   0.320   2.146
 9579SOL    HW129636   5.970   0.236   2.123
 9579SOL    HW229637   5.823   0.305   2.133
 9580SOL     OW29638   4.707   4.199   1.268
 9580SOL    HW129639   4.668   4.261   1.200
 9580SOL    HW229640   4.766   4.132   1.223
 9581SOL     OW29641   0.171   0.819   6.955
 9581SOL    HW129642   0.113   0.882   6.903
 9581SOL    HW229643   0.180   0.733   6.905
 9582SOL     OW29644   3.670   6.153   4.352
 9582SOL    HW129645   3.633   6.123   4.439
 9582SOL    HW229646   3.681   6.074   4.291
 9583SOL     OW29647   3.312   4.353   1.396
 9583SOL    HW129648   3.243   4.356   1.468
 9583SOL    HW229649   3.284   4.413   1.321
 9584SOL     OW29650   1.764   4.992   4.869
 9584SOL    HW129651   1.838   5.054   4.898
 9584SOL    HW229652   1.699   5.043   4.813
 9585SOL     OW29653   5.049   6.261   1.539
 9585SOL    HW129654   5.089   6.184   1.489
 9585SOL    HW229655   4.971   6.229   1.593
 9586SOL     OW29656   4.816   4.863   1.462
 9586SOL    HW129657   4.724   4.872   1.499
 9586SOL    HW229658   4.817   4.790   1.393
 9587SOL     OW29659   2.123   6.902   2.153
 9587SOL    HW129660   2.046   6.936   2.207
 9587SOL    HW229661   2.113   6.804   2.138
 9588SOL     OW29662   6.484   6.105   0.852
 9588SOL    HW129663   6.561   6.059   0.895
 9588SOL    HW229664   6.398   6.066   0.886
 9589SOL     OW29665   1.855   3.711   6.481
 9589SOL    HW129666   1.953   3.731   6.479
 9589SOL    HW229667   1.825   3.699   6.576
 9590SOL     OW29668   6.014   2.081   1.861
 9590SOL    HW129669   6.035   1.985   1.842
 9590SOL    HW229670   6.033   2.101   1.957
 9591SOL     OW29671   3.200   6.802   5.765
 9591SOL    HW129672   3.272   6.847   5.713
 9591SOL    HW229673   3.232   6.715   5.801
 9592SOL     OW29674   3.129   4.457   6.452
 9592SOL    HW129675   3.054   4.455   6.386
 9592SOL    HW229676   3.212   4.422   6.410
 9593SOL     OW29677   1.596   1.056   5.658
 9593SOL    HW129678   1.550   0.977   5.698
 9593SOL    HW229679   1.662   1.092   5.724
 9594SOL     OW29680   2.436   6.455   4.104
 9594SOL    HW129681   2.487   6.492   4.181
 9594SOL    HW229682   2.338   6.451   4.127
 9595SOL     OW29683   0.412   3.158   3.384
 9595SOL    HW129684   0.343   3.182   3.316
 9595SOL    HW229685   0.493   3.120   3.338
 9596SOL     OW29686   0.863   5.184   0.541
 9596SOL    HW129687   0.893   5.271   0.579
 9596SOL    HW229688   0.765   5.188   0.520
 9597SOL     OW29689   1.115   4.235   1.396
 9597SOL    HW129690   1.100   4.167   1.468
 9597SOL    HW229691   1.155   4.318   1.437
 9598SOL     OW29692   1.981   3.860   2.606
 9598SOL    HW129693   1.997   3.959   2.596
 9598SOL    HW229694   2.018   3.812   2.526
 9599SOL     OW29695   3.350   6.611   4.285
 9599SOL    HW129696   3.270   6.553   4.301
 9599SOL    HW229697   3.323   6.707   4.286
 9600SOL     OW29698   3.230   6.891   1.007
 9600SOL    HW129699   3.313   6.849   1.045
 9600SOL    HW229700   3.253   6.980   0.967
 9601SOL     OW29701   6.090   4.406   1.030
 9601SOL    HW129702   6.076   4.475   0.959
 9601SOL    HW229703   6.014   4.409   1.094
 9602SOL     OW29704   4.511   4.701   5.814
 9602SOL    HW129705   4.475   4.627   5.871
 9602SOL    HW229706   4.607   4.682   5.792
 9603SOL     OW29707   5.614   6.110   6.397
 9603SOL    HW129708   5.699   6.074   6.437
 9603SOL    HW229709   5.574   6.176   6.460
 9604SOL     OW29710   4.404   0.563   1.925
 9604SOL    HW129711   4.403   0.660   1.948
 9604SOL    HW229712   4.397   0.509   2.009
 9605SOL     OW29713   0.144   5.156   3.175
 9605SOL    HW129714   0.224   5.142   3.115
 9605SOL    HW229715   0.119   5.068   3.216
 9606SOL     OW29716   1.742   0.891   6.978
 9606SOL    HW129717   1.823   0.878   0.017
 9606SOL    HW229718   1.679   0.814   6.992
 9607SOL     OW29719   3.306   1.664   6.840
 9607SOL    HW129720   3.222   1.613   6.862
 9607SOL    HW229721   3.293   1.715   6.756
 9608SOL     OW29722   6.967   4.489   2.949
 9608SOL    HW129723   0.006   4.570   2.959
 9608SOL    HW229724   6.882   4.502   3.000
 9609SOL     OW29725   4.002   2.862   6.547
 9609SOL    HW129726   4.093   2.829   6.574
 9609SOL    HW229727   3.932   2.816   6.601
 9610SOL     OW29728   1.875   4.938   2.571
 9610SOL    HW129729   1.953   4.960   2.631
 9610SOL    HW229730   1.860   4.840   2.572
 9611SOL     OW29731   1.568   6.793   0.628
 9611SOL    HW129732   1.668   6.784   0.636
 9611SOL    HW229733   1.543   6.802   0.532
 9612SOL     OW29734   0.434   3.338   1.533
 9612SOL    HW129735   0.516   3.395   1.531
 9612SOL    HW229736   0.381   3.357   1.616
 9613SOL     OW29737   5.756   6.275   3.638
 9613SOL    HW129738   5.810   6.229   3.568
 9613SOL    HW229739   5.788   6.247   3.729
 9614SOL     OW29740   3.621   1.829   2.355
 9614SOL    HW129741   3.648   1.838   2.451
 9614SOL    HW229742   3.620   1.920   2.312
 9615SOL     OW29743   2.919   2.082   1.298
 9615SOL    HW129744   2.900   2.093   1.395
 9615SOL    HW229745   2.857   2.013   1.259
 9616SOL     OW29746   3.411   3.523   1.126
 9616SOL    HW129747   3.401   3.467   1.208
 9616SOL    HW229748   3.375   3.473   1.047
 9617SOL     OW29749   2.097   3.331   3.514
 9617SOL    HW129750   1.998   3.342   3.516
 9617SOL    HW229751   2.120   3.247   3.465
 9618SOL     OW29752   3.074   0.429   1.060
 9618SOL    HW129753   3.008   0.358   1.085
 9618SOL    HW229754   3.119   0.463   1.142
 9619SOL     OW29755   1.882   0.342   5.409
 9619SOL    HW129756   1.924   0.388   5.488
 9619SOL    HW229757   1.820   0.271   5.441
 9620SOL     OW29758   4.332   0.491   4.630
 9620SOL    HW129759   4.357   0.585   4.606
 9620SOL    HW229760   4.294   0.489   4.722
 9621SOL     OW29761   1.491   2.845   1.860
 9621SOL    HW129762   1.398   2.859   1.825
 9621SOL    HW229763   1.522   2.753   1.834
 9622SOL     OW29764   6.340   1.442   0.582
 9622SOL    HW129765   6.248   1.446   0.621
 9622SOL    HW229766   6.407   1.467   0.652
 9623SOL     OW29767   2.176   2.960   6.605
 9623SOL    HW129768   2.263   3.008   6.613
 9623SOL    HW229769   2.193   2.863   6.586
 9624SOL     OW29770   6.323   3.751   3.054
 9624SOL    HW129771   6.368   3.778   2.968
 9624SOL    HW229772   6.349   3.657   3.076
 9625SOL     OW29773   5.422   5.697   0.109
 9625SOL    HW129774   5.418   5.714   0.010
 9625SOL    HW229775   5.410   5.784   0.157
 9626SOL     OW29776   3.845   5.284   0.765
 9626SOL    HW129777   3.943   5.270   0.753
 9626SOL    HW229778   3.815   5.245   0.852
 9627SOL     OW29779   1.416   6.267   6.608
 9627SOL    HW129780   1.453   6.246   6.699
 9627SOL    HW229781   1.372   6.186   6.570
 9628SOL     OW29782   4.924   5.250   0.857
 9628SOL    HW129783   4.967   5.160   0.854
 9628SOL    HW229784   4.992   5.320   0.835
 9629SOL     OW29785   2.312   0.620   1.647
 9629SOL    HW129786   2.305   0.718   1.661
 9629SOL    HW229787   2.366   0.579   1.721
 9630SOL     OW29788   5.915   6.511   5.022
 9630SOL    HW129789   5.956   6.598   5.049
 9630SOL    HW229790   5.940   6.490   4.928
 9631SOL     OW29791   6.203   0.292   6.257
 9631SOL    HW129792   6.187   0.282   6.159
 9631SOL    HW229793   6.126   0.250   6.307
 9632SOL     OW29794   1.244   6.459   2.591
 9632SOL    HW129795   1.258   6.388   2.521
 9632SOL    HW229796   1.187   6.421   2.664
 9633SOL     OW29797   5.649   5.188   6.929
 9633SOL    HW129798   5.679   5.139   7.011
 9633SOL    HW229799   5.550   5.198   6.930
 9634SOL     OW29800   1.595   6.613   3.805
 9634SOL    HW129801   1.604   6.691   3.866
 9634SOL    HW229802   1.612   6.643   3.711
 9635SOL     OW29803   2.364   5.192   5.017
 9635SOL    HW129804   2.390   5.281   5.054
 9635SOL    HW229805   2.308   5.205   4.935
 9636SOL     OW29806   4.252   1.685   5.441
 9636SOL    HW129807   4.331   1.742   5.419
 9636SOL    HW229808   4.219   1.708   5.533
 9637SOL     OW29809   2.126   2.368   6.630
 9637SOL    HW129810   2.061   2.296   6.653
 9637SOL    HW229811   2.214   2.327   6.605
 9638SOL     OW29812   6.497   3.653   5.601
 9638SOL    HW129813   6.403   3.639   5.569
 9638SOL    HW229814   6.502   3.629   5.698
 9639SOL     OW29815   4.198   1.848   2.419
 9639SOL    HW129816   4.144   1.813   2.496
 9639SOL    HW229817   4.138   1.862   2.340
 9640SOL     OW29818   2.426   2.680   3.452
 9640SOL    HW129819   2.483   2.676   3.370
 9640SOL    HW229820   2.432   2.593   3.501
 9641SOL     OW29821   4.592   0.014   0.394
 9641SOL    HW129822   4.552   0.060   0.316
 9641SOL    HW229823   4.611   0.080   0.467
 9642SOL     OW29824   2.684   0.192   4.356
 9642SOL    HW129825   2.642   0.215   4.444
 9642SOL    HW229826   2.776   0.155   4.372
 9643SOL     OW29827   5.582   3.918   3.436
 9643SOL    HW129828   5.666   3.971   3.425
 9643SOL    HW229829   5.530   3.920   3.350
 9644SOL     OW29830   1.220   2.905   6.230
 9644SOL    HW129831   1.139   2.847   6.228
 9644SOL    HW229832   1.197   2.995   6.268
 9645SOL     OW29833   3.057   5.350   5.304
 9645SOL    HW129834   3.117   5.337   5.383
 9645SOL    HW229835   3.106   5.324   5.220
 9646SOL     OW29836   4.365   4.882   2.836
 9646SOL    HW129837   4.301   4.814   2.799
 9646SOL    HW229838   4.458   4.858   2.809
 9647SOL     OW29839   6.491   3.476   1.402
 9647SOL    HW129840   6.490   3.378   1.422
 9647SOL    HW229841   6.566   3.497   1.339
 9648SOL     OW29842   4.010   1.785   1.041
 9648SOL    HW129843   4.050   1.752   0.956
 9648SOL    HW229844   3.959   1.869   1.024
 9649SOL     OW29845   3.011   6.339   6.861
 9649SOL    HW129846   2.991   6.263   6.799
 9649SOL    HW229847   2.994   6.425   6.813
 9650SOL     OW29848   6.822   5.464   2.696
 9650SOL    HW129849   6.899   5.500   2.750
 9650SOL    HW229850   6.782   5.386   2.744
 9651SOL     OW29851   0.327   1.809   5.839
 9651SOL    HW129852   0.296   1.731   5.893
 9651SOL    HW229853   0.251   1.873   5.826
 9652SOL     OW29854   1.109   4.950   2.247
 9652SOL    HW129855   1.121   5.027   2.310
 9652SOL    HW229856   1.198   4.917   2.216
 9653SOL     OW29857   4.460   4.605   4.539
 9653SOL    HW129858   4.487   4.552   4.619
 9653SOL    HW229859   4.439   4.543   4.463
 9654SOL     OW29860   2.550   2.509   1.814
 9654SOL    HW129861   2.538   2.576   1.742
 9654SOL    HW229862   2.618   2.441   1.786
 9655SOL     OW29863   6.961   1.729   6.230
 9655SOL    HW129864   6.933   1.667   6.304
 9655SOL    HW229865   0.011   1.793   6.265
 9656SOL     OW29866   3.086   6.877   2.439
 9656SOL    HW129867   3.115   6.914   2.350
 9656SOL    HW229868   3.151   6.905   2.509
 9657SOL     OW29869   5.920   0.620   4.616
 9657SOL    HW129870   6.003   0.595   4.566
 9657SOL    HW229871   5.891   0.712   4.589
 9658SOL     OW29872   6.100   2.904   2.559
 9658SOL    HW129873   6.058   2.962   2.628
 9658SOL    HW229874   6.171   2.848   2.601
 9659SOL     OW29875   0.474   4.728   0.431
 9659SOL    HW129876   0.530   4.649   0.457
 9659SOL    HW229877   0.392   4.731   0.487
 9660SOL     OW29878   0.771   5.756   0.952
 9660SOL    HW129879   0.839   5.808   1.005
 9660SOL    HW229880   0.810   5.730   0.864
 9661SOL     OW29881   4.520   0.261   0.882
 9661SOL    HW129882   4.453   0.234   0.813
 9661SOL    HW229883   4.520   0.195   0.956
 9662SOL     OW29884   5.937   1.905   4.923
 9662SOL    HW129885   5.975   1.816   4.901
 9662SOL    HW229886   5.848   1.916   4.878
 9663SOL     OW29887   1.983   5.334   3.021
 9663SOL    HW129888   2.059   5.356   2.960
 9663SOL    HW229889   1.938   5.418   3.049
 9664SOL     OW29890   4.626   6.333   2.820
 9664SOL    HW129891   4.628   6.407   2.753
 9664SOL    HW229892   4.720   6.309   2.846
 9665SOL     OW29893   5.574   4.410   4.972
 9665SOL    HW129894   5.611   4.484   5.029
 9665SOL    HW229895   5.540   4.337   5.030
 9666SOL     OW29896   5.661   4.773   2.217
 9666SOL    HW129897   5.737   4.826   2.257
 9666SOL    HW229898   5.596   4.835   2.175
 9667SOL     OW29899   3.789   3.629   3.804
 9667SOL    HW129900   3.770   3.552   3.743
 9667SOL    HW229901   3.705   3.654   3.853
 9668SOL     OW29902   0.124   1.129   5.530
 9668SOL    HW129903   0.181   1.142   5.448
 9668SOL    HW229904   0.079   1.040   5.524
 9669SOL     OW29905   0.594   0.645   0.291
 9669SOL    HW129906   0.522   0.673   0.355
 9669SOL    HW229907   0.584   0.548   0.270
 9670SOL     OW29908   5.001   4.336   6.506
 9670SOL    HW129909   4.939   4.410   6.481
 9670SOL    HW229910   4.948   4.257   6.535
 9671SOL     OW29911   0.135   5.295   5.453
 9671SOL    HW129912   0.168   5.208   5.489
 9671SOL    HW229913   0.109   5.355   5.529
 9672SOL     OW29914   0.980   6.327   4.716
 9672SOL    HW129915   1.037   6.273   4.655
 9672SOL    HW229916   0.946   6.408   4.668
 9673SOL     OW29917   3.574   4.007   6.670
 9673SOL    HW129918   3.494   4.022   6.612
 9673SOL    HW229919   3.544   3.984   6.763
 9674SOL     OW29920   3.167   6.226   1.436
 9674SOL    HW129921   3.102   6.159   1.471
 9674SOL    HW229922   3.184   6.209   1.339
 9675SOL     OW29923   6.563   1.816   2.265
 9675SOL    HW129924   6.493   1.756   2.224
 9675SOL    HW229925   6.644   1.762   2.287
 9676SOL     OW29926   0.869   3.520   5.215
 9676SOL    HW129927   0.854   3.444   5.153
 9676SOL    HW229928   0.781   3.559   5.242
 9677SOL     OW29929   2.126   4.237   6.155
 9677SOL    HW129930   2.102   4.169   6.224
 9677SOL    HW229931   2.076   4.218   6.070
 9678SOL     OW29932   3.793   4.045   3.303
 9678SOL    HW129933   3.760   4.081   3.391
 9678SOL    HW229934   3.889   4.019   3.312
 9679SOL     OW29935   1.645   2.615   1.767
 9679SOL    HW129936   1.548   2.591   1.767
 9679SOL    HW229937   1.686   2.588   1.854
 9680SOL     OW29938   5.865   6.156   3.198
 9680SOL    HW129939   5.831   6.249   3.182
 9680SOL    HW229940   5.825   6.120   3.282
 9681SOL     OW29941   1.927   0.794   1.573
 9681SOL    HW129942   1.985   0.714   1.555
 9681SOL    HW229943   1.971   0.852   1.642
 9682SOL     OW29944   5.597   4.804   3.571
 9682SOL    HW129945   5.671   4.745   3.604
 9682SOL    HW229946   5.630   4.898   3.565
 9683SOL     OW29947   3.793   5.223   0.072
 9683SOL    HW129948   3.788   5.136   0.120
 9683SOL    HW229949   3.836   5.291   0.132
 9684SOL     OW29950   0.585   3.857   5.148
 9684SOL    HW129951   0.596   3.776   5.206
 9684SOL    HW229952   0.625   3.936   5.193
 9685SOL     OW29953   1.826   2.831   1.091
 9685SOL    HW129954   1.833   2.853   1.189
 9685SOL    HW229955   1.827   2.916   1.038
 9686SOL     OW29956   6.790   0.584   1.494
 9686SOL    HW129957   6.776   0.547   1.586
 9686SOL    HW229958   6.709   0.567   1.438
 9687SOL     OW29959   2.450   1.240   3.341
 9687SOL    HW129960   2.533   1.284   3.377
 9687SOL    HW229961   2.371   1.266   3.396
 9688SOL     OW29962   0.313   2.040   2.966
 9688SOL    HW129963   0.283   1.974   3.035
 9688SOL    HW229964   0.411   2.029   2.951
 9689SOL     OW29965   2.894   6.353   6.466
 9689SOL    HW129966   2.934   6.265   6.439
 9689SOL    HW229967   2.799   6.357   6.434
 9690SOL     OW29968   5.927   4.912   0.547
 9690SOL    HW129969   5.992   4.987   0.541
 9690SOL    HW229970   5.923   4.863   0.460
 9691SOL     OW29971   1.868   5.270   2.101
 9691SOL    HW129972   1.962   5.268   2.134
 9691SOL    HW229973   1.835   5.177   2.089
 9692SOL     OW29974   2.803   5.339   1.748
 9692SOL    HW129975   2.881   5.396   1.722
 9692SOL    HW229976   2.750   5.385   1.818
 9693SOL     OW29977   0.150   5.961   1.649
 9693SOL    HW129978   0.109   5.996   1.565
 9693SOL    HW229979   0.160   5.861   1.642
 9694SOL     OW29980   1.497   2.610   0.240
 9694SOL    HW129981   1.408   2.650   0.263
 9694SOL    HW229982   1.560   2.623   0.317
 9695SOL     OW29983   6.401   3.927   1.014
 9695SOL    HW129984   6.426   3.929   1.111
 9695SOL    HW229985   6.331   3.857   0.999
 9696SOL     OW29986   3.885   2.951   1.815
 9696SOL    HW129987   3.917   2.977   1.907
 9696SOL    HW229988   3.786   2.962   1.810
 9697SOL     OW29989   0.517   4.741   6.870
 9697SOL    HW129990   0.544   4.735   6.966
 9697SOL    HW229991   0.552   4.661   6.820
 9698SOL     OW29992   5.839   0.726   5.265
 9698SOL    HW129993   5.881   0.642   5.299
 9698SOL    HW229994   5.909   0.784   5.223
 9699SOL     OW29995   1.085   3.713   6.510
 9699SOL    HW129996   1.024   3.707   6.590
 9699SOL    HW229997   1.058   3.792   6.455
 9700SOL     OW29998   3.204   4.816   5.819
 9700SOL    HW129999   3.295   4.830   5.857
 9700SOL    HW230000   3.169   4.903   5.784
 9701SOL     OW30001   4.086   5.247   4.655
 9701SOL    HW130002   4.021   5.185   4.698
 9701SOL    HW230003   4.141   5.197   4.588
 9702SOL     OW30004   5.194   1.219   0.883
 9702SOL    HW130005   5.247   1.135   0.876
 9702SOL    HW230006   5.194   1.250   0.978
 9703SOL     OW30007   2.987   5.880   4.565
 9703SOL    HW130008   3.072   5.837   4.596
 9703SOL    HW230009   2.954   5.833   4.484
 9704SOL     OW30010   3.488   6.657   2.829
 9704SOL    HW130011   3.391   6.636   2.839
 9704SOL    HW230012   3.502   6.712   2.746
 9705SOL     OW30013   3.726   4.379   0.536
 9705SOL    HW130014   3.752   4.470   0.568
 9705SOL    HW230015   3.627   4.372   0.532
 9706SOL     OW30016   6.364   2.820   2.169
 9706SOL    HW130017   6.313   2.737   2.150
 9706SOL    HW230018   6.356   2.882   2.091
 9707SOL     OW30019   1.266   3.962   2.350
 9707SOL    HW130020   1.227   4.000   2.433
 9707SOL    HW230021   1.203   3.895   2.310
 9708SOL     OW30022   2.262   1.726   3.868
 9708SOL    HW130023   2.258   1.627   3.859
 9708SOL    HW230024   2.353   1.759   3.844
 9709SOL     OW30025   1.491   6.073   3.435
 9709SOL    HW130026   1.583   6.077   3.396
 9709SOL    HW230027   1.445   5.989   3.406
 9710SOL     OW30028   0.118   1.576   3.185
 9710SOL    HW130029   0.085   1.594   3.278
 9710SOL    HW230030   0.121   1.478   3.169
 9711SOL     OW30031   1.897   3.217   5.916
 9711SOL    HW130032   1.970   3.257   5.859
 9711SOL    HW230033   1.821   3.190   5.858
 9712SOL     OW30034   5.314   1.701   4.576
 9712SOL    HW130035   5.297   1.654   4.489
 9712SOL    HW230036   5.259   1.784   4.581
 9713SOL     OW30037   0.623   4.963   3.526
 9713SOL    HW130038   0.579   4.963   3.436
 9713SOL    HW230039   0.676   4.879   3.536
 9714SOL     OW30040   1.940   2.178   1.946
 9714SOL    HW130041   2.018   2.190   2.007
 9714SOL    HW230042   1.966   2.121   1.869
 9715SOL     OW30043   5.333   5.147   4.921
 9715SOL    HW130044   5.354   5.229   4.867
 9715SOL    HW230045   5.415   5.119   4.972
 9716SOL     OW30046   4.209   1.860   6.323
 9716SOL    HW130047   4.202   1.958   6.309
 9716SOL    HW230048   4.162   1.834   6.408
 9717SOL     OW30049   5.650   5.658   3.833
 9717SOL    HW130050   5.705   5.589   3.787
 9717SOL    HW230051   5.704   5.701   3.905
 9718SOL     OW30052   3.766   3.300   1.270
 9718SOL    HW130053   3.841   3.343   1.320
 9718SOL    HW230054   3.763   3.202   1.290
 9719SOL     OW30055   0.420   2.762   0.014
 9719SOL    HW130056   0.381   2.717   6.952
 9719SOL    HW230057   0.371   2.847   0.031
 9720SOL     OW30058   0.343   6.104   2.407
 9720SOL    HW130059   0.382   6.140   2.323
 9720SOL    HW230060   0.319   6.179   2.468
 9721SOL     OW30061   0.035   3.952   2.226
 9721SOL    HW130062   7.016   3.859   2.218
 9721SOL    HW230063   6.997   4.005   2.289
 9722SOL     OW30064   0.497   0.791   3.602
 9722SOL    HW130065   0.451   0.824   3.519
 9722SOL    HW230066   0.492   0.691   3.605
 9723SOL     OW30067   0.430   0.482   3.287
 9723SOL    HW130068   0.406   0.578   3.271
 9723SOL    HW230069   0.394   0.453   3.376
 9724SOL     OW30070   3.013   2.517   1.656
 9724SOL    HW130071   2.999   2.477   1.747
 9724SOL    HW230072   3.042   2.445   1.593
 9725SOL     OW30073   5.292   3.551   6.275
 9725SOL    HW130074   5.385   3.515   6.281
 9725SOL    HW230075   5.235   3.510   6.347
 9726SOL     OW30076   5.125   0.155   4.431
 9726SOL    HW130077   5.064   0.135   4.354
 9726SOL    HW230078   5.202   0.091   4.431
 9727SOL     OW30079   0.708   2.932   5.789
 9727SOL    HW130080   0.794   2.983   5.788
 9727SOL    HW230081   0.724   2.842   5.830
 9728SOL     OW30082   2.094   6.297   6.408
 9728SOL    HW130083   2.012   6.308   6.463
 9728SOL    HW230084   2.074   6.321   6.313
 9729SOL     OW30085   0.986   4.316   3.489
 9729SOL    HW130086   0.928   4.238   3.512
 9729SOL    HW230087   0.949   4.363   3.409
 9730SOL     OW30088   6.916   3.352   2.771
 9730SOL    HW130089   6.854   3.306   2.834
 9730SOL    HW230090   6.950   3.436   2.813
 9731SOL     OW30091   3.730   5.410   0.559
 9731SOL    HW130092   3.677   5.490   0.584
 9731SOL    HW230093   3.755   5.359   0.641
 9732SOL     OW30094   0.079   5.905   2.705
 9732SOL    HW130095   0.088   5.810   2.674
 9732SOL    HW230096   7.003   5.935   2.695
 9733SOL     OW30097   5.236   4.804   4.786
 9733SOL    HW130098   5.254   4.754   4.702
 9733SOL    HW230099   5.268   4.750   4.864
 9734SOL     OW30100   5.081   2.293   3.862
 9734SOL    HW130101   5.074   2.208   3.913
 9734SOL    HW230102   5.127   2.275   3.774
 9735SOL     OW30103   2.394   5.329   2.063
 9735SOL    HW130104   2.486   5.360   2.088
 9735SOL    HW230105   2.336   5.409   2.045
 9736SOL     OW30106   5.150   1.618   6.848
 9736SOL    HW130107   5.248   1.603   6.859
 9736SOL    HW230108   5.107   1.629   6.937
 9737SOL     OW30109   4.131   2.180   5.061
 9737SOL    HW130110   4.189   2.260   5.045
 9737SOL    HW230111   4.135   2.119   4.981
 9738SOL     OW30112   1.903   1.220   2.922
 9738SOL    HW130113   1.858   1.305   2.895
 9738SOL    HW230114   1.841   1.166   2.979
 9739SOL     OW30115   6.749   5.258   1.939
 9739SOL    HW130116   6.677   5.190   1.926
 9739SOL    HW230117   6.812   5.227   2.010
 9740SOL     OW30118   6.527   4.119   2.499
 9740SOL    HW130119   6.513   4.021   2.515
 9740SOL    HW230120   6.468   4.150   2.424
 9741SOL     OW30121   4.229   1.613   2.218
 9741SOL    HW130122   4.224   1.675   2.297
 9741SOL    HW230123   4.296   1.648   2.152
 9742SOL     OW30124   5.375   0.521   3.229
 9742SOL    HW130125   5.393   0.423   3.235
 9742SOL    HW230126   5.276   0.538   3.234
 9743SOL     OW30127   2.115   3.275   5.744
 9743SOL    HW130128   2.182   3.341   5.778
 9743SOL    HW230129   2.107   3.285   5.645
 9744SOL     OW30130   1.968   0.934   1.961
 9744SOL    HW130131   2.054   0.942   2.011
 9744SOL    HW230132   1.898   0.989   2.006
 9745SOL     OW30133   0.634   2.077   5.068
 9745SOL    HW130134   0.551   2.096   5.120
 9745SOL    HW230135   0.610   2.036   4.980
 9746SOL     OW30136   5.359   0.671   5.240
 9746SOL    HW130137   5.398   0.580   5.225
 9746SOL    HW230138   5.430   0.740   5.230
 9747SOL     OW30139   1.103   0.747   0.601
 9747SOL    HW130140   1.043   0.826   0.613
 9747SOL    HW230141   1.189   0.776   0.559
 9748SOL     OW30142   1.307   6.008   4.412
 9748SOL    HW130143   1.351   6.070   4.347
 9748SOL    HW230144   1.223   6.051   4.446
 9749SOL     OW30145   1.435   3.679   4.868
 9749SOL    HW130146   1.392   3.666   4.779
 9749SOL    HW230147   1.462   3.590   4.905
 9750SOL     OW30148   5.131   4.755   3.381
 9750SOL    HW130149   5.227   4.777   3.362
 9750SOL    HW230150   5.105   4.674   3.329
 9751SOL     OW30151   1.468   2.000   0.801
 9751SOL    HW130152   1.505   2.078   0.750
 9751SOL    HW230153   1.512   1.995   0.890
 9752SOL     OW30154   3.914   0.958   5.599
 9752SOL    HW130155   3.997   1.007   5.571
 9752SOL    HW230156   3.930   0.859   5.593
 9753SOL     OW30157   6.642   5.693   5.407
 9753SOL    HW130158   6.639   5.791   5.390
 9753SOL    HW230159   6.700   5.649   5.339
 9754SOL     OW30160   1.623   1.785   0.276
 9754SOL    HW130161   1.695   1.718   0.296
 9754SOL    HW230162   1.637   1.867   0.331
 9755SOL     OW30163   4.088   3.821   4.829
 9755SOL    HW130164   4.120   3.747   4.770
 9755SOL    HW230165   4.135   3.906   4.804
 9756SOL     OW30166   5.709   3.253   0.072
 9756SOL    HW130167   5.621   3.250   0.119
 9756SOL    HW230168   5.712   3.332   0.012
 9757SOL     OW30169   5.899   2.692   3.764
 9757SOL    HW130170   5.820   2.696   3.825
 9757SOL    HW230171   5.954   2.774   3.775
 9758SOL     OW30172   2.474   0.646   6.887
 9758SOL    HW130173   2.448   0.742   6.877
 9758SOL    HW230174   2.490   0.605   6.797
 9759SOL     OW30175   2.528   6.107   1.382
 9759SOL    HW130176   2.518   6.024   1.328
 9759SOL    HW230177   2.589   6.171   1.335
 9760SOL     OW30178   5.322   4.794   5.862
 9760SOL    HW130179   5.282   4.723   5.805
 9760SOL    HW230180   5.422   4.786   5.860
 9761SOL     OW30181   5.150   5.385   1.781
 9761SOL    HW130182   5.208   5.460   1.813
 9761SOL    HW230183   5.055   5.414   1.781
 9762SOL     OW30184   2.568   2.232   5.227
 9762SOL    HW130185   2.633   2.296   5.186
 9762SOL    HW230186   2.601   2.138   5.213
 9763SOL     OW30187   3.458   1.302   1.711
 9763SOL    HW130188   3.492   1.335   1.799
 9763SOL    HW230189   3.359   1.313   1.707
 9764SOL     OW30190   1.444   2.286   2.976
 9764SOL    HW130191   1.445   2.359   2.908
 9764SOL    HW230192   1.361   2.293   3.031
 9765SOL     OW30193   0.192   1.956   6.095
 9765SOL    HW130194   0.139   1.948   6.179
 9765SOL    HW230195   0.259   1.881   6.092
 9766SOL     OW30196   2.992   0.533   3.065
 9766SOL    HW130197   2.996   0.434   3.052
 9766SOL    HW230198   2.904   0.558   3.103
 9767SOL     OW30199   5.191   0.443   5.087
 9767SOL    HW130200   5.202   0.531   5.041
 9767SOL    HW230201   5.245   0.373   5.040
 9768SOL     OW30202   4.692   1.911   2.351
 9768SOL    HW130203   4.681   1.848   2.428
 9768SOL    HW230204   4.779   1.960   2.361
 9769SOL     OW30205   1.125   1.904   1.249
 9769SOL    HW130206   1.174   1.830   1.297
 9769SOL    HW230207   1.142   1.897   1.151
 9770SOL     OW30208   5.451   5.047   5.988
 9770SOL    HW130209   5.374   4.989   5.959
 9770SOL    HW230210   5.532   4.991   6.000
 9771SOL     OW30211   4.475   5.458   6.018
 9771SOL    HW130212   4.395   5.474   5.959
 9771SOL    HW230213   4.444   5.445   6.112
 9772SOL     OW30214   6.864   0.236   2.360
 9772SOL    HW130215   6.928   0.270   2.291
 9772SOL    HW230216   6.911   0.231   2.449
 9773SOL     OW30217   5.742   5.437   3.675
 9773SOL    HW130218   5.732   5.511   3.609
 9773SOL    HW230219   5.655   5.389   3.685
 9774SOL     OW30220   6.147   4.856   4.118
 9774SOL    HW130221   6.159   4.900   4.028
 9774SOL    HW230222   6.215   4.891   4.182
 9775SOL     OW30223   1.548   2.393   4.451
 9775SOL    HW130224   1.552   2.490   4.474
 9775SOL    HW230225   1.544   2.339   4.535
 9776SOL     OW30226   6.614   5.713   4.528
 9776SOL    HW130227   6.650   5.674   4.443
 9776SOL    HW230228   6.529   5.762   4.509
 9777SOL     OW30229   5.165   4.261   5.849
 9777SOL    HW130230   5.211   4.195   5.908
 9777SOL    HW230231   5.083   4.220   5.810
 9778SOL     OW30232   5.093   6.600   2.706
 9778SOL    HW130233   5.027   6.643   2.767
 9778SOL    HW230234   5.116   6.663   2.632
 9779SOL     OW30235   2.807   1.309   5.496
 9779SOL    HW130236   2.789   1.319   5.594
 9779SOL    HW230237   2.807   1.398   5.452
 9780SOL     OW30238   2.601   3.401   0.655
 9780SOL    HW130239   2.614   3.338   0.579
 9780SOL    HW230240   2.556   3.353   0.730
 9781SOL     OW30241   2.695   4.661   5.331
 9781SOL    HW130242   2.674   4.746   5.283
 9781SOL    HW230243   2.751   4.602   5.273
 9782SOL     OW30244   6.138   0.387   1.751
 9782SOL    HW130245   6.208   0.319   1.771
 9782SOL    HW230246   6.134   0.455   1.824
 9783SOL     OW30247   5.787   2.019   2.215
 9783SOL    HW130248   5.770   1.948   2.147
 9783SOL    HW230249   5.881   2.014   2.246
 9784SOL     OW30250   4.447   1.315   3.081
 9784SOL    HW130251   4.410   1.309   3.174
 9784SOL    HW230252   4.483   1.407   3.066
 9785SOL     OW30253   0.063   2.778   2.418
 9785SOL    HW130254   0.051   2.743   2.325
 9785SOL    HW230255   0.136   2.846   2.419
 9786SOL     OW30256   2.320   5.643   5.544
 9786SOL    HW130257   2.273   5.573   5.597
 9786SOL    HW230258   2.417   5.621   5.536
 9787SOL     OW30259   4.849   3.970   1.993
 9787SOL    HW130260   4.940   3.958   1.954
 9787SOL    HW230261   4.825   4.067   1.995
 9788SOL     OW30262   6.599   0.592   5.029
 9788SOL    HW130263   6.619   0.641   4.943
 9788SOL    HW230264   6.510   0.620   5.063
 9789SOL     OW30265   2.482   5.401   5.117
 9789SOL    HW130266   2.441   5.489   5.096
 9789SOL    HW230267   2.578   5.414   5.142
 9790SOL     OW30268   5.612   1.757   4.431
 9790SOL    HW130269   5.612   1.703   4.514
 9790SOL    HW230270   5.624   1.697   4.352
 9791SOL     OW30271   1.167   1.231   1.957
 9791SOL    HW130272   1.229   1.288   2.011
 9791SOL    HW230273   1.219   1.158   1.913
 9792SOL     OW30274   4.262   4.702   0.973
 9792SOL    HW130275   4.182   4.659   1.013
 9792SOL    HW230276   4.335   4.706   1.041
 9793SOL     OW30277   5.868   5.643   2.167
 9793SOL    HW130278   5.922   5.726   2.155
 9793SOL    HW230279   5.787   5.663   2.222
 9794SOL     OW30280   5.110   2.966   6.202
 9794SOL    HW130281   5.015   2.956   6.174
 9794SOL    HW230282   5.171   2.938   6.127
 9795SOL     OW30283   1.731   3.563   3.620
 9795SOL    HW130284   1.785   3.479   3.631
 9795SOL    HW230285   1.694   3.590   3.710
 9796SOL     OW30286   2.756   5.211   0.275
 9796SOL    HW130287   2.822   5.172   0.339
 9796SOL    HW230288   2.772   5.173   0.183
 9797SOL     OW30289   4.747   3.395   6.221
 9797SOL    HW130290   4.741   3.470   6.156
 9797SOL    HW230291   4.817   3.330   6.192
 9798SOL     OW30292   2.864   1.026   0.947
 9798SOL    HW130293   2.890   1.035   1.043
 9798SOL    HW230294   2.947   1.026   0.890
 9799SOL     OW30295   2.866   3.402   2.614
 9799SOL    HW130296   2.931   3.383   2.688
 9799SOL    HW230297   2.774   3.408   2.651
 9800SOL     OW30298   4.416   5.282   6.650
 9800SOL    HW130299   4.423   5.382   6.646
 9800SOL    HW230300   4.334   5.257   6.702
 9801SOL     OW30301   3.782   6.128   6.527
 9801SOL    HW130302   3.743   6.095   6.613
 9801SOL    HW230303   3.882   6.131   6.535
 9802SOL     OW30304   0.463   3.540   1.050
 9802SOL    HW130305   0.480   3.501   1.140
 9802SOL    HW230306   0.409   3.477   0.995
 9803SOL     OW30307   6.038   0.512   6.778
 9803SOL    HW130308   5.948   0.520   6.821
 9803SOL    HW230309   6.099   0.581   6.817
 9804SOL     OW30310   6.158   5.276   4.436
 9804SOL    HW130311   6.185   5.369   4.410
 9804SOL    HW230312   6.140   5.273   4.535
 9805SOL     OW30313   1.665   5.542   0.096
 9805SOL    HW130314   1.764   5.553   0.102
 9805SOL    HW230315   1.643   5.450   0.065
 9806SOL     OW30316   0.345   2.571   2.537
 9806SOL    HW130317   0.365   2.632   2.614
 9806SOL    HW230318   0.283   2.498   2.568
 9807SOL     OW30319   4.017   2.403   0.108
 9807SOL    HW130320   4.018   2.350   0.193
 9807SOL    HW230321   3.922   2.420   0.080
 9808SOL     OW30322   0.216   1.791   4.345
 9808SOL    HW130323   0.137   1.828   4.394
 9808SOL    HW230324   0.208   1.691   4.341
 9809SOL     OW30325   0.276   1.487   4.308
 9809SOL    HW130326   0.227   1.447   4.386
 9809SOL    HW230327   0.374   1.480   4.325
 9810SOL     OW30328   3.045   0.983   3.233
 9810SOL    HW130329   2.955   0.943   3.214
 9810SOL    HW230330   3.068   1.049   3.162
 9811SOL     OW30331   6.781   6.774   2.951
 9811SOL    HW130332   6.746   6.797   3.042
 9811SOL    HW230333   6.836   6.849   2.917
 9812SOL     OW30334   4.882   2.422   6.003
 9812SOL    HW130335   4.946   2.377   6.065
 9812SOL    HW230336   4.903   2.520   5.999
 9813SOL     OW30337   6.760   4.583   0.284
 9813SOL    HW130338   6.817   4.615   0.208
 9813SOL    HW230339   6.668   4.563   0.250
 9814SOL     OW30340   0.021   7.014   5.940
 9814SOL    HW130341   6.985   0.026   6.018
 9814SOL    HW230342   0.116   0.024   5.953
 9815SOL     OW30343   5.622   3.357   1.805
 9815SOL    HW130344   5.708   3.346   1.855
 9815SOL    HW230345   5.598   3.454   1.803
 9816SOL     OW30346   6.366   0.226   6.881
 9816SOL    HW130347   6.373   0.158   6.954
 9816SOL    HW230348   6.425   0.304   6.903
 9817SOL     OW30349   3.247   6.022   0.127
 9817SOL    HW130350   3.208   5.957   0.061
 9817SOL    HW230351   3.180   6.094   0.147
 9818SOL     OW30352   0.909   6.834   3.886
 9818SOL    HW130353   0.970   6.787   3.950
 9818SOL    HW230354   0.950   6.922   3.860
 9819SOL     OW30355   6.354   3.815   5.196
 9819SOL    HW130356   6.284   3.883   5.218
 9819SOL    HW230357   6.327   3.765   5.114
 9820SOL     OW30358   3.585   1.941   6.554
 9820SOL    HW130359   3.511   1.991   6.600
 9820SOL    HW230360   3.667   1.999   6.552
 9821SOL     OW30361   4.430   2.685   1.783
 9821SOL    HW130362   4.430   2.779   1.748
 9821SOL    HW230363   4.426   2.621   1.707
 9822SOL     OW30364   3.313   6.278   5.228
 9822SOL    HW130365   3.225   6.267   5.182
 9822SOL    HW230366   3.298   6.294   5.325
 9823SOL     OW30367   1.674   0.602   3.253
 9823SOL    HW130368   1.740   0.598   3.329
 9823SOL    HW230369   1.678   0.516   3.202
 9824SOL     OW30370   0.828   5.892   5.213
 9824SOL    HW130371   0.746   5.900   5.269
 9824SOL    HW230372   0.850   5.982   5.175
 9825SOL     OW30373   5.352   6.011   6.304
 9825SOL    HW130374   5.290   6.083   6.273
 9825SOL    HW230375   5.446   6.044   6.298
 9826SOL     OW30376   2.387   6.667   5.780
 9826SOL    HW130377   2.308   6.702   5.730
 9826SOL    HW230378   2.420   6.584   5.736
 9827SOL     OW30379   1.601   5.665   1.858
 9827SOL    HW130380   1.661   5.745   1.867
 9827SOL    HW230381   1.599   5.615   1.944
 9828SOL     OW30382   3.631   2.078   5.030
 9828SOL    HW130383   3.713   2.125   4.997
 9828SOL    HW230384   3.626   1.987   4.990
 9829SOL     OW30385   4.672   5.365   5.288
 9829SOL    HW130386   4.756   5.351   5.340
 9829SOL    HW230387   4.694   5.378   5.192
 9830SOL     OW30388   5.986   2.335   2.341
 9830SOL    HW130389   6.009   2.275   2.417
 9830SOL    HW230390   6.027   2.425   2.357
 9831SOL     OW30391   0.447   3.920   2.062
 9831SOL    HW130392   0.441   3.869   2.148
 9831SOL    HW230393   0.497   4.005   2.078
 9832SOL     OW30394   4.543   4.526   4.784
 9832SOL    HW130395   4.477   4.520   4.858
 9832SOL    HW230396   4.579   4.436   4.763
 9833SOL     OW30397   3.421   4.089   4.085
 9833SOL    HW130398   3.500   4.099   4.026
 9833SOL    HW230399   3.338   4.113   4.035
 9834SOL     OW30400   2.131   5.573   5.329
 9834SOL    HW130401   2.202   5.556   5.397
 9834SOL    HW230402   2.117   5.490   5.274
 9835SOL     OW30403   3.526   4.149   4.351
 9835SOL    HW130404   3.480   4.131   4.264
 9835SOL    HW230405   3.461   4.188   4.416
 9836SOL     OW30406   0.192   3.634   5.441
 9836SOL    HW130407   0.179   3.547   5.489
 9836SOL    HW230408   0.284   3.669   5.460
 9837SOL     OW30409   5.384   2.253   2.793
 9837SOL    HW130410   5.435   2.262   2.708
 9837SOL    HW230411   5.322   2.174   2.787
 9838SOL     OW30412   1.077   6.980   1.657
 9838SOL    HW130413   1.003   7.013   1.716
 9838SOL    HW230414   1.056   6.889   1.624
 9839SOL     OW30415   4.329   0.764   2.715
 9839SOL    HW130416   4.332   0.684   2.775
 9839SOL    HW230417   4.420   0.781   2.678
 9840SOL     OW30418   5.896   1.093   0.054
 9840SOL    HW130419   5.846   1.161   0.108
 9840SOL    HW230420   5.961   1.139   7.013
 9841SOL     OW30421   0.333   6.406   4.147
 9841SOL    HW130422   0.357   6.360   4.061
 9841SOL    HW230423   0.388   6.489   4.156
 9842SOL     OW30424   2.685   2.120   6.759
 9842SOL    HW130425   2.678   2.161   6.668
 9842SOL    HW230426   2.775   2.141   6.798
 9843SOL     OW30427   0.853   0.207   1.227
 9843SOL    HW130428   0.788   0.283   1.231
 9843SOL    HW230429   0.818   0.131   1.281
 9844SOL     OW30430   5.229   6.932   4.008
 9844SOL    HW130431   5.219   6.834   4.026
 9844SOL    HW230432   5.295   6.971   4.072
 9845SOL     OW30433   1.784   3.624   1.377
 9845SOL    HW130434   1.801   3.569   1.459
 9845SOL    HW230435   1.696   3.670   1.386
 9846SOL     OW30436   5.569   1.940   0.636
 9846SOL    HW130437   5.637   1.943   0.564
 9846SOL    HW230438   5.488   1.993   0.608
 9847SOL     OW30439   4.145   3.840   0.373
 9847SOL    HW130440   4.205   3.878   0.443
 9847SOL    HW230441   4.171   3.877   0.283
 9848SOL     OW30442   3.452   3.610   5.264
 9848SOL    HW130443   3.531   3.658   5.225
 9848SOL    HW230444   3.385   3.593   5.192
 9849SOL     OW30445   0.868   1.483   4.758
 9849SOL    HW130446   0.778   1.497   4.716
 9849SOL    HW230447   0.857   1.449   4.851
 9850SOL     OW30448   0.719   0.408   4.641
 9850SOL    HW130449   0.752   0.421   4.547
 9850SOL    HW230450   0.626   0.371   4.638
 9851SOL     OW30451   3.858   4.963   4.449
 9851SOL    HW130452   3.957   4.968   4.456
 9851SOL    HW230453   3.832   4.915   4.365
 9852SOL     OW30454   2.111   0.926   0.464
 9852SOL    HW130455   2.161   0.931   0.551
 9852SOL    HW230456   2.132   1.007   0.409
 9853SOL     OW30457   6.767   4.423   4.021
 9853SOL    HW130458   6.756   4.332   3.979
 9853SOL    HW230459   6.677   4.458   4.048
 9854SOL     OW30460   1.024   5.025   6.135
 9854SOL    HW130461   0.926   5.029   6.119
 9854SOL    HW230462   1.066   4.963   6.069
 9855SOL     OW30463   1.618   4.638   1.506
 9855SOL    HW130464   1.641   4.563   1.569
 9855SOL    HW230465   1.619   4.604   1.412
 9856SOL     OW30466   5.813   4.055   3.359
 9856SOL    HW130467   5.801   4.013   3.269
 9856SOL    HW230468   5.859   4.143   3.349
 9857SOL     OW30469   3.830   0.784   4.421
 9857SOL    HW130470   3.846   0.878   4.451
 9857SOL    HW230471   3.917   0.735   4.417
 9858SOL     OW30472   6.771   6.769   2.245
 9858SOL    HW130473   6.672   6.765   2.257
 9858SOL    HW230474   6.812   6.682   2.274
 9859SOL     OW30475   6.726   5.724   3.419
 9859SOL    HW130476   6.817   5.726   3.378
 9859SOL    HW230477   6.731   5.754   3.514
 9860SOL     OW30478   1.306   3.163   4.525
 9860SOL    HW130479   1.319   3.216   4.441
 9860SOL    HW230480   1.343   3.214   4.602
 9861SOL     OW30481   3.639   1.418   4.193
 9861SOL    HW130482   3.729   1.449   4.162
 9861SOL    HW230483   3.610   1.339   4.139
 9862SOL     OW30484   1.226   4.930   0.646
 9862SOL    HW130485   1.160   4.944   0.720
 9862SOL    HW230486   1.202   4.989   0.569
 9863SOL     OW30487   3.630   6.237   0.479
 9863SOL    HW130488   3.613   6.204   0.386
 9863SOL    HW230489   3.552   6.216   0.537
 9864SOL     OW30490   2.594   5.614   5.509
 9864SOL    HW130491   2.625   5.545   5.443
 9864SOL    HW230492   2.657   5.692   5.507
 9865SOL     OW30493   0.389   5.923   5.484
 9865SOL    HW130494   0.457   5.946   5.553
 9865SOL    HW230495   0.316   5.870   5.525
 9866SOL     OW30496   5.994   5.075   4.757
 9866SOL    HW130497   6.093   5.088   4.759
 9866SOL    HW230498   5.956   5.094   4.848
 9867SOL     OW30499   4.482   2.212   1.872
 9867SOL    HW130500   4.565   2.173   1.913
 9867SOL    HW230501   4.468   2.305   1.906
 9868SOL     OW30502   1.917   4.192   3.384
 9868SOL    HW130503   1.820   4.171   3.394
 9868SOL    HW230504   1.964   4.179   3.471
 9869SOL     OW30505   6.813   2.419   0.603
 9869SOL    HW130506   6.745   2.475   0.651
 9869SOL    HW230507   6.896   2.473   0.587
 9870SOL     OW30508   2.701   1.228   2.730
 9870SOL    HW130509   2.755   1.236   2.646
 9870SOL    HW230510   2.672   1.133   2.741
 9871SOL     OW30511   0.016   4.280   4.847
 9871SOL    HW130512   0.109   4.318   4.848
 9871SOL    HW230513   0.021   4.182   4.866
 9872SOL     OW30514   1.395   5.049   5.765
 9872SOL    HW130515   1.311   5.093   5.795
 9872SOL    HW230516   1.413   5.074   5.670
 9873SOL     OW30517   1.088   1.315   5.905
 9873SOL    HW130518   1.168   1.374   5.919
 9873SOL    HW230519   1.036   1.348   5.826
 9874SOL     OW30520   0.837   2.510   4.820
 9874SOL    HW130521   0.784   2.541   4.899
 9874SOL    HW230522   0.843   2.584   4.753
 9875SOL     OW30523   6.548   5.210   0.512
 9875SOL    HW130524   6.633   5.214   0.458
 9875SOL    HW230525   6.524   5.303   0.542
 9876SOL     OW30526   1.427   6.730   3.411
 9876SOL    HW130527   1.490   6.730   3.488
 9876SOL    HW230528   1.355   6.662   3.427
 9877SOL     OW30529   0.696   5.398   4.893
 9877SOL    HW130530   0.601   5.425   4.879
 9877SOL    HW230531   0.746   5.405   4.807
 9878SOL     OW30532   2.409   2.663   6.785
 9878SOL    HW130533   2.424   2.655   6.686
 9878SOL    HW230534   2.318   2.702   6.801
 9879SOL     OW30535   6.772   5.012   6.347
 9879SOL    HW130536   6.794   5.016   6.249
 9879SOL    HW230537   6.698   5.077   6.366
 9880SOL     OW30538   3.031   1.279   6.837
 9880SOL    HW130539   3.113   1.293   6.892
 9880SOL    HW230540   2.963   1.349   6.858
 9881SOL     OW30541   5.884   0.615   4.193
 9881SOL    HW130542   5.894   0.651   4.101
 9881SOL    HW230543   5.813   0.665   4.242
 9882SOL     OW30544   3.331   2.861   4.968
 9882SOL    HW130545   3.275   2.779   4.983
 9882SOL    HW230546   3.410   2.859   5.029
 9883SOL     OW30547   2.306   6.850   1.808
 9883SOL    HW130548   2.375   6.866   1.737
 9883SOL    HW230549   2.273   6.938   1.843
 9884SOL     OW30550   2.587   3.684   5.480
 9884SOL    HW130551   2.639   3.610   5.438
 9884SOL    HW230552   2.629   3.772   5.456
 9885SOL     OW30553   5.565   2.579   4.353
 9885SOL    HW130554   5.617   2.506   4.309
 9885SOL    HW230555   5.549   2.556   4.449
 9886SOL     OW30556   4.107   6.118   1.072
 9886SOL    HW130557   4.044   6.047   1.040
 9886SOL    HW230558   4.086   6.204   1.026
 9887SOL     OW30559   3.399   0.046   6.483
 9887SOL    HW130560   3.336   0.124   6.487
 9887SOL    HW230561   3.458   0.048   6.564
 9888SOL     OW30562   6.098   5.961   2.709
 9888SOL    HW130563   6.175   5.925   2.657
 9888SOL    HW230564   6.052   5.886   2.757
 9889SOL     OW30565   6.774   5.464   3.236
 9889SOL    HW130566   6.836   5.474   3.158
 9889SOL    HW230567   6.824   5.480   3.321
 9890SOL     OW30568   0.012   4.149   1.957
 9890SOL    HW130569   0.063   4.125   1.875
 9890SOL    HW230570   0.051   4.102   2.036
 9891SOL     OW30571   5.770   5.269   0.991
 9891SOL    HW130572   5.715   5.207   1.048
 9891SOL    HW230573   5.821   5.215   0.924
 9892SOL     OW30574   2.004   4.574   4.218
 9892SOL    HW130575   1.958   4.622   4.143
 9892SOL    HW230576   2.099   4.603   4.223
 9893SOL     OW30577   5.148   5.234   3.812
 9893SOL    HW130578   5.186   5.326   3.812
 9893SOL    HW230579   5.090   5.222   3.732
 9894SOL     OW30580   4.375   3.256   6.102
 9894SOL    HW130581   4.419   3.333   6.057
 9894SOL    HW230582   4.286   3.286   6.139
 9895SOL     OW30583   5.137   2.227   6.611
 9895SOL    HW130584   5.198   2.293   6.654
 9895SOL    HW230585   5.176   2.135   6.618
 9896SOL     OW30586   4.153   4.166   0.696
 9896SOL    HW130587   4.179   4.079   0.654
 9896SOL    HW230588   4.088   4.213   0.637
 9897SOL     OW30589   6.122   2.038   3.645
 9897SOL    HW130590   6.163   2.009   3.558
 9897SOL    HW230591   6.059   2.114   3.628
 9898SOL     OW30592   1.053   5.034   5.379
 9898SOL    HW130593   1.135   5.089   5.360
 9898SOL    HW230594   0.989   5.088   5.434
 9899SOL     OW30595   5.334   5.566   1.757
 9899SOL    HW130596   5.399   5.541   1.685
 9899SOL    HW230597   5.305   5.661   1.744
 9900SOL     OW30598   1.366   3.542   3.791
 9900SOL    HW130599   1.424   3.607   3.743
 9900SOL    HW230600   1.325   3.479   3.726
 9901SOL     OW30601   3.323   2.241   5.396
 9901SOL    HW130602   3.262   2.276   5.324
 9901SOL    HW230603   3.355   2.317   5.453
 9902SOL     OW30604   4.662   3.859   0.153
 9902SOL    HW130605   4.621   3.808   0.077
 9902SOL    HW230606   4.746   3.813   0.182
 9903SOL     OW30607   3.809   1.587   1.778
 9903SOL    HW130608   3.731   1.649   1.784
 9903SOL    HW230609   3.793   1.521   1.704
 9904SOL     OW30610   6.795   0.803   2.044
 9904SOL    HW130611   6.754   0.791   2.134
 9904SOL    HW230612   6.723   0.819   1.976
 9905SOL     OW30613   1.188   6.986   5.069
 9905SOL    HW130614   1.184   6.889   5.047
 9905SOL    HW230615   1.280   0.002   5.052
 9906SOL     OW30616   2.957   3.124   6.324
 9906SOL    HW130617   2.961   3.219   6.354
 9906SOL    HW230618   3.024   3.108   6.251
 9907SOL     OW30619   2.258   6.505   3.009
 9907SOL    HW130620   2.251   6.601   3.036
 9907SOL    HW230621   2.227   6.494   2.915
 9908SOL     OW30622   1.454   3.447   5.726
 9908SOL    HW130623   1.540   3.437   5.774
 9908SOL    HW230624   1.389   3.378   5.759
 9909SOL     OW30625   3.933   6.886   2.981
 9909SOL    HW130626   3.853   6.836   2.948
 9909SOL    HW230627   4.013   6.826   2.977
 9910SOL     OW30628   0.126   3.803   1.413
 9910SOL    HW130629   0.028   3.782   1.413
 9910SOL    HW230630   0.142   3.889   1.365
 9911SOL     OW30631   3.424   5.334   3.295
 9911SOL    HW130632   3.415   5.403   3.224
 9911SOL    HW230633   3.342   5.277   3.297
 9912SOL     OW30634   5.015   0.220   1.610
 9912SOL    HW130635   4.966   0.268   1.683
 9912SOL    HW230636   5.067   0.286   1.556
 9913SOL     OW30637   4.713   1.857   2.898
 9913SOL    HW130638   4.700   1.838   2.995
 9913SOL    HW230639   4.809   1.843   2.874
 9914SOL     OW30640   1.710   6.812   4.872
 9914SOL    HW130641   1.621   6.836   4.833
 9914SOL    HW230642   1.782   6.868   4.830
 9915SOL     OW30643   5.242   3.742   4.706
 9915SOL    HW130644   5.332   3.782   4.720
 9915SOL    HW230645   5.173   3.814   4.712
 9916SOL     OW30646   2.040   2.891   1.816
 9916SOL    HW130647   2.044   2.801   1.773
 9916SOL    HW230648   2.088   2.957   1.759
 9917SOL     OW30649   2.629   3.398   5.792
 9917SOL    HW130650   2.594   3.331   5.727
 9917SOL    HW230651   2.556   3.461   5.817
 9918SOL     OW30652   1.672   1.368   5.729
 9918SOL    HW130653   1.583   1.380   5.774
 9918SOL    HW230654   1.737   1.433   5.767
 9919SOL     OW30655   0.419   5.393   3.469
 9919SOL    HW130656   0.392   5.299   3.447
 9919SOL    HW230657   0.344   5.455   3.449
 9920SOL     OW30658   4.362   0.064   1.429
 9920SOL    HW130659   4.360   0.110   1.517
 9920SOL    HW230660   4.457   0.045   1.404
 9921SOL     OW30661   5.594   0.265   3.001
 9921SOL    HW130662   5.560   0.330   2.933
 9921SOL    HW230663   5.663   0.310   3.058
 9922SOL     OW30664   4.465   3.431   1.088
 9922SOL    HW130665   4.466   3.514   1.144
 9922SOL    HW230666   4.373   3.391   1.090
 9923SOL     OW30667   6.408   2.341   6.794
 9923SOL    HW130668   6.343   2.270   6.820
 9923SOL    HW230669   6.392   2.423   6.849
 9924SOL     OW30670   6.612   0.625   3.287
 9924SOL    HW130671   6.667   0.675   3.353
 9924SOL    HW230672   6.520   0.664   3.283
 9925SOL     OW30673   2.422   2.689   4.932
 9925SOL    HW130674   2.352   2.625   4.964
 9925SOL    HW230675   2.380   2.777   4.911
 9926SOL     OW30676   1.089   1.135   0.868
 9926SOL    HW130677   1.063   1.054   0.815
 9926SOL    HW230678   1.188   1.148   0.863
 9927SOL     OW30679   0.512   2.887   2.487
 9927SOL    HW130680   0.419   2.919   2.469
 9927SOL    HW230681   0.514   2.787   2.485
 9928SOL     OW30682   0.207   3.278   3.214
 9928SOL    HW130683   0.151   3.333   3.276
 9928SOL    HW230684   0.150   3.206   3.174
 9929SOL     OW30685   2.426   4.138   6.954
 9929SOL    HW130686   2.478   4.130   0.021
 9929SOL    HW230687   2.477   4.193   6.889
 9930SOL     OW30688   0.019   6.420   6.566
 9930SOL    HW130689   0.018   6.323   6.541
 9930SOL    HW230690   0.111   6.446   6.595
 9931SOL     OW30691   1.683   5.695   5.833
 9931SOL    HW130692   1.695   5.707   5.734
 9931SOL    HW230693   1.718   5.605   5.860
 9932SOL     OW30694   1.475   2.186   0.570
 9932SOL    HW130695   1.417   2.253   0.616
 9932SOL    HW230696   1.510   2.224   0.484
 9933SOL     OW30697   1.236   2.465   3.859
 9933SOL    HW130698   1.173   2.542   3.846
 9933SOL    HW230699   1.232   2.434   3.953
 9934SOL     OW30700   3.638   0.694   5.690
 9934SOL    HW130701   3.654   0.601   5.723
 9934SOL    HW230702   3.607   0.751   5.765
 9935SOL     OW30703   2.541   2.081   0.890
 9935SOL    HW130704   2.598   2.156   0.925
 9935SOL    HW230705   2.461   2.119   0.843
 9936SOL     OW30706   5.997   6.653   6.131
 9936SOL    HW130707   6.059   6.708   6.187
 9936SOL    HW230708   5.905   6.691   6.135
 9937SOL     OW30709   0.483   0.337   3.703
 9937SOL    HW130710   0.551   0.394   3.657
 9937SOL    HW230711   0.396   0.386   3.706
 9938SOL     OW30712   6.453   1.488   3.961
 9938SOL    HW130713   6.541   1.441   3.960
 9938SOL    HW230714   6.453   1.557   4.033
 9939SOL     OW30715   3.182   4.799   1.284
 9939SOL    HW130716   3.090   4.777   1.252
 9939SOL    HW230717   3.182   4.806   1.384
 9940SOL     OW30718   0.366   1.133   3.369
 9940SOL    HW130719   0.339   1.094   3.456
 9940SOL    HW230720   0.408   1.222   3.384
 9941SOL     OW30721   5.182   4.536   6.562
 9941SOL    HW130722   5.159   4.620   6.514
 9941SOL    HW230723   5.124   4.461   6.529
 9942SOL     OW30724   4.868   4.983   3.008
 9942SOL    HW130725   4.792   5.020   3.062
 9942SOL    HW230726   4.882   4.888   3.033
 9943SOL     OW30727   2.453   4.113   6.614
 9943SOL    HW130728   2.484   4.022   6.644
 9943SOL    HW230729   2.467   4.122   6.516
 9944SOL     OW30730   0.590   4.870   6.332
 9944SOL    HW130731   0.515   4.930   6.361
 9944SOL    HW230732   0.673   4.925   6.318
 9945SOL     OW30733   6.101   3.116   6.451
 9945SOL    HW130734   6.074   3.139   6.545
 9945SOL    HW230735   6.092   3.197   6.394
 9946SOL     OW30736   5.369   1.882   1.996
 9946SOL    HW130737   5.369   1.784   2.018
 9946SOL    HW230738   5.324   1.932   2.069
 9947SOL     OW30739   1.191   1.788   3.711
 9947SOL    HW130740   1.123   1.722   3.681
 9947SOL    HW230741   1.146   1.870   3.745
 9948SOL     OW30742   6.282   0.108   4.647
 9948SOL    HW130743   6.312   0.032   4.590
 9948SOL    HW230744   6.195   0.085   4.690
 9949SOL     OW30745   5.726   4.869   4.036
 9949SOL    HW130746   5.797   4.881   3.966
 9949SOL    HW230747   5.763   4.894   4.125
 9950SOL     OW30748   6.132   4.235   5.377
 9950SOL    HW130749   6.186   4.306   5.333
 9950SOL    HW230750   6.170   4.213   5.466
 9951SOL     OW30751   0.361   2.318   3.212
 9951SOL    HW130752   0.372   2.342   3.115
 9951SOL    HW230753   0.300   2.384   3.256
 9952SOL     OW30754   0.612   5.099   2.012
 9952SOL    HW130755   0.547   5.173   2.024
 9952SOL    HW230756   0.693   5.133   1.965
 9953SOL     OW30757   6.144   2.499   3.463
 9953SOL    HW130758   6.156   2.596   3.486
 9953SOL    HW230759   6.183   2.482   3.372
 9954SOL     OW30760   3.647   1.711   5.928
 9954SOL    HW130761   3.654   1.644   5.854
 9954SOL    HW230762   3.714   1.784   5.913
 9955SOL     OW30763   6.328   4.421   0.721
 9955SOL    HW130764   6.239   4.453   0.754
 9955SOL    HW230765   6.314   4.352   0.650
 9956SOL     OW30766   2.037   3.713   3.281
 9956SOL    HW130767   2.107   3.778   3.250
 9956SOL    HW230768   1.953   3.728   3.229
 9957SOL     OW30769   4.680   0.181   0.625
 9957SOL    HW130770   4.774   0.200   0.595
 9957SOL    HW230771   4.657   0.242   0.701
 9958SOL     OW30772   5.496   5.313   0.244
 9958SOL    HW130773   5.501   5.266   0.332
 9958SOL    HW230774   5.404   5.350   0.231
 9959SOL     OW30775   4.405   3.944   0.874
 9959SOL    HW130776   4.460   4.027   0.877
 9959SOL    HW230777   4.319   3.958   0.923
 9960SOL     OW30778   0.664   0.955   0.073
 9960SOL    HW130779   0.751   0.931   0.031
 9960SOL    HW230780   0.593   0.892   0.041
 9961SOL     OW30781   2.924   4.759   1.245
 9961SOL    HW130782   2.857   4.692   1.276
 9961SOL    HW230783   2.905   4.847   1.288
 9962SOL     OW30784   3.327   7.007   1.643
 9962SOL    HW130785   3.285   0.062   1.695
 9962SOL    HW230786   3.260   6.968   1.580
 9963SOL     OW30787   0.798   1.368   6.195
 9963SOL    HW130788   0.866   1.378   6.267
 9963SOL    HW230789   0.710   1.341   6.235
 9964SOL     OW30790   4.393   4.136   6.049
 9964SOL    HW130791   4.354   4.164   5.961
 9964SOL    HW230792   4.326   4.082   6.099
 9965SOL     OW30793   3.047   5.510   4.633
 9965SOL    HW130794   3.068   5.520   4.536
 9965SOL    HW230795   3.075   5.419   4.664
 9966SOL     OW30796   3.946   5.086   2.704
 9966SOL    HW130797   3.986   4.995   2.700
 9966SOL    HW230798   3.848   5.080   2.687
 9967SOL     OW30799   0.236   0.332   2.912
 9967SOL    HW130800   0.328   0.337   2.874
 9967SOL    HW230801   0.207   0.236   2.915
 9968SOL     OW30802   3.726   6.591   0.274
 9968SOL    HW130803   3.748   6.507   0.226
 9968SOL    HW230804   3.672   6.651   0.215
 9969SOL     OW30805   1.750   5.374   3.886
 9969SOL    HW130806   1.716   5.391   3.979
 9969SOL    HW230807   1.849   5.363   3.888
 9970SOL     OW30808   6.317   3.628   1.257
 9970SOL    HW130809   6.376   3.566   1.309
 9970SOL    HW230810   6.229   3.636   1.303
 9971SOL     OW30811   0.683   4.404   2.771
 9971SOL    HW130812   0.635   4.421   2.857
 9971SOL    HW230813   0.630   4.440   2.695
 9972SOL     OW30814   3.203   3.127   6.865
 9972SOL    HW130815   3.110   3.121   6.899
 9972SOL    HW230816   3.203   3.116   6.765
 9973SOL     OW30817   3.233   1.855   3.747
 9973SOL    HW130818   3.147   1.810   3.771
 9973SOL    HW230819   3.235   1.873   3.649
 9974SOL     OW30820   0.872   3.102   3.006
 9974SOL    HW130821   0.909   3.027   2.951
 9974SOL    HW230822   0.795   3.145   2.957
 9975SOL     OW30823   2.002   5.037   0.041
 9975SOL    HW130824   1.975   5.068   6.969
 9975SOL    HW230825   1.985   4.939   0.050
 9976SOL     OW30826   3.238   4.085   6.148
 9976SOL    HW130827   3.313   4.105   6.210
 9976SOL    HW230828   3.258   4.123   6.058
 9977SOL     OW30829   5.336   6.143   5.480
 9977SOL    HW130830   5.252   6.101   5.447
 9977SOL    HW230831   5.402   6.072   5.505
 9978SOL     OW30832   0.745   3.277   6.395
 9978SOL    HW130833   0.740   3.180   6.417
 9978SOL    HW230834   0.841   3.306   6.390
 9979SOL     OW30835   4.326   3.212   5.337
 9979SOL    HW130836   4.318   3.287   5.271
 9979SOL    HW230837   4.396   3.235   5.405
 9980SOL     OW30838   2.082   1.127   0.811
 9980SOL    HW130839   2.140   1.055   0.774
 9980SOL    HW230840   2.062   1.109   0.908
 9981SOL     OW30841   0.351   2.897   1.731
 9981SOL    HW130842   0.346   2.979   1.788
 9981SOL    HW230843   0.436   2.898   1.678
 9982SOL     OW30844   2.172   2.215   5.202
 9982SOL    HW130845   2.241   2.231   5.131
 9982SOL    HW230846   2.109   2.145   5.171
 9983SOL     OW30847   0.618   2.907   1.609
 9983SOL    HW130848   0.596   2.910   1.512
 9983SOL    HW230849   0.636   2.813   1.636
 9984SOL     OW30850   0.100   6.012   1.110
 9984SOL    HW130851   0.170   6.035   1.178
 9984SOL    HW230852   0.104   6.078   1.035
 9985SOL     OW30853   4.052   5.224   0.331
 9985SOL    HW130854   3.964   5.266   0.314
 9985SOL    HW230855   4.045   5.125   0.320
 9986SOL     OW30856   5.295   4.676   0.544
 9986SOL    HW130857   5.294   4.762   0.594
 9986SOL    HW230858   5.286   4.600   0.608
 9987SOL     OW30859   5.128   2.962   1.606
 9987SOL    HW130860   5.173   2.978   1.518
 9987SOL    HW230861   5.047   2.905   1.592
 9988SOL     OW30862   5.332   6.532   4.549
 9988SOL    HW130863   5.426   6.505   4.526
 9988SOL    HW230864   5.294   6.468   4.616
 9989SOL     OW30865   6.564   5.355   2.585
 9989SOL    HW130866   6.468   5.346   2.559
 9989SOL    HW230867   6.598   5.443   2.553
 9990SOL     OW30868   0.379   6.969   3.757
 9990SOL    HW130869   0.358   0.023   3.693
 9990SOL    HW230870   0.321   6.889   3.736
 9991SOL     OW30871   1.623   4.333   3.823
 9991SOL    HW130872   1.611   4.240   3.858
 9991SOL    HW230873   1.672   4.388   3.891
 9992SOL     OW30874   3.700   4.821   0.913
 9992SOL    HW130875   3.642   4.862   0.844
 9992SOL    HW230876   3.649   4.752   0.964
 9993SOL     OW30877   3.815   0.105   4.582
 9993SOL    HW130878   3.820   0.083   4.484
 9993SOL    HW230879   3.720   0.118   4.609
 9994SOL     OW30880   6.610   4.974   4.502
 9994SOL    HW130881   6.671   4.978   4.422
 9994SOL    HW230882   6.636   4.896   4.559
 9995SOL     OW30883   3.034   0.630   5.005
 9995SOL    HW130884   3.124   0.603   5.039
 9995SOL    HW230885   2.981   0.671   5.079
 9996SOL     OW30886   1.882   3.472   0.891
 9996SOL    HW130887   1.831   3.492   0.974
 9996SOL    HW230888   1.864   3.377   0.863
 9997SOL     OW30889   6.057   3.181   3.928
 9997SOL    HW130890   6.106   3.201   3.843
 9997SOL    HW230891   5.993   3.255   3.948
 9998SOL     OW30892   5.059   4.192   2.621
 9998SOL    HW130893   5.052   4.279   2.573
 9998SOL    HW230894   4.971   4.171   2.665
 9999SOL     OW30895   0.857   6.214   4.216
 9999SOL    HW130896   0.843   6.235   4.312
 9999SOL    HW230897   0.775   6.171   4.179
10000SOL     OW30898   5.572   1.811   1.693
10000SOL    HW130899   5.589   1.881   1.762
10000SOL    HW230900   5.485   1.765   1.713
10001SOL     OW30901   3.947   6.284   2.451
10001SOL    HW130902   3.971   6.309   2.357
10001SOL    HW230903   4.030   6.278   2.506
10002SOL     OW30904   2.930   0.822   1.915
10002SOL    HW130905   3.000   0.865   1.972
10002SOL    HW230906   2.971   0.790   1.830
10003SOL     OW30907   1.443   0.958   3.937
10003SOL    HW130908   1.493   1.013   3.871
10003SOL    HW230909   1.374   1.014   3.983
10004SOL     OW30910   6.259   4.449   5.268
10004SOL    HW130911   6.350   4.435   5.229
10004SOL    HW230912   6.264   4.521   5.337
10005SOL     OW30913   2.153   5.481   3.392
10005SOL    HW130914   2.178   5.450   3.300
10005SOL    HW230915   2.224   5.541   3.428
10006SOL     OW30916   5.540   0.612   5.461
10006SOL    HW130917   5.516   0.534   5.519
10006SOL    HW230918   5.500   0.601   5.370
10007SOL     OW30919   1.364   5.405   4.638
10007SOL    HW130920   1.296   5.463   4.594
10007SOL    HW230921   1.326   5.367   4.723
10008SOL     OW30922   4.356   1.695   5.988
10008SOL    HW130923   4.435   1.739   6.031
10008SOL    HW230924   4.272   1.728   6.031
10009SOL     OW30925   0.929   3.698   2.007
10009SOL    HW130926   0.862   3.754   1.959
10009SOL    HW230927   0.899   3.602   2.007
10010SOL     OW30928   2.209   4.709   6.980
10010SOL    HW130929   2.287   4.649   6.959
10010SOL    HW230930   2.131   4.683   6.923
10011SOL     OW30931   1.261   3.301   0.627
10011SOL    HW130932   1.321   3.381   0.617
10011SOL    HW230933   1.312   3.218   0.605
10012SOL     OW30934   4.859   1.358   2.104
10012SOL    HW130935   4.901   1.441   2.141
10012SOL    HW230936   4.881   1.280   2.163
10013SOL     OW30937   0.845   5.883   4.627
10013SOL    HW130938   0.830   5.833   4.713
10013SOL    HW230939   0.778   5.853   4.559
10014SOL     OW30940   0.838   0.046   3.137
10014SOL    HW130941   0.842   6.995   3.209
10014SOL    HW230942   0.781   0.122   3.168
10015SOL     OW30943   4.035   4.519   5.814
10015SOL    HW130944   3.940   4.551   5.820
10015SOL    HW230945   4.070   4.537   5.722
10016SOL     OW30946   2.293   6.805   3.411
10016SOL    HW130947   2.217   6.741   3.398
10016SOL    HW230948   2.355   6.769   3.480
10017SOL     OW30949   2.618   1.536   3.164
10017SOL    HW130950   2.544   1.559   3.100
10017SOL    HW230951   2.660   1.450   3.136
10018SOL     OW30952   6.102   2.724   6.214
10018SOL    HW130953   6.115   2.784   6.293
10018SOL    HW230954   6.081   2.780   6.134
10019SOL     OW30955   0.704   1.529   2.433
10019SOL    HW130956   0.629   1.473   2.468
10019SOL    HW230957   0.776   1.470   2.397
10020SOL     OW30958   6.572   0.577   1.873
10020SOL    HW130959   6.579   0.677   1.866
10020SOL    HW230960   6.476   0.550   1.875
10021SOL     OW30961   1.673   4.111   2.037
10021SOL    HW130962   1.674   4.016   2.006
10021SOL    HW230963   1.578   4.141   2.050
10022SOL     OW30964   2.635   6.116   0.413
10022SOL    HW130965   2.572   6.054   0.367
10022SOL    HW230966   2.583   6.184   0.465
10023SOL     OW30967   2.107   0.212   5.806
10023SOL    HW130968   2.077   0.181   5.896
10023SOL    HW230969   2.204   0.190   5.794
10024SOL     OW30970   1.802   4.677   3.131
10024SOL    HW130971   1.869   4.659   3.059
10024SOL    HW230972   1.789   4.594   3.185
10025SOL     OW30973   1.093   4.312   1.784
10025SOL    HW130974   1.151   4.361   1.849
10025SOL    HW230975   1.097   4.358   1.695
10026SOL     OW30976   5.052   1.485   3.656
10026SOL    HW130977   5.084   1.477   3.751
10026SOL    HW230978   5.126   1.518   3.598
10027SOL     OW30979   1.967   2.064   5.646
10027SOL    HW130980   2.057   2.090   5.609
10027SOL    HW230981   1.957   2.103   5.738
10028SOL     OW30982   4.091   0.851   1.520
10028SOL    HW130983   3.999   0.852   1.482
10028SOL    HW230984   4.158   0.864   1.446
10029SOL     OW30985   0.243   3.281   5.206
10029SOL    HW130986   0.217   3.296   5.301
10029SOL    HW230987   0.161   3.264   5.151
10030SOL     OW30988   2.604   6.944   4.517
10030SOL    HW130989   2.641   7.018   4.574
10030SOL    HW230990   2.506   6.957   4.505
10031SOL     OW30991   3.308   5.030   3.885
10031SOL    HW130992   3.345   4.962   3.949
10031SOL    HW230993   3.243   4.986   3.823
10032SOL     OW30994   2.947   6.023   4.855
10032SOL    HW130995   2.880   6.013   4.929
10032SOL    HW230996   2.899   6.036   4.768
10033SOL     OW30997   4.198   1.721   3.049
10033SOL    HW130998   4.122   1.657   3.036
10033SOL    HW230999   4.222   1.762   2.962
10034SOL     OW31000   2.727   0.501   3.185
10034SOL    HW131001   2.664   0.430   3.154
10034SOL    HW231002   2.774   0.472   3.268
10035SOL     OW31003   6.086   2.931   1.600
10035SOL    HW131004   6.048   2.980   1.678
10035SOL    HW231005   6.066   2.833   1.609
10036SOL     OW31006   6.214   0.722   6.895
10036SOL    HW131007   6.287   0.790   6.902
10036SOL    HW231008   6.223   0.655   6.968
10037SOL     OW31009   6.176   7.010   0.021
10037SOL    HW131010   6.212   6.953   6.966
10037SOL    HW231011   6.145   0.079   7.002
10038SOL     OW31012   4.430   0.115   6.853
10038SOL    HW131013   4.402   0.198   6.805
10038SOL    HW231014   4.506   0.135   6.915
10039SOL     OW31015   5.401   5.095   3.869
10039SOL    HW131016   5.316   5.128   3.829
10039SOL    HW231017   5.399   4.995   3.876
10040SOL     OW31018   3.785   0.231   0.235
10040SOL    HW131019   3.705   0.232   0.175
10040SOL    HW231020   3.809   0.325   0.261
10041SOL     OW31021   6.881   4.763   5.499
10041SOL    HW131022   6.886   4.673   5.543
10041SOL    HW231023   6.827   4.755   5.415
10042SOL     OW31024   0.734   0.815   4.990
10042SOL    HW131025   0.758   0.718   4.995
10042SOL    HW231026   0.733   0.844   4.894
10043SOL     OW31027   1.828   1.147   3.324
10043SOL    HW131028   1.821   1.140   3.224
10043SOL    HW231029   1.768   1.220   3.356
10044SOL     OW31030   2.114   0.955   5.167
10044SOL    HW131031   2.149   1.048   5.160
10044SOL    HW231032   2.080   0.938   5.260
10045SOL     OW31033   4.492   6.916   4.513
10045SOL    HW131034   4.586   6.882   4.519
10045SOL    HW231035   4.442   6.862   4.446
10046SOL     OW31036   0.027   2.485   1.851
10046SOL    HW131037   0.074   2.559   1.804
10046SOL    HW231038   6.974   2.522   1.910
10047SOL     OW31039   6.450   1.376   4.945
10047SOL    HW131040   6.500   1.342   5.025
10047SOL    HW231041   6.443   1.303   4.877
10048SOL     OW31042   3.548   1.621   1.723
10048SOL    HW131043   3.525   1.703   1.775
10048SOL    HW231044   3.466   1.587   1.676
10049SOL     OW31045   2.174   0.827   6.773
10049SOL    HW131046   2.128   0.739   6.789
10049SOL    HW231047   2.156   0.889   6.850
10050SOL     OW31048   5.118   2.687   4.503
10050SOL    HW131049   5.153   2.740   4.580
10050SOL    HW231050   5.149   2.727   4.417
10051SOL     OW31051   6.459   3.039   4.315
10051SOL    HW131052   6.411   2.977   4.377
10051SOL    HW231053   6.395   3.106   4.279
10052SOL     OW31054   1.556   3.417   2.054
10052SOL    HW131055   1.497   3.421   1.973
10052SOL    HW231056   1.651   3.405   2.025
10053SOL     OW31057   3.654   5.405   3.406
10053SOL    HW131058   3.707   5.322   3.425
10053SOL    HW231059   3.568   5.381   3.362
10054SOL     OW31060   4.223   5.858   5.896
10054SOL    HW131061   4.200   5.808   5.980
10054SOL    HW231062   4.321   5.848   5.877
10055SOL     OW31063   6.687   2.362   5.210
10055SOL    HW131064   6.608   2.405   5.253
10055SOL    HW231065   6.739   2.312   5.278
10056SOL     OW31066   6.539   5.185   1.404
10056SOL    HW131067   6.570   5.091   1.418
10056SOL    HW231068   6.545   5.235   1.491
10057SOL     OW31069   4.002   2.177   4.558
10057SOL    HW131070   4.018   2.083   4.586
10057SOL    HW231071   4.081   2.234   4.584
10058SOL     OW31072   6.822   5.156   3.783
10058SOL    HW131073   6.767   5.112   3.854
10058SOL    HW231074   6.824   5.099   3.701
10059SOL     OW31075   5.249   0.220   0.906
10059SOL    HW131076   5.157   0.258   0.892
10059SOL    HW231077   5.314   0.294   0.922
10060SOL     OW31078   2.720   2.314   1.783
10060SOL    HW131079   2.738   2.220   1.811
10060SOL    HW231080   2.800   2.371   1.805
10061SOL     OW31081   5.922   1.025   4.260
10061SOL    HW131082   5.937   1.119   4.290
10061SOL    HW231083   5.884   1.025   4.167
10062SOL     OW31084   5.700   5.914   3.604
10062SOL    HW131085   5.796   5.929   3.628
10062SOL    HW231086   5.646   5.903   3.688
10063SOL     OW31087   1.431   3.102   3.668
10063SOL    HW131088   1.434   3.042   3.589
10063SOL    HW231089   1.416   3.196   3.637
10064SOL     OW31090   4.711   5.668   4.464
10064SOL    HW131091   4.797   5.699   4.423
10064SOL    HW231092   4.729   5.595   4.530
10065SOL     OW31093   1.350   6.630   2.183
10065SOL    HW131094   1.278   6.659   2.119
10065SOL    HW231095   1.314   6.629   2.276
10066SOL     OW31096   0.433   0.222   4.128
10066SOL    HW131097   0.487   0.204   4.209
10066SOL    HW231098   0.493   0.243   4.051
10067SOL     OW31099   4.935   4.821   4.786
10067SOL    HW131100   4.918   4.828   4.688
10067SOL    HW231101   5.032   4.808   4.803
10068SOL     OW31102   5.508   2.839   4.384
10068SOL    HW131103   5.547   2.750   4.359
10068SOL    HW231104   5.532   2.861   4.478
10069SOL     OW31105   2.975   0.897   3.828
10069SOL    HW131106   3.060   0.924   3.783
10069SOL    HW231107   2.974   0.935   3.921
10070SOL     OW31108   0.385   6.283   5.121
10070SOL    HW131109   0.369   6.231   5.205
10070SOL    HW231110   0.478   6.266   5.088
10071SOL     OW31111   4.452   5.370   3.842
10071SOL    HW131112   4.436   5.386   3.744
10071SOL    HW231113   4.422   5.450   3.894
10072SOL     OW31114   0.586   6.037   3.649
10072SOL    HW131115   0.530   5.956   3.661
10072SOL    HW231116   0.543   6.098   3.582
10073SOL     OW31117   6.102   4.854   5.352
10073SOL    HW131118   6.190   4.813   5.378
10073SOL    HW231119   6.089   4.844   5.253
10074SOL     OW31120   1.526   0.003   5.868
10074SOL    HW131121   1.532   6.924   5.850
10074SOL    HW231122   1.500   0.051   5.784
10075SOL     OW31123   1.289   2.345   3.210
10075SOL    HW131124   1.230   2.401   3.268
10075SOL    HW231125   1.291   2.251   3.244
10076SOL     OW31126   4.908   0.453   4.485
10076SOL    HW131127   4.900   0.476   4.388
10076SOL    HW231128   5.004   0.455   4.513
10077SOL     OW31129   4.280   2.332   6.407
10077SOL    HW131130   4.230   2.335   6.493
10077SOL    HW231131   4.290   2.424   6.370
10078SOL     OW31132   6.134   6.495   4.820
10078SOL    HW131133   6.195   6.427   4.862
10078SOL    HW231134   6.187   6.575   4.794
10079SOL     OW31135   1.189   2.867   1.448
10079SOL    HW131136   1.187   2.961   1.481
10079SOL    HW231137   1.284   2.840   1.432
10080SOL     OW31138   2.226   2.532   0.618
10080SOL    HW131139   2.289   2.523   0.695
10080SOL    HW231140   2.218   2.628   0.593
10081SOL     OW31141   0.799   0.225   6.513
10081SOL    HW131142   0.773   0.321   6.516
10081SOL    HW231143   0.727   0.173   6.466
10082SOL     OW31144   6.262   2.081   1.607
10082SOL    HW131145   6.286   2.037   1.693
10082SOL    HW231146   6.169   2.054   1.581
10083SOL     OW31147   4.682   0.996   3.966
10083SOL    HW131148   4.617   1.041   3.905
10083SOL    HW231149   4.640   0.985   4.056
10084SOL     OW31150   3.056   0.874   6.144
10084SOL    HW131151   3.020   0.948   6.087
10084SOL    HW231152   3.142   0.841   6.105
10085SOL     OW31153   0.791   4.899   3.175
10085SOL    HW131154   0.804   4.851   3.089
10085SOL    HW231155   0.708   4.955   3.170
10086SOL     OW31156   6.466   4.830   2.298
10086SOL    HW131157   6.486   4.925   2.323
10086SOL    HW231158   6.549   4.785   2.266
10087SOL     OW31159   1.098   1.057   4.352
10087SOL    HW131160   1.097   1.122   4.429
10087SOL    HW231161   1.015   1.002   4.354
10088SOL     OW31162   0.165   6.846   4.854
10088SOL    HW131163   0.257   6.811   4.839
10088SOL    HW231164   0.104   6.812   4.782
10089SOL     OW31165   2.522   1.472   2.611
10089SOL    HW131166   2.550   1.415   2.534
10089SOL    HW231167   2.495   1.562   2.578
10090SOL     OW31168   0.831   4.623   0.592
10090SOL    HW131169   0.843   4.723   0.595
10090SOL    HW231170   0.852   4.584   0.682
10091SOL     OW31171   1.138   3.391   4.704
10091SOL    HW131172   1.136   3.293   4.682
10091SOL    HW231173   1.047   3.420   4.735
10092SOL     OW31174   1.737   3.762   5.428
10092SOL    HW131175   1.764   3.669   5.407
10092SOL    HW231176   1.650   3.783   5.383
10093SOL     OW31177   0.378   5.104   5.235
10093SOL    HW131178   0.459   5.045   5.242
10093SOL    HW231179   0.351   5.135   5.326
10094SOL     OW31180   2.191   0.384   2.593
10094SOL    HW131181   2.230   0.357   2.505
10094SOL    HW231182   2.213   0.315   2.662
10095SOL     OW31183   6.772   1.678   5.678
10095SOL    HW131184   6.771   1.669   5.579
10095SOL    HW231185   6.801   1.591   5.720
10096SOL     OW31186   6.896   4.937   2.978
10096SOL    HW131187   6.890   4.863   3.044
10096SOL    HW231188   6.888   5.025   3.025
10097SOL     OW31189   0.974   1.581   0.948
10097SOL    HW131190   0.910   1.627   1.010
10097SOL    HW231191   0.922   1.520   0.887
10098SOL     OW31192   1.765   6.022   5.765
10098SOL    HW131193   1.679   6.073   5.770
10098SOL    HW231194   1.746   5.924   5.764
10099SOL     OW31195   6.891   3.490   5.397
10099SOL    HW131196   6.826   3.565   5.406
10099SOL    HW231197   6.843   3.403   5.402
10100SOL     OW31198   4.570   0.868   4.785
10100SOL    HW131199   4.555   0.770   4.793
10100SOL    HW231200   4.659   0.892   4.824
10101SOL     OW31201   0.098   5.028   2.391
10101SOL    HW131202   0.140   5.046   2.302
10101SOL    HW231203   0.154   4.962   2.441
10102SOL     OW31204   3.114   1.268   2.481
10102SOL    HW131205   3.211   1.281   2.461
10102SOL    HW231206   3.088   1.325   2.559
10103SOL     OW31207   2.698   1.306   5.186
10103SOL    HW131208   2.757   1.370   5.235
10103SOL    HW231209   2.707   1.215   5.225
10104SOL     OW31210   0.601   4.434   5.416
10104SOL    HW131211   0.689   4.453   5.461
10104SOL    HW231212   0.617   4.410   5.321
10105SOL     OW31213   1.385   1.561   6.590
10105SOL    HW131214   1.471   1.520   6.561
10105SOL    HW231215   1.309   1.505   6.558
10106SOL     OW31216   5.167   5.228   0.631
10106SOL    HW131217   5.181   5.313   0.682
10106SOL    HW231218   5.130   5.158   0.692
10107SOL     OW31219   6.052   0.999   5.751
10107SOL    HW131220   6.140   1.030   5.716
10107SOL    HW231221   6.020   0.920   5.698
10108SOL     OW31222   6.196   6.317   0.248
10108SOL    HW131223   6.200   6.308   0.148
10108SOL    HW231224   6.288   6.320   0.285
10109SOL     OW31225   4.556   5.812   2.927
10109SOL    HW131226   4.549   5.875   3.004
10109SOL    HW231227   4.649   5.814   2.890
10110SOL     OW31228   3.318   6.660   5.397
10110SOL    HW131229   3.369   6.697   5.475
10110SOL    HW231230   3.379   6.604   5.341
10111SOL     OW31231   6.904   3.301   3.825
10111SOL    HW131232   6.814   3.263   3.844
10111SOL    HW231233   6.902   3.352   3.739
10112SOL     OW31234   5.632   3.755   5.470
10112SOL    HW131235   5.562   3.727   5.405
10112SOL    HW231236   5.640   3.855   5.468
10113SOL     OW31237   3.952   0.911   6.917
10113SOL    HW131238   3.962   0.992   6.859
10113SOL    HW231239   3.978   0.830   6.865
10114SOL     OW31240   5.553   1.482   0.411
10114SOL    HW131241   5.454   1.491   0.400
10114SOL    HW231242   5.573   1.399   0.465
10115SOL     OW31243   1.774   2.296   3.595
10115SOL    HW131244   1.816   2.275   3.506
10115SOL    HW231245   1.737   2.211   3.635
10116SOL     OW31246   1.056   6.864   0.813
10116SOL    HW131247   1.143   6.861   0.763
10116SOL    HW231248   1.074   6.857   0.911
10117SOL     OW31249   6.078   0.102   5.036
10117SOL    HW131250   6.096   0.135   5.129
10117SOL    HW231251   6.046   0.177   4.980
10118SOL     OW31252   0.371   4.842   2.832
10118SOL    HW131253   0.459   4.857   2.787
10118SOL    HW231254   0.312   4.921   2.817
10119SOL     OW31255   2.081   0.160   4.460
10119SOL    HW131256   2.160   0.211   4.426
10119SOL    HW231257   2.109   0.067   4.484
10120SOL     OW31258   0.852   3.255   3.790
10120SOL    HW131259   0.918   3.307   3.844
10120SOL    HW231260   0.866   3.157   3.807
10121SOL     OW31261   6.727   4.655   5.313
10121SOL    HW131262   6.751   4.558   5.317
10121SOL    HW231263   6.696   4.678   5.220
10122SOL     OW31264   5.488   3.085   6.729
10122SOL    HW131265   5.458   3.107   6.636
10122SOL    HW231266   5.558   3.013   6.724
10123SOL     OW31267   0.761   6.153   0.975
10123SOL    HW131268   0.753   6.066   1.022
10123SOL    HW231269   0.697   6.219   1.013
10124SOL     OW31270   2.504   4.434   0.179
10124SOL    HW131271   2.503   4.335   0.161
10124SOL    HW231272   2.598   4.464   0.196
10125SOL     OW31273   1.760   0.712   2.998
10125SOL    HW131274   1.847   0.676   3.032
10125SOL    HW231275   1.697   0.726   3.075
10126SOL     OW31276   6.003   5.738   6.754
10126SOL    HW131277   5.940   5.663   6.738
10126SOL    HW231278   6.053   5.759   6.670
10127SOL     OW31279   2.988   5.478   5.624
10127SOL    HW131280   2.957   5.499   5.716
10127SOL    HW231281   2.915   5.496   5.559
10128SOL     OW31282   0.640   1.437   1.236
10128SOL    HW131283   0.577   1.368   1.273
10128SOL    HW231284   0.616   1.527   1.273
10129SOL     OW31285   5.026   2.838   3.768
10129SOL    HW131286   4.966   2.758   3.767
10129SOL    HW231287   5.083   2.836   3.851
10130SOL     OW31288   1.463   5.376   2.955
10130SOL    HW131289   1.460   5.441   3.031
10130SOL    HW231290   1.557   5.366   2.923
10131SOL     OW31291   0.888   2.353   2.435
10131SOL    HW131292   0.976   2.307   2.447
10131SOL    HW231293   0.902   2.452   2.430
10132SOL     OW31294   3.249   6.604   2.912
10132SOL    HW131295   3.183   6.548   2.963
10132SOL    HW231296   3.222   6.700   2.916
10133SOL     OW31297   4.102   6.203   3.337
10133SOL    HW131298   4.017   6.162   3.369
10133SOL    HW231299   4.162   6.131   3.300
10134SOL     OW31300   6.210   0.538   3.931
10134SOL    HW131301   6.187   0.630   3.900
10134SOL    HW231302   6.268   0.494   3.863
10135SOL     OW31303   4.788   4.105   2.634
10135SOL    HW131304   4.715   4.172   2.621
10135SOL    HW231305   4.821   4.074   2.544
10136SOL     OW31306   5.989   0.027   3.332
10136SOL    HW131307   5.942   6.957   3.331
10136SOL    HW231308   6.053   0.030   3.409
10137SOL     OW31309   6.728   5.601   4.279
10137SOL    HW131310   6.773   5.577   4.192
10137SOL    HW231311   6.708   5.517   4.330
10138SOL     OW31312   5.603   2.300   0.493
10138SOL    HW131313   5.509   2.274   0.472
10138SOL    HW231314   5.640   2.356   0.419
10139SOL     OW31315   4.040   3.222   2.879
10139SOL    HW131316   4.089   3.162   2.943
10139SOL    HW231317   3.947   3.236   2.913
10140SOL     OW31318   6.626   6.075   6.082
10140SOL    HW131319   6.608   6.088   5.984
10140SOL    HW231320   6.539   6.065   6.131
10141SOL     OW31321   2.661   2.271   4.048
10141SOL    HW131322   2.609   2.349   4.014
10141SOL    HW231323   2.741   2.303   4.098
10142SOL     OW31324   4.954   6.614   5.453
10142SOL    HW131325   5.022   6.666   5.402
10142SOL    HW231326   4.968   6.516   5.437
10143SOL     OW31327   4.237   0.249   1.249
10143SOL    HW131328   4.264   0.333   1.296
10143SOL    HW231329   4.255   0.170   1.308
10144SOL     OW31330   3.804   5.926   5.492
10144SOL    HW131331   3.829   6.017   5.525
10144SOL    HW231332   3.775   5.931   5.397
10145SOL     OW31333   2.637   5.776   5.873
10145SOL    HW131334   2.612   5.779   5.970
10145SOL    HW231335   2.730   5.742   5.864
10146SOL     OW31336   3.930   5.076   5.007
10146SOL    HW131337   3.990   5.155   4.995
10146SOL    HW231338   3.982   4.992   4.991
10147SOL     OW31339   4.861   4.421   4.524
10147SOL    HW131340   4.875   4.517   4.547
10147SOL    HW231341   4.762   4.402   4.520
10148SOL     OW31342   6.130   5.883   0.103
10148SOL    HW131343   6.148   5.827   0.022
10148SOL    HW231344   6.050   5.847   0.151
10149SOL     OW31345   4.810   1.793   0.364
10149SOL    HW131346   4.726   1.739   0.371
10149SOL    HW231347   4.787   1.890   0.367
10150SOL     OW31348   4.590   4.162   0.860
10150SOL    HW131349   4.682   4.167   0.820
10150SOL    HW231350   4.585   4.221   0.940
10151SOL     OW31351   1.718   0.238   6.402
10151SOL    HW131352   1.620   0.258   6.396
10151SOL    HW231353   1.763   0.308   6.458
10152SOL     OW31354   1.344   5.437   3.961
10152SOL    HW131355   1.402   5.429   3.880
10152SOL    HW231356   1.317   5.532   3.974
10153SOL     OW31357   4.364   5.993   3.640
10153SOL    HW131358   4.402   6.081   3.610
10153SOL    HW231359   4.430   5.921   3.622
10154SOL     OW31360   6.602   6.323   5.839
10154SOL    HW131361   6.562   6.235   5.814
10154SOL    HW231362   6.594   6.335   5.938
10155SOL     OW31363   4.244   1.462   6.210
10155SOL    HW131364   4.191   1.396   6.264
10155SOL    HW231365   4.184   1.536   6.180
10156SOL     OW31366   6.129   6.734   2.051
10156SOL    HW131367   6.182   6.783   1.981
10156SOL    HW231368   6.034   6.728   2.023
10157SOL     OW31369   5.833   1.915   5.549
10157SOL    HW131370   5.780   1.935   5.631
10157SOL    HW231371   5.839   1.816   5.536
10158SOL     OW31372   4.740   4.142   0.189
10158SOL    HW131373   4.835   4.135   0.156
10158SOL    HW231374   4.698   4.051   0.188
10159SOL     OW31375   2.863   3.125   5.883
10159SOL    HW131376   2.836   3.220   5.898
10159SOL    HW231377   2.830   3.069   5.959
10160SOL     OW31378   1.208   4.504   2.713
10160SOL    HW131379   1.205   4.568   2.789
10160SOL    HW231380   1.121   4.456   2.706
10161SOL     OW31381   3.580   4.822   0.473
10161SOL    HW131382   3.589   4.894   0.541
10161SOL    HW231383   3.508   4.759   0.500
10162SOL     OW31384   2.641   3.777   0.215
10162SOL    HW131385   2.714   3.843   0.198
10162SOL    HW231386   2.569   3.819   0.269
10163SOL     OW31387   5.586   4.301   6.523
10163SOL    HW131388   5.488   4.308   6.508
10163SOL    HW231389   5.634   4.368   6.468
10164SOL     OW31390   6.310   2.950   5.013
10164SOL    HW131391   6.327   2.978   5.107
10164SOL    HW231392   6.330   3.026   4.951
10165SOL     OW31393   0.950   2.331   4.027
10165SOL    HW131394   1.042   2.361   4.051
10165SOL    HW231395   0.940   2.234   4.048
10166SOL     OW31396   3.694   1.101   1.867
10166SOL    HW131397   3.759   1.177   1.865
10166SOL    HW231398   3.744   1.015   1.860
10167SOL     OW31399   4.286   1.069   6.958
10167SOL    HW131400   4.254   1.098   0.030
10167SOL    HW231401   4.321   1.149   6.908
10168SOL     OW31402   6.697   3.563   4.699
10168SOL    HW131403   6.638   3.630   4.744
10168SOL    HW231404   6.792   3.592   4.706
10169SOL     OW31405   6.844   4.358   3.623
10169SOL    HW131406   6.866   4.448   3.586
10169SOL    HW231407   6.759   4.325   3.583
10170SOL     OW31408   0.654   4.302   5.872
10170SOL    HW131409   0.706   4.248   5.938
10170SOL    HW231410   0.593   4.241   5.820
10171SOL     OW31411   6.180   3.763   6.583
10171SOL    HW131412   6.183   3.693   6.512
10171SOL    HW231413   6.186   3.853   6.540
10172SOL     OW31414   6.145   0.443   3.095
10172SOL    HW131415   6.242   0.466   3.087
10172SOL    HW231416   6.116   0.388   3.017
10173SOL     OW31417   1.579   2.218   1.073
10173SOL    HW131418   1.550   2.314   1.064
10173SOL    HW231419   1.606   2.200   1.167
10174SOL     OW31420   6.018   4.871   2.101
10174SOL    HW131421   6.062   4.827   2.023
10174SOL    HW231422   5.921   4.883   2.082
10175SOL     OW31423   6.710   2.494   4.082
10175SOL    HW131424   6.754   2.409   4.111
10175SOL    HW231425   6.697   2.493   3.983
10176SOL     OW31426   1.271   3.185   5.859
10176SOL    HW131427   1.187   3.147   5.819
10176SOL    HW231428   1.247   3.244   5.936
10177SOL     OW31429   2.970   0.201   0.127
10177SOL    HW131430   2.990   0.256   0.208
10177SOL    HW231431   2.964   0.104   0.153
10178SOL     OW31432   6.425   3.177   4.891
10178SOL    HW131433   6.412   3.271   4.861
10178SOL    HW231434   6.455   3.176   4.986
10179SOL     OW31435   1.049   1.894   6.139
10179SOL    HW131436   0.976   1.836   6.105
10179SOL    HW231437   1.014   1.950   6.215
10180SOL     OW31438   3.273   5.384   6.192
10180SOL    HW131439   3.231   5.297   6.168
10180SOL    HW231440   3.213   5.459   6.163
10181SOL     OW31441   5.174   3.693   2.145
10181SOL    HW131442   5.098   3.732   2.094
10181SOL    HW231443   5.194   3.601   2.111
10182SOL     OW31444   5.866   1.634   1.650
10182SOL    HW131445   5.822   1.712   1.695
10182SOL    HW231446   5.909   1.575   1.719
10183SOL     OW31447   0.976   2.090   6.290
10183SOL    HW131448   0.943   2.155   6.221
10183SOL    HW231449   1.016   2.140   6.367
10184SOL     OW31450   4.939   2.078   6.040
10184SOL    HW131451   4.845   2.105   6.021
10184SOL    HW231452   4.944   2.035   6.131
10185SOL     OW31453   5.039   6.197   0.767
10185SOL    HW131454   5.122   6.198   0.711
10185SOL    HW231455   4.978   6.125   0.734
10186SOL     OW31456   5.880   3.232   3.490
10186SOL    HW131457   5.798   3.257   3.542
10186SOL    HW231458   5.958   3.224   3.552
10187SOL     OW31459   0.885   2.040   2.025
10187SOL    HW131460   0.961   1.992   2.069
10187SOL    HW231461   0.800   1.990   2.042
10188SOL     OW31462   3.791   6.055   0.076
10188SOL    HW131463   3.876   6.038   0.026
10188SOL    HW231464   3.714   6.020   0.023
10189SOL     OW31465   2.398   0.547   5.692
10189SOL    HW131466   2.347   0.499   5.621
10189SOL    HW231467   2.493   0.515   5.692
10190SOL     OW31468   5.129   2.685   1.067
10190SOL    HW131469   5.178   2.606   1.103
10190SOL    HW231470   5.090   2.738   1.142
10191SOL     OW31471   4.763   4.361   0.062
10191SOL    HW131472   4.734   4.370   6.986
10191SOL    HW231473   4.732   4.273   0.099
10192SOL     OW31474   4.315   0.929   4.798
10192SOL    HW131475   4.286   0.989   4.872
10192SOL    HW231476   4.414   0.930   4.790
10193SOL     OW31477   4.349   4.101   1.616
10193SOL    HW131478   4.426   4.047   1.581
10193SOL    HW231479   4.373   4.140   1.705
10194SOL     OW31480   5.897   5.116   5.004
10194SOL    HW131481   5.976   5.126   5.065
10194SOL    HW231482   5.859   5.207   4.985
10195SOL     OW31483   5.886   4.622   1.441
10195SOL    HW131484   5.859   4.527   1.452
10195SOL    HW231485   5.939   4.632   1.356
10196SOL     OW31486   5.614   1.412   4.610
10196SOL    HW131487   5.537   1.434   4.671
10196SOL    HW231488   5.700   1.433   4.655
10197SOL     OW31489   6.903   1.853   4.717
10197SOL    HW131490   6.924   1.755   4.723
10197SOL    HW231491   6.848   1.880   4.796
10198SOL     OW31492   3.779   0.675   2.116
10198SOL    HW131493   3.792   0.746   2.185
10198SOL    HW231494   3.865   0.658   2.068
10199SOL     OW31495   2.138   2.822   6.105
10199SOL    HW131496   2.049   2.828   6.149
10199SOL    HW231497   2.165   2.726   6.099
10200SOL     OW31498   4.898   2.259   1.184
10200SOL    HW131499   4.964   2.310   1.240
10200SOL    HW231500   4.836   2.323   1.138
10201SOL     OW31501   0.873   4.502   0.859
10201SOL    HW131502   0.819   4.464   0.935
10201SOL    HW231503   0.913   4.589   0.888
10202SOL     OW31504   4.223   2.331   5.977
10202SOL    HW131505   4.258   2.240   5.998
10202SOL    HW231506   4.124   2.326   5.961
10203SOL     OW31507   5.374   2.499   4.124
10203SOL    HW131508   5.277   2.523   4.125
10203SOL    HW231509   5.408   2.492   4.218
10204SOL     OW31510   5.412   6.579   6.787
10204SOL    HW131511   5.491   6.553   6.843
10204SOL    HW231512   5.414   6.678   6.771
10205SOL     OW31513   0.522   1.658   0.448
10205SOL    HW131514   0.563   1.749   0.439
10205SOL    HW231515   0.594   1.589   0.449
10206SOL     OW31516   0.898   1.163   6.038
10206SOL    HW131517   0.853   1.235   6.090
10206SOL    HW231518   0.981   1.199   5.996
10207SOL     OW31519   1.357   1.632   6.301
10207SOL    HW131520   1.359   1.619   6.401
10207SOL    HW231521   1.411   1.559   6.258
10208SOL     OW31522   5.868   5.368   4.330
10208SOL    HW131523   5.909   5.358   4.421
10208SOL    HW231524   5.775   5.333   4.331
10209SOL     OW31525   6.937   0.283   5.985
10209SOL    HW131526   0.008   0.251   5.954
10209SOL    HW231527   6.945   0.375   6.022
10210SOL     OW31528   4.090   6.674   1.069
10210SOL    HW131529   4.110   6.589   1.118
10210SOL    HW231530   4.170   6.734   1.073
10211SOL     OW31531   3.486   6.417   4.869
10211SOL    HW131532   3.489   6.479   4.947
10211SOL    HW231533   3.578   6.402   4.834
10212SOL     OW31534   1.065   7.009   5.310
10212SOL    HW131535   1.026   6.933   5.361
10212SOL    HW231536   1.107   6.975   5.226
10213SOL     OW31537   4.966   2.712   0.846
10213SOL    HW131538   4.884   2.656   0.856
10213SOL    HW231539   5.028   2.695   0.924
10214SOL     OW31540   1.293   1.719   1.385
10214SOL    HW131541   1.381   1.746   1.423
10214SOL    HW231542   1.234   1.687   1.459
10215SOL     OW31543   4.139   3.654   3.221
10215SOL    HW131544   4.161   3.572   3.169
10215SOL    HW231545   4.148   3.734   3.162
10216SOL     OW31546   6.151   0.676   1.905
10216SOL    HW131547   6.068   0.645   1.951
10216SOL    HW231548   6.171   0.771   1.931
10217SOL     OW31549   2.725   0.859   3.731
10217SOL    HW131550   2.686   0.949   3.711
10217SOL    HW231551   2.807   0.869   3.786
10218SOL     OW31552   0.931   2.769   1.511
10218SOL    HW131553   0.842   2.804   1.484
10218SOL    HW231554   0.999   2.791   1.440
10219SOL     OW31555   0.529   1.446   2.158
10219SOL    HW131556   0.551   1.542   2.175
10219SOL    HW231557   0.485   1.438   2.069
10220SOL     OW31558   3.707   3.092   1.038
10220SOL    HW131559   3.741   3.005   1.072
10220SOL    HW231560   3.764   3.166   1.073
10221SOL     OW31561   0.813   5.727   3.183
10221SOL    HW131562   0.843   5.717   3.088
10221SOL    HW231563   0.718   5.758   3.185
10222SOL     OW31564   3.001   3.310   4.589
10222SOL    HW131565   2.916   3.314   4.641
10222SOL    HW231566   2.980   3.313   4.491
10223SOL     OW31567   0.858   5.497   1.176
10223SOL    HW131568   0.797   5.493   1.097
10223SOL    HW231569   0.889   5.591   1.189
10224SOL     OW31570   5.943   3.635   3.744
10224SOL    HW131571   6.011   3.615   3.673
10224SOL    HW231572   5.897   3.551   3.771
10225SOL     OW31573   1.367   4.094   5.658
10225SOL    HW131574   1.359   4.060   5.752
10225SOL    HW231575   1.329   4.028   5.594
10226SOL     OW31576   3.848   2.116   6.955
10226SOL    HW131577   3.940   2.153   6.942
10226SOL    HW231578   3.781   2.189   6.944
10227SOL     OW31579   5.543   3.978   0.937
10227SOL    HW131580   5.603   3.926   0.877
10227SOL    HW231581   5.599   4.041   0.992
10228SOL     OW31582   6.071   0.669   0.279
10228SOL    HW131583   6.071   0.591   0.217
10228SOL    HW231584   5.983   0.674   0.327
10229SOL     OW31585   0.485   3.148   5.202
10229SOL    HW131586   0.404   3.204   5.219
10229SOL    HW231587   0.567   3.198   5.231
10230SOL     OW31588   6.690   5.575   2.448
10230SOL    HW131589   6.748   5.564   2.528
10230SOL    HW231590   6.635   5.659   2.458
10231SOL     OW31591   1.431   6.348   3.505
10231SOL    HW131592   1.439   6.256   3.467
10231SOL    HW231593   1.465   6.414   3.438
10232SOL     OW31594   3.513   0.308   3.102
10232SOL    HW131595   3.466   0.221   3.117
10232SOL    HW231596   3.574   0.326   3.179
10233SOL     OW31597   3.764   4.248   6.223
10233SOL    HW131598   3.848   4.234   6.172
10233SOL    HW231599   3.686   4.240   6.161
10234SOL     OW31600   6.187   0.808   1.203
10234SOL    HW131601   6.093   0.788   1.228
10234SOL    HW231602   6.204   0.776   1.110
10235SOL     OW31603   1.246   0.904   3.346
10235SOL    HW131604   1.261   0.839   3.420
10235SOL    HW231605   1.294   0.989   3.366
10236SOL     OW31606   2.851   6.467   0.042
10236SOL    HW131607   2.773   6.411   0.070
10236SOL    HW231608   2.907   6.417   6.995
10237SOL     OW31609   0.399   3.100   6.778
10237SOL    HW131610   0.390   3.199   6.768
10237SOL    HW231611   0.312   3.061   6.806
10238SOL     OW31612   3.951   5.086   1.120
10238SOL    HW131613   3.940   4.987   1.119
10238SOL    HW231614   4.002   5.114   1.039
10239SOL     OW31615   1.713   2.954   4.611
10239SOL    HW131616   1.731   2.960   4.513
10239SOL    HW231617   1.674   3.041   4.643
10240SOL     OW31618   2.410   6.867   1.528
10240SOL    HW131619   2.383   6.963   1.535
10240SOL    HW231620   2.328   6.810   1.524
10241SOL     OW31621   4.769   2.201   2.036
10241SOL    HW131622   4.818   2.125   2.078
10241SOL    HW231623   4.766   2.278   2.100
10242SOL     OW31624   0.156   2.390   0.725
10242SOL    HW131625   0.240   2.387   0.780
10242SOL    HW231626   0.086   2.442   0.774
10243SOL     OW31627   2.668   4.451   0.897
10243SOL    HW131628   2.697   4.455   0.801
10243SOL    HW231629   2.709   4.527   0.948
10244SOL     OW31630   2.312   4.006   1.415
10244SOL    HW131631   2.324   3.921   1.466
10244SOL    HW231632   2.235   4.057   1.453
10245SOL     OW31633   3.320   4.116   0.427
10245SOL    HW131634   3.355   4.064   0.505
10245SOL    HW231635   3.378   4.100   0.347
10246SOL     OW31636   3.442   2.940   4.450
10246SOL    HW131637   3.425   2.931   4.548
10246SOL    HW231638   3.355   2.950   4.402
10247SOL     OW31639   1.132   3.902   4.681
10247SOL    HW131640   1.178   3.973   4.734
10247SOL    HW231641   1.199   3.857   4.621
10248SOL     OW31642   1.333   0.448   3.628
10248SOL    HW131643   1.257   0.390   3.655
10248SOL    HW231644   1.380   0.409   3.550
10249SOL     OW31645   1.804   4.757   6.985
10249SOL    HW131646   1.789   4.703   0.049
10249SOL    HW231647   1.851   4.702   6.917
10250SOL     OW31648   5.341   2.944   6.911
10250SOL    HW131649   5.385   2.996   6.838
10250SOL    HW231650   5.381   2.971   6.999
10251SOL     OW31651   1.661   0.259   3.955
10251SOL    HW131652   1.710   0.210   3.883
10251SOL    HW231653   1.601   0.327   3.914
10252SOL     OW31654   4.495   4.001   5.667
10252SOL    HW131655   4.414   4.012   5.725
10252SOL    HW231656   4.570   3.962   5.720
10253SOL     OW31657   3.780   6.731   6.765
10253SOL    HW131658   3.815   6.657   6.823
10253SOL    HW231659   3.680   6.731   6.768
10254SOL     OW31660   5.309   1.897   5.021
10254SOL    HW131661   5.366   1.902   4.938
10254SOL    HW231662   5.350   1.953   5.093
10255SOL     OW31663   3.121   5.816   1.360
10255SOL    HW131664   3.046   5.882   1.364
10255SOL    HW231665   3.180   5.838   1.282
10256SOL     OW31666   5.328   0.926   1.731
10256SOL    HW131667   5.331   0.873   1.646
10256SOL    HW231668   5.401   0.995   1.729
10257SOL     OW31669   2.970   5.101   3.166
10257SOL    HW131670   2.977   5.177   3.102
10257SOL    HW231671   2.918   5.026   3.123
10258SOL     OW31672   2.753   1.852   2.535
10258SOL    HW131673   2.797   1.762   2.528
10258SOL    HW231674   2.808   1.919   2.484
10259SOL     OW31675   0.917   4.034   4.281
10259SOL    HW131676   0.864   4.072   4.356
10259SOL    HW231677   1.014   4.042   4.301
10260SOL     OW31678   1.535   1.143   3.779
10260SOL    HW131679   1.456   1.179   3.730
10260SOL    HW231680   1.611   1.129   3.715
10261SOL     OW31681   0.391   3.606   0.497
10261SOL    HW131682   0.413   3.637   0.590
10261SOL    HW231683   0.468   3.625   0.436
10262SOL     OW31684   3.817   1.093   6.706
10262SOL    HW131685   3.916   1.090   6.697
10262SOL    HW231686   3.775   1.049   6.627
10263SOL     OW31687   6.017   1.016   0.963
10263SOL    HW131688   6.020   1.097   0.903
10263SOL    HW231689   6.007   0.934   0.907
10264SOL     OW31690   6.175   4.958   6.717
10264SOL    HW131691   6.230   5.004   6.647
10264SOL    HW231692   6.079   4.962   6.692
10265SOL     OW31693   2.364   2.721   0.440
10265SOL    HW131694   2.449   2.670   0.426
10265SOL    HW231695   2.288   2.673   0.398
10266SOL     OW31696   3.156   3.016   2.681
10266SOL    HW131697   3.099   3.058   2.610
10266SOL    HW231698   3.110   3.023   2.769
10267SOL     OW31699   5.560   0.300   0.592
10267SOL    HW131700   5.512   0.223   0.634
10267SOL    HW231701   5.523   0.386   0.627
10268SOL     OW31702   4.993   0.410   1.369
10268SOL    HW131703   4.940   0.471   1.428
10268SOL    HW231704   4.943   0.394   1.284
10269SOL     OW31705   1.746   2.067   6.461
10269SOL    HW131706   1.697   2.118   6.391
10269SOL    HW231707   1.793   1.989   6.418
10270SOL     OW31708   3.470   6.064   2.291
10270SOL    HW131709   3.498   5.968   2.298
10270SOL    HW231710   3.542   6.116   2.246
10271SOL     OW31711   2.785   1.979   0.729
10271SOL    HW131712   2.706   1.990   0.790
10271SOL    HW231713   2.758   1.929   0.648
10272SOL     OW31714   6.714   0.902   4.503
10272SOL    HW131715   6.649   0.978   4.509
10272SOL    HW231716   6.800   0.934   4.465
10273SOL     OW31717   2.889   5.441   4.318
10273SOL    HW131718   2.988   5.438   4.337
10273SOL    HW231719   2.854   5.348   4.313
10274SOL     OW31720   0.111   4.799   5.584
10274SOL    HW131721   0.206   4.797   5.553
10274SOL    HW231722   0.050   4.783   5.506
10275SOL     OW31723   0.002   0.743   3.036
10275SOL    HW131724   6.941   0.688   3.010
10275SOL    HW231725   0.084   0.686   3.032
10276SOL     OW31726   4.650   5.862   5.384
10276SOL    HW131727   4.636   5.922   5.463
10276SOL    HW231728   4.638   5.767   5.412
10277SOL     OW31729   1.574   6.901   3.873
10277SOL    HW131730   1.630   6.984   3.876
10277SOL    HW231731   1.591   6.847   3.956
10278SOL     OW31732   0.461   0.214   4.882
10278SOL    HW131733   0.518   0.147   4.835
10278SOL    HW231734   0.498   0.306   4.869
10279SOL     OW31735   2.524   5.447   4.509
10279SOL    HW131736   2.457   5.377   4.532
10279SOL    HW231737   2.478   5.525   4.467
10280SOL     OW31738   5.530   3.749   1.082
10280SOL    HW131739   5.448   3.696   1.064
10280SOL    HW231740   5.531   3.831   1.025
10281SOL     OW31741   6.537   2.268   3.425
10281SOL    HW131742   6.606   2.258   3.354
10281SOL    HW231743   6.562   2.342   3.487
10282SOL     OW31744   4.970   3.266   2.761
10282SOL    HW131745   4.918   3.183   2.739
10282SOL    HW231746   5.002   3.309   2.677
10283SOL     OW31747   0.186   3.637   1.076
10283SOL    HW131748   0.185   3.731   1.043
10283SOL    HW231749   0.281   3.608   1.093
10284SOL     OW31750   0.459   2.157   3.856
10284SOL    HW131751   0.401   2.164   3.937
10284SOL    HW231752   0.504   2.244   3.840
10285SOL     OW31753   4.118   6.175   3.642
10285SOL    HW131754   4.084   6.224   3.561
10285SOL    HW231755   4.203   6.218   3.673
10286SOL     OW31756   3.220   1.295   4.041
10286SOL    HW131757   3.253   1.269   3.950
10286SOL    HW231758   3.193   1.391   4.041
10287SOL     OW31759   2.043   6.247   1.897
10287SOL    HW131760   2.139   6.242   1.924
10287SOL    HW231761   2.024   6.336   1.856
10288SOL     OW31762   3.212   6.867   4.951
10288SOL    HW131763   3.215   6.787   4.891
10288SOL    HW231764   3.125   6.915   4.938
10289SOL     OW31765   3.193   6.378   0.464
10289SOL    HW131766   3.202   6.303   0.529
10289SOL    HW231767   3.098   6.407   0.459
10290SOL     OW31768   2.976   3.137   2.509
10290SOL    HW131769   2.918   3.201   2.559
10290SOL    HW231770   2.929   3.106   2.427
10291SOL     OW31771   3.385   0.717   2.831
10291SOL    HW131772   3.458   0.655   2.803
10291SOL    HW231773   3.323   0.668   2.894
10292SOL     OW31774   0.144   0.866   6.258
10292SOL    HW131775   0.076   0.937   6.279
10292SOL    HW231776   0.227   0.882   6.311
10293SOL     OW31777   0.875   3.805   3.870
10293SOL    HW131778   0.839   3.735   3.808
10293SOL    HW231779   0.836   3.791   3.961
10294SOL     OW31780   3.712   2.134   2.788
10294SOL    HW131781   3.675   2.211   2.839
10294SOL    HW231782   3.748   2.066   2.852
10295SOL     OW31783   1.350   2.451   6.357
10295SOL    HW131784   1.338   2.384   6.430
10295SOL    HW231785   1.273   2.514   6.355
10296SOL     OW31786   5.648   1.040   5.678
10296SOL    HW131787   5.575   1.030   5.611
10296SOL    HW231788   5.736   1.020   5.635
10297SOL     OW31789   3.100   2.028   6.708
10297SOL    HW131790   3.044   2.103   6.743
10297SOL    HW231791   3.197   2.049   6.720
10298SOL     OW31792   0.943   4.002   2.131
10298SOL    HW131793   0.860   3.967   2.087
10298SOL    HW231794   1.023   3.961   2.088
10299SOL     OW31795   4.863   6.777   2.457
10299SOL    HW131796   4.858   6.687   2.500
10299SOL    HW231797   4.813   6.843   2.514
10300SOL     OW31798   1.123   4.212   2.066
10300SOL    HW131799   1.091   4.218   1.971
10300SOL    HW231800   1.093   4.125   2.105
10301SOL     OW31801   3.886   1.634   5.590
10301SOL    HW131802   3.911   1.537   5.593
10301SOL    HW231803   3.833   1.652   5.508
10302SOL     OW31804   2.875   6.307   4.365
10302SOL    HW131805   2.871   6.222   4.313
10302SOL    HW231806   2.785   6.327   4.404
10303SOL     OW31807   1.167   6.373   3.956
10303SOL    HW131808   1.254   6.390   3.910
10303SOL    HW231809   1.100   6.443   3.928
10304SOL     OW31810   6.386   0.067   0.147
10304SOL    HW131811   6.300   0.028   0.112
10304SOL    HW231812   6.462   0.006   0.124
10305SOL     OW31813   3.125   3.872   5.711
10305SOL    HW131814   3.210   3.892   5.663
10305SOL    HW231815   3.048   3.901   5.656
10306SOL     OW31816   5.665   6.678   0.747
10306SOL    HW131817   5.578   6.723   0.765
10306SOL    HW231818   5.660   6.630   0.660
10307SOL     OW31819   2.853   1.333   4.865
10307SOL    HW131820   2.899   1.421   4.854
10307SOL    HW231821   2.893   1.284   4.943
10308SOL     OW31822   2.308   4.735   2.581
10308SOL    HW131823   2.313   4.636   2.591
10308SOL    HW231824   2.282   4.758   2.487
10309SOL     OW31825   5.800   0.590   5.636
10309SOL    HW131826   5.720   0.614   5.581
10309SOL    HW231827   5.770   0.542   5.718
10310SOL     OW31828   2.519   3.293   6.886
10310SOL    HW131829   2.477   3.207   6.857
10310SOL    HW231830   2.455   3.368   6.871
10311SOL     OW31831   5.698   5.662   0.074
10311SOL    HW131832   5.603   5.680   0.099
10311SOL    HW231833   5.714   5.693   6.999
10312SOL     OW31834   4.230   0.162   1.696
10312SOL    HW131835   4.191   0.070   1.689
10312SOL    HW231836   4.180   0.215   1.764
10313SOL     OW31837   4.354   5.602   2.971
10313SOL    HW131838   4.349   5.700   2.989
10313SOL    HW231839   4.262   5.564   2.966
10314SOL     OW31840   0.566   0.762   6.846
10314SOL    HW131841   0.557   0.677   6.793
10314SOL    HW231842   0.532   0.747   6.938
10315SOL     OW31843   5.051   6.534   3.445
10315SOL    HW131844   5.096   6.603   3.502
10315SOL    HW231845   4.968   6.573   3.407
10316SOL     OW31846   6.649   1.825   6.119
10316SOL    HW131847   6.728   1.885   6.114
10316SOL    HW231848   6.654   1.756   6.046
10317SOL     OW31849   3.594   6.007   5.915
10317SOL    HW131850   3.571   5.944   5.990
10317SOL    HW231851   3.564   5.968   5.828
10318SOL     OW31852   5.243   0.149   6.757
10318SOL    HW131853   5.244   0.075   6.825
10318SOL    HW231854   5.205   0.114   6.671
10319SOL     OW31855   0.398   4.808   5.534
10319SOL    HW131856   0.469   4.808   5.605
10319SOL    HW231857   0.424   4.745   5.461
10320SOL     OW31858   0.059   0.039   3.719
10320SOL    HW131859   0.144   0.050   3.667
10320SOL    HW231860   0.044   0.119   3.776
10321SOL     OW31861   6.126   2.221   2.145
10321SOL    HW131862   6.147   2.271   2.060
10321SOL    HW231863   6.089   2.284   2.213
10322SOL     OW31864   4.218   4.711   4.658
10322SOL    HW131865   4.268   4.637   4.614
10322SOL    HW231866   4.239   4.711   4.756
10323SOL     OW31867   6.354   4.711   5.406
10323SOL    HW131868   6.354   4.772   5.485
10323SOL    HW231869   6.446   4.708   5.366
10324SOL     OW31870   2.954   3.583   2.421
10324SOL    HW131871   2.922   3.518   2.490
10324SOL    HW231872   2.941   3.545   2.330
10325SOL     OW31873   0.161   5.366   2.703
10325SOL    HW131874   0.229   5.336   2.637
10325SOL    HW231875   0.072   5.327   2.679
10326SOL     OW31876   5.506   3.859   6.887
10326SOL    HW131877   5.488   3.866   6.789
10326SOL    HW231878   5.605   3.858   6.902
10327SOL     OW31879   2.379   3.167   1.178
10327SOL    HW131880   2.317   3.183   1.101
10327SOL    HW231881   2.379   3.246   1.238
10328SOL     OW31882   6.611   3.030   2.334
10328SOL    HW131883   6.535   2.977   2.371
10328SOL    HW231884   6.628   3.110   2.392
10329SOL     OW31885   3.099   0.523   2.597
10329SOL    HW131886   3.166   0.591   2.566
10329SOL    HW231887   3.038   0.565   2.664
10330SOL     OW31888   4.702   0.727   0.880
10330SOL    HW131889   4.687   0.791   0.805
10330SOL    HW231890   4.704   0.633   0.844
10331SOL     OW31891   6.413   6.063   6.568
10331SOL    HW131892   6.380   5.974   6.538
10331SOL    HW231893   6.385   6.133   6.503
10332SOL     OW31894   1.006   0.627   6.573
10332SOL    HW131895   1.005   0.664   6.480
10332SOL    HW231896   1.091   0.653   6.618
10333SOL     OW31897   0.760   5.574   4.484
10333SOL    HW131898   0.666   5.607   4.480
10333SOL    HW231899   0.821   5.638   4.436
10334SOL     OW31900   2.942   6.943   4.204
10334SOL    HW131901   2.930   6.982   4.296
10334SOL    HW231902   3.025   6.982   4.163
10335SOL     OW31903   0.737   4.424   6.630
10335SOL    HW131904   0.754   4.327   6.612
10335SOL    HW231905   0.825   4.472   6.640
10336SOL     OW31906   6.571   6.898   2.041
10336SOL    HW131907   6.573   6.821   1.977
10336SOL    HW231908   6.615   6.871   2.127
10337SOL     OW31909   6.619   5.723   0.246
10337SOL    HW131910   6.604   5.626   0.263
10337SOL    HW231911   6.531   5.768   0.231
10338SOL     OW31912   1.870   6.669   2.388
10338SOL    HW131913   1.966   6.647   2.401
10338SOL    HW231914   1.854   6.765   2.412
10339SOL     OW31915   6.026   3.683   6.282
10339SOL    HW131916   5.976   3.671   6.196
10339SOL    HW231917   5.990   3.762   6.331
10340SOL     OW31918   1.928   2.647   6.425
10340SOL    HW131919   1.886   2.688   6.344
10340SOL    HW231920   1.861   2.591   6.473
10341SOL     OW31921   2.082   3.480   2.222
10341SOL    HW131922   1.993   3.447   2.189
10341SOL    HW231923   2.136   3.513   2.145
10342SOL     OW31924   1.856   0.582   3.601
10342SOL    HW131925   1.930   0.618   3.543
10342SOL    HW231926   1.892   0.560   3.691
10343SOL     OW31927   2.639   5.259   0.791
10343SOL    HW131928   2.616   5.255   0.693
10343SOL    HW231929   2.617   5.172   0.834
10344SOL     OW31930   3.275   3.946   6.864
10344SOL    HW131931   3.245   3.985   6.777
10344SOL    HW231932   3.372   3.965   6.878
10345SOL     OW31933   1.382   3.004   5.469
10345SOL    HW131934   1.344   2.938   5.404
10345SOL    HW231935   1.477   3.024   5.446
10346SOL     OW31936   0.381   5.535   1.480
10346SOL    HW131937   0.294   5.492   1.506
10346SOL    HW231938   0.425   5.574   1.561
10347SOL     OW31939   4.601   1.185   3.377
10347SOL    HW131940   4.692   1.214   3.346
10347SOL    HW231941   4.534   1.255   3.354
10348SOL     OW31942   6.143   2.910   0.546
10348SOL    HW131943   6.239   2.924   0.571
10348SOL    HW231944   6.084   2.941   0.621
10349SOL     OW31945   0.938   0.239   6.762
10349SOL    HW131946   1.003   0.314   6.775
10349SOL    HW231947   0.877   0.262   6.686
10350SOL     OW31948   2.767   6.008   5.070
10350SOL    HW131949   2.699   6.081   5.076
10350SOL    HW231950   2.811   5.997   5.159
10351SOL     OW31951   4.887   5.720   5.525
10351SOL    HW131952   4.809   5.660   5.507
10351SOL    HW231953   4.854   5.811   5.549
10352SOL     OW31954   3.570   1.083   6.253
10352SOL    HW131955   3.629   1.132   6.189
10352SOL    HW231956   3.484   1.059   6.208
10353SOL     OW31957   6.610   3.079   4.714
10353SOL    HW131958   6.553   3.127   4.780
10353SOL    HW231959   6.703   3.072   4.748
10354SOL     OW31960   5.127   1.020   1.248
10354SOL    HW131961   5.225   1.012   1.267
10354SOL    HW231962   5.106   1.113   1.220
10355SOL     OW31963   2.525   6.414   2.403
10355SOL    HW131964   2.442   6.372   2.440
10355SOL    HW231965   2.586   6.343   2.368
10356SOL     OW31966   6.560   3.949   5.697
10356SOL    HW131967   6.658   3.953   5.712
10356SOL    HW231968   6.541   3.909   5.608
10357SOL     OW31969   2.363   2.151   6.330
10357SOL    HW131970   2.377   2.250   6.334
10357SOL    HW231971   2.268   2.131   6.309
10358SOL     OW31972   0.068   2.859   2.704
10358SOL    HW131973   0.015   2.795   2.649
10358SOL    HW231974   0.125   2.915   2.644
10359SOL     OW31975   0.344   1.388   1.586
10359SOL    HW131976   0.413   1.370   1.517
10359SOL    HW231977   0.293   1.471   1.562
10360SOL     OW31978   5.002   5.583   3.084
10360SOL    HW131979   4.913   5.537   3.072
10360SOL    HW231980   5.039   5.608   2.995
10361SOL     OW31981   2.963   5.908   2.586
10361SOL    HW131982   2.902   5.833   2.560
10361SOL    HW231983   2.920   5.995   2.563
10362SOL     OW31984   2.166   4.875   4.912
10362SOL    HW131985   2.263   4.852   4.928
10362SOL    HW231986   2.109   4.798   4.941
10363SOL     OW31987   5.459   0.389   2.799
10363SOL    HW131988   5.463   0.310   2.738
10363SOL    HW231989   5.469   0.473   2.745
10364SOL     OW31990   2.472   3.979   1.202
10364SOL    HW131991   2.399   3.969   1.270
10364SOL    HW231992   2.436   3.958   1.111
10365SOL     OW31993   4.411   5.373   6.986
10365SOL    HW131994   4.362   5.297   6.943
10365SOL    HW231995   4.354   5.415   0.037
10366SOL     OW31996   2.459   6.660   3.920
10366SOL    HW131997   2.458   6.596   3.997
10366SOL    HW231998   2.549   6.659   3.877
10367SOL     OW31999   6.096   2.351   2.924
10367SOL    HW132000   6.044   2.273   2.888
10367SOL    HW232001   6.178   2.317   2.969
10368SOL     OW32002   2.263   1.070   2.312
10368SOL    HW132003   2.249   0.984   2.362
10368SOL    HW232004   2.350   1.111   2.340
10369SOL     OW32005   3.813   1.852   0.851
10369SOL    HW132006   3.768   1.935   0.884
10369SOL    HW232007   3.748   1.776   0.850
10370SOL     OW32008   4.049   0.878   5.288
10370SOL    HW132009   4.141   0.844   5.267
10370SOL    HW232010   3.997   0.888   5.203
10371SOL     OW32011   4.221   6.161   5.086
10371SOL    HW132012   4.158   6.233   5.057
10371SOL    HW232013   4.237   6.098   5.009
10372SOL     OW32014   2.468   0.927   4.436
10372SOL    HW132015   2.489   1.006   4.494
10372SOL    HW232016   2.477   0.843   4.490
10373SOL     OW32017   1.223   6.660   4.588
10373SOL    HW132018   1.226   6.654   4.688
10373SOL    HW232019   1.155   6.727   4.560
10374SOL     OW32020   3.410   1.809   3.212
10374SOL    HW132021   3.352   1.728   3.219
10374SOL    HW232022   3.354   1.891   3.225
10375SOL     OW32023   5.628   2.186   1.096
10375SOL    HW132024   5.585   2.115   1.041
10375SOL    HW232025   5.695   2.145   1.157
10376SOL     OW32026   0.471   1.315   3.734
10376SOL    HW132027   0.509   1.384   3.795
10376SOL    HW232028   0.450   1.232   3.786
10377SOL     OW32029   0.349   0.537   4.078
10377SOL    HW132030   0.368   0.515   4.173
10377SOL    HW232031   0.431   0.519   4.022
10378SOL     OW32032   6.571   0.493   6.155
10378SOL    HW132033   6.627   0.419   6.120
10378SOL    HW232034   6.526   0.464   6.239
10379SOL     OW32035   5.187   0.511   4.514
10379SOL    HW132036   5.282   0.501   4.545
10379SOL    HW232037   5.181   0.586   4.448
10380SOL     OW32038   5.748   0.143   2.397
10380SOL    HW132039   5.713   0.134   2.304
10380SOL    HW232040   5.727   0.059   2.448
10381SOL     OW32041   4.684   5.288   5.943
10381SOL    HW132042   4.628   5.364   5.977
10381SOL    HW232043   4.628   5.228   5.885
10382SOL     OW32044   2.299   5.565   6.295
10382SOL    HW132045   2.308   5.486   6.235
10382SOL    HW232046   2.367   5.560   6.368
10383SOL     OW32047   0.889   2.578   1.186
10383SOL    HW132048   0.861   2.538   1.099
10383SOL    HW232049   0.809   2.620   1.230
10384SOL     OW32050   6.706   6.645   0.307
10384SOL    HW132051   6.695   6.561   0.360
10384SOL    HW232052   6.794   6.687   0.328
10385SOL     OW32053   6.139   1.008   6.015
10385SOL    HW132054   6.151   1.094   6.065
10385SOL    HW232055   6.113   1.029   5.920
10386SOL     OW32056   6.671   2.661   5.302
10386SOL    HW132057   6.758   2.618   5.277
10386SOL    HW232058   6.596   2.605   5.268
10387SOL     OW32059   1.755   2.837   3.027
10387SOL    HW132060   1.827   2.800   3.086
10387SOL    HW232061   1.791   2.914   2.975
10388SOL     OW32062   1.608   4.975   3.165
10388SOL    HW132063   1.636   4.910   3.235
10388SOL    HW232064   1.688   5.025   3.132
10389SOL     OW32065   1.135   4.710   3.883
10389SOL    HW132066   1.191   4.741   3.959
10389SOL    HW232067   1.144   4.611   3.873
10390SOL     OW32068   1.004   3.239   3.192
10390SOL    HW132069   0.956   3.200   3.113
10390SOL    HW232070   1.102   3.237   3.175
10391SOL     OW32071   2.318   6.320   6.698
10391SOL    HW132072   2.316   6.363   6.608
10391SOL    HW232073   2.364   6.381   6.763
10392SOL     OW32074   6.367   5.020   0.616
10392SOL    HW132075   6.420   5.095   0.576
10392SOL    HW232076   6.334   5.046   0.707
10393SOL     OW32077   0.630   0.927   4.266
10393SOL    HW132078   0.622   0.924   4.166
10393SOL    HW232079   0.725   0.945   4.291
10394SOL     OW32080   2.307   6.468   0.234
10394SOL    HW132081   2.324   6.548   0.291
10394SOL    HW232082   2.258   6.496   0.151
10395SOL     OW32083   0.111   0.571   4.576
10395SOL    HW132084   0.157   0.646   4.623
10395SOL    HW232085   0.133   0.574   4.479
10396SOL     OW32086   0.844   0.162   4.513
10396SOL    HW132087   0.855   0.259   4.535
10396SOL    HW232088   0.934   0.123   4.492
10397SOL     OW32089   3.643   1.209   3.516
10397SOL    HW132090   3.662   1.262   3.599
10397SOL    HW232091   3.704   1.130   3.512
10398SOL     OW32092   6.117   2.591   1.829
10398SOL    HW132093   6.057   2.518   1.861
10398SOL    HW232094   6.088   2.620   1.737
10399SOL     OW32095   5.438   2.422   4.910
10399SOL    HW132096   5.408   2.513   4.940
10399SOL    HW232097   5.408   2.406   4.816
10400SOL     OW32098   2.624   5.389   2.194
10400SOL    HW132099   2.639   5.482   2.227
10400SOL    HW232100   2.643   5.325   2.268
10401SOL     OW32101   0.793   6.076   1.893
10401SOL    HW132102   0.824   6.077   1.798
10401SOL    HW232103   0.760   5.985   1.916
10402SOL     OW32104   0.907   3.504   4.786
10402SOL    HW132105   0.819   3.487   4.829
10402SOL    HW232106   0.904   3.590   4.735
10403SOL     OW32107   5.641   1.333   1.750
10403SOL    HW132108   5.634   1.373   1.658
10403SOL    HW232109   5.735   1.340   1.782
10404SOL     OW32110   0.538   6.743   3.916
10404SOL    HW132111   0.488   6.780   3.994
10404SOL    HW232112   0.474   6.707   3.849
10405SOL     OW32113   1.656   6.376   5.943
10405SOL    HW132114   1.590   6.437   5.900
10405SOL    HW232115   1.609   6.294   5.976
10406SOL     OW32116   2.296   3.834   5.901
10406SOL    HW132117   2.199   3.845   5.923
10406SOL    HW232118   2.315   3.875   5.812
10407SOL     OW32119   1.040   2.533   6.826
10407SOL    HW132120   1.088   2.447   6.809
10407SOL    HW232121   1.064   2.567   6.917
10408SOL     OW32122   4.680   5.092   3.351
10408SOL    HW132123   4.768   5.051   3.374
10408SOL    HW232124   4.661   5.076   3.254
10409SOL     OW32125   0.324   4.584   2.206
10409SOL    HW132126   0.306   4.540   2.294
10409SOL    HW232127   0.382   4.525   2.150
10410SOL     OW32128   4.516   0.621   1.073
10410SOL    HW132129   4.534   0.540   1.129
10410SOL    HW232130   4.594   0.638   1.012
10411SOL     OW32131   2.604   4.648   2.885
10411SOL    HW132132   2.576   4.681   2.975
10411SOL    HW232133   2.535   4.585   2.850
10412SOL     OW32134   1.199   2.176   0.422
10412SOL    HW132135   1.213   2.273   0.402
10412SOL    HW232136   1.275   2.123   0.383
10413SOL     OW32137   6.782   2.686   6.869
10413SOL    HW132138   6.850   2.615   6.885
10413SOL    HW232139   6.825   2.776   6.882
10414SOL     OW32140   5.689   6.213   6.158
10414SOL    HW132141   5.786   6.234   6.172
10414SOL    HW232142   5.649   6.178   6.242
10415SOL     OW32143   0.427   6.270   3.895
10415SOL    HW132144   0.420   6.172   3.874
10415SOL    HW232145   0.517   6.303   3.865
10416SOL     OW32146   5.723   1.380   5.007
10416SOL    HW132147   5.792   1.430   5.059
10416SOL    HW232148   5.731   1.282   5.027
10417SOL     OW32149   3.854   4.900   3.852
10417SOL    HW132150   3.944   4.943   3.849
10417SOL    HW232151   3.860   4.807   3.815
10418SOL     OW32152   6.296   3.946   6.810
10418SOL    HW132153   6.383   3.896   6.799
10418SOL    HW232154   6.245   3.940   6.724
10419SOL     OW32155   3.250   1.120   4.615
10419SOL    HW132156   3.323   1.189   4.617
10419SOL    HW232157   3.276   1.046   4.554
10420SOL     OW32158   6.772   3.688   3.589
10420SOL    HW132159   6.843   3.722   3.527
10420SOL    HW232160   6.797   3.711   3.683
10421SOL     OW32161   1.250   4.347   4.309
10421SOL    HW132162   1.158   4.311   4.320
10421SOL    HW232163   1.261   4.429   4.365
10422SOL     OW32164   6.365   3.443   4.798
10422SOL    HW132165   6.335   3.463   4.705
10422SOL    HW232166   6.320   3.506   4.862
10423SOL     OW32167   3.427   4.879   4.104
10423SOL    HW132168   3.505   4.855   4.162
10423SOL    HW232169   3.345   4.887   4.160
10424SOL     OW32170   3.212   1.056   0.374
10424SOL    HW132171   3.226   0.973   0.428
10424SOL    HW232172   3.126   1.099   0.401
10425SOL     OW32173   2.030   1.441   0.817
10425SOL    HW132174   2.082   1.364   0.780
10425SOL    HW232175   1.933   1.431   0.793
10426SOL     OW32176   5.985   1.992   5.949
10426SOL    HW132177   5.975   2.076   6.001
10426SOL    HW232178   6.060   2.002   5.883
10427SOL     OW32179   5.555   6.770   4.017
10427SOL    HW132180   5.471   6.730   4.053
10427SOL    HW232181   5.627   6.767   4.087
10428SOL     OW32182   2.195   0.748   4.068
10428SOL    HW132183   2.269   0.731   4.004
10428SOL    HW232184   2.131   0.814   4.029
10429SOL     OW32185   1.000   2.859   2.304
10429SOL    HW132186   1.029   2.781   2.249
10429SOL    HW232187   0.900   2.869   2.299
10430SOL     OW32188   2.889   0.412   3.398
10430SOL    HW132189   2.977   0.386   3.356
10430SOL    HW232190   2.905   0.439   3.493
10431SOL     OW32191   3.243   0.929   3.406
10431SOL    HW132192   3.339   0.925   3.380
10431SOL    HW232193   3.191   0.976   3.334
10432SOL     OW32194   0.761   5.376   5.825
10432SOL    HW132195   0.750   5.359   5.922
10432SOL    HW232196   0.847   5.425   5.808
10433SOL     OW32197   2.349   6.937   2.887
10433SOL    HW132198   2.423   6.923   2.820
10433SOL    HW232199   2.389   6.957   2.977
10434SOL     OW32200   4.485   6.758   5.453
10434SOL    HW132201   4.393   6.728   5.478
10434SOL    HW232202   4.553   6.706   5.506
10435SOL     OW32203   2.389   2.024   6.976
10435SOL    HW132204   2.300   2.064   6.956
10435SOL    HW232205   2.392   1.994   0.053
10436SOL     OW32206   6.254   3.751   4.944
10436SOL    HW132207   6.212   3.804   4.870
10436SOL    HW232208   6.195   3.674   4.968
10437SOL     OW32209   5.301   6.070   4.877
10437SOL    HW132210   5.230   6.135   4.851
10437SOL    HW232211   5.270   6.014   4.953
10438SOL     OW32212   6.636   6.225   6.590
10438SOL    HW132213   6.645   6.247   6.687
10438SOL    HW232214   6.562   6.159   6.577
10439SOL     OW32215   6.890   6.427   5.174
10439SOL    HW132216   6.968   6.429   5.113
10439SOL    HW232217   6.817   6.373   5.134
10440SOL     OW32218   6.684   2.316   6.951
10440SOL    HW132219   6.748   2.255   6.905
10440SOL    HW232220   6.599   2.320   6.898
10441SOL     OW32221   3.942   1.801   0.629
10441SOL    HW132222   3.994   1.716   0.628
10441SOL    HW232223   3.894   1.810   0.717
10442SOL     OW32224   2.618   1.573   5.802
10442SOL    HW132225   2.663   1.625   5.875
10442SOL    HW232226   2.638   1.475   5.814
10443SOL     OW32227   0.260   1.872   3.190
10443SOL    HW132228   0.330   1.929   3.232
10443SOL    HW232229   0.272   1.777   3.220
10444SOL     OW32230   3.704   5.984   4.138
10444SOL    HW132231   3.695   5.884   4.136
10444SOL    HW232232   3.778   6.013   4.077
10445SOL     OW32233   1.392   4.099   2.972
10445SOL    HW132234   1.401   4.052   3.060
10445SOL    HW232235   1.424   4.040   2.898
10446SOL     OW32236   1.616   4.147   5.792
10446SOL    HW132237   1.659   4.168   5.705
10446SOL    HW232238   1.620   4.048   5.809
10447SOL     OW32239   0.417   2.371   2.938
10447SOL    HW132240   0.391   2.280   2.905
10447SOL    HW232241   0.500   2.401   2.890
10448SOL     OW32242   2.512   5.957   2.979
10448SOL    HW132243   2.581   6.027   2.999
10448SOL    HW232244   2.511   5.939   2.880
10449SOL     OW32245   4.044   5.376   5.109
10449SOL    HW132246   4.049   5.474   5.128
10449SOL    HW232247   4.136   5.342   5.087
10450SOL     OW32248   0.198   0.841   5.966
10450SOL    HW132249   0.179   0.865   6.061
10450SOL    HW232250   0.271   0.773   5.963
10451SOL     OW32251   2.767   0.765   3.213
10451SOL    HW132252   2.726   0.673   3.211
10451SOL    HW232253   2.711   0.825   3.270
10452SOL     OW32254   0.013   3.477   4.408
10452SOL    HW132255   6.987   3.424   4.480
10452SOL    HW232256   6.995   3.450   4.319
10453SOL     OW32257   3.914   5.535   3.409
10453SOL    HW132258   3.958   5.462   3.460
10453SOL    HW232259   3.821   5.508   3.385
10454SOL     OW32260   0.035   0.622   6.201
10454SOL    HW132261   0.063   0.710   6.239
10454SOL    HW232262   7.003   0.637   6.116
10455SOL     OW32263   6.120   6.239   3.665
10455SOL    HW132264   6.104   6.241   3.764
10455SOL    HW232265   6.121   6.333   3.630
10456SOL     OW32266   0.940   4.981   0.094
10456SOL    HW132267   0.924   5.072   0.057
10456SOL    HW232268   0.999   4.930   0.032
10457SOL     OW32269   3.632   2.691   6.533
10457SOL    HW132270   3.558   2.725   6.591
10457SOL    HW232271   3.703   2.649   6.590
10458SOL     OW32272   6.776   5.826   6.292
10458SOL    HW132273   6.705   5.841   6.224
10458SOL    HW232274   6.737   5.837   6.384
10459SOL     OW32275   0.287   5.433   0.101
10459SOL    HW132276   0.327   5.380   0.026
10459SOL    HW232277   0.323   5.399   0.188
10460SOL     OW32278   0.760   2.261   0.663
10460SOL    HW132279   0.667   2.263   0.702
10460SOL    HW232280   0.779   2.170   0.626
10461SOL     OW32281   6.727   5.273   5.520
10461SOL    HW132282   6.801   5.313   5.466
10461SOL    HW232283   6.763   5.196   5.572
10462SOL     OW32284   4.309   2.049   0.804
10462SOL    HW132285   4.281   1.993   0.726
10462SOL    HW232286   4.284   2.144   0.787
10463SOL     OW32287   4.844   2.886   6.109
10463SOL    HW132288   4.863   2.808   6.050
10463SOL    HW232289   4.771   2.941   6.068
10464SOL     OW32290   6.738   4.918   2.367
10464SOL    HW132291   6.804   4.937   2.295
10464SOL    HW232292   6.751   4.824   2.400
10465SOL     OW32293   4.983   4.782   1.935
10465SOL    HW132294   5.054   4.762   2.003
10465SOL    HW232295   4.947   4.696   1.899
10466SOL     OW32296   5.979   5.153   6.889
10466SOL    HW132297   6.034   5.127   6.968
10466SOL    HW232298   5.900   5.091   6.882
10467SOL     OW32299   1.787   2.702   6.834
10467SOL    HW132300   1.699   2.749   6.840
10467SOL    HW232301   1.859   2.768   6.815
10468SOL     OW32302   2.862   5.164   3.781
10468SOL    HW132303   2.935   5.147   3.715
10468SOL    HW232304   2.839   5.078   3.827
10469SOL     OW32305   6.454   1.392   4.557
10469SOL    HW132306   6.524   1.463   4.561
10469SOL    HW232307   6.364   1.435   4.548
10470SOL     OW32308   2.203   2.834   3.506
10470SOL    HW132309   2.266   2.764   3.473
10470SOL    HW232310   2.178   2.814   3.601
10471SOL     OW32311   3.487   6.990   0.185
10471SOL    HW132312   3.401   6.983   0.133
10471SOL    HW232313   3.539   0.050   0.151
10472SOL     OW32314   3.241   5.167   6.742
10472SOL    HW132315   3.257   5.077   6.782
10472SOL    HW232316   3.299   5.235   6.787
10473SOL     OW32317   5.377   5.194   6.977
10473SOL    HW132318   5.318   5.268   7.008
10473SOL    HW232319   5.365   5.115   0.018
10474SOL     OW32320   4.807   1.187   3.674
10474SOL    HW132321   4.819   1.241   3.590
10474SOL    HW232322   4.893   1.141   3.696
10475SOL     OW32323   1.267   6.879   1.459
10475SOL    HW132324   1.190   6.865   1.521
10475SOL    HW232325   1.283   6.796   1.406
10476SOL     OW32326   3.541   5.788   6.738
10476SOL    HW132327   3.585   5.792   6.648
10476SOL    HW232328   3.600   5.739   6.802
10477SOL     OW32329   6.444   5.976   3.603
10477SOL    HW132330   6.485   5.917   3.673
10477SOL    HW232331   6.496   5.969   3.519
10478SOL     OW32332   5.661   0.694   0.045
10478SOL    HW132333   5.740   0.669   0.101
10478SOL    HW232334   5.675   0.785   0.006
10479SOL     OW32335   0.678   2.241   2.047
10479SOL    HW132336   0.742   2.176   2.006
10479SOL    HW232337   0.614   2.273   1.977
10480SOL     OW32338   1.894   0.251   2.591
10480SOL    HW132339   1.961   0.243   2.517
10480SOL    HW232340   1.927   0.317   2.659
10481SOL     OW32341   0.194   1.049   2.729
10481SOL    HW132342   0.102   1.012   2.720
10481SOL    HW232343   0.200   1.136   2.680
10482SOL     OW32344   5.095   4.092   4.277
10482SOL    HW132345   5.156   4.069   4.353
10482SOL    HW232346   5.115   4.033   4.199
10483SOL     OW32347   6.328   5.862   0.493
10483SOL    HW132348   6.300   5.954   0.518
10483SOL    HW232349   6.248   5.810   0.463
10484SOL     OW32350   6.364   1.159   2.236
10484SOL    HW132351   6.420   1.091   2.187
10484SOL    HW232352   6.276   1.168   2.190
10485SOL     OW32353   5.370   3.314   5.470
10485SOL    HW132354   5.324   3.249   5.530
10485SOL    HW232355   5.306   3.385   5.442
10486SOL     OW32356   5.545   2.850   1.914
10486SOL    HW132357   5.599   2.917   1.864
10486SOL    HW232358   5.455   2.841   1.870
10487SOL     OW32359   6.272   6.855   1.726
10487SOL    HW132360   6.347   6.789   1.729
10487SOL    HW232361   6.275   6.905   1.639
10488SOL     OW32362   2.555   2.495   6.226
10488SOL    HW132363   2.537   2.422   6.161
10488SOL    HW232364   2.654   2.501   6.243
10489SOL     OW32365   0.556   5.810   6.121
10489SOL    HW132366   0.589   5.851   6.037
10489SOL    HW232367   0.576   5.712   6.120
10490SOL     OW32368   6.871   1.176   3.673
10490SOL    HW132369   6.923   1.133   3.600
10490SOL    HW232370   6.781   1.204   3.638
10491SOL     OW32371   1.683   4.725   5.730
10491SOL    HW132372   1.720   4.705   5.640
10491SOL    HW232373   1.584   4.737   5.724
10492SOL     OW32374   5.025   3.488   5.131
10492SOL    HW132375   4.999   3.398   5.167
10492SOL    HW232376   4.946   3.531   5.089
10493SOL     OW32377   3.338   1.077   1.470
10493SOL    HW132378   3.430   1.082   1.508
10493SOL    HW232379   3.313   0.982   1.455
10494SOL     OW32380   5.959   1.671   4.445
10494SOL    HW132381   5.941   1.612   4.523
10494SOL    HW232382   6.036   1.635   4.393
10495SOL     OW32383   1.356   6.533   0.530
10495SOL    HW132384   1.365   6.489   0.620
10495SOL    HW232385   1.426   6.497   0.468
10496SOL     OW32386   0.089   0.026   6.231
10496SOL    HW132387   0.168   6.983   6.233
10496SOL    HW232388   0.120   0.118   6.209
10497SOL     OW32389   1.201   1.007   1.219
10497SOL    HW132390   1.149   1.085   1.187
10497SOL    HW232391   1.222   0.947   1.142
10498SOL     OW32392   2.203   6.473   6.102
10498SOL    HW132393   2.187   6.541   6.174
10498SOL    HW232394   2.116   6.443   6.063
10499SOL     OW32395   3.157   6.003   3.337
10499SOL    HW132396   3.075   5.950   3.361
10499SOL    HW232397   3.212   5.951   3.273
10500SOL     OW32398   1.298   1.797   5.995
10500SOL    HW132399   1.212   1.819   5.949
10500SOL    HW232400   1.311   1.860   6.072
10501SOL     OW32401   1.715   3.783   2.628
10501SOL    HW132402   1.806   3.820   2.612
10501SOL    HW232403   1.703   3.698   2.578
10502SOL     OW32404   3.345   6.474   6.559
10502SOL    HW132405   3.435   6.441   6.530
10502SOL    HW232406   3.292   6.399   6.597
10503SOL     OW32407   3.274   2.847   0.143
10503SOL    HW132408   3.298   2.855   0.239
10503SOL    HW232409   3.221   2.926   0.114
10504SOL     OW32410   3.069   3.279   0.928
10504SOL    HW132411   3.034   3.234   1.010
10504SOL    HW232412   3.037   3.374   0.925
10505SOL     OW32413   6.826   5.853   1.746
10505SOL    HW132414   6.846   5.878   1.652
10505SOL    HW232415   6.894   5.895   1.807
10506SOL     OW32416   0.437   3.877   5.837
10506SOL    HW132417   0.406   3.925   5.919
10506SOL    HW232418   0.466   3.784   5.861
10507SOL     OW32419   1.187   0.347   6.127
10507SOL    HW132420   1.130   0.340   6.209
10507SOL    HW232421   1.173   0.436   6.084
10508SOL     OW32422   5.630   4.380   3.132
10508SOL    HW132423   5.620   4.399   3.230
10508SOL    HW232424   5.671   4.458   3.086
10509SOL     OW32425   1.141   6.765   6.598
10509SOL    HW132426   1.225   6.720   6.628
10509SOL    HW232427   1.139   6.858   6.632
10510SOL     OW32428   6.185   5.684   6.945
10510SOL    HW132429   6.176   5.615   7.017
10510SOL    HW232430   6.107   5.677   6.883
10511SOL     OW32431   4.463   2.772   0.575
10511SOL    HW132432   4.437   2.708   0.503
10511SOL    HW232433   4.417   2.746   0.660
10512SOL     OW32434   4.135   0.119   5.914
10512SOL    HW132435   4.140   0.037   5.857
10512SOL    HW232436   4.124   0.093   6.010
10513SOL     OW32437   0.558   2.425   6.495
10513SOL    HW132438   0.531   2.465   6.583
10513SOL    HW232439   0.648   2.459   6.469
10514SOL     OW32440   0.047   4.330   0.236
10514SOL    HW132441   0.059   4.408   0.174
10514SOL    HW232442   0.135   4.285   0.250
10515SOL     OW32443   6.785   1.700   3.475
10515SOL    HW132444   6.687   1.702   3.496
10515SOL    HW232445   6.816   1.605   3.472
10516SOL     OW32446   4.056   1.035   5.860
10516SOL    HW132447   4.151   1.017   5.887
10516SOL    HW232448   4.030   0.973   5.787
10517SOL     OW32449   6.337   1.728   2.089
10517SOL    HW132450   6.331   1.643   2.141
10517SOL    HW232451   6.246   1.763   2.072
10518SOL     OW32452   0.868   6.622   0.996
10518SOL    HW132453   0.829   6.591   1.083
10518SOL    HW232454   0.953   6.672   1.013
10519SOL     OW32455   3.072   3.120   6.077
10519SOL    HW132456   3.160   3.158   6.045
10519SOL    HW232457   3.003   3.135   6.007
10520SOL     OW32458   3.478   2.658   6.904
10520SOL    HW132459   3.434   2.599   6.972
10520SOL    HW232460   3.465   2.754   6.929
10521SOL     OW32461   6.648   5.985   1.012
10521SOL    HW132462   6.738   5.953   1.044
10521SOL    HW232463   6.583   5.982   1.088
10522SOL     OW32464   6.707   0.561   0.716
10522SOL    HW132465   6.775   0.514   0.660
10522SOL    HW232466   6.645   0.613   0.658
10523SOL     OW32467   0.410   5.656   5.926
10523SOL    HW132468   0.445   5.592   5.996
10523SOL    HW232469   0.417   5.749   5.961
10524SOL     OW32470   2.298   0.371   4.553
10524SOL    HW132471   2.236   0.444   4.525
10524SOL    HW232472   2.363   0.408   4.620
10525SOL     OW32473   2.016   6.206   5.015
10525SOL    HW132474   2.113   6.200   5.038
10525SOL    HW232475   1.964   6.231   5.097
10526SOL     OW32476   6.977   1.212   2.163
10526SOL    HW132477   6.919   1.158   2.224
10526SOL    HW232478   7.010   1.293   2.210
10527SOL     OW32479   0.793   2.820   4.744
10527SOL    HW132480   0.700   2.822   4.779
10527SOL    HW232481   0.857   2.826   4.821
10528SOL     OW32482   0.083   5.293   5.054
10528SOL    HW132483   0.009   5.259   4.996
10528SOL    HW232484   0.170   5.252   5.025
10529SOL     OW32485   6.404   6.943   3.647
10529SOL    HW132486   6.497   6.915   3.671
10529SOL    HW232487   6.408   0.014   3.602
10530SOL     OW32488   2.814   2.199   6.328
10530SOL    HW132489   2.894   2.209   6.388
10530SOL    HW232490   2.842   2.152   6.244
10531SOL     OW32491   1.925   3.222   4.574
10531SOL    HW132492   1.916   3.185   4.482
10531SOL    HW232493   1.835   3.246   4.610
10532SOL     OW32494   4.284   2.530   6.160
10532SOL    HW132495   4.334   2.614   6.141
10532SOL    HW232496   4.273   2.477   6.076
10533SOL     OW32497   2.716   1.298   5.799
10533SOL    HW132498   2.804   1.252   5.811
10533SOL    HW232499   2.642   1.234   5.821
10534SOL     OW32500   0.498   5.645   0.635
10534SOL    HW132501   0.410   5.679   0.602
10534SOL    HW232502   0.571   5.704   0.600
10535SOL     OW32503   0.700   1.166   2.451
10535SOL    HW132504   0.635   1.106   2.498
10535SOL    HW232505   0.760   1.209   2.519
10536SOL     OW32506   4.590   0.665   2.600
10536SOL    HW132507   4.591   0.636   2.505
10536SOL    HW232508   4.600   0.764   2.605
10537SOL     OW32509   2.410   5.085   2.179
10537SOL    HW132510   2.443   5.171   2.141
10537SOL    HW232511   2.449   5.008   2.128
10538SOL     OW32512   4.054   4.073   0.159
10538SOL    HW132513   4.083   4.106   0.069
10538SOL    HW232514   4.130   4.083   0.224
10539SOL     OW32515   0.459   3.304   6.286
10539SOL    HW132516   0.444   3.283   6.189
10539SOL    HW232517   0.556   3.289   6.308
10540SOL     OW32518   2.083   0.381   6.341
10540SOL    HW132519   2.066   0.406   6.246
10540SOL    HW232520   2.086   0.464   6.397
10541SOL     OW32521   3.868   3.399   6.985
10541SOL    HW132522   3.936   3.414   0.038
10541SOL    HW232523   3.813   3.481   6.973
10542SOL     OW32524   0.134   2.497   0.247
10542SOL    HW132525   0.068   2.467   0.179
10542SOL    HW232526   0.227   2.491   0.209
10543SOL     OW32527   0.442   1.673   5.614
10543SOL    HW132528   0.420   1.720   5.699
10543SOL    HW232529   0.366   1.683   5.550
10544SOL     OW32530   2.505   1.748   2.521
10544SOL    HW132531   2.436   1.818   2.509
10544SOL    HW232532   2.596   1.788   2.513
10545SOL     OW32533   6.738   0.675   2.487
10545SOL    HW132534   6.832   0.642   2.477
10545SOL    HW232535   6.740   0.770   2.520
10546SOL     OW32536   2.496   0.173   4.163
10546SOL    HW132537   2.563   0.188   4.236
10546SOL    HW232538   2.404   0.190   4.198
10547SOL     OW32539   4.676   1.450   1.209
10547SOL    HW132540   4.639   1.542   1.221
10547SOL    HW232541   4.643   1.391   1.282
10548SOL     OW32542   5.056   3.998   4.740
10548SOL    HW132543   5.084   3.968   4.831
10548SOL    HW232544   5.045   4.097   4.739
10549SOL     OW32545   1.090   0.682   2.164
10549SOL    HW132546   1.186   0.710   2.170
10549SOL    HW232547   1.080   0.611   2.094
10550SOL     OW32548   5.598   0.347   3.861
10550SOL    HW132549   5.505   0.346   3.825
10550SOL    HW232550   5.634   0.254   3.863
10551SOL     OW32551   1.087   1.881   5.807
10551SOL    HW132552   1.003   1.935   5.795
10551SOL    HW232553   1.099   1.820   5.728
10552SOL     OW32554   3.416   2.494   5.503
10552SOL    HW132555   3.346   2.537   5.446
10552SOL    HW232556   3.491   2.560   5.518
10553SOL     OW32557   0.599   5.600   0.169
10553SOL    HW132558   0.521   5.542   0.195
10553SOL    HW232559   0.631   5.574   0.078
10554SOL     OW32560   6.775   4.734   6.878
10554SOL    HW132561   6.708   4.687   6.935
10554SOL    HW232562   6.727   4.789   6.809
10555SOL     OW32563   3.492   1.611   2.291
10555SOL    HW132564   3.522   1.695   2.337
10555SOL    HW232565   3.573   1.558   2.264
10556SOL     OW32566   1.981   3.155   5.280
10556SOL    HW132567   1.997   3.077   5.341
10556SOL    HW232568   1.883   3.173   5.275
10557SOL     OW32569   6.898   3.053   3.401
10557SOL    HW132570   6.943   2.988   3.340
10557SOL    HW232571   6.951   3.061   3.486
10558SOL     OW32572   4.447   6.372   5.244
10558SOL    HW132573   4.352   6.402   5.232
10558SOL    HW232574   4.449   6.290   5.302
10559SOL     OW32575   4.819   1.968   0.891
10559SOL    HW132576   4.748   2.021   0.844
10559SOL    HW232577   4.782   1.879   0.917
10560SOL     OW32578   1.459   3.969   4.954
10560SOL    HW132579   1.443   3.894   4.890
10560SOL    HW232580   1.418   4.053   4.919
10561SOL     OW32581   1.985   4.616   6.806
10561SOL    HW132582   2.038   4.623   6.721
10561SOL    HW232583   1.985   4.521   6.837
10562SOL     OW32584   4.216   1.019   0.635
10562SOL    HW132585   4.181   1.076   0.709
10562SOL    HW232586   4.312   1.040   0.619
10563SOL     OW32587   1.746   2.024   5.511
10563SOL    HW132588   1.820   2.054   5.571
10563SOL    HW232589   1.783   1.995   5.423
10564SOL     OW32590   5.700   1.459   1.506
10564SOL    HW132591   5.737   1.532   1.564
10564SOL    HW232592   5.759   1.447   1.426
10565SOL     OW32593   6.119   1.259   5.056
10565SOL    HW132594   6.168   1.226   5.137
10565SOL    HW232595   6.040   1.314   5.085
10566SOL     OW32596   3.549   4.156   6.057
10566SOL    HW132597   3.568   4.239   6.005
10566SOL    HW232598   3.546   4.078   5.994
10567SOL     OW32599   1.719   3.455   4.469
10567SOL    HW132600   1.767   3.389   4.412
10567SOL    HW232601   1.768   3.542   4.468
10568SOL     OW32602   5.169   1.035   2.392
10568SOL    HW132603   5.236   0.963   2.411
10568SOL    HW232604   5.124   1.062   2.477
10569SOL     OW32605   5.772   2.828   4.123
10569SOL    HW132606   5.673   2.812   4.123
10569SOL    HW232607   5.790   2.918   4.164
10570SOL     OW32608   1.856   4.658   2.495
10570SOL    HW132609   1.954   4.667   2.477
10570SOL    HW232610   1.809   4.630   2.411
10571SOL     OW32611   6.516   6.090   2.924
10571SOL    HW132612   6.421   6.061   2.937
10571SOL    HW232613   6.560   6.032   2.855
10572SOL     OW32614   5.722   3.636   2.222
10572SOL    HW132615   5.763   3.710   2.168
10572SOL    HW232616   5.660   3.675   2.290
10573SOL     OW32617   6.216   5.589   4.408
10573SOL    HW132618   6.214   5.617   4.504
10573SOL    HW232619   6.174   5.660   4.352
10574SOL     OW32620   0.529   1.877   3.527
10574SOL    HW132621   0.486   1.944   3.466
10574SOL    HW232622   0.460   1.835   3.585
10575SOL     OW32623   1.010   0.656   5.142
10575SOL    HW132624   1.020   0.645   5.043
10575SOL    HW232625   0.943   0.728   5.161
10576SOL     OW32626   1.903   5.691   4.500
10576SOL    HW132627   1.850   5.606   4.499
10576SOL    HW232628   1.985   5.681   4.444
10577SOL     OW32629   2.208   2.990   5.900
10577SOL    HW132630   2.201   2.936   5.983
10577SOL    HW232631   2.118   3.025   5.875
10578SOL     OW32632   5.710   6.903   5.296
10578SOL    HW132633   5.745   6.825   5.347
10578SOL    HW232634   5.610   6.905   5.303
10579SOL     OW32635   4.585   1.612   0.404
10579SOL    HW132636   4.516   1.595   0.474
10579SOL    HW232637   4.645   1.532   0.398
10580SOL     OW32638   6.989   6.260   0.042
10580SOL    HW132639   6.931   6.336   0.071
10580SOL    HW232640   7.000   6.262   6.962
10581SOL     OW32641   5.257   0.642   3.753
10581SOL    HW132642   5.245   0.610   3.660
10581SOL    HW232643   5.296   0.569   3.809
10582SOL     OW32644   3.803   4.959   6.578
10582SOL    HW132645   3.847   4.870   6.564
10582SOL    HW232646   3.873   5.030   6.588
10583SOL     OW32647   3.814   0.941   0.118
10583SOL    HW132648   3.862   0.933   0.030
10583SOL    HW232649   3.722   0.903   0.109
10584SOL     OW32650   5.505   6.775   1.117
10584SOL    HW132651   5.499   6.832   1.034
10584SOL    HW232652   5.424   6.791   1.173
10585SOL     OW32653   0.883   2.985   6.399
10585SOL    HW132654   0.862   2.892   6.430
10585SOL    HW232655   0.849   2.997   6.305
10586SOL     OW32656   2.402   5.846   5.752
10586SOL    HW132657   2.352   5.765   5.720
10586SOL    HW232658   2.495   5.820   5.776
10587SOL     OW32659   6.099   3.604   0.728
10587SOL    HW132660   6.089   3.569   0.635
10587SOL    HW232661   6.107   3.704   0.724
10588SOL     OW32662   1.178   4.881   3.108
10588SOL    HW132663   1.117   4.914   3.180
10588SOL    HW232664   1.269   4.921   3.121
10589SOL     OW32665   5.499   1.927   4.235
10589SOL    HW132666   5.526   2.020   4.258
10589SOL    HW232667   5.531   1.864   4.306
10590SOL     OW32668   1.077   0.441   3.715
10590SOL    HW132669   1.027   0.372   3.767
10590SOL    HW232670   1.105   0.516   3.775
10591SOL     OW32671   0.915   2.013   6.690
10591SOL    HW132672   1.010   2.041   6.684
10591SOL    HW232673   0.903   1.925   6.645
10592SOL     OW32674   6.188   1.407   0.059
10592SOL    HW132675   6.250   1.396   0.137
10592SOL    HW232676   6.108   1.460   0.086
10593SOL     OW32677   1.861   5.473   1.634
10593SOL    HW132678   1.774   5.423   1.630
10593SOL    HW232679   1.846   5.564   1.672
10594SOL     OW32680   6.143   1.692   3.980
10594SOL    HW132681   6.186   1.602   3.974
10594SOL    HW232682   6.047   1.681   4.007
10595SOL     OW32683   3.903   6.499   6.460
10595SOL    HW132684   3.934   6.494   6.555
10595SOL    HW232685   3.887   6.594   6.434
10596SOL     OW32686   4.040   6.721   2.475
10596SOL    HW132687   4.063   6.755   2.566
10596SOL    HW232688   3.945   6.689   2.475
10597SOL     OW32689   2.088   1.001   4.750
10597SOL    HW132690   2.173   1.019   4.798
10597SOL    HW232691   2.040   1.087   4.732
10598SOL     OW32692   2.098   2.430   6.901
10598SOL    HW132693   2.118   2.458   6.807
10598SOL    HW232694   2.028   2.359   6.901
10599SOL     OW32695   5.713   0.939   6.933
10599SOL    HW132696   5.738   0.926   6.837
10599SOL    HW232697   5.776   1.004   6.976
10600SOL     OW32698   2.391   2.928   5.696
10600SOL    HW132699   2.332   2.969   5.765
10600SOL    HW232700   2.353   2.945   5.605
10601SOL     OW32701   2.724   6.414   6.238
10601SOL    HW132702   2.732   6.514   6.247
10601SOL    HW232703   2.659   6.380   6.306
10602SOL     OW32704   4.751   1.704   1.493
10602SOL    HW132705   4.824   1.707   1.562
10602SOL    HW232706   4.730   1.610   1.469
10603SOL     OW32707   2.024   5.371   3.949
10603SOL    HW132708   2.028   5.469   3.969
10603SOL    HW232709   2.101   5.346   3.890
10604SOL     OW32710   6.526   3.973   4.121
10604SOL    HW132711   6.488   4.009   4.207
10604SOL    HW232712   6.625   3.988   4.119
10605SOL     OW32713   1.078   5.181   6.502
10605SOL    HW132714   1.139   5.177   6.581
10605SOL    HW232715   1.064   5.089   6.466
10606SOL     OW32716   0.346   0.209   1.505
10606SOL    HW132717   0.395   0.279   1.454
10606SOL    HW232718   0.407   0.167   1.572
10607SOL     OW32719   5.023   4.538   6.796
10607SOL    HW132720   5.078   4.539   6.713
10607SOL    HW232721   4.937   4.586   6.779
10608SOL     OW32722   5.671   1.596   4.211
10608SOL    HW132723   5.703   1.522   4.270
10608SOL    HW232724   5.592   1.565   4.158
10609SOL     OW32725   3.910   6.548   0.669
10609SOL    HW132726   3.824   6.543   0.619
10609SOL    HW232727   3.987   6.537   0.606
10610SOL     OW32728   1.509   3.123   5.965
10610SOL    HW132729   1.428   3.115   5.908
10610SOL    HW232730   1.538   3.219   5.969
10611SOL     OW32731   5.639   2.618   6.164
10611SOL    HW132732   5.677   2.600   6.254
10611SOL    HW232733   5.672   2.707   6.131
10612SOL     OW32734   2.278   0.357   6.775
10612SOL    HW132735   2.304   0.430   6.713
10612SOL    HW232736   2.324   0.272   6.749
10613SOL     OW32737   0.299   6.740   5.925
10613SOL    HW132738   0.218   6.778   5.882
10613SOL    HW232739   0.272   6.672   5.994
10614SOL     OW32740   6.349   1.225   4.231
10614SOL    HW132741   6.423   1.165   4.203
10614SOL    HW232742   6.277   1.225   4.161
10615SOL     OW32743   5.017   5.513   5.062
10615SOL    HW132744   5.058   5.426   5.037
10615SOL    HW232745   5.051   5.542   5.151
10616SOL     OW32746   3.271   6.297   6.772
10616SOL    HW132747   3.185   6.317   6.820
10616SOL    HW232748   3.280   6.198   6.762
10617SOL     OW32749   2.351   2.002   0.599
10617SOL    HW132750   2.324   1.988   0.694
10617SOL    HW232751   2.333   2.097   0.573
10618SOL     OW32752   5.945   3.112   0.089
10618SOL    HW132753   5.961   3.076   0.181
10618SOL    HW232754   5.864   3.171   0.091
10619SOL     OW32755   1.316   4.137   4.084
10619SOL    HW132756   1.373   4.217   4.104
10619SOL    HW232757   1.340   4.101   3.995
10620SOL     OW32758   1.454   6.314   4.871
10620SOL    HW132759   1.495   6.230   4.836
10620SOL    HW232760   1.515   6.353   4.941
10621SOL     OW32761   1.815   6.171   0.207
10621SOL    HW132762   1.739   6.116   0.241
10621SOL    HW232763   1.779   6.249   0.155
10622SOL     OW32764   3.733   0.506   1.447
10622SOL    HW132765   3.769   0.469   1.534
10622SOL    HW232766   3.797   0.484   1.374
10623SOL     OW32767   6.123   2.249   3.898
10623SOL    HW132768   6.079   2.338   3.887
10623SOL    HW232769   6.179   2.229   3.818
10624SOL     OW32770   1.726   0.795   4.517
10624SOL    HW132771   1.700   0.857   4.591
10624SOL    HW232772   1.786   0.723   4.552
10625SOL     OW32773   0.739   3.099   6.818
10625SOL    HW132774   0.780   3.084   6.909
10625SOL    HW232775   0.640   3.109   6.828
10626SOL     OW32776   0.947   1.639   2.130
10626SOL    HW132777   0.886   1.565   2.102
10626SOL    HW232778   0.941   1.651   2.229
10627SOL     OW32779   6.545   6.407   2.985
10627SOL    HW132780   6.452   6.442   2.995
10627SOL    HW232781   6.597   6.467   2.925
10628SOL     OW32782   6.219   5.799   5.544
10628SOL    HW132783   6.161   5.752   5.610
10628SOL    HW232784   6.286   5.735   5.506
10629SOL     OW32785   2.663   5.112   5.629
10629SOL    HW132786   2.756   5.091   5.596
10629SOL    HW232787   2.650   5.211   5.631
10630SOL     OW32788   6.121   1.744   3.232
10630SOL    HW132789   6.078   1.835   3.225
10630SOL    HW232790   6.218   1.755   3.256
10631SOL     OW32791   0.688   6.961   3.939
10631SOL    HW132792   0.615   6.897   3.917
10631SOL    HW232793   0.776   6.921   3.915
10632SOL     OW32794   6.553   1.832   4.752
10632SOL    HW132795   6.459   1.862   4.768
10632SOL    HW232796   6.552   1.756   4.686
10633SOL     OW32797   2.664   5.632   1.599
10633SOL    HW132798   2.721   5.698   1.647
10633SOL    HW232799   2.595   5.595   1.661
10634SOL     OW32800   3.548   6.116   1.002
10634SOL    HW132801   3.481   6.180   0.963
10634SOL    HW232802   3.535   6.109   1.101
10635SOL     OW32803   2.438   0.586   1.312
10635SOL    HW132804   2.443   0.514   1.382
10635SOL    HW232805   2.372   0.559   1.242
10636SOL     OW32806   0.791   1.906   1.270
10636SOL    HW132807   0.876   1.888   1.320
10636SOL    HW232808   0.808   1.977   1.201
10637SOL     OW32809   3.355   4.193   4.574
10637SOL    HW132810   3.389   4.194   4.669
10637SOL    HW232811   3.280   4.127   4.567
10638SOL     OW32812   6.860   6.487   4.863
10638SOL    HW132813   6.922   6.426   4.911
10638SOL    HW232814   6.789   6.434   4.816
10639SOL     OW32815   1.614   1.033   5.234
10639SOL    HW132816   1.678   0.958   5.250
10639SOL    HW232817   1.663   1.120   5.237
10640SOL     OW32818   5.279   1.497   0.382
10640SOL    HW132819   5.180   1.484   0.372
10640SOL    HW232820   5.322   1.501   0.292
10641SOL     OW32821   5.653   1.523   6.791
10641SOL    HW132822   5.744   1.482   6.778
10641SOL    HW232823   5.663   1.622   6.805
10642SOL     OW32824   0.512   2.741   1.908
10642SOL    HW132825   0.594   2.717   1.855
10642SOL    HW232826   0.454   2.802   1.855
10643SOL     OW32827   2.722   3.485   5.279
10643SOL    HW132828   2.796   3.440   5.329
10643SOL    HW232829   2.760   3.545   5.209
10644SOL     OW32830   4.293   1.433   3.776
10644SOL    HW132831   4.311   1.427   3.874
10644SOL    HW232832   4.379   1.442   3.726
10645SOL     OW32833   2.374   7.012   4.933
10645SOL    HW132834   2.348   0.038   4.848
10645SOL    HW232835   2.293   6.978   4.980
10646SOL     OW32836   1.191   3.327   6.073
10646SOL    HW132837   1.164   3.286   6.160
10646SOL    HW232838   1.245   3.409   6.091
10647SOL     OW32839   6.847   5.136   0.395
10647SOL    HW132840   6.884   5.219   0.353
10647SOL    HW232841   6.840   5.064   0.325
10648SOL     OW32842   4.790   2.705   0.042
10648SOL    HW132843   4.702   2.678   0.082
10648SOL    HW232844   4.774   2.749   6.973
10649SOL     OW32845   6.952   5.163   5.813
10649SOL    HW132846   7.011   5.091   5.851
10649SOL    HW232847   6.873   5.175   5.873
10650SOL     OW32848   2.720   6.263   3.842
10650SOL    HW132849   2.799   6.202   3.838
10650SOL    HW232850   2.705   6.304   3.752
10651SOL     OW32851   4.725   6.576   6.002
10651SOL    HW132852   4.709   6.672   6.028
10651SOL    HW232853   4.701   6.563   5.906
10652SOL     OW32854   3.622   0.478   6.169
10652SOL    HW132855   3.648   0.390   6.208
10652SOL    HW232856   3.522   0.483   6.160
10653SOL     OW32857   5.434   4.245   4.481
10653SOL    HW132858   5.528   4.212   4.483
10653SOL    HW232859   5.372   4.169   4.461
10654SOL     OW32860   4.137   1.211   0.853
10654SOL    HW132861   4.157   1.259   0.938
10654SOL    HW232862   4.057   1.153   0.865
10655SOL     OW32863   2.916   5.962   1.282
10655SOL    HW132864   2.899   6.039   1.344
10655SOL    HW232865   2.881   5.983   1.191
10656SOL     OW32866   6.233   2.713   6.932
10656SOL    HW132867   6.304   2.693   6.865
10656SOL    HW232868   6.242   2.651   7.010
10657SOL     OW32869   5.825   0.913   1.347
10657SOL    HW132870   5.825   0.884   1.251
10657SOL    HW232871   5.881   0.849   1.400
10658SOL     OW32872   0.411   5.050   4.523
10658SOL    HW132873   0.345   5.050   4.598
10658SOL    HW232874   0.398   5.133   4.468
10659SOL     OW32875   6.003   0.360   0.408
10659SOL    HW132876   5.947   0.441   0.424
10659SOL    HW232877   5.947   0.278   0.420
10660SOL     OW32878   4.540   5.342   5.680
10660SOL    HW132879   4.479   5.350   5.601
10660SOL    HW232880   4.569   5.433   5.710
10661SOL     OW32881   0.327   6.701   2.620
10661SOL    HW132882   0.384   6.692   2.702
10661SOL    HW232883   0.366   6.645   2.546
10662SOL     OW32884   6.106   1.500   0.758
10662SOL    HW132885   6.008   1.486   0.744
10662SOL    HW232886   6.133   1.460   0.846
10663SOL     OW32887   6.912   0.257   7.017
10663SOL    HW132888   6.886   0.255   0.095
10663SOL    HW232889   6.917   0.353   6.986
10664SOL     OW32890   1.953   5.580   0.036
10664SOL    HW132891   2.001   5.492   0.041
10664SOL    HW232892   2.019   5.654   0.045
10665SOL     OW32893   6.510   1.521   0.809
10665SOL    HW132894   6.487   1.462   0.886
10665SOL    HW232895   6.591   1.575   0.831
10666SOL     OW32896   2.011   6.573   0.329
10666SOL    HW132897   2.033   6.633   0.252
10666SOL    HW232898   2.071   6.593   0.405
10667SOL     OW32899   3.209   2.122   5.730
10667SOL    HW132900   3.110   2.138   5.726
10667SOL    HW232901   3.257   2.210   5.728
10668SOL     OW32902   1.658   1.431   6.400
10668SOL    HW132903   1.615   1.421   6.311
10668SOL    HW232904   1.721   1.355   6.415
10669SOL     OW32905   1.476   0.241   0.292
10669SOL    HW132906   1.487   0.286   0.203
10669SOL    HW232907   1.398   0.282   0.340
10670SOL     OW32908   6.198   4.503   5.957
10670SOL    HW132909   6.188   4.571   5.884
10670SOL    HW232910   6.295   4.482   5.970
10671SOL     OW32911   2.238   1.360   3.448
10671SOL    HW132912   2.233   1.386   3.352
10671SOL    HW232913   2.239   1.443   3.505
10672SOL     OW32914   7.000   3.031   1.312
10672SOL    HW132915   0.036   2.985   1.383
10672SOL    HW232916   6.994   2.972   1.232
10673SOL     OW32917   2.738   3.044   5.284
10673SOL    HW132918   2.648   3.007   5.260
10673SOL    HW232919   2.732   3.095   5.370
10674SOL     OW32920   3.656   3.257   1.531
10674SOL    HW132921   3.573   3.296   1.570
10674SOL    HW232922   3.669   3.293   1.438
10675SOL     OW32923   0.060   0.292   5.589
10675SOL    HW132924   0.043   0.250   5.500
10675SOL    HW232925   6.998   0.343   5.618
10676SOL     OW32926   6.212   6.871   6.332
10676SOL    HW132927   6.193   6.941   6.400
10676SOL    HW232928   6.276   6.907   6.263
10677SOL     OW32929   0.422   0.423   0.717
10677SOL    HW132930   0.355   0.484   0.759
10677SOL    HW232931   0.473   0.374   0.789
10678SOL     OW32932   2.314   6.197   2.747
10678SOL    HW132933   2.271   6.277   2.704
10678SOL    HW232934   2.331   6.128   2.677
10679SOL     OW32935   5.141   5.092   4.708
10679SOL    HW132936   5.197   5.016   4.743
10679SOL    HW232937   5.185   5.179   4.729
10680SOL     OW32938   1.251   2.720   2.731
10680SOL    HW132939   1.285   2.768   2.650
10680SOL    HW232940   1.238   2.786   2.806
10681SOL     OW32941   6.888   1.734   5.972
10681SOL    HW132942   6.931   1.733   6.062
10681SOL    HW232943   6.872   1.639   5.942
10682SOL     OW32944   0.007   1.936   3.256
10682SOL    HW132945   0.102   1.906   3.246
10682SOL    HW232946   7.008   2.011   3.193
10683SOL     OW32947   1.684   1.604   4.633
10683SOL    HW132948   1.605   1.547   4.609
10683SOL    HW232949   1.663   1.700   4.616
10684SOL     OW32950   5.954   4.729   6.829
10684SOL    HW132951   6.027   4.662   6.838
10684SOL    HW232952   5.930   4.765   6.919
10685SOL     OW32953   0.034   3.108   3.086
10685SOL    HW132954   0.094   3.087   3.009
10685SOL    HW232955   0.003   3.022   3.128
10686SOL     OW32956   3.382   5.253   0.234
10686SOL    HW132957   3.323   5.308   0.291
10686SOL    HW232958   3.452   5.209   0.290
10687SOL     OW32959   0.345   4.793   3.094
10687SOL    HW132960   0.425   4.739   3.120
10687SOL    HW232961   0.362   4.837   3.006
10688SOL     OW32962   6.440   5.275   2.182
10688SOL    HW132963   6.497   5.200   2.149
10688SOL    HW232964   6.498   5.355   2.201
10689SOL     OW32965   0.890   1.260   3.045
10689SOL    HW132966   0.820   1.224   2.984
10689SOL    HW232967   0.971   1.202   3.042
10690SOL     OW32968   4.263   4.813   1.846
10690SOL    HW132969   4.169   4.826   1.878
10690SOL    HW232970   4.262   4.756   1.764
10691SOL     OW32971   6.943   1.252   1.696
10691SOL    HW132972   6.918   1.248   1.600
10691SOL    HW232973   6.891   1.183   1.747
10692SOL     OW32974   3.442   6.170   3.768
10692SOL    HW132975   3.388   6.157   3.685
10692SOL    HW232976   3.535   6.136   3.752
10693SOL     OW32977   6.735   1.695   1.851
10693SOL    HW132978   6.826   1.659   1.828
10693SOL    HW232979   6.702   1.650   1.934
10694SOL     OW32980   3.663   6.508   0.516
10694SOL    HW132981   3.709   6.541   0.434
10694SOL    HW232982   3.658   6.408   0.513
10695SOL     OW32983   0.084   3.098   4.230
10695SOL    HW132984   0.109   3.152   4.149
10695SOL    HW232985   7.004   3.082   4.229
10696SOL     OW32986   0.020   6.384   1.865
10696SOL    HW132987   0.113   6.380   1.899
10696SOL    HW232988   6.976   6.346   1.933
10697SOL     OW32989   2.541   5.454   3.664
10697SOL    HW132990   2.526   5.374   3.606
10697SOL    HW232991   2.639   5.477   3.663
10698SOL     OW32992   2.585   6.573   3.330
10698SOL    HW132993   2.545   6.596   3.419
10698SOL    HW232994   2.675   6.617   3.321
10699SOL     OW32995   2.600   2.348   2.546
10699SOL    HW132996   2.657   2.312   2.620
10699SOL    HW232997   2.574   2.273   2.485
10700SOL     OW32998   6.753   6.736   1.180
10700SOL    HW132999   6.797   6.819   1.213
10700SOL    HW233000   6.692   6.700   1.251
10701SOL     OW33001   2.820   6.021   1.028
10701SOL    HW133002   2.876   6.086   0.976
10701SOL    HW233003   2.811   5.936   0.977
10702SOL     OW33004   6.484   3.213   1.446
10702SOL    HW133005   6.398   3.186   1.489
10702SOL    HW233006   6.555   3.147   1.470
10703SOL     OW33007   4.084   3.830   3.431
10703SOL    HW133008   4.097   3.782   3.343
10703SOL    HW233009   4.089   3.764   3.505
10704SOL     OW33010   5.185   6.789   2.129
10704SOL    HW133011   5.210   6.715   2.192
10704SOL    HW233012   5.236   6.871   2.153
10705SOL     OW33013   0.234   2.612   6.335
10705SOL    HW133014   0.276   2.636   6.423
10705SOL    HW233015   0.142   2.652   6.331
10706SOL     OW33016   3.374   1.117   2.091
10706SOL    HW133017   3.464   1.084   2.119
10706SOL    HW233018   3.380   1.214   2.066
10707SOL     OW33019   5.788   0.223   6.029
10707SOL    HW133020   5.807   0.131   6.065
10707SOL    HW233021   5.773   0.217   5.930
10708SOL     OW33022   5.378   1.449   1.247
10708SOL    HW133023   5.419   1.467   1.158
10708SOL    HW233024   5.401   1.524   1.309
10709SOL     OW33025   6.865   5.893   5.756
10709SOL    HW133026   6.890   5.945   5.838
10709SOL    HW233027   6.898   5.940   5.675
10710SOL     OW33028   5.914   5.251   3.509
10710SOL    HW133029   5.995   5.291   3.467
10710SOL    HW233030   5.875   5.316   3.575
10711SOL     OW33031   1.377   6.461   3.794
10711SOL    HW133032   1.347   6.417   3.710
10711SOL    HW233033   1.453   6.524   3.774
10712SOL     OW33034   3.455   1.300   4.668
10712SOL    HW133035   3.454   1.395   4.699
10712SOL    HW233036   3.503   1.294   4.580
10713SOL     OW33037   0.929   6.387   1.321
10713SOL    HW133038   0.870   6.320   1.366
10713SOL    HW233039   0.966   6.348   1.237
10714SOL     OW33040   0.177   4.946   5.823
10714SOL    HW133041   0.163   4.906   5.732
10714SOL    HW233042   0.177   4.873   5.891
10715SOL     OW33043   5.863   1.396   4.010
10715SOL    HW133044   5.862   1.495   4.020
10715SOL    HW233045   5.772   1.363   3.984
10716SOL     OW33046   5.879   0.135   3.691
10716SOL    HW133047   5.839   0.062   3.746
10716SOL    HW233048   5.949   0.183   3.745
10717SOL     OW33049   6.850   6.972   1.295
10717SOL    HW133050   6.897   6.946   1.379
10717SOL    HW233051   6.804   0.042   1.307
10718SOL     OW33052   6.951   4.795   6.685
10718SOL    HW133053   0.020   4.810   6.730
10718SOL    HW233054   6.891   4.743   6.746
10719SOL     OW33055   5.423   0.611   2.169
10719SOL    HW133056   5.516   0.576   2.175
10719SOL    HW233057   5.385   0.589   2.079
10720SOL     OW33058   0.351   3.394   6.809
10720SOL    HW133059   0.441   3.437   6.805
10720SOL    HW233060   0.298   3.418   6.728
10721SOL     OW33061   4.588   2.583   4.210
10721SOL    HW133062   4.643   2.500   4.211
10721SOL    HW233063   4.545   2.593   4.121
10722SOL     OW33064   0.308   4.304   0.039
10722SOL    HW133065   0.292   4.247   0.120
10722SOL    HW233066   0.260   4.390   0.050
10723SOL     OW33067   6.389   4.132   0.172
10723SOL    HW133068   6.434   4.083   0.247
10723SOL    HW233069   6.399   4.230   0.186
10724SOL     OW33070   3.324   6.588   5.888
10724SOL    HW133071   3.422   6.589   5.905
10724SOL    HW233072   3.284   6.504   5.926
10725SOL     OW33073   6.703   6.296   4.751
10725SOL    HW133074   6.604   6.304   4.763
10725SOL    HW233075   6.723   6.214   4.698
10726SOL     OW33076   5.462   0.536   4.043
10726SOL    HW133077   5.491   0.631   4.040
10726SOL    HW233078   5.525   0.480   3.990
10727SOL     OW33079   2.286   5.766   6.539
10727SOL    HW133080   2.197   5.782   6.495
10727SOL    HW233081   2.284   5.798   6.633
10728SOL     OW33082   5.103   5.675   3.354
10728SOL    HW133083   5.060   5.649   3.268
10728SOL    HW233084   5.201   5.657   3.350
10729SOL     OW33085   5.987   2.973   3.748
10729SOL    HW133086   6.028   3.048   3.696
10729SOL    HW233087   5.968   3.003   3.841
10730SOL     OW33088   1.746   6.034   2.845
10730SOL    HW133089   1.655   6.064   2.815
10730SOL    HW233090   1.781   6.099   2.913
10731SOL     OW33091   4.713   6.466   6.296
10731SOL    HW133092   4.714   6.379   6.345
10731SOL    HW233093   4.805   6.485   6.261
10732SOL     OW33094   6.090   5.946   3.236
10732SOL    HW133095   6.020   6.014   3.216
10732SOL    HW233096   6.138   5.971   3.321
10733SOL     OW33097   0.530   0.860   5.939
10733SOL    HW133098   0.479   0.944   5.920
10733SOL    HW233099   0.468   0.782   5.935
10734SOL     OW33100   1.547   1.417   5.037
10734SOL    HW133101   1.494   1.381   4.960
10734SOL    HW233102   1.487   1.469   5.098
10735SOL     OW33103   0.635   5.404   2.314
10735SOL    HW133104   0.714   5.447   2.269
10735SOL    HW233105   0.642   5.417   2.413
10736SOL     OW33106   5.727   6.524   3.748
10736SOL    HW133107   5.642   6.490   3.788
10736SOL    HW233108   5.771   6.450   3.697
10737SOL     OW33109   5.963   1.424   2.266
10737SOL    HW133110   5.894   1.420   2.193
10737SOL    HW233111   5.968   1.517   2.302
10738SOL     OW33112   3.462   1.366   1.985
10738SOL    HW133113   3.549   1.366   2.034
10738SOL    HW233114   3.417   1.454   1.997
10739SOL     OW33115   5.600   2.401   3.779
10739SOL    HW133116   5.663   2.373   3.707
10739SOL    HW233117   5.651   2.448   3.851
10740SOL     OW33118   2.061   0.134   6.053
10740SOL    HW133119   2.138   0.073   6.075
10740SOL    HW233120   1.982   0.109   6.108
10741SOL     OW33121   2.496   2.052   3.420
10741SOL    HW133122   2.593   2.072   3.406
10741SOL    HW233123   2.454   2.128   3.471
10742SOL     OW33124   6.577   6.410   2.629
10742SOL    HW133125   6.484   6.379   2.649
10742SOL    HW233126   6.618   6.349   2.561
10743SOL     OW33127   3.108   0.962   5.708
10743SOL    HW133128   3.153   1.050   5.695
10743SOL    HW233129   3.058   0.938   5.625
10744SOL     OW33130   2.262   0.840   0.991
10744SOL    HW133131   2.350   0.794   0.981
10744SOL    HW233132   2.194   0.776   1.026
10745SOL     OW33133   1.231   4.755   2.019
10745SOL    HW133134   1.259   4.673   2.068
10745SOL    HW233135   1.153   4.734   1.961
10746SOL     OW33136   2.009   6.225   6.767
10746SOL    HW133137   2.090   6.280   6.748
10746SOL    HW233138   2.025   6.131   6.739
10747SOL     OW33139   6.048   1.144   4.807
10747SOL    HW133140   5.949   1.158   4.799
10747SOL    HW233141   6.080   1.188   4.891
10748SOL     OW33142   3.807   6.207   0.968
10748SOL    HW133143   3.712   6.176   0.963
10748SOL    HW233144   3.830   6.233   1.062
10749SOL     OW33145   5.509   5.237   2.113
10749SOL    HW133146   5.495   5.303   2.039
10749SOL    HW233147   5.583   5.268   2.173
10750SOL     OW33148   4.861   2.627   3.791
10750SOL    HW133149   4.813   2.700   3.841
10750SOL    HW233150   4.833   2.538   3.826
10751SOL     OW33151   0.172   4.609   5.342
10751SOL    HW133152   0.199   4.660   5.260
10751SOL    HW233153   0.113   4.533   5.316
10752SOL     OW33154   6.608   6.432   0.439
10752SOL    HW133155   6.548   6.360   0.403
10752SOL    HW233156   6.655   6.399   0.520
10753SOL     OW33157   4.911   6.824   4.121
10753SOL    HW133158   4.849   6.887   4.168
10753SOL    HW233159   4.961   6.770   4.189
10754SOL     OW33160   0.737   3.918   1.976
10754SOL    HW133161   0.753   3.952   1.883
10754SOL    HW233162   0.639   3.900   1.987
10755SOL     OW33163   6.185   2.891   1.340
10755SOL    HW133164   6.140   2.913   1.426
10755SOL    HW233165   6.116   2.864   1.272
10756SOL     OW33166   0.357   1.552   0.214
10756SOL    HW133167   0.394   1.569   0.305
10756SOL    HW233168   0.394   1.467   0.178
10757SOL     OW33169   0.261   4.141   1.803
10757SOL    HW133170   0.285   4.044   1.804
10757SOL    HW233171   0.332   4.192   1.753
10758SOL     OW33172   0.538   0.527   6.673
10758SOL    HW133173   0.623   0.525   6.620
10758SOL    HW233174   0.488   0.442   6.658
10759SOL     OW33175   2.884   2.054   6.112
10759SOL    HW133176   2.939   1.971   6.125
10759SOL    HW233177   2.936   2.120   6.059
10760SOL     OW33178   1.134   5.448   0.371
10760SOL    HW133179   1.139   5.466   0.469
10760SOL    HW233180   1.208   5.386   0.344
10761SOL     OW33181   0.227   0.820   5.594
10761SOL    HW133182   0.226   0.752   5.668
10761SOL    HW233183   0.260   0.907   5.630
10762SOL     OW33184   2.999   6.142   6.348
10762SOL    HW133185   3.004   6.126   6.249
10762SOL    HW233186   3.028   6.060   6.396
10763SOL     OW33187   4.874   0.092   3.649
10763SOL    HW133188   4.838   0.027   3.716
10763SOL    HW233189   4.958   0.056   3.610
10764SOL     OW33190   4.446   0.701   3.997
10764SOL    HW133191   4.430   0.749   3.910
10764SOL    HW233192   4.412   0.758   4.072
10765SOL     OW33193   6.823   2.258   2.137
10765SOL    HW133194   6.917   2.234   2.115
10765SOL    HW233195   6.789   2.197   2.209
10766SOL     OW33196   1.526   5.563   6.610
10766SOL    HW133197   1.487   5.503   6.540
10766SOL    HW233198   1.611   5.603   6.575
10767SOL     OW33199   1.498   5.041   0.598
10767SOL    HW133200   1.482   5.116   0.534
10767SOL    HW233201   1.413   5.016   0.642
10768SOL     OW33202   5.430   6.023   0.448
10768SOL    HW133203   5.495   6.051   0.518
10768SOL    HW233204   5.386   5.937   0.476
10769SOL     OW33205   3.680   2.980   4.828
10769SOL    HW133206   3.657   3.070   4.865
10769SOL    HW233207   3.709   2.989   4.733
10770SOL     OW33208   5.471   0.250   3.304
10770SOL    HW133209   5.560   0.260   3.258
10770SOL    HW233210   5.485   0.211   3.395
10771SOL     OW33211   4.463   6.149   5.536
10771SOL    HW133212   4.466   6.103   5.625
10771SOL    HW233213   4.368   6.156   5.505
10772SOL     OW33214   5.587   5.496   2.728
10772SOL    HW133215   5.511   5.519   2.668
10772SOL    HW233216   5.566   5.524   2.821
10773SOL     OW33217   0.082   3.559   1.657
10773SOL    HW133218   0.044   3.532   1.568
10773SOL    HW233219   0.177   3.587   1.645
10774SOL     OW33220   0.834   2.911   0.314
10774SOL    HW133221   0.834   2.812   0.304
10774SOL    HW233222   0.921   2.948   0.280
10775SOL     OW33223   1.403   4.085   0.311
10775SOL    HW133224   1.330   4.057   0.373
10775SOL    HW233225   1.443   4.171   0.343
10776SOL     OW33226   0.917   2.601   3.718
10776SOL    HW133227   0.827   2.641   3.700
10776SOL    HW233228   0.907   2.503   3.733
10777SOL     OW33229   3.295   1.586   2.009
10777SOL    HW133230   3.354   1.660   2.041
10777SOL    HW233231   3.227   1.624   1.945
10778SOL     OW33232   6.708   0.154   3.221
10778SOL    HW133233   6.725   0.225   3.153
10778SOL    HW233234   6.625   0.176   3.273
10779SOL     OW33235   5.121   3.905   4.999
10779SOL    HW133236   5.031   3.894   5.041
10779SOL    HW233237   5.163   3.815   4.985
10780SOL     OW33238   1.709   5.654   5.118
10780SOL    HW133239   1.684   5.743   5.081
10780SOL    HW233240   1.755   5.666   5.206
10781SOL     OW33241   6.104   2.465   5.407
10781SOL    HW133242   6.005   2.475   5.397
10781SOL    HW233243   6.142   2.423   5.325
10782SOL     OW33244   1.411   2.421   5.149
10782SOL    HW133245   1.403   2.470   5.062
10782SOL    HW233246   1.326   2.373   5.169
10783SOL     OW33247   1.103   2.507   3.366
10783SOL    HW133248   1.012   2.489   3.328
10783SOL    HW233249   1.105   2.479   3.462
10784SOL     OW33250   3.655   5.965   2.567
10784SOL    HW133251   3.591   6.003   2.634
10784SOL    HW233252   3.632   5.999   2.476
10785SOL     OW33253   1.852   5.704   2.339
10785SOL    HW133254   1.841   5.673   2.434
10785SOL    HW233255   1.763   5.712   2.296
10786SOL     OW33256   4.214   1.372   2.053
10786SOL    HW133257   4.270   1.379   2.135
10786SOL    HW233258   4.144   1.442   2.054
10787SOL     OW33259   4.181   0.617   3.132
10787SOL    HW133260   4.215   0.546   3.193
10787SOL    HW233261   4.207   0.707   3.168
10788SOL     OW33262   1.269   4.403   0.436
10788SOL    HW133263   1.362   4.370   0.423
10788SOL    HW233264   1.254   4.484   0.379
10789SOL     OW33265   6.196   1.234   1.675
10789SOL    HW133266   6.206   1.204   1.580
10789SOL    HW233267   6.174   1.331   1.678
10790SOL     OW33268   0.591   1.725   4.922
10790SOL    HW133269   0.596   1.733   4.823
10790SOL    HW233270   0.505   1.764   4.955
10791SOL     OW33271   1.280   1.711   4.107
10791SOL    HW133272   1.341   1.788   4.088
10791SOL    HW233273   1.260   1.663   4.021
10792SOL     OW33274   4.006   1.873   1.571
10792SOL    HW133275   3.987   1.950   1.632
10792SOL    HW233276   4.099   1.881   1.536
10793SOL     OW33277   4.210   2.012   4.814
10793SOL    HW133278   4.158   1.985   4.732
10793SOL    HW233279   4.292   2.062   4.786
10794SOL     OW33280   4.817   2.399   0.810
10794SOL    HW133281   4.794   2.378   0.714
10794SOL    HW233282   4.898   2.347   0.837
10795SOL     OW33283   7.016   3.794   3.482
10795SOL    HW133284   6.995   3.887   3.452
10795SOL    HW233285   0.059   3.798   3.561
10796SOL     OW33286   0.309   6.877   6.208
10796SOL    HW133287   0.343   6.827   6.288
10796SOL    HW233288   0.281   6.811   6.138
10797SOL     OW33289   4.103   4.215   6.952
10797SOL    HW133290   4.133   4.308   6.971
10797SOL    HW233291   4.143   4.184   6.865
10798SOL     OW33292   2.083   0.085   0.182
10798SOL    HW133293   2.108   0.181   0.198
10798SOL    HW233294   2.120   0.055   0.094
10799SOL     OW33295   2.807   0.939   3.002
10799SOL    HW133296   2.795   0.863   3.065
10799SOL    HW233297   2.784   0.910   2.909
10800SOL     OW33298   1.719   0.163   5.557
10800SOL    HW133299   1.623   0.152   5.584
10800SOL    HW233300   1.776   0.107   5.617
10801SOL     OW33301   2.439   6.926   5.916
10801SOL    HW133302   2.410   6.830   5.913
10801SOL    HW233303   2.530   6.935   5.875
10802SOL     OW33304   0.948   4.905   4.538
10802SOL    HW133305   0.903   4.826   4.497
10802SOL    HW233306   0.923   4.988   4.486
10803SOL     OW33307   0.262   4.382   4.769
10803SOL    HW133308   0.258   4.292   4.727
10803SOL    HW233309   0.225   4.450   4.706
10804SOL     OW33310   4.900   4.875   0.858
10804SOL    HW133311   4.880   4.896   0.953
10804SOL    HW233312   4.847   4.795   0.829
10805SOL     OW33313   4.022   6.297   0.297
10805SOL    HW133314   4.066   6.300   0.207
10805SOL    HW233315   3.946   6.231   0.294
10806SOL     OW33316   5.860   3.897   6.827
10806SOL    HW133317   5.888   3.882   6.921
10806SOL    HW233318   5.906   3.978   6.790
10807SOL     OW33319   4.908   0.308   3.507
10807SOL    HW133320   4.867   0.229   3.551
10807SOL    HW233321   4.977   0.278   3.441
10808SOL     OW33322   6.984   2.756   6.406
10808SOL    HW133323   6.898   2.730   6.450
10808SOL    HW233324   6.993   2.855   6.405
10809SOL     OW33325   3.084   1.197   3.070
10809SOL    HW133326   3.125   1.234   2.987
10809SOL    HW233327   3.141   1.220   3.149
10810SOL     OW33328   0.450   1.806   6.163
10810SOL    HW133329   0.466   1.725   6.107
10810SOL    HW233330   0.524   1.872   6.149
10811SOL     OW33331   4.891   4.698   5.421
10811SOL    HW133332   4.850   4.788   5.437
10811SOL    HW233333   4.975   4.708   5.367
10812SOL     OW33334   6.696   2.196   3.211
10812SOL    HW133335   6.789   2.196   3.176
10812SOL    HW233336   6.632   2.202   3.134
10813SOL     OW33337   2.412   6.046   2.493
10813SOL    HW133338   2.438   5.963   2.544
10813SOL    HW233339   2.313   6.046   2.479
10814SOL     OW33340   1.822   6.696   5.110
10814SOL    HW133341   1.796   6.745   5.194
10814SOL    HW233342   1.781   6.743   5.031
10815SOL     OW33343   4.883   2.296   2.750
10815SOL    HW133344   4.923   2.388   2.749
10815SOL    HW233345   4.832   2.280   2.665
10816SOL     OW33346   2.067   1.758   2.476
10816SOL    HW133347   2.126   1.835   2.501
10816SOL    HW233348   2.019   1.726   2.558
10817SOL     OW33349   4.941   6.698   2.036
10817SOL    HW133350   4.870   6.700   2.106
10817SOL    HW233351   5.030   6.717   2.078
10818SOL     OW33352   4.974   2.930   6.915
10818SOL    HW133353   5.038   2.854   6.911
10818SOL    HW233354   4.882   2.898   6.891
10819SOL     OW33355   0.556   3.602   5.880
10819SOL    HW133356   0.597   3.544   5.810
10819SOL    HW233357   0.603   3.588   5.968
10820SOL     OW33358   0.144   0.096   4.425
10820SOL    HW133359   0.181   0.143   4.345
10820SOL    HW233360   0.089   0.018   4.394
10821SOL     OW33361   6.743   6.987   0.117
10821SOL    HW133362   6.817   6.991   0.184
10821SOL    HW233363   6.667   6.934   0.154
10822SOL     OW33364   1.580   5.015   1.210
10822SOL    HW133365   1.486   5.038   1.235
10822SOL    HW233366   1.644   5.067   1.267
10823SOL     OW33367   1.562   1.356   1.914
10823SOL    HW133368   1.588   1.285   1.849
10823SOL    HW233369   1.635   1.369   1.981
10824SOL     OW33370   5.840   0.189   2.780
10824SOL    HW133371   5.837   0.279   2.736
10824SOL    HW233372   5.786   0.191   2.864
10825SOL     OW33373   3.424   1.644   1.021
10825SOL    HW133374   3.436   1.659   1.120
10825SOL    HW233375   3.510   1.610   0.982
10826SOL     OW33376   6.675   3.037   1.457
10826SOL    HW133377   6.649   2.945   1.425
10826SOL    HW233378   6.706   3.032   1.552
10827SOL     OW33379   0.771   2.415   4.414
10827SOL    HW133380   0.794   2.501   4.460
10827SOL    HW233381   0.845   2.349   4.425
10828SOL     OW33382   1.055   5.965   0.025
10828SOL    HW133383   0.992   5.979   0.101
10828SOL    HW233384   1.147   5.993   0.054
10829SOL     OW33385   2.437   3.380   1.437
10829SOL    HW133386   2.522   3.355   1.392
10829SOL    HW233387   2.431   3.334   1.526
10830SOL     OW33388   4.654   1.711   3.839
10830SOL    HW133389   4.722   1.643   3.811
10830SOL    HW233390   4.695   1.803   3.833
10831SOL     OW33391   5.438   2.553   3.393
10831SOL    HW133392   5.495   2.583   3.468
10831SOL    HW233393   5.482   2.575   3.306
10832SOL     OW33394   0.196   2.309   1.697
10832SOL    HW133395   0.142   2.265   1.626
10832SOL    HW233396   0.138   2.369   1.751
10833SOL     OW33397   3.137   6.470   4.409
10833SOL    HW133398   3.057   6.409   4.407
10833SOL    HW233399   3.178   6.467   4.500
10834SOL     OW33400   0.871   1.113   5.572
10834SOL    HW133401   0.920   1.089   5.488
10834SOL    HW233402   0.858   1.030   5.626
10835SOL     OW33403   6.822   1.922   2.027
10835SOL    HW133404   6.786   1.844   1.976
10835SOL    HW233405   6.752   1.993   2.032
10836SOL     OW33406   1.737   2.034   6.836
10836SOL    HW133407   1.796   1.957   6.816
10836SOL    HW233408   1.719   2.085   6.752
10837SOL     OW33409   0.829   5.748   1.503
10837SOL    HW133410   0.762   5.734   1.430
10837SOL    HW233411   0.857   5.844   1.506
10838SOL     OW33412   6.410   6.575   0.978
10838SOL    HW133413   6.407   6.675   0.973
10838SOL    HW233414   6.410   6.537   0.885
10839SOL     OW33415   2.238   1.955   0.844
10839SOL    HW133416   2.185   2.028   0.888
10839SOL    HW233417   2.223   1.869   0.893
10840SOL     OW33418   3.651   5.129   2.753
10840SOL    HW133419   3.708   5.188   2.810
10840SOL    HW233420   3.619   5.051   2.806
10841SOL     OW33421   4.352   4.728   6.185
10841SOL    HW133422   4.255   4.752   6.178
10841SOL    HW233423   4.372   4.655   6.119
10842SOL     OW33424   6.387   3.000   1.716
10842SOL    HW133425   6.430   2.912   1.736
10842SOL    HW233426   6.305   2.985   1.660
10843SOL     OW33427   0.302   0.984   1.822
10843SOL    HW133428   0.315   1.060   1.886
10843SOL    HW233429   0.274   1.021   1.733
10844SOL     OW33430   3.341   6.620   3.606
10844SOL    HW133431   3.342   6.543   3.669
10844SOL    HW233432   3.420   6.678   3.623
10845SOL     OW33433   1.834   2.618   0.760
10845SOL    HW133434   1.762   2.682   0.731
10845SOL    HW233435   1.802   2.564   0.838
10846SOL     OW33436   3.303   2.143   1.770
10846SOL    HW133437   3.314   2.090   1.854
10846SOL    HW233438   3.393   2.165   1.733
10847SOL     OW33439   3.842   2.540   6.007
10847SOL    HW133440   3.907   2.472   5.972
10847SOL    HW233441   3.756   2.531   5.957
10848SOL     OW33442   1.437   1.602   0.487
10848SOL    HW133443   1.514   1.601   0.423
10848SOL    HW233444   1.431   1.692   0.530
10849SOL     OW33445   2.450   4.997   4.543
10849SOL    HW133446   2.521   4.990   4.614
10849SOL    HW233447   2.376   4.934   4.565
10850SOL     OW33448   5.723   0.553   1.243
10850SOL    HW133449   5.656   0.624   1.220
10850SOL    HW233450   5.692   0.465   1.209
10851SOL     OW33451   4.533   2.243   6.271
10851SOL    HW133452   4.573   2.319   6.219
10851SOL    HW233453   4.437   2.262   6.289
10852SOL     OW33454   0.592   6.560   6.517
10852SOL    HW133455   0.656   6.492   6.481
10852SOL    HW233456   0.612   6.578   6.613
10853SOL     OW33457   2.062   1.722   4.803
10853SOL    HW133458   2.047   1.653   4.732
10853SOL    HW233459   2.160   1.730   4.822
10854SOL     OW33460   0.151   6.672   0.232
10854SOL    HW133461   0.140   6.574   0.216
10854SOL    HW233462   0.246   6.692   0.253
10855SOL     OW33463   1.542   6.048   1.541
10855SOL    HW133464   1.514   6.144   1.536
10855SOL    HW233465   1.602   6.035   1.620
10856SOL     OW33466   6.169   0.280   6.692
10856SOL    HW133467   6.123   0.366   6.716
10856SOL    HW233468   6.253   0.270   6.745
10857SOL     OW33469   5.919   0.331   4.881
10857SOL    HW133470   5.979   0.349   4.803
10857SOL    HW233471   5.861   0.411   4.898
10858SOL     OW33472   2.124   1.904   0.512
10858SOL    HW133473   2.219   1.933   0.499
10858SOL    HW233474   2.109   1.879   0.607
10859SOL     OW33475   0.829   5.213   1.872
10859SOL    HW133476   0.799   5.302   1.838
10859SOL    HW233477   0.867   5.223   1.963
10860SOL     OW33478   5.932   2.747   0.694
10860SOL    HW133479   5.934   2.663   0.749
10860SOL    HW233480   5.987   2.817   0.739
10861SOL     OW33481   3.343   2.852   2.210
10861SOL    HW133482   3.324   2.827   2.305
10861SOL    HW233483   3.434   2.820   2.184
10862SOL     OW33484   3.665   2.990   5.593
10862SOL    HW133485   3.645   3.014   5.498
10862SOL    HW233486   3.641   2.895   5.609
10863SOL     OW33487   2.214   1.476   3.202
10863SOL    HW133488   2.253   1.408   3.139
10863SOL    HW233489   2.261   1.563   3.189
10864SOL     OW33490   3.095   4.859   2.051
10864SOL    HW133491   3.037   4.845   1.970
10864SOL    HW233492   3.084   4.782   2.114
10865SOL     OW33493   3.584   1.422   2.667
10865SOL    HW133494   3.675   1.443   2.703
10865SOL    HW233495   3.526   1.386   2.739
10866SOL     OW33496   6.614   3.501   3.263
10866SOL    HW133497   6.621   3.440   3.184
10866SOL    HW233498   6.645   3.593   3.237
10867SOL     OW33499   4.312   3.396   0.781
10867SOL    HW133500   4.212   3.406   0.773
10867SOL    HW233501   4.334   3.309   0.825
10868SOL     OW33502   1.482   0.920   5.013
10868SOL    HW133503   1.416   0.850   5.040
10868SOL    HW233504   1.526   0.958   5.094
10869NA      NA33505   6.905   1.868   5.770
10870NA      NA33506   4.480   4.553   5.200
10871NA      NA33507   1.610   4.774   2.999
10872NA      NA33508   5.970   3.940   3.487
10873NA      NA33509   3.727   2.191   5.568
10874NA      NA33510   2.272   4.977   0.384
10875NA      NA33511   1.259   5.595   6.970
10876NA      NA33512   3.534   4.129   1.009
10877NA      NA33513   4.199   5.208   0.531
10878NA      NA33514   3.493   1.173   6.474
10879NA      NA33515   5.581   6.997   1.553
10880NA      NA33516   2.142   6.504   5.330
10881NA      NA33517   4.087   5.225   1.714
10882NA      NA33518   3.711   3.496   6.589
   7.01870   7.01870   7.01870
