Generated by trjconv : CNT in water t= 455.00000
33518
    1C        C    1   2.848   2.772   4.748
    1C        C    2   2.903   2.724   4.869
    1C        C    3   2.843   2.770   4.986
    1C        C    4   2.855   2.778   4.262
    1C        C    5   2.906   2.726   4.383
    1C        C    6   2.848   2.769   4.504
    1C        C    7   3.014   2.640   4.628
    1C        C    8   2.898   2.721   4.627
    1C        C    9   3.078   2.599   4.746
    1C        C   10   3.011   2.633   4.866
    1C        C   11   3.185   2.491   4.976
    1C        C   12   3.065   2.564   4.975
    1C        C   13   2.854   2.772   3.774
    1C        C   14   2.904   2.723   3.897
    1C        C   15   2.854   2.776   4.018
    1C        C   16   3.019   2.643   4.138
    1C        C   17   2.906   2.728   4.140
    1C        C   18   3.079   2.608   4.261
    1C        C   19   3.021   2.643   4.385
    1C        C   20   3.212   2.554   4.506
    1C        C   21   3.081   2.607   4.508
    1C        C   22   3.282   2.529   4.626
    1C        C   23   3.210   2.545   4.746
    1C        C   24   3.416   2.483   4.870
    1C        C   25   3.275   2.504   4.866
    1C        C   26   3.491   2.483   4.989
    1C        C   27   2.850   2.765   3.282
    1C        C   28   2.902   2.718   3.405
    1C        C   29   2.847   2.767   3.526
    1C        C   30   3.014   2.638   3.650
    1C        C   31   2.901   2.723   3.650
    1C        C   32   3.076   2.601   3.772
    1C        C   33   3.018   2.640   3.895
    1C        C   34   3.209   2.548   4.018
    1C        C   35   3.078   2.601   4.017
    1C        C   36   3.276   2.532   4.141
    1C        C   37   3.207   2.549   4.263
    1C        C   38   3.415   2.500   4.381
    1C        C   39   3.277   2.528   4.384
    1C        C   40   3.487   2.491   4.502
    1C        C   41   3.420   2.498   4.627
    1C        C   42   3.632   2.483   4.745
    1C        C   43   3.490   2.479   4.748
    1C        C   44   3.708   2.483   4.864
    1C        C   45   3.630   2.481   4.981
    1C        C   46   2.837   2.750   2.798
    1C        C   47   2.897   2.708   2.918
    1C        C   48   2.842   2.758   3.038
    1C        C   49   3.016   2.634   3.161
    1C        C   50   2.900   2.715   3.160
    1C        C   51   3.080   2.603   3.283
    1C        C   52   3.019   2.640   3.405
    1C        C   53   3.208   2.550   3.527
    1C        C   54   3.079   2.606   3.529
    1C        C   55   3.276   2.530   3.650
    1C        C   56   3.207   2.548   3.772
    1C        C   57   3.413   2.501   3.895
    1C        C   58   3.274   2.525   3.895
    1C        C   59   3.484   2.499   4.017
    1C        C   60   3.416   2.508   4.140
    1C        C   61   3.630   2.502   4.262
    1C        C   62   3.489   2.496   4.261
    1C        C   63   3.703   2.508   4.383
    1C        C   64   3.628   2.494   4.502
    1C        C   65   3.834   2.548   4.624
    1C        C   66   3.700   2.501   4.623
    1C        C   67   3.905   2.569   4.744
    1C        C   68   3.842   2.527   4.863
    1C        C   69   4.054   2.589   4.977
    1C        C   70   3.926   2.532   4.975
    1C        C   71   2.824   2.732   2.309
    1C        C   72   2.885   2.691   2.430
    1C        C   73   2.829   2.740   2.550
    1C        C   74   3.000   2.620   2.672
    1C        C   75   2.886   2.703   2.674
    1C        C   76   3.068   2.588   2.792
    1C        C   77   3.013   2.627   2.916
    1C        C   78   3.207   2.545   3.038
    1C        C   79   3.074   2.595   3.039
    1C        C   80   3.272   2.519   3.160
    1C        C   81   3.207   2.541   3.284
    1C        C   82   3.413   2.491   3.402
    1C        C   83   3.275   2.522   3.406
    1C        C   84   3.482   2.488   3.526
    1C        C   85   3.414   2.503   3.649
    1C        C   86   3.624   2.503   3.773
    1C        C   87   3.483   2.499   3.773
    1C        C   88   3.696   2.511   3.894
    1C        C   89   3.626   2.503   4.016
    1C        C   90   3.832   2.552   4.138
    1C        C   91   3.696   2.513   4.137
    1C        C   92   3.902   2.580   4.258
    1C        C   93   3.837   2.550   4.380
    1C        C   94   4.026   2.643   4.501
    1C        C   95   3.901   2.577   4.503
    1C        C   96   4.093   2.674   4.621
    1C        C   97   4.034   2.629   4.741
    1C        C   98   4.194   2.769   4.864
    1C        C   99   4.101   2.660   4.863
    1C        C  100   4.217   2.846   4.978
    1C        C  101   2.826   2.736   2.070
    1C        C  102   2.991   2.594   2.189
    1C        C  103   2.878   2.681   2.189
    1C        C  104   3.064   2.572   2.309
    1C        C  105   3.001   2.611   2.430
    1C        C  106   3.200   2.539   2.551
    1C        C  107   3.067   2.587   2.553
    1C        C  108   3.269   2.518   2.673
    1C        C  109   3.200   2.536   2.794
    1C        C  110   3.411   2.496   2.913
    1C        C  111   3.271   2.520   2.915
    1C        C  112   3.481   2.492   3.035
    1C        C  113   3.412   2.497   3.159
    1C        C  114   3.624   2.498   3.281
    1C        C  115   3.484   2.486   3.280
    1C        C  116   3.692   2.516   3.404
    1C        C  117   3.623   2.504   3.526
    1C        C  118   3.828   2.552   3.646
    1C        C  119   3.691   2.515   3.649
    1C        C  120   3.893   2.580   3.769
    1C        C  121   3.830   2.556   3.893
    1C        C  122   4.023   2.643   4.015
    1C        C  123   3.897   2.579   4.015
    1C        C  124   4.089   2.679   4.135
    1C        C  125   4.027   2.644   4.258
    1C        C  126   4.199   2.769   4.379
    1C        C  127   4.088   2.682   4.380
    1C        C  128   4.248   2.821   4.501
    1C        C  129   4.194   2.773   4.622
    1C        C  130   4.333   2.936   4.740
    1C        C  131   4.244   2.825   4.743
    1C        C  132   4.365   3.002   4.861
    1C        C  133   4.290   2.964   4.973
    1C        C  134   3.173   2.467   2.080
    1C        C  135   3.040   2.511   2.083
    1C        C  136   3.258   2.472   2.191
    1C        C  137   3.195   2.517   2.309
    1C        C  138   3.404   2.480   2.429
    1C        C  139   3.265   2.504   2.431
    1C        C  140   3.479   2.484   2.548
    1C        C  141   3.407   2.491   2.670
    1C        C  142   3.620   2.497   2.790
    1C        C  143   3.480   2.481   2.791
    1C        C  144   3.690   2.507   2.913
    1C        C  145   3.622   2.498   3.036
    1C        C  146   3.830   2.546   3.155
    1C        C  147   3.693   2.509   3.158
    1C        C  148   3.896   2.569   3.278
    1C        C  149   3.829   2.550   3.401
    1C        C  150   4.020   2.640   3.525
    1C        C  151   3.893   2.576   3.524
    1C        C  152   4.078   2.682   3.647
    1C        C  153   4.019   2.645   3.769
    1C        C  154   4.189   2.770   3.890
    1C        C  155   4.077   2.684   3.892
    1C        C  156   4.246   2.816   4.011
    1C        C  157   4.201   2.765   4.134
    1C        C  158   4.338   2.926   4.255
    1C        C  159   4.254   2.813   4.256
    1C        C  160   4.381   2.984   4.376
    1C        C  161   4.341   2.928   4.499
    1C        C  162   4.443   3.118   4.617
    1C        C  163   4.377   2.993   4.619
    1C        C  164   4.472   3.186   4.737
    1C        C  165   4.436   3.124   4.859
    1C        C  166   4.518   3.323   4.974
    1C        C  167   4.488   3.187   4.973
    1C        C  168   3.478   2.433   2.078
    1C        C  169   3.399   2.455   2.191
    1C        C  170   3.618   2.468   2.311
    1C        C  171   3.476   2.462   2.309
    1C        C  172   3.694   2.490   2.428
    1C        C  173   3.620   2.490   2.548
    1C        C  174   3.826   2.551   2.668
    1C        C  175   3.692   2.507   2.669
    1C        C  176   3.895   2.565   2.791
    1C        C  177   3.827   2.540   2.912
    1C        C  178   4.021   2.634   3.034
    1C        C  179   3.894   2.571   3.032
    1C        C  180   4.080   2.673   3.156
    1C        C  181   4.019   2.638   3.279
    1C        C  182   4.194   2.756   3.400
    1C        C  183   4.081   2.671   3.402
    1C        C  184   4.245   2.809   3.521
    1C        C  185   4.190   2.768   3.644
    1C        C  186   4.341   2.915   3.764
    1C        C  187   4.244   2.813   3.767
    1C        C  188   4.381   2.976   3.886
    1C        C  189   4.339   2.923   4.010
    1C        C  190   4.449   3.105   4.129
    1C        C  191   4.377   2.983   4.131
    1C        C  192   4.474   3.173   4.250
    1C        C  193   4.444   3.111   4.373
    1C        C  194   4.512   3.316   4.492
    1C        C  195   4.470   3.181   4.493
    1C        C  196   4.529   3.387   4.612
    1C        C  197   4.515   3.321   4.736
    1C        C  198   4.551   3.538   4.853
    1C        C  199   4.539   3.395   4.855
    1C        C  200   4.582   3.623   4.964
    1C        C  201   3.618   2.423   2.073
    1C        C  202   3.827   2.512   2.185
    1C        C  203   3.690   2.469   2.188
    1C        C  204   3.899   2.542   2.303
    1C        C  205   3.831   2.523   2.425
    1C        C  206   4.023   2.621   2.544
    1C        C  207   3.895   2.561   2.545
    1C        C  208   4.082   2.661   2.666
    1C        C  209   4.022   2.627   2.789
    1C        C  210   4.196   2.751   2.909
    1C        C  211   4.082   2.668   2.911
    1C        C  212   4.248   2.801   3.030
    1C        C  213   4.193   2.757   3.153
    1C        C  214   4.333   2.913   3.274
    1C        C  215   4.242   2.805   3.276
    1C        C  216   4.372   2.973   3.395
    1C        C  217   4.335   2.918   3.520
    1C        C  218   4.443   3.100   3.640
    1C        C  219   4.379   2.974   3.642
    1C        C  220   4.471   3.167   3.761
    1C        C  221   4.444   3.103   3.884
    1C        C  222   4.501   3.307   4.005
    1C        C  223   4.472   3.169   4.005
    1C        C  224   4.516   3.381   4.125
    1C        C  225   4.509   3.310   4.246
    1C        C  226   4.520   3.523   4.367
    1C        C  227   4.523   3.382   4.367
    1C        C  228   4.524   3.597   4.487
    1C        C  229   4.534   3.529   4.611
    1C        C  230   4.504   3.744   4.728
    1C        C  231   4.536   3.606   4.729
    1C        C  232   4.496   3.821   4.846
    1C        C  233   4.538   3.755   4.963
    1C        C  234   4.015   2.618   2.064
    1C        C  235   3.893   2.551   2.068
    1C        C  236   4.082   2.655   2.182
    1C        C  237   4.023   2.612   2.303
    1C        C  238   4.200   2.740   2.422
    1C        C  239   4.087   2.654   2.422
    1C        C  240   4.255   2.786   2.544
    1C        C  241   4.195   2.746   2.665
    1C        C  242   4.337   2.907   2.785
    1C        C  243   4.247   2.799   2.786
    1C        C  244   4.382   2.963   2.906
    1C        C  245   4.341   2.908   3.030
    1C        C  246   4.448   3.091   3.151
    1C        C  247   4.380   2.968   3.152
    1C        C  248   4.468   3.161   3.273
    1C        C  249   4.437   3.099   3.395
    1C        C  250   4.507   3.300   3.516
    1C        C  251   4.466   3.165   3.517
    1C        C  252   4.519   3.371   3.638
    1C        C  253   4.505   3.304   3.762
    1C        C  254   4.525   3.517   3.879
    1C        C  255   4.520   3.375   3.883
    1C        C  256   4.522   3.591   3.999
    1C        C  257   4.526   3.522   4.122
    1C        C  258   4.494   3.731   4.241
    1C        C  259   4.522   3.593   4.244
    1C        C  260   4.476   3.802   4.362
    1C        C  261   4.491   3.734   4.485
    1C        C  262   4.423   3.939   4.603
    1C        C  263   4.474   3.807   4.605
    1C        C  264   4.401   4.009   4.723
    1C        C  265   4.438   3.950   4.846
    1C        C  266   4.312   4.128   4.961
    1C        C  267   4.396   4.018   4.960
    1C        C  268   4.268   2.772   2.063
    1C        C  269   4.198   2.735   2.178
    1C        C  270   4.344   2.894   2.299
    1C        C  271   4.251   2.787   2.299
    1C        C  272   4.387   2.953   2.420
    1C        C  273   4.347   2.893   2.542
    1C        C  274   4.451   3.083   2.662
    1C        C  275   4.384   2.959   2.661
    1C        C  276   4.480   3.149   2.784
    1C        C  277   4.453   3.085   2.907
    1C        C  278   4.510   3.291   3.023
    1C        C  279   4.477   3.154   3.028
    1C        C  280   4.518   3.362   3.145
    1C        C  281   4.505   3.298   3.270
    1C        C  282   4.521   3.509   3.389
    1C        C  283   4.518   3.367   3.392
    1C        C  284   4.515   3.580   3.511
    1C        C  285   4.520   3.512   3.635
    1C        C  286   4.492   3.725   3.755
    1C        C  287   4.515   3.586   3.756
    1C        C  288   4.475   3.795   3.877
    1C        C  289   4.498   3.731   4.000
    1C        C  290   4.423   3.933   4.117
    1C        C  291   4.475   3.801   4.120
    1C        C  292   4.394   3.998   4.238
    1C        C  293   4.429   3.935   4.360
    1C        C  294   4.326   4.126   4.482
    1C        C  295   4.395   4.002   4.480
    1C        C  296   4.287   4.191   4.601
    1C        C  297   4.330   4.132   4.723
    1C        C  298   4.202   4.313   4.839
    1C        C  299   4.285   4.196   4.842
    1C        C  300   4.169   4.402   4.946
    1C        C  301   4.354   2.882   2.062
    1C        C  302   4.475   3.067   2.175
    1C        C  303   4.399   2.946   2.178
    1C        C  304   4.486   3.140   2.297
    1C        C  305   4.457   3.075   2.419
    1C        C  306   4.505   3.285   2.537
    1C        C  307   4.478   3.147   2.539
    1C        C  308   4.517   3.358   2.657
    1C        C  309   4.508   3.288   2.779
    1C        C  310   4.520   3.501   2.897
    1C        C  311   4.518   3.360   2.900
    1C        C  312   4.514   3.571   3.020
    1C        C  313   4.516   3.504   3.144
    1C        C  314   4.484   3.714   3.265
    1C        C  315   4.514   3.576   3.265
    1C        C  316   4.471   3.785   3.386
    1C        C  317   4.494   3.719   3.509
    1C        C  318   4.423   3.921   3.627
    1C        C  319   4.477   3.790   3.631
    1C        C  320   4.391   3.987   3.748
    1C        C  321   4.421   3.925   3.872
    1C        C  322   4.320   4.114   3.992
    1C        C  323   4.392   3.993   3.993
    1C        C  324   4.277   4.170   4.115
    1C        C  325   4.321   4.119   4.239
    1C        C  326   4.190   4.287   4.357
    1C        C  327   4.286   4.184   4.360
    1C        C  328   4.139   4.343   4.476
    1C        C  329   4.193   4.296   4.598
    1C        C  330   4.029   4.440   4.712
    1C        C  331   4.137   4.347   4.717
    1C        C  332   3.973   4.495   4.830
    1C        C  333   4.051   4.478   4.945
    1C        C  334   4.556   3.271   2.060
    1C        C  335   4.540   3.131   2.065
    1C        C  336   4.546   3.350   2.175
    1C        C  337   4.520   3.278   2.294
    1C        C  338   4.528   3.494   2.412
    1C        C  339   4.522   3.353   2.414
    1C        C  340   4.525   3.570   2.531
    1C        C  341   4.524   3.499   2.654
    1C        C  342   4.489   3.710   2.776
    1C        C  343   4.520   3.572   2.775
    1C        C  344   4.470   3.779   2.897
    1C        C  345   4.491   3.710   3.019
    1C        C  346   4.421   3.912   3.139
    1C        C  347   4.467   3.778   3.140
    1C        C  348   4.389   3.978   3.260
    1C        C  349   4.423   3.918   3.383
    1C        C  350   4.318   4.103   3.502
    1C        C  351   4.392   3.983   3.504
    1C        C  352   4.274   4.163   3.623
    1C        C  353   4.317   4.107   3.745
    1C        C  354   4.182   4.269   3.869
    1C        C  355   4.278   4.166   3.868
    1C        C  356   4.128   4.317   3.990
    1C        C  357   4.179   4.271   4.113
    1C        C  358   4.017   4.409   4.230
    1C        C  359   4.133   4.328   4.234
    1C        C  360   3.952   4.448   4.349
    1C        C  361   4.022   4.423   4.469
    1C        C  362   3.832   4.518   4.594
    1C        C  363   3.961   4.462   4.590
    1C        C  364   3.765   4.548   4.715
    1C        C  365   3.841   4.544   4.834
    1C        C  366   3.628   4.594   4.950
    1C        C  367   3.765   4.570   4.949
    1C        C  368   4.509   3.562   2.053
    1C        C  369   4.531   3.490   2.171
    1C        C  370   4.501   3.705   2.287
    1C        C  371   4.523   3.565   2.290
    1C        C  372   4.485   3.777   2.407
    1C        C  373   4.501   3.709   2.530
    1C        C  374   4.422   3.907   2.650
    1C        C  375   4.471   3.775   2.652
    1C        C  376   4.390   3.973   2.771
    1C        C  377   4.423   3.912   2.894
    1C        C  378   4.317   4.095   3.013
    1C        C  379   4.394   3.977   3.016
    1C        C  380   4.274   4.155   3.133
    1C        C  381   4.313   4.097   3.255
    1C        C  382   4.185   4.264   3.378
    1C        C  383   4.278   4.157   3.378
    1C        C  384   4.131   4.314   3.498
    1C        C  385   4.179   4.267   3.623
    1C        C  386   4.010   4.392   3.741
    1C        C  387   4.126   4.312   3.746
    1C        C  388   3.951   4.431   3.863
    1C        C  389   4.010   4.396   3.986
    1C        C  390   3.823   4.493   4.107
    1C        C  391   3.954   4.440   4.108
    1C        C  392   3.755   4.521   4.228
    1C        C  393   3.823   4.505   4.351
    1C        C  394   3.619   4.555   4.473
    1C        C  395   3.759   4.533   4.474
    1C        C  396   3.549   4.563   4.595
    1C        C  397   3.625   4.562   4.715
    1C        C  398   3.412   4.549   4.841
    1C        C  399   3.550   4.577   4.834
    1C        C  400   3.345   4.511   4.958
    1C        C  401   4.500   3.701   2.052
    1C        C  402   4.450   3.915   2.169
    1C        C  403   4.484   3.778   2.167
    1C        C  404   4.418   3.981   2.289
    1C        C  405   4.443   3.911   2.409
    1C        C  406   4.318   4.090   2.525
    1C        C  407   4.398   3.973   2.528
    1C        C  408   4.276   4.151   2.645
    1C        C  409   4.312   4.091   2.768
    1C        C  410   4.173   4.250   2.889
    1C        C  411   4.271   4.148   2.890
    1C        C  412   4.121   4.300   3.011
    1C        C  413   4.174   4.256   3.134
    1C        C  414   4.007   4.383   3.254
    1C        C  415   4.125   4.306   3.257
    1C        C  416   3.945   4.414   3.377
    1C        C  417   4.010   4.388   3.499
    1C        C  418   3.816   4.481   3.618
    1C        C  419   3.946   4.426   3.619
    1C        C  420   3.753   4.508   3.742
    1C        C  421   3.821   4.487   3.864
    1C        C  422   3.615   4.536   3.985
    1C        C  423   3.754   4.512   3.985
    1C        C  424   3.545   4.542   4.108
    1C        C  425   3.615   4.541   4.230
    1C        C  426   3.405   4.547   4.355
    1C        C  427   3.546   4.556   4.352
    1C        C  428   3.336   4.542   4.478
    1C        C  429   3.408   4.556   4.599
    1C        C  430   3.199   4.520   4.724
    1C        C  431   3.338   4.547   4.721
    1C        C  432   3.127   4.494   4.844
    1C        C  433   3.208   4.487   4.958
    1C        C  434   4.387   4.126   2.052
    1C        C  435   4.450   4.001   2.058
    1C        C  436   4.306   4.165   2.164
    1C        C  437   4.336   4.097   2.285
    1C        C  438   4.180   4.250   2.403
    1C        C  439   4.277   4.148   2.403
    1C        C  440   4.128   4.300   2.524
    1C        C  441   4.179   4.254   2.647
    1C        C  442   4.006   4.382   2.764
    1C        C  443   4.117   4.295   2.768
    1C        C  444   3.946   4.421   2.886
    1C        C  445   4.004   4.379   3.007
    1C        C  446   3.817   4.474   3.128
    1C        C  447   3.946   4.416   3.131
    1C        C  448   3.750   4.494   3.251
    1C        C  449   3.818   4.476   3.374
    1C        C  450   3.611   4.527   3.497
    1C        C  451   3.750   4.502   3.495
    1C        C  452   3.544   4.539   3.620
    1C        C  453   3.614   4.535   3.743
    1C        C  454   3.401   4.545   3.863
    1C        C  455   3.542   4.543   3.864
    1C        C  456   3.333   4.534   3.987
    1C        C  457   3.403   4.542   4.109
    1C        C  458   3.200   4.494   4.236
    1C        C  459   3.336   4.531   4.233
    1C        C  460   3.133   4.482   4.360
    1C        C  461   3.198   4.512   4.481
    1C        C  462   3.003   4.432   4.604
    1C        C  463   3.129   4.497   4.604
    1C        C  464   2.934   4.400   4.723
    1C        C  465   2.993   4.444   4.845
    1C        C  466   2.798   4.344   4.959
    1C        C  467   2.909   4.429   4.960
    1C        C  468   4.128   4.289   2.044
    1C        C  469   4.189   4.248   2.162
    1C        C  470   4.008   4.374   2.278
    1C        C  471   4.128   4.298   2.280
    1C        C  472   3.942   4.404   2.399
    1C        C  473   4.007   4.374   2.521
    1C        C  474   3.815   4.470   2.643
    1C        C  475   3.945   4.414   2.641
    1C        C  476   3.746   4.494   2.763
    1C        C  477   3.815   4.474   2.885
    1C        C  478   3.608   4.517   3.010
    1C        C  479   3.747   4.495   3.007
    1C        C  480   3.539   4.527   3.133
    1C        C  481   3.612   4.523   3.254
    1C        C  482   3.399   4.531   3.376
    1C        C  483   3.540   4.531   3.375
    1C        C  484   3.330   4.526   3.499
    1C        C  485   3.403   4.540   3.619
    1C        C  486   3.195   4.495   3.746
    1C        C  487   3.331   4.534   3.741
    1C        C  488   3.131   4.469   3.869
    1C        C  489   3.199   4.492   3.991
    1C        C  490   3.006   4.409   4.118
    1C        C  491   3.133   4.472   4.114
    1C        C  492   2.945   4.379   4.242
    1C        C  493   3.007   4.416   4.363
    1C        C  494   2.832   4.298   4.485
    1C        C  495   2.946   4.382   4.485
    1C        C  496   2.777   4.255   4.608
    1C        C  497   2.823   4.311   4.729
    1C        C  498   2.669   4.161   4.849
    1C        C  499   2.753   4.275   4.846
    1C        C  500   2.594   4.117   4.959
    1C        C  501   4.003   4.350   2.039
    1C        C  502   3.816   4.462   2.157
    1C        C  503   3.941   4.397   2.156
    1C        C  504   3.745   4.480   2.278
    1C        C  505   3.811   4.456   2.400
    1C        C  506   3.606   4.513   2.521
    1C        C  507   3.746   4.489   2.521
    1C        C  508   3.537   4.523   2.644
    1C        C  509   3.606   4.517   2.767
    1C        C  510   3.394   4.520   2.886
    1C        C  511   3.535   4.523   2.889
    1C        C  512   3.325   4.521   3.010
    1C        C  513   3.398   4.534   3.130
    1C        C  514   3.193   4.489   3.257
    1C        C  515   3.328   4.530   3.253
    1C        C  516   3.125   4.468   3.379
    1C        C  517   3.193   4.492   3.500
    1C        C  518   3.001   4.408   3.625
    1C        C  519   3.128   4.470   3.624
    1C        C  520   2.944   4.370   3.749
    1C        C  521   3.005   4.405   3.872
    1C        C  522   2.837   4.281   3.997
    1C        C  523   2.949   4.367   3.996
    1C        C  524   2.787   4.237   4.122
    1C        C  525   2.834   4.292   4.244
    1C        C  526   2.698   4.129   4.367
    1C        C  527   2.781   4.243   4.365
    1C        C  528   2.653   4.075   4.489
    1C        C  529   2.691   4.143   4.608
    1C        C  530   2.585   3.960   4.732
    1C        C  531   2.643   4.090   4.730
    1C        C  532   2.539   3.902   4.853
    1C        C  533   2.523   3.997   4.959
    1C        C  534   3.622   4.557   2.042
    1C        C  535   3.756   4.515   2.042
    1C        C  536   3.538   4.533   2.155
    1C        C  537   3.606   4.512   2.278
    1C        C  538   3.394   4.519   2.399
    1C        C  539   3.535   4.519   2.400
    1C        C  540   3.325   4.515   2.522
    1C        C  541   3.396   4.520   2.644
    1C        C  542   3.184   4.486   2.766
    1C        C  543   3.322   4.516   2.764
    1C        C  544   3.120   4.461   2.890
    1C        C  545   3.190   4.479   3.011
    1C        C  546   2.999   4.399   3.134
    1C        C  547   3.125   4.463   3.136
    1C        C  548   2.942   4.362   3.258
    1C        C  549   2.999   4.405   3.380
    1C        C  550   2.833   4.277   3.505
    1C        C  551   2.941   4.368   3.504
    1C        C  552   2.781   4.232   3.629
    1C        C  553   2.835   4.281   3.750
    1C        C  554   2.698   4.124   3.878
    1C        C  555   2.784   4.236   3.874
    1C        C  556   2.657   4.066   4.000
    1C        C  557   2.695   4.130   4.120
    1C        C  558   2.597   3.946   4.247
    1C        C  559   2.657   4.073   4.244
    1C        C  560   2.570   3.882   4.370
    1C        C  561   2.592   3.948   4.492
    1C        C  562   2.532   3.747   4.616
    1C        C  563   2.564   3.884   4.615
    1C        C  564   2.518   3.681   4.740
    1C        C  565   2.520   3.760   4.858
    1C        C  566   2.531   3.549   4.980
    1C        C  567   2.525   3.688   4.978
    1C        C  568   3.327   4.470   2.043
    1C        C  569   3.398   4.509   2.157
    1C        C  570   3.184   4.475   2.281
    1C        C  571   3.322   4.510   2.278
    1C        C  572   3.116   4.458   2.404
    1C        C  573   3.187   4.486   2.523
    1C        C  574   2.992   4.398   2.649
    1C        C  575   3.119   4.459   2.644
    1C        C  576   2.929   4.365   2.771
    1C        C  577   2.994   4.397   2.892
    1C        C  578   2.827   4.269   3.016
    1C        C  579   2.935   4.360   3.015
    1C        C  580   2.778   4.221   3.139
    1C        C  581   2.833   4.271   3.259
    1C        C  582   2.694   4.117   3.387
    1C        C  583   2.784   4.225   3.383
    1C        C  584   2.653   4.061   3.510
    1C        C  585   2.694   4.121   3.631
    1C        C  586   2.595   3.938   3.758
    1C        C  587   2.656   4.066   3.756
    1C        C  588   2.570   3.874   3.881
    1C        C  589   2.593   3.940   4.004
    1C        C  590   2.539   3.738   4.128
    1C        C  591   2.567   3.876   4.127
    1C        C  592   2.522   3.673   4.252
    1C        C  593   2.530   3.746   4.373
    1C        C  594   2.510   3.534   4.501
    1C        C  595   2.520   3.675   4.495
    1C        C  596   2.514   3.465   4.624
    1C        C  597   2.512   3.539   4.744
    1C        C  598   2.539   3.328   4.865
    1C        C  599   2.524   3.469   4.866
    1C        C  600   2.540   3.248   4.980
    1C        C  601   3.192   4.438   2.039
    1C        C  602   2.984   4.394   2.162
    1C        C  603   3.121   4.437   2.160
    1C        C  604   2.924   4.361   2.287
    1C        C  605   2.988   4.399   2.407
    1C        C  606   2.821   4.268   2.529
    1C        C  607   2.930   4.357   2.529
    1C        C  608   2.767   4.221   2.650
    1C        C  609   2.822   4.272   2.770
    1C        C  610   2.689   4.110   2.898
    1C        C  611   2.775   4.222   2.893
    1C        C  612   2.648   4.053   3.021
    1C        C  613   2.686   4.115   3.142
    1C        C  614   2.587   3.930   3.267
    1C        C  615   2.653   4.055   3.266
    1C        C  616   2.568   3.868   3.392
    1C        C  617   2.598   3.931   3.515
    1C        C  618   2.527   3.733   3.639
    1C        C  619   2.572   3.867   3.638
    1C        C  620   2.514   3.667   3.763
    1C        C  621   2.528   3.740   3.883
    1C        C  622   2.516   3.529   4.011
    1C        C  623   2.520   3.670   4.006
    1C        C  624   2.520   3.460   4.134
    1C        C  625   2.517   3.532   4.256
    1C        C  626   2.539   3.323   4.381
    1C        C  627   2.516   3.463   4.379
    1C        C  628   2.561   3.255   4.502
    1C        C  629   2.537   3.325   4.622
    1C        C  630   2.603   3.123   4.744
    1C        C  631   2.554   3.256   4.745
    1C        C  632   2.625   3.050   4.865
    1C        C  633   2.564   3.110   4.980
    1C        C  634   2.783   4.307   2.055
    1C        C  635   2.891   4.396   2.054
    1C        C  636   2.750   4.230   2.167
    1C        C  637   2.813   4.272   2.286
    1C        C  638   2.676   4.111   2.410
    1C        C  639   2.766   4.219   2.408
    1C        C  640   2.636   4.050   2.531
    1C        C  641   2.682   4.107   2.652
    1C        C  642   2.584   3.924   2.777
    1C        C  643   2.650   4.049   2.776
    1C        C  644   2.558   3.860   2.900
    1C        C  645   2.581   3.929   3.021
    1C        C  646   2.527   3.727   3.149
    1C        C  647   2.558   3.865   3.145
    1C        C  648   2.519   3.659   3.272
    1C        C  649   2.534   3.731   3.393
    1C        C  650   2.509   3.523   3.520
    1C        C  651   2.515   3.664   3.516
    1C        C  652   2.512   3.454   3.643
    1C        C  653   2.508   3.526   3.765
    1C        C  654   2.541   3.318   3.891
    1C        C  655   2.518   3.458   3.889
    1C        C  656   2.561   3.252   4.014
    1C        C  657   2.543   3.321   4.136
    1C        C  658   2.612   3.123   4.259
    1C        C  659   2.559   3.254   4.259
    1C        C  660   2.640   3.061   4.382
    1C        C  661   2.609   3.122   4.506
    1C        C  662   2.712   2.934   4.624
    1C        C  663   2.635   3.053   4.626
    1C        C  664   2.751   2.876   4.747
    1C        C  665   2.701   2.929   4.869
    1C        C  666   2.744   2.868   4.987
    1C        C  667   2.676   4.025   2.056
    1C        C  668   2.681   4.107   2.169
    1C        C  669   2.590   3.913   2.292
    1C        C  670   2.640   4.046   2.290
    1C        C  671   2.559   3.850   2.414
    1C        C  672   2.578   3.921   2.535
    1C        C  673   2.516   3.719   2.660
    1C        C  674   2.553   3.856   2.657
    1C        C  675   2.508   3.651   2.783
    1C        C  676   2.525   3.723   2.904
    1C        C  677   2.504   3.515   3.030
    1C        C  678   2.514   3.656   3.028
    1C        C  679   2.507   3.445   3.153
    1C        C  680   2.508   3.518   3.274
    1C        C  681   2.540   3.312   3.401
    1C        C  682   2.510   3.450   3.398
    1C        C  683   2.557   3.246   3.524
    1C        C  684   2.541   3.316   3.646
    1C        C  685   2.614   3.119   3.770
    1C        C  686   2.559   3.249   3.769
    1C        C  687   2.648   3.059   3.894
    1C        C  688   2.616   3.121   4.016
    1C        C  689   2.713   2.933   4.139
    1C        C  690   2.647   3.057   4.138
    1C        C  691   2.760   2.882   4.263
    1C        C  692   2.718   2.943   4.383
    1C        C  693   2.760   2.880   4.502
    1C        C  694   2.627   3.894   2.057
    1C        C  695   2.521   3.706   2.174
    1C        C  696   2.578   3.835   2.174
    1C        C  697   2.500   3.642   2.298
    1C        C  698   2.517   3.715   2.417
    1C        C  699   2.496   3.505   2.543
    1C        C  700   2.504   3.646   2.540
    1C        C  701   2.504   3.438   2.667
    1C        C  702   2.504   3.510   2.789
    1C        C  703   2.533   3.300   2.911
    1C        C  704   2.510   3.439   2.911
    1C        C  705   2.552   3.235   3.035
    1C        C  706   2.534   3.306   3.155
    1C        C  707   2.603   3.109   3.280
    1C        C  708   2.556   3.242   3.279
    1C        C  709   2.636   3.046   3.403
    1C        C  710   2.611   3.115   3.523
    1C        C  711   2.714   2.934   3.651
    1C        C  712   2.642   3.055   3.648
    1C        C  713   2.764   2.880   3.772
    1C        C  714   2.722   2.938   3.894
    1C        C  715   2.756   2.878   4.017
    1C        C  716   2.449   3.499   2.065
    1C        C  717   2.495   3.631   2.059
    1C        C  718   2.471   3.421   2.183
    1C        C  719   2.484   3.501   2.301
    1C        C  720   2.520   3.293   2.426
    1C        C  721   2.490   3.430   2.423
    1C        C  722   2.541   3.225   2.548
    1C        C  723   2.525   3.298   2.667
    1C        C  724   2.595   3.098   2.790
    1C        C  725   2.544   3.229   2.789
    1C        C  726   2.625   3.036   2.914
    1C        C  727   2.598   3.101   3.036
    1C        C  728   2.711   2.924   3.161
    1C        C  729   2.634   3.042   3.160
    1C        C  730   2.759   2.873   3.284
    1C        C  731   2.716   2.929   3.406
    1C        C  732   2.755   2.874   3.529
    1C        C  733   2.486   3.198   2.074
    1C        C  734   2.489   3.279   2.187
    1C        C  735   2.582   3.083   2.305
    1C        C  736   2.528   3.215   2.308
    1C        C  737   2.619   3.023   2.427
    1C        C  738   2.597   3.095   2.547
    1C        C  739   2.704   2.913   2.672
    1C        C  740   2.626   3.031   2.669
    1C        C  741   2.747   2.859   2.795
    1C        C  742   2.705   2.920   2.915
    1C        C  743   2.751   2.866   3.038
    1C        C  744   2.546   3.072   2.070
    1C        C  745   2.686   2.899   2.187
    1C        C  746   2.608   3.017   2.183
    1C        C  747   2.733   2.842   2.308
    1C        C  748   2.692   2.903   2.428
    1C        C  749   2.740   2.850   2.551
    1C        C  750   2.735   2.840   2.070
    1C        C  751   3.660   2.307   1.991
    1C        O  752   3.710   2.207   2.049
    1C        O  753   3.606   2.277   1.865
    1C        C  754   4.603   3.063   1.950
    1C        O  755   4.550   3.061   1.835
    1C        O  756   4.733   3.013   1.963
    1C        C  757   4.473   4.231   1.993
    1C        O  758   4.565   4.297   2.049
    1C        O  759   4.510   4.219   1.859
    1C        C  760   3.581   4.659   1.943
    1C        O  761   3.596   4.778   1.980
    1C        O  762   3.579   4.624   1.808
    1C        C  763   2.892   4.502   1.950
    1C        O  764   2.896   4.464   1.830
    1C        O  765   2.855   4.635   1.977
    1C        C  766   2.317   3.468   2.004
    1C        O  767   2.306   3.492   1.881
    1C        O  768   2.191   3.455   2.063
    1C        C  769   4.693   3.587   5.056
    1C        O  770   4.681   3.625   5.175
    1C        O  771   4.828   3.613   5.027
    1C        C  772   4.271   4.444   5.044
    1C        O  773   4.287   4.388   5.156
    1C        O  774   4.366   4.541   5.013
    1C        C  775   4.145   2.523   5.074
    1C        O  776   4.228   2.433   5.044
    1C        O  777   4.121   2.530   5.212
    1C        C  778   2.896   4.534   5.063
    1C        O  779   2.818   4.631   5.044
    1C        O  780   2.907   4.501   5.199
    1C        C  781   2.461   3.029   5.050
    1C        O  782   2.355   2.975   5.010
    1C        O  783   2.468   2.996   5.185
    1C        C  784   2.389   4.007   5.021
    1C        O  785   2.306   4.083   4.964
    1C        O  786   2.368   3.953   5.149
    1C        C  787   2.945   2.430   2.003
    1C        O  788   2.930   2.445   1.879
    1C        O  789   2.891   2.321   2.069
    1C        C  790   3.182   2.369   5.059
    1C        O  791   3.202   2.256   5.005
    1C        O  792   3.130   2.359   5.189
    1C        H  793   4.265   3.041   5.042
    1C        H  794   4.142   2.845   5.056
    1C        H  795   4.530   3.126   5.049
    1C        H  796   4.504   3.377   5.065
    1C        H  797   4.516   3.803   5.056
    1C        H  798   4.443   3.999   5.055
    1C        H  799   4.257   4.147   5.051
    1C        H  800   4.031   4.540   5.030
    1C        H  801   3.802   4.522   5.037
    1C        H  802   3.591   4.656   5.028
    1C        H  803   3.397   4.474   5.044
    1C        H  804   3.177   4.421   5.036
    1C        H  805   3.904   2.462   5.053
    1C        H  806   3.675   2.515   5.071
    1C        H  807   2.984   2.520   5.030
    1C        H  808   3.455   2.539   5.072
    1C        H  809   2.861   2.720   5.079
    1C        H  810   2.682   2.872   5.074
    1C        H  811   2.486   3.286   5.065
    1C        H  812   2.573   3.503   5.067
    1C        H  813   2.513   3.743   5.069
    1C        H  814   2.571   4.193   5.031
    1C        H  815   2.721   4.370   5.028
    1C        H  816   2.713   2.893   1.979
    1C        H  817   2.847   2.682   1.980
    1C        H  818   3.210   2.421   1.991
    1C        H  819   3.436   2.460   1.983
    1C        H  820   3.864   2.498   1.980
    1C        H  821   4.063   2.630   1.969
    1C        H  822   4.278   2.703   1.983
    1C        H  823   4.384   2.920   1.967
    1C        H  824   4.551   3.314   1.963
    1C        H  825   4.470   3.506   1.970
    1C        H  826   4.537   3.750   1.965
    1C        H  827   3.791   4.482   1.946
    1C        H  828   3.962   4.373   1.943
    1C        H  829   4.187   4.300   1.955
    1C        H  830   4.490   3.961   1.967
    1C        H  831   2.654   3.832   1.974
    1C        H  832   2.703   4.065   1.960
    1C        H  833   2.702   4.325   1.988
    1C        H  834   3.364   4.499   1.947
    1C        H  835   3.165   4.375   1.957
    1C        H  836   2.540   3.025   1.974
    1C        H  837   2.437   3.225   1.982
    1C        H  838   2.464   3.684   1.971
    2V3OU   H29  839   2.804   3.542   5.162
    2V3OU   C27  840   2.781   3.505   5.265
    2V3OU   H27  841   2.726   3.579   5.330
    2V3OU   H28  842   2.727   3.407   5.262
    2V3OU   O11  843   2.907   3.479   5.325
    2V3OU   C15  844   2.922   3.396   5.435
    2V3OU   C13  845   3.049   3.375   5.494
    2V3OU   C14  846   3.074   3.274   5.587
    2V3OU   C16  847   2.968   3.195   5.633
    2V3OU    H6  848   2.988   3.108   5.698
    2V3OU   C12  849   3.211   3.228   5.619
    2V3OU    O2  850   3.236   3.122   5.680
    2V3OU   C10  851   3.323   3.311   5.573
    2V3OU    C8  852   3.457   3.274   5.585
    2V3OU   O10  853   3.490   3.153   5.637
    2V3OU   H26  854   3.407   3.117   5.672
    2V3OU    C6  855   3.565   3.349   5.531
    2V3OU    C5  856   3.537   3.469   5.465
    2V3OU    C4  857   3.704   3.294   5.532
    2V3OU    H4  858   3.725   3.231   5.624
    2V3OU    H5  859   3.709   3.232   5.438
    2V3OU    C2  860   3.817   3.397   5.528
    2V3OU    O6  861   3.812   3.477   5.646
    2V3OU   H21  862   3.768   3.557   5.613
    2V3OU    C3  863   3.782   3.497   5.417
    2V3OU    H2  864   3.864   3.573   5.409
    2V3OU    H3  865   3.781   3.442   5.319
    2V3OU   C25  866   3.952   3.327   5.511
    2V3OU    O7  867   4.000   3.291   5.404
    2V3OU   C26  868   4.031   3.287   5.635
    2V3OU   H22  869   4.057   3.385   5.682
    2V3OU   H23  870   4.118   3.223   5.606
    2V3OU    O8  871   3.959   3.202   5.722
    2V3OU   H24  872   3.923   3.259   5.793
    2V3OU    C1  873   3.646   3.564   5.426
    2V3OU    H1  874   3.627   3.618   5.329
    2V3OU    O3  875   3.654   3.656   5.536
    2V3OU   C19  876   3.615   3.793   5.521
    2V3OU    H9  877   3.514   3.797   5.471
    2V3OU    O4  878   3.713   3.846   5.434
    2V3OU   C20  879   3.845   3.870   5.484
    2V3OU   H10  880   3.896   3.770   5.493
    2V3OU   C24  881   3.610   3.859   5.659
    2V3OU   H16  882   3.541   3.801   5.725
    2V3OU   H17  883   3.561   3.959   5.650
    2V3OU   C23  884   3.752   3.875   5.714
    2V3OU   H15  885   3.797   3.772   5.730
    2V3OU    N1  886   3.736   3.959   5.831
    2V3OU   H19  887   3.807   3.936   5.897
    2V3OU   H20  888   3.651   3.937   5.878
    2V3OU   C21  889   3.847   3.949   5.614
    2V3OU   H11  890   3.951   3.933   5.656
    2V3OU    O5  891   3.824   4.089   5.610
    2V3OU   H18  892   3.783   4.113   5.695
    2V3OU   C22  893   3.915   3.945   5.372
    2V3OU   H12  894   3.861   4.041   5.351
    2V3OU   H13  895   3.912   3.887   5.276
    2V3OU   H14  896   4.021   3.964   5.401
    2V3OU   C11  897   3.158   3.468   5.461
    2V3OU    O1  898   3.139   3.582   5.412
    2V3OU    C9  899   3.295   3.427   5.497
    2V3OU    C7  900   3.400   3.507   5.452
    2V3OU    O9  901   3.381   3.619   5.374
    2V3OU   H25  902   3.285   3.628   5.365
    2V3OU   C17  903   2.818   3.311   5.479
    2V3OU    H7  904   2.715   3.339   5.458
    2V3OU   C18  905   2.843   3.217   5.578
    2V3OU    H8  906   2.761   3.145   5.596
    3SOL     OW  907   4.135   3.683   4.055
    3SOL    HW1  908   4.036   3.679   4.061
    3SOL    HW2  909   4.172   3.592   4.035
    4SOL     OW  910   6.898   0.107   0.072
    4SOL    HW1  911   6.798   0.109   0.070
    4SOL    HW2  912   6.929   0.081   0.163
    5SOL     OW  913   5.165   2.259   1.021
    5SOL    HW1  914   5.263   2.249   1.036
    5SOL    HW2  915   5.130   2.332   1.079
    6SOL     OW  916   5.685   0.475   2.524
    6SOL    HW1  917   5.641   0.423   2.451
    6SOL    HW2  918   5.777   0.438   2.540
    7SOL     OW  919   0.992   4.417   4.548
    7SOL    HW1  920   0.978   4.511   4.516
    7SOL    HW2  921   1.086   4.389   4.529
    8SOL     OW  922   1.780   3.843   4.879
    8SOL    HW1  923   1.876   3.868   4.864
    8SOL    HW2  924   1.723   3.924   4.871
    9SOL     OW  925   0.085   0.889   6.363
    9SOL    HW1  926   0.014   0.843   6.309
    9SOL    HW2  927   0.108   0.976   6.320
   10SOL     OW  928   5.069   4.427   2.533
   10SOL    HW1  929   5.135   4.360   2.568
   10SOL    HW2  930   5.113   4.485   2.465
   11SOL     OW  931   2.388   2.162   0.488
   11SOL    HW1  932   2.463   2.098   0.472
   11SOL    HW2  933   2.331   2.168   0.406
   12SOL     OW  934   3.480   5.037   3.375
   12SOL    HW1  935   3.573   5.027   3.410
   12SOL    HW2  936   3.439   5.120   3.411
   13SOL     OW  937   5.427   6.249   1.451
   13SOL    HW1  938   5.404   6.163   1.404
   13SOL    HW2  939   5.355   6.270   1.517
   14SOL     OW  940   4.593   5.619   4.952
   14SOL    HW1  941   4.631   5.559   4.882
   14SOL    HW2  942   4.665   5.680   4.986
   15SOL     OW  943   7.021   6.535   5.958
   15SOL    HW1  944   0.020   6.443   5.927
   15SOL    HW2  945   0.070   6.598   5.935
   16SOL     OW  946   1.114   4.147   4.795
   16SOL    HW1  947   1.181   4.093   4.743
   16SOL    HW2  948   1.154   4.234   4.822
   17SOL     OW  949   6.506   2.133   4.845
   17SOL    HW1  950   6.521   2.080   4.929
   17SOL    HW2  951   6.411   2.122   4.816
   18SOL     OW  952   2.150   1.149   5.746
   18SOL    HW1  953   2.120   1.233   5.790
   18SOL    HW2  954   2.220   1.170   5.678
   19SOL     OW  955   2.445   0.532   3.215
   19SOL    HW1  956   2.441   0.432   3.212
   19SOL    HW2  957   2.513   0.560   3.283
   20SOL     OW  958   6.691   1.788   5.511
   20SOL    HW1  959   6.744   1.729   5.573
   20SOL    HW2  960   6.608   1.818   5.557
   21SOL     OW  961   2.811   4.891   3.280
   21SOL    HW1  962   2.822   4.991   3.282
   21SOL    HW2  963   2.837   4.853   3.369
   22SOL     OW  964   1.729   0.298   6.396
   22SOL    HW1  965   1.712   0.235   6.472
   22SOL    HW2  966   1.643   0.340   6.367
   23SOL     OW  967   6.102   4.710   1.345
   23SOL    HW1  968   6.081   4.790   1.401
   23SOL    HW2  969   6.182   4.663   1.382
   24SOL     OW  970   4.620   1.007   0.791
   24SOL    HW1  971   4.712   0.969   0.798
   24SOL    HW2  972   4.588   1.000   0.697
   25SOL     OW  973   1.408   1.157   4.716
   25SOL    HW1  974   1.399   1.085   4.648
   25SOL    HW2  975   1.367   1.241   4.683
   26SOL     OW  976   1.360   2.789   6.968
   26SOL    HW1  977   1.389   2.815   6.876
   26SOL    HW2  978   1.346   2.690   6.971
   27SOL     OW  979   6.122   1.214   1.285
   27SOL    HW1  980   6.182   1.143   1.247
   27SOL    HW2  981   6.139   1.300   1.237
   28SOL     OW  982   2.458   1.126   5.227
   28SOL    HW1  983   2.409   1.100   5.310
   28SOL    HW2  984   2.485   1.222   5.233
   29SOL     OW  985   0.576   0.038   1.152
   29SOL    HW1  986   0.613   6.973   1.127
   29SOL    HW2  987   0.649   0.107   1.147
   30SOL     OW  988   4.734   0.405   4.922
   30SOL    HW1  989   4.794   0.353   4.982
   30SOL    HW2  990   4.785   0.435   4.841
   31SOL     OW  991   1.290   3.632   5.742
   31SOL    HW1  992   1.386   3.631   5.714
   31SOL    HW2  993   1.283   3.667   5.835
   32SOL     OW  994   2.881   0.421   1.061
   32SOL    HW1  995   2.950   0.477   1.015
   32SOL    HW2  996   2.925   0.343   1.105
   33SOL     OW  997   1.467   5.326   6.402
   33SOL    HW1  998   1.447   5.410   6.452
   33SOL    HW2  999   1.468   5.249   6.465
   34SOL     OW 1000   2.181   5.180   5.440
   34SOL    HW1 1001   2.225   5.097   5.474
   34SOL    HW2 1002   2.154   5.238   5.517
   35SOL     OW 1003   2.603   3.660   6.939
   35SOL    HW1 1004   2.618   3.564   6.962
   35SOL    HW2 1005   2.557   3.666   6.851
   36SOL     OW 1006   4.345   1.368   4.488
   36SOL    HW1 1007   4.415   1.362   4.417
   36SOL    HW2 1008   4.289   1.285   4.487
   37SOL     OW 1009   2.964   0.401   4.327
   37SOL    HW1 1010   3.012   0.345   4.259
   37SOL    HW2 1011   2.867   0.405   4.305
   38SOL     OW 1012   6.889   4.148   2.761
   38SOL    HW1 1013   6.889   4.153   2.861
   38SOL    HW2 1014   6.834   4.070   2.731
   39SOL     OW 1015   6.625   5.220   0.020
   39SOL    HW1 1016   6.671   5.276   6.977
   39SOL    HW2 1017   6.687   5.206   0.098
   40SOL     OW 1018   3.774   0.956   6.759
   40SOL    HW1 1019   3.801   0.970   6.854
   40SOL    HW2 1020   3.809   1.030   6.702
   41SOL     OW 1021   5.568   3.755   1.788
   41SOL    HW1 1022   5.510   3.832   1.763
   41SOL    HW2 1023   5.592   3.762   1.885
   42SOL     OW 1024   2.913   5.686   6.361
   42SOL    HW1 1025   2.823   5.656   6.330
   42SOL    HW2 1026   2.964   5.607   6.397
   43SOL     OW 1027   3.910   6.815   4.764
   43SOL    HW1 1028   4.010   6.817   4.761
   43SOL    HW2 1029   3.874   6.905   4.736
   44SOL     OW 1030   0.078   0.932   5.764
   44SOL    HW1 1031   0.041   0.973   5.847
   44SOL    HW2 1032   0.045   0.983   5.685
   45SOL     OW 1033   2.547   5.385   0.003
   45SOL    HW1 1034   2.547   5.485   0.008
   45SOL    HW2 1035   2.610   5.349   0.073
   46SOL     OW 1036   0.479   2.973   4.036
   46SOL    HW1 1037   0.381   2.968   4.019
   46SOL    HW2 1038   0.508   3.068   4.041
   47SOL     OW 1039   6.262   2.557   1.081
   47SOL    HW1 1040   6.206   2.577   1.000
   47SOL    HW2 1041   6.356   2.588   1.065
   48SOL     OW 1042   6.393   3.540   0.885
   48SOL    HW1 1043   6.399   3.499   0.794
   48SOL    HW2 1044   6.413   3.470   0.954
   49SOL     OW 1045   3.882   4.020   0.229
   49SOL    HW1 1046   3.975   4.039   0.199
   49SOL    HW2 1047   3.879   3.930   0.273
   50SOL     OW 1048   6.484   2.879   0.014
   50SOL    HW1 1049   6.397   2.868   6.991
   50SOL    HW2 1050   6.482   2.826   0.099
   51SOL     OW 1051   2.189   5.723   3.039
   51SOL    HW1 1052   2.185   5.761   3.132
   51SOL    HW2 1053   2.270   5.664   3.031
   52SOL     OW 1054   5.876   2.448   1.346
   52SOL    HW1 1055   5.891   2.536   1.303
   52SOL    HW2 1056   5.884   2.457   1.445
   53SOL     OW 1057   4.216   0.114   2.164
   53SOL    HW1 1058   4.270   0.070   2.093
   53SOL    HW2 1059   4.226   0.063   2.250
   54SOL     OW 1060   5.655   0.228   6.755
   54SOL    HW1 1061   5.679   0.179   6.838
   54SOL    HW2 1062   5.722   0.300   6.738
   55SOL     OW 1063   0.942   3.332   6.644
   55SOL    HW1 1064   1.026   3.363   6.690
   55SOL    HW2 1065   0.877   3.408   6.639
   56SOL     OW 1066   0.977   2.926   6.864
   56SOL    HW1 1067   0.961   2.999   6.930
   56SOL    HW2 1068   1.006   2.965   6.777
   57SOL     OW 1069   4.370   6.455   7.010
   57SOL    HW1 1070   4.413   6.370   6.982
   57SOL    HW2 1071   4.441   6.523   0.005
   58SOL     OW 1072   0.502   0.409   6.823
   58SOL    HW1 1073   0.496   0.421   6.724
   58SOL    HW2 1074   0.476   0.316   6.848
   59SOL     OW 1075   4.665   3.115   5.852
   59SOL    HW1 1076   4.683   3.056   5.773
   59SOL    HW2 1077   4.709   3.204   5.838
   60SOL     OW 1078   5.158   1.255   3.040
   60SOL    HW1 1079   5.209   1.238   3.125
   60SOL    HW2 1080   5.222   1.273   2.966
   61SOL     OW 1081   6.846   5.861   4.515
   61SOL    HW1 1082   6.746   5.865   4.512
   61SOL    HW2 1083   6.883   5.951   4.494
   62SOL     OW 1084   6.192   2.549   2.234
   62SOL    HW1 1085   6.154   2.634   2.198
   62SOL    HW2 1086   6.173   2.543   2.332
   63SOL     OW 1087   4.281   6.682   5.250
   63SOL    HW1 1088   4.200   6.671   5.192
   63SOL    HW2 1089   4.257   6.736   5.331
   64SOL     OW 1090   0.821   4.085   5.817
   64SOL    HW1 1091   0.889   4.151   5.848
   64SOL    HW2 1092   0.738   4.094   5.870
   65SOL     OW 1093   0.563   6.850   5.118
   65SOL    HW1 1094   0.537   6.848   5.021
   65SOL    HW2 1095   0.520   6.773   5.165
   66SOL     OW 1096   4.241   0.555   2.162
   66SOL    HW1 1097   4.182   0.595   2.092
   66SOL    HW2 1098   4.184   0.506   2.229
   67SOL     OW 1099   0.318   2.837   1.471
   67SOL    HW1 1100   0.390   2.789   1.422
   67SOL    HW2 1101   0.358   2.906   1.531
   68SOL     OW 1102   0.144   2.024   5.212
   68SOL    HW1 1103   0.112   2.114   5.239
   68SOL    HW2 1104   0.093   1.954   5.263
   69SOL     OW 1105   0.553   6.181   6.307
   69SOL    HW1 1106   0.601   6.139   6.230
   69SOL    HW2 1107   0.619   6.226   6.367
   70SOL     OW 1108   5.239   3.367   4.633
   70SOL    HW1 1109   5.220   3.357   4.535
   70SOL    HW2 1110   5.165   3.418   4.677
   71SOL     OW 1111   5.075   1.936   5.044
   71SOL    HW1 1112   5.054   1.852   5.092
   71SOL    HW2 1113   5.079   1.918   4.945
   72SOL     OW 1114   6.836   0.651   3.737
   72SOL    HW1 1115   6.913   0.592   3.762
   72SOL    HW2 1116   6.864   0.713   3.664
   73SOL     OW 1117   2.940   0.909   1.237
   73SOL    HW1 1118   2.898   0.861   1.314
   73SOL    HW2 1119   2.885   0.896   1.155
   74SOL     OW 1120   2.642   2.018   0.706
   74SOL    HW1 1121   2.654   2.029   0.805
   74SOL    HW2 1122   2.724   1.976   0.668
   75SOL     OW 1123   3.680   3.652   0.748
   75SOL    HW1 1124   3.609   3.670   0.816
   75SOL    HW2 1125   3.765   3.624   0.794
   76SOL     OW 1126   3.388   4.771   5.564
   76SOL    HW1 1127   3.379   4.800   5.659
   76SOL    HW2 1128   3.297   4.755   5.525
   77SOL     OW 1129   0.419   4.764   4.474
   77SOL    HW1 1130   0.383   4.854   4.496
   77SOL    HW2 1131   0.508   4.775   4.429
   78SOL     OW 1132   4.595   1.812   1.030
   78SOL    HW1 1133   4.681   1.762   1.021
   78SOL    HW2 1134   4.597   1.868   1.112
   79SOL     OW 1135   1.075   4.615   3.185
   79SOL    HW1 1136   1.173   4.594   3.194
   79SOL    HW2 1137   1.063   4.698   3.131
   80SOL     OW 1138   3.894   0.826   5.007
   80SOL    HW1 1139   3.851   0.876   5.082
   80SOL    HW2 1140   3.961   0.885   4.962
   81SOL     OW 1141   4.266   6.019   1.411
   81SOL    HW1 1142   4.302   6.111   1.401
   81SOL    HW2 1143   4.175   6.022   1.450
   82SOL     OW 1144   2.712   6.240   1.998
   82SOL    HW1 1145   2.652   6.200   2.066
   82SOL    HW2 1146   2.763   6.316   2.039
   83SOL     OW 1147   5.422   0.927   4.619
   83SOL    HW1 1148   5.375   0.860   4.678
   83SOL    HW2 1149   5.354   0.979   4.568
   84SOL     OW 1150   5.070   2.578   2.162
   84SOL    HW1 1151   5.158   2.530   2.156
   84SOL    HW2 1152   5.051   2.601   2.257
   85SOL     OW 1153   2.305   6.939   4.400
   85SOL    HW1 1154   2.237   6.948   4.327
   85SOL    HW2 1155   2.272   6.874   4.469
   86SOL     OW 1156   6.136   0.407   0.108
   86SOL    HW1 1157   6.180   0.369   0.190
   86SOL    HW2 1158   6.200   0.405   0.032
   87SOL     OW 1159   2.430   4.257   6.458
   87SOL    HW1 1160   2.464   4.204   6.380
   87SOL    HW2 1161   2.471   4.348   6.457
   88SOL     OW 1162   3.683   4.175   0.654
   88SOL    HW1 1163   3.756   4.191   0.721
   88SOL    HW2 1164   3.626   4.099   0.685
   89SOL     OW 1165   2.981   3.905   4.307
   89SOL    HW1 1166   3.076   3.885   4.283
   89SOL    HW2 1167   2.978   3.969   4.383
   90SOL     OW 1168   5.036   3.725   2.355
   90SOL    HW1 1169   5.034   3.649   2.291
   90SOL    HW2 1170   4.950   3.776   2.350
   91SOL     OW 1171   4.344   5.416   5.335
   91SOL    HW1 1172   4.286   5.343   5.369
   91SOL    HW2 1173   4.385   5.388   5.248
   92SOL     OW 1174   5.568   3.537   5.976
   92SOL    HW1 1175   5.498   3.530   5.906
   92SOL    HW2 1176   5.657   3.553   5.933
   93SOL     OW 1177   2.859   3.254   2.105
   93SOL    HW1 1178   2.804   3.171   2.107
   93SOL    HW2 1179   2.913   3.260   2.189
   94SOL     OW 1180   3.132   1.507   5.059
   94SOL    HW1 1181   3.035   1.531   5.071
   94SOL    HW2 1182   3.159   1.443   5.131
   95SOL     OW 1183   0.869   0.559   3.951
   95SOL    HW1 1184   0.897   0.641   4.001
   95SOL    HW2 1185   0.836   0.490   4.016
   96SOL     OW 1186   6.109   4.791   0.475
   96SOL    HW1 1187   6.054   4.874   0.467
   96SOL    HW2 1188   6.164   4.779   0.392
   97SOL     OW 1189   2.049   4.903   5.907
   97SOL    HW1 1190   1.962   4.920   5.861
   97SOL    HW2 1191   2.080   4.810   5.886
   98SOL     OW 1192   1.804   2.092   3.351
   98SOL    HW1 1193   1.723   2.064   3.298
   98SOL    HW2 1194   1.878   2.118   3.288
   99SOL     OW 1195   3.756   3.614   5.036
   99SOL    HW1 1196   3.699   3.695   5.045
   99SOL    HW2 1197   3.809   3.619   4.951
  100SOL     OW 1198   6.871   1.502   4.630
  100SOL    HW1 1199   6.957   1.507   4.681
  100SOL    HW2 1200   6.886   1.536   4.537
  101SOL     OW 1201   6.450   3.479   2.696
  101SOL    HW1 1202   6.468   3.390   2.655
  101SOL    HW2 1203   6.420   3.542   2.624
  102SOL     OW 1204   4.506   6.685   0.177
  102SOL    HW1 1205   4.522   6.731   0.090
  102SOL    HW2 1206   4.591   6.684   0.230
  103SOL     OW 1207   3.470   1.249   2.148
  103SOL    HW1 1208   3.496   1.179   2.081
  103SOL    HW2 1209   3.377   1.279   2.131
  104SOL     OW 1210   6.512   4.652   2.411
  104SOL    HW1 1211   6.432   4.605   2.450
  104SOL    HW2 1212   6.531   4.616   2.320
  105SOL     OW 1213   6.415   1.085   5.288
  105SOL    HW1 1214   6.369   0.997   5.303
  105SOL    HW2 1215   6.378   1.128   5.205
  106SOL     OW 1216   4.780   5.350   1.578
  106SOL    HW1 1217   4.710   5.297   1.529
  106SOL    HW2 1218   4.741   5.385   1.663
  107SOL     OW 1219   5.873   6.745   1.120
  107SOL    HW1 1220   5.819   6.793   1.051
  107SOL    HW2 1221   5.959   6.793   1.136
  108SOL     OW 1222   2.577   1.581   4.244
  108SOL    HW1 1223   2.565   1.681   4.245
  108SOL    HW2 1224   2.663   1.557   4.287
  109SOL     OW 1225   1.935   0.985   4.392
  109SOL    HW1 1226   1.952   0.897   4.348
  109SOL    HW2 1227   2.005   1.002   4.461
  110SOL     OW 1228   3.588   4.240   5.656
  110SOL    HW1 1229   3.581   4.217   5.559
  110SOL    HW2 1230   3.519   4.190   5.707
  111SOL     OW 1231   6.225   2.058   1.429
  111SOL    HW1 1232   6.212   1.985   1.497
  111SOL    HW2 1233   6.136   2.090   1.398
  112SOL     OW 1234   4.795   6.304   6.585
  112SOL    HW1 1235   4.764   6.243   6.512
  112SOL    HW2 1236   4.894   6.297   6.594
  113SOL     OW 1237   0.578   6.241   2.133
  113SOL    HW1 1238   0.587   6.281   2.042
  113SOL    HW2 1239   0.654   6.272   2.191
  114SOL     OW 1240   0.275   3.227   2.669
  114SOL    HW1 1241   0.274   3.162   2.745
  114SOL    HW2 1242   0.182   3.238   2.634
  115SOL     OW 1243   5.379   0.332   3.570
  115SOL    HW1 1244   5.363   0.413   3.627
  115SOL    HW2 1245   5.357   0.354   3.475
  116SOL     OW 1246   0.451   5.229   0.310
  116SOL    HW1 1247   0.393   5.165   0.259
  116SOL    HW2 1248   0.479   5.186   0.396
  117SOL     OW 1249   2.133   2.281   0.536
  117SOL    HW1 1250   2.071   2.223   0.484
  117SOL    HW2 1251   2.221   2.235   0.547
  118SOL     OW 1252   0.768   2.124   3.500
  118SOL    HW1 1253   0.853   2.098   3.546
  118SOL    HW2 1254   0.697   2.058   3.522
  119SOL     OW 1255   6.327   7.002   6.133
  119SOL    HW1 1256   6.321   0.003   6.037
  119SOL    HW2 1257   6.380   6.917   6.142
  120SOL     OW 1258   5.277   2.685   5.079
  120SOL    HW1 1259   5.204   2.752   5.097
  120SOL    HW2 1260   5.240   2.593   5.090
  121SOL     OW 1261   1.080   4.881   6.650
  121SOL    HW1 1262   1.113   4.791   6.621
  121SOL    HW2 1263   1.004   4.870   6.714
  122SOL     OW 1264   0.234   4.365   6.599
  122SOL    HW1 1265   0.140   4.386   6.623
  122SOL    HW2 1266   0.235   4.310   6.515
  123SOL     OW 1267   0.849   1.841   1.815
  123SOL    HW1 1268   0.849   1.941   1.825
  123SOL    HW2 1269   0.938   1.811   1.779
  124SOL     OW 1270   2.126   2.858   0.589
  124SOL    HW1 1271   2.032   2.880   0.562
  124SOL    HW2 1272   2.129   2.840   0.688
  125SOL     OW 1273   4.324   3.496   0.478
  125SOL    HW1 1274   4.284   3.587   0.487
  125SOL    HW2 1275   4.388   3.480   0.554
  126SOL     OW 1276   4.012   3.941   4.665
  126SOL    HW1 1277   4.088   4.002   4.647
  126SOL    HW2 1278   3.953   3.935   4.585
  127SOL     OW 1279   0.711   5.351   5.508
  127SOL    HW1 1280   0.689   5.279   5.574
  127SOL    HW2 1281   0.804   5.384   5.524
  128SOL     OW 1282   4.237   3.042   6.793
  128SOL    HW1 1283   4.267   3.010   6.703
  128SOL    HW2 1284   4.146   3.006   6.813
  129SOL     OW 1285   1.150   5.246   1.704
  129SOL    HW1 1286   1.132   5.179   1.632
  129SOL    HW2 1287   1.184   5.331   1.663
  130SOL     OW 1288   6.480   2.768   4.515
  130SOL    HW1 1289   6.383   2.746   4.528
  130SOL    HW2 1290   6.489   2.840   4.446
  131SOL     OW 1291   0.348   2.420   3.591
  131SOL    HW1 1292   0.299   2.468   3.663
  131SOL    HW2 1293   0.403   2.347   3.632
  132SOL     OW 1294   3.986   3.184   2.082
  132SOL    HW1 1295   4.059   3.244   2.048
  132SOL    HW2 1296   3.910   3.184   2.017
  133SOL     OW 1297   5.285   6.577   6.253
  133SOL    HW1 1298   5.323   6.546   6.166
  133SOL    HW2 1299   5.192   6.611   6.239
  134SOL     OW 1300   5.534   1.490   1.518
  134SOL    HW1 1301   5.551   1.506   1.421
  134SOL    HW2 1302   5.460   1.548   1.550
  135SOL     OW 1303   4.930   2.706   3.658
  135SOL    HW1 1304   4.988   2.637   3.700
  135SOL    HW2 1305   4.970   2.796   3.670
  136SOL     OW 1306   3.186   0.202   6.670
  136SOL    HW1 1307   3.106   0.261   6.680
  136SOL    HW2 1308   3.158   0.113   6.634
  137SOL     OW 1309   3.096   3.141   5.919
  137SOL    HW1 1310   3.190   3.133   5.886
  137SOL    HW2 1311   3.096   3.166   6.016
  138SOL     OW 1312   1.057   5.235   6.389
  138SOL    HW1 1313   1.068   5.207   6.485
  138SOL    HW2 1314   1.119   5.181   6.332
  139SOL     OW 1315   1.786   6.294   0.887
  139SOL    HW1 1316   1.756   6.301   0.982
  139SOL    HW2 1317   1.870   6.348   0.875
  140SOL     OW 1318   3.026   0.630   0.913
  140SOL    HW1 1319   3.104   0.689   0.932
  140SOL    HW2 1320   2.993   0.648   0.821
  141SOL     OW 1321   0.139   2.735   0.310
  141SOL    HW1 1322   0.123   2.636   0.303
  141SOL    HW2 1323   0.151   2.760   0.406
  142SOL     OW 1324   1.019   4.197   1.665
  142SOL    HW1 1325   1.012   4.187   1.565
  142SOL    HW2 1326   1.082   4.272   1.687
  143SOL     OW 1327   4.933   6.175   2.206
  143SOL    HW1 1328   4.918   6.079   2.229
  143SOL    HW2 1329   5.007   6.182   2.139
  144SOL     OW 1330   3.247   5.135   4.001
  144SOL    HW1 1331   3.176   5.196   4.037
  144SOL    HW2 1332   3.213   5.089   3.919
  145SOL     OW 1333   6.921   4.891   3.139
  145SOL    HW1 1334   6.915   4.810   3.197
  145SOL    HW2 1335   6.931   4.863   3.044
  146SOL     OW 1336   5.578   0.993   6.075
  146SOL    HW1 1337   5.564   0.964   5.980
  146SOL    HW2 1338   5.636   0.926   6.122
  147SOL     OW 1339   5.100   0.840   4.955
  147SOL    HW1 1340   5.125   0.916   5.016
  147SOL    HW2 1341   5.161   0.762   4.973
  148SOL     OW 1342   0.824   5.428   0.953
  148SOL    HW1 1343   0.869   5.455   0.868
  148SOL    HW2 1344   0.728   5.454   0.950
  149SOL     OW 1345   1.835   2.447   5.196
  149SOL    HW1 1346   1.857   2.473   5.102
  149SOL    HW2 1347   1.862   2.521   5.258
  150SOL     OW 1348   4.281   1.315   4.953
  150SOL    HW1 1349   4.224   1.343   4.876
  150SOL    HW2 1350   4.237   1.342   5.038
  151SOL     OW 1351   4.080   2.997   1.023
  151SOL    HW1 1352   4.018   2.943   0.967
  151SOL    HW2 1353   4.150   3.039   0.965
  152SOL     OW 1354   0.243   2.296   1.014
  152SOL    HW1 1355   0.177   2.369   1.031
  152SOL    HW2 1356   0.330   2.319   1.058
  153SOL     OW 1357   2.747   1.109   3.439
  153SOL    HW1 1358   2.710   1.020   3.413
  153SOL    HW2 1359   2.738   1.122   3.538
  154SOL     OW 1360   6.363   1.545   2.711
  154SOL    HW1 1361   6.456   1.528   2.744
  154SOL    HW2 1362   6.301   1.552   2.789
  155SOL     OW 1363   0.399   6.789   2.136
  155SOL    HW1 1364   0.445   6.841   2.208
  155SOL    HW2 1365   0.388   6.847   2.055
  156SOL     OW 1366   4.961   2.298   0.512
  156SOL    HW1 1367   4.891   2.367   0.531
  156SOL    HW2 1368   5.018   2.286   0.594
  157SOL     OW 1369   3.381   5.377   0.521
  157SOL    HW1 1370   3.386   5.471   0.555
  157SOL    HW2 1371   3.421   5.315   0.589
  158SOL     OW 1372   0.373   2.693   3.356
  158SOL    HW1 1373   0.303   2.633   3.317
  158SOL    HW2 1374   0.450   2.638   3.389
  159SOL     OW 1375   6.060   5.060   0.602
  159SOL    HW1 1376   6.030   4.999   0.676
  159SOL    HW2 1377   6.140   5.112   0.632
  160SOL     OW 1378   6.517   0.105   2.051
  160SOL    HW1 1379   6.497   0.203   2.043
  160SOL    HW2 1380   6.533   0.068   1.959
  161SOL     OW 1381   0.396   6.061   0.795
  161SOL    HW1 1382   0.403   5.965   0.822
  161SOL    HW2 1383   0.485   6.092   0.760
  162SOL     OW 1384   4.557   6.867   6.968
  162SOL    HW1 1385   4.611   6.951   6.979
  162SOL    HW2 1386   4.491   6.878   6.894
  163SOL     OW 1387   0.160   4.107   2.956
  163SOL    HW1 1388   0.189   4.095   2.861
  163SOL    HW2 1389   0.063   4.086   2.964
  164SOL     OW 1390   2.532   2.179   3.729
  164SOL    HW1 1391   2.582   2.250   3.779
  164SOL    HW2 1392   2.509   2.213   3.638
  165SOL     OW 1393   0.251   6.220   3.312
  165SOL    HW1 1394   0.257   6.140   3.372
  165SOL    HW2 1395   0.232   6.301   3.367
  166SOL     OW 1396   6.639   4.246   3.553
  166SOL    HW1 1397   6.666   4.186   3.478
  166SOL    HW2 1398   6.560   4.208   3.599
  167SOL     OW 1399   3.075   2.247   6.944
  167SOL    HW1 1400   3.055   2.338   6.981
  167SOL    HW2 1401   3.103   2.255   6.848
  168SOL     OW 1402   5.140   3.824   1.260
  168SOL    HW1 1403   5.121   3.840   1.163
  168SOL    HW2 1404   5.210   3.753   1.268
  169SOL     OW 1405   4.903   2.034   0.784
  169SOL    HW1 1406   4.847   2.116   0.797
  169SOL    HW2 1407   4.925   1.994   0.873
  170SOL     OW 1408   0.051   6.048   2.305
  170SOL    HW1 1409   0.083   6.013   2.217
  170SOL    HW2 1410   6.984   6.013   2.323
  171SOL     OW 1411   3.652   4.156   0.375
  171SOL    HW1 1412   3.684   4.155   0.470
  171SOL    HW2 1413   3.710   4.098   0.319
  172SOL     OW 1414   6.923   2.234   6.542
  172SOL    HW1 1415   6.982   2.160   6.511
  172SOL    HW2 1416   6.965   2.281   6.620
  173SOL     OW 1417   6.989   1.890   4.136
  173SOL    HW1 1418   7.001   1.884   4.235
  173SOL    HW2 1419   6.891   1.900   4.114
  174SOL     OW 1420   5.895   5.394   5.187
  174SOL    HW1 1421   5.812   5.407   5.133
  174SOL    HW2 1422   5.943   5.481   5.195
  175SOL     OW 1423   0.380   6.938   1.324
  175SOL    HW1 1424   0.454   7.005   1.322
  175SOL    HW2 1425   0.418   6.847   1.340
  176SOL     OW 1426   6.013   4.439   1.259
  176SOL    HW1 1427   6.060   4.524   1.233
  176SOL    HW2 1428   5.933   4.461   1.315
  177SOL     OW 1429   6.043   2.912   4.622
  177SOL    HW1 1430   6.039   3.002   4.666
  177SOL    HW2 1431   5.970   2.905   4.554
  178SOL     OW 1432   2.148   6.294   5.977
  178SOL    HW1 1433   2.192   6.371   6.025
  178SOL    HW2 1434   2.053   6.318   5.956
  179SOL     OW 1435   3.112   4.747   1.214
  179SOL    HW1 1436   3.137   4.833   1.169
  179SOL    HW2 1437   3.125   4.671   1.150
  180SOL     OW 1438   3.927   1.129   0.413
  180SOL    HW1 1439   3.936   1.060   0.341
  180SOL    HW2 1440   3.998   1.116   0.482
  181SOL     OW 1441   3.213   2.385   5.782
  181SOL    HW1 1442   3.262   2.323   5.843
  181SOL    HW2 1443   3.132   2.421   5.828
  182SOL     OW 1444   4.199   2.726   6.708
  182SOL    HW1 1445   4.293   2.693   6.717
  182SOL    HW2 1446   4.177   2.738   6.611
  183SOL     OW 1447   3.364   1.476   3.319
  183SOL    HW1 1448   3.449   1.504   3.364
  183SOL    HW2 1449   3.291   1.539   3.346
  184SOL     OW 1450   5.313   6.103   3.454
  184SOL    HW1 1451   5.247   6.043   3.499
  184SOL    HW2 1452   5.279   6.128   3.364
  185SOL     OW 1453   6.726   0.860   3.887
  185SOL    HW1 1454   6.778   0.782   3.855
  185SOL    HW2 1455   6.637   0.863   3.840
  186SOL     OW 1456   4.556   6.489   3.806
  186SOL    HW1 1457   4.522   6.528   3.891
  186SOL    HW2 1458   4.548   6.556   3.732
  187SOL     OW 1459   4.014   6.504   1.947
  187SOL    HW1 1460   3.983   6.425   1.894
  187SOL    HW2 1461   4.113   6.500   1.959
  188SOL     OW 1462   1.680   3.463   3.511
  188SOL    HW1 1463   1.691   3.540   3.449
  188SOL    HW2 1464   1.685   3.495   3.606
  189SOL     OW 1465   5.783   5.063   6.097
  189SOL    HW1 1466   5.880   5.081   6.110
  189SOL    HW2 1467   5.769   5.011   6.013
  190SOL     OW 1468   5.928   0.585   0.026
  190SOL    HW1 1469   5.967   0.618   6.965
  190SOL    HW2 1470   5.998   0.532   0.075
  191SOL     OW 1471   6.977   1.191   4.913
  191SOL    HW1 1472   7.015   1.273   4.870
  191SOL    HW2 1473   6.990   1.197   5.012
  192SOL     OW 1474   0.538   5.411   0.979
  192SOL    HW1 1475   0.507   5.318   1.000
  192SOL    HW2 1476   0.473   5.453   0.915
  193SOL     OW 1477   2.901   6.069   0.213
  193SOL    HW1 1478   2.952   6.150   0.245
  193SOL    HW2 1479   2.838   6.096   0.140
  194SOL     OW 1480   4.171   6.405   2.478
  194SOL    HW1 1481   4.219   6.390   2.565
  194SOL    HW2 1482   4.201   6.336   2.412
  195SOL     OW 1483   3.734   1.207   0.888
  195SOL    HW1 1484   3.645   1.248   0.910
  195SOL    HW2 1485   3.789   1.201   0.971
  196SOL     OW 1486   3.168   1.929   0.131
  196SOL    HW1 1487   3.093   1.929   0.065
  196SOL    HW2 1488   3.206   1.837   0.138
  197SOL     OW 1489   2.501   6.809   0.452
  197SOL    HW1 1490   2.403   6.813   0.469
  197SOL    HW2 1491   2.548   6.781   0.535
  198SOL     OW 1492   4.178   0.652   6.465
  198SOL    HW1 1493   4.086   0.637   6.501
  198SOL    HW2 1494   4.246   0.624   6.533
  199SOL     OW 1495   0.307   0.171   3.126
  199SOL    HW1 1496   0.260   0.128   3.204
  199SOL    HW2 1497   0.297   0.113   3.045
  200SOL     OW 1498   0.498   4.032   3.455
  200SOL    HW1 1499   0.487   4.121   3.498
  200SOL    HW2 1500   0.554   4.042   3.372
  201SOL     OW 1501   4.163   1.355   6.416
  201SOL    HW1 1502   4.214   1.270   6.411
  201SOL    HW2 1503   4.218   1.425   6.462
  202SOL     OW 1504   3.343   0.180   2.882
  202SOL    HW1 1505   3.347   0.271   2.841
  202SOL    HW2 1506   3.436   0.146   2.897
  203SOL     OW 1507   5.475   2.829   6.615
  203SOL    HW1 1508   5.515   2.870   6.698
  203SOL    HW2 1509   5.407   2.760   6.641
  204SOL     OW 1510   2.430   6.474   1.095
  204SOL    HW1 1511   2.420   6.554   1.036
  204SOL    HW2 1512   2.525   6.442   1.091
  205SOL     OW 1513   6.027   1.195   0.466
  205SOL    HW1 1514   6.078   1.177   0.551
  205SOL    HW2 1515   5.938   1.149   0.470
  206SOL     OW 1516   1.239   4.384   1.650
  206SOL    HW1 1517   1.257   4.458   1.584
  206SOL    HW2 1518   1.226   4.423   1.741
  207SOL     OW 1519   5.092   0.727   5.514
  207SOL    HW1 1520   4.998   0.751   5.491
  207SOL    HW2 1521   5.096   0.631   5.542
  208SOL     OW 1522   3.697   4.449   6.199
  208SOL    HW1 1523   3.602   4.438   6.227
  208SOL    HW2 1524   3.726   4.369   6.146
  209SOL     OW 1525   6.622   5.978   5.523
  209SOL    HW1 1526   6.609   6.055   5.585
  209SOL    HW2 1527   6.714   5.982   5.485
  210SOL     OW 1528   3.906   2.368   1.729
  210SOL    HW1 1529   3.826   2.419   1.697
  210SOL    HW2 1530   3.878   2.279   1.763
  211SOL     OW 1531   1.900   2.068   1.703
  211SOL    HW1 1532   1.887   2.154   1.652
  211SOL    HW2 1533   1.975   2.017   1.661
  212SOL     OW 1534   0.454   5.596   3.084
  212SOL    HW1 1535   0.414   5.592   3.175
  212SOL    HW2 1536   0.448   5.689   3.048
  213SOL     OW 1537   4.696   2.390   0.353
  213SOL    HW1 1538   4.667   2.295   0.355
  213SOL    HW2 1539   4.694   2.428   0.445
  214SOL     OW 1540   1.773   0.251   3.017
  214SOL    HW1 1541   1.731   0.287   3.100
  214SOL    HW2 1542   1.722   0.171   2.985
  215SOL     OW 1543   3.468   3.227   2.697
  215SOL    HW1 1544   3.511   3.316   2.686
  215SOL    HW2 1545   3.536   3.155   2.679
  216SOL     OW 1546   0.503   6.446   5.840
  216SOL    HW1 1547   0.501   6.475   5.744
  216SOL    HW2 1548   0.582   6.487   5.885
  217SOL     OW 1549   1.037   2.911   3.374
  217SOL    HW1 1550   1.061   2.815   3.384
  217SOL    HW2 1551   1.073   2.963   3.452
  218SOL     OW 1552   1.259   4.261   5.508
  218SOL    HW1 1553   1.319   4.189   5.473
  218SOL    HW2 1554   1.182   4.220   5.555
  219SOL     OW 1555   4.907   4.970   6.923
  219SOL    HW1 1556   4.919   4.915   6.841
  219SOL    HW2 1557   4.997   4.988   6.965
  220SOL     OW 1558   3.294   4.855   0.947
  220SOL    HW1 1559   3.207   4.883   0.987
  220SOL    HW2 1560   3.282   4.838   0.849
  221SOL     OW 1561   5.835   2.110   4.396
  221SOL    HW1 1562   5.891   2.031   4.371
  221SOL    HW2 1563   5.792   2.147   4.314
  222SOL     OW 1564   1.266   6.581   5.206
  222SOL    HW1 1565   1.241   6.506   5.144
  222SOL    HW2 1566   1.185   6.634   5.229
  223SOL     OW 1567   6.524   3.606   1.293
  223SOL    HW1 1568   6.497   3.702   1.284
  223SOL    HW2 1569   6.445   3.547   1.281
  224SOL     OW 1570   3.059   2.285   1.691
  224SOL    HW1 1571   3.153   2.315   1.708
  224SOL    HW2 1572   2.997   2.328   1.757
  225SOL     OW 1573   6.340   0.406   6.890
  225SOL    HW1 1574   6.315   0.396   6.794
  225SOL    HW2 1575   6.342   0.503   6.915
  226SOL     OW 1576   6.007   5.477   1.025
  226SOL    HW1 1577   5.982   5.566   1.063
  226SOL    HW2 1578   5.924   5.425   1.005
  227SOL     OW 1579   1.772   2.823   3.972
  227SOL    HW1 1580   1.822   2.815   4.058
  227SOL    HW2 1581   1.718   2.740   3.957
  228SOL     OW 1582   3.904   0.109   3.342
  228SOL    HW1 1583   3.850   0.026   3.357
  228SOL    HW2 1584   3.910   0.161   3.427
  229SOL     OW 1585   6.024   5.572   2.801
  229SOL    HW1 1586   6.091   5.527   2.859
  229SOL    HW2 1587   5.932   5.545   2.830
  230SOL     OW 1588   1.615   4.553   5.138
  230SOL    HW1 1589   1.646   4.642   5.172
  230SOL    HW2 1590   1.563   4.506   5.210
  231SOL     OW 1591   0.873   2.103   6.716
  231SOL    HW1 1592   0.907   2.091   6.623
  231SOL    HW2 1593   0.787   2.052   6.726
  232SOL     OW 1594   1.996   4.935   6.569
  232SOL    HW1 1595   2.067   4.911   6.504
  232SOL    HW2 1596   1.932   4.999   6.527
  233SOL     OW 1597   2.723   0.998   6.020
  233SOL    HW1 1598   2.639   0.945   6.030
  233SOL    HW2 1599   2.773   0.998   6.107
  234SOL     OW 1600   2.768   5.859   0.358
  234SOL    HW1 1601   2.829   5.920   0.307
  234SOL    HW2 1602   2.673   5.891   0.350
  235SOL     OW 1603   3.056   3.472   5.034
  235SOL    HW1 1604   3.012   3.542   5.090
  235SOL    HW2 1605   2.988   3.405   5.006
  236SOL     OW 1606   0.069   2.300   5.265
  236SOL    HW1 1607   0.165   2.325   5.255
  236SOL    HW2 1608   0.045   2.300   5.362
  237SOL     OW 1609   0.248   0.034   1.513
  237SOL    HW1 1610   0.323   0.024   1.579
  237SOL    HW2 1611   0.273   7.015   1.427
  238SOL     OW 1612   5.801   2.513   2.420
  238SOL    HW1 1613   5.755   2.451   2.357
  238SOL    HW2 1614   5.744   2.525   2.502
  239SOL     OW 1615   0.111   5.895   0.070
  239SOL    HW1 1616   0.159   5.884   0.157
  239SOL    HW2 1617   0.089   5.805   0.033
  240SOL     OW 1618   6.953   3.465   5.791
  240SOL    HW1 1619   6.888   3.443   5.719
  240SOL    HW2 1620   0.013   3.414   5.775
  241SOL     OW 1621   0.727   0.982   3.280
  241SOL    HW1 1622   0.629   0.987   3.262
  241SOL    HW2 1623   0.777   0.983   3.193
  242SOL     OW 1624   1.533   3.404   3.974
  242SOL    HW1 1625   1.495   3.489   4.008
  242SOL    HW2 1626   1.539   3.338   4.049
  243SOL     OW 1627   4.906   0.221   5.080
  243SOL    HW1 1628   5.005   0.235   5.074
  243SOL    HW2 1629   4.884   0.127   5.057
  244SOL     OW 1630   6.438   1.884   5.611
  244SOL    HW1 1631   6.393   1.808   5.657
  244SOL    HW2 1632   6.396   1.970   5.640
  245SOL     OW 1633   6.265   1.684   3.782
  245SOL    HW1 1634   6.290   1.779   3.800
  245SOL    HW2 1635   6.345   1.625   3.795
  246SOL     OW 1636   5.249   3.437   3.170
  246SOL    HW1 1637   5.279   3.515   3.225
  246SOL    HW2 1638   5.170   3.394   3.214
  247SOL     OW 1639   2.968   1.450   3.264
  247SOL    HW1 1640   2.957   1.387   3.187
  247SOL    HW2 1641   2.901   1.524   3.257
  248SOL     OW 1642   6.215   1.306   2.977
  248SOL    HW1 1643   6.233   1.223   2.923
  248SOL    HW2 1644   6.137   1.354   2.939
  249SOL     OW 1645   3.422   0.137   3.759
  249SOL    HW1 1646   3.390   0.054   3.804
  249SOL    HW2 1647   3.463   0.114   3.671
  250SOL     OW 1648   4.585   2.869   5.987
  250SOL    HW1 1649   4.616   2.953   5.942
  250SOL    HW2 1650   4.587   2.794   5.921
  251SOL     OW 1651   2.814   2.196   1.240
  251SOL    HW1 1652   2.870   2.244   1.308
  251SOL    HW2 1653   2.857   2.109   1.217
  252SOL     OW 1654   0.196   1.206   5.852
  252SOL    HW1 1655   0.192   1.106   5.851
  252SOL    HW2 1656   0.222   1.238   5.943
  253SOL     OW 1657   2.713   4.001   6.030
  253SOL    HW1 1658   2.751   3.910   6.009
  253SOL    HW2 1659   2.784   4.058   6.072
  254SOL     OW 1660   5.924   3.437   5.010
  254SOL    HW1 1661   5.911   3.512   4.945
  254SOL    HW2 1662   5.885   3.353   4.971
  255SOL     OW 1663   3.770   2.016   4.313
  255SOL    HW1 1664   3.756   2.074   4.233
  255SOL    HW2 1665   3.785   1.922   4.284
  256SOL     OW 1666   6.360   5.668   6.583
  256SOL    HW1 1667   6.275   5.663   6.636
  256SOL    HW2 1668   6.433   5.703   6.641
  257SOL     OW 1669   3.068   5.740   5.962
  257SOL    HW1 1670   3.145   5.701   6.012
  257SOL    HW2 1671   3.000   5.669   5.945
  258SOL     OW 1672   5.341   4.083   4.175
  258SOL    HW1 1673   5.305   4.176   4.164
  258SOL    HW2 1674   5.413   4.067   4.108
  259SOL     OW 1675   1.005   2.445   2.925
  259SOL    HW1 1676   1.079   2.458   2.991
  259SOL    HW2 1677   1.023   2.502   2.844
  260SOL     OW 1678   6.218   6.997   6.383
  260SOL    HW1 1679   6.253   6.999   6.289
  260SOL    HW2 1680   6.129   0.017   6.386
  261SOL     OW 1681   0.769   2.348   2.508
  261SOL    HW1 1682   0.748   2.308   2.597
  261SOL    HW2 1683   0.684   2.362   2.457
  262SOL     OW 1684   1.084   5.285   1.986
  262SOL    HW1 1685   1.108   5.282   1.889
  262SOL    HW2 1686   1.036   5.370   2.006
  263SOL     OW 1687   1.210   2.245   4.292
  263SOL    HW1 1688   1.276   2.225   4.364
  263SOL    HW2 1689   1.231   2.189   4.212
  264SOL     OW 1690   3.140   5.097   6.398
  264SOL    HW1 1691   3.229   5.082   6.355
  264SOL    HW2 1692   3.096   5.176   6.356
  265SOL     OW 1693   5.542   4.585   5.133
  265SOL    HW1 1694   5.549   4.570   5.231
  265SOL    HW2 1695   5.448   4.610   5.109
  266SOL     OW 1696   3.706   2.262   0.406
  266SOL    HW1 1697   3.735   2.190   0.342
  266SOL    HW2 1698   3.775   2.271   0.478
  267SOL     OW 1699   1.114   1.881   5.786
  267SOL    HW1 1700   1.128   1.789   5.749
  267SOL    HW2 1701   1.158   1.948   5.727
  268SOL     OW 1702   3.619   5.231   4.440
  268SOL    HW1 1703   3.667   5.316   4.420
  268SOL    HW2 1704   3.521   5.243   4.420
  269SOL     OW 1705   1.117   1.030   5.779
  269SOL    HW1 1706   1.038   0.986   5.821
  269SOL    HW2 1707   1.167   1.081   5.848
  270SOL     OW 1708   4.936   1.260   3.857
  270SOL    HW1 1709   5.030   1.287   3.836
  270SOL    HW2 1710   4.937   1.183   3.922
  271SOL     OW 1711   1.714   0.889   6.800
  271SOL    HW1 1712   1.653   0.817   6.766
  271SOL    HW2 1713   1.667   0.940   6.873
  272SOL     OW 1714   3.816   5.574   3.240
  272SOL    HW1 1715   3.748   5.572   3.167
  272SOL    HW2 1716   3.905   5.602   3.202
  273SOL     OW 1717   2.639   6.927   5.418
  273SOL    HW1 1718   2.722   6.886   5.456
  273SOL    HW2 1719   2.571   6.939   5.490
  274SOL     OW 1720   5.683   2.081   1.386
  274SOL    HW1 1721   5.604   2.020   1.393
  274SOL    HW2 1722   5.677   2.133   1.301
  275SOL     OW 1723   5.964   5.971   5.053
  275SOL    HW1 1724   5.882   5.961   5.109
  275SOL    HW2 1725   6.043   5.987   5.112
  276SOL     OW 1726   6.496   6.338   3.610
  276SOL    HW1 1727   6.457   6.337   3.518
  276SOL    HW2 1728   6.508   6.243   3.642
  277SOL     OW 1729   5.052   1.364   5.268
  277SOL    HW1 1730   4.959   1.334   5.246
  277SOL    HW2 1731   5.051   1.416   5.353
  278SOL     OW 1732   6.203   2.945   2.683
  278SOL    HW1 1733   6.228   2.869   2.742
  278SOL    HW2 1734   6.181   3.025   2.739
  279SOL     OW 1735   0.098   3.173   4.454
  279SOL    HW1 1736   0.133   3.190   4.546
  279SOL    HW2 1737   0.132   3.085   4.422
  280SOL     OW 1738   3.361   0.918   3.284
  280SOL    HW1 1739   3.338   0.864   3.365
  280SOL    HW2 1740   3.413   0.999   3.312
  281SOL     OW 1741   5.377   5.774   3.685
  281SOL    HW1 1742   5.284   5.792   3.718
  281SOL    HW2 1743   5.411   5.690   3.727
  282SOL     OW 1744   2.532   1.685   0.540
  282SOL    HW1 1745   2.456   1.705   0.602
  282SOL    HW2 1746   2.520   1.594   0.501
  283SOL     OW 1747   6.742   2.215   4.739
  283SOL    HW1 1748   6.664   2.164   4.775
  283SOL    HW2 1749   6.783   2.269   4.812
  284SOL     OW 1750   5.193   5.597   3.146
  284SOL    HW1 1751   5.141   5.539   3.210
  284SOL    HW2 1752   5.291   5.590   3.167
  285SOL     OW 1753   4.386   0.381   5.722
  285SOL    HW1 1754   4.366   0.382   5.820
  285SOL    HW2 1755   4.464   0.320   5.705
  286SOL     OW 1756   1.971   4.907   5.129
  286SOL    HW1 1757   2.054   4.857   5.106
  286SOL    HW2 1758   1.958   4.982   5.064
  287SOL     OW 1759   3.349   0.345   6.208
  287SOL    HW1 1760   3.262   0.393   6.193
  287SOL    HW2 1761   3.333   0.265   6.267
  288SOL     OW 1762   4.070   0.450   0.868
  288SOL    HW1 1763   4.022   0.401   0.796
  288SOL    HW2 1764   4.155   0.490   0.831
  289SOL     OW 1765   6.014   6.044   3.160
  289SOL    HW1 1766   5.937   6.043   3.224
  289SOL    HW2 1767   5.997   6.111   3.088
  290SOL     OW 1768   3.267   0.666   6.200
  290SOL    HW1 1769   3.365   0.657   6.219
  290SOL    HW2 1770   3.246   0.761   6.176
  291SOL     OW 1771   3.210   6.943   5.087
  291SOL    HW1 1772   3.282   6.901   5.031
  291SOL    HW2 1773   3.130   6.960   5.031
  292SOL     OW 1774   4.491   6.703   4.007
  292SOL    HW1 1775   4.408   6.672   4.053
  292SOL    HW2 1776   4.545   6.759   4.070
  293SOL     OW 1777   5.862   6.984   2.300
  293SOL    HW1 1778   5.823   6.921   2.367
  293SOL    HW2 1779   5.814   0.047   2.304
  294SOL     OW 1780   6.723   0.800   6.149
  294SOL    HW1 1781   6.725   0.814   6.248
  294SOL    HW2 1782   6.809   0.762   6.119
  295SOL     OW 1783   1.415   1.425   4.812
  295SOL    HW1 1784   1.418   1.457   4.717
  295SOL    HW2 1785   1.325   1.445   4.851
  296SOL     OW 1786   0.086   2.439   1.550
  296SOL    HW1 1787   0.049   2.346   1.553
  296SOL    HW2 1788   0.171   2.439   1.497
  297SOL     OW 1789   4.950   3.072   3.948
  297SOL    HW1 1790   5.047   3.056   3.968
  297SOL    HW2 1791   4.897   3.064   4.032
  298SOL     OW 1792   3.972   0.396   6.261
  298SOL    HW1 1793   3.914   0.347   6.197
  298SOL    HW2 1794   3.916   0.456   6.318
  299SOL     OW 1795   1.243   0.800   6.673
  299SOL    HW1 1796   1.291   0.819   6.759
  299SOL    HW2 1797   1.154   0.760   6.692
  300SOL     OW 1798   4.422   0.159   3.609
  300SOL    HW1 1799   4.494   0.184   3.544
  300SOL    HW2 1800   4.449   0.076   3.658
  301SOL     OW 1801   6.511   5.580   1.302
  301SOL    HW1 1802   6.574   5.561   1.227
  301SOL    HW2 1803   6.513   5.677   1.324
  302SOL     OW 1804   0.105   5.703   1.826
  302SOL    HW1 1805   0.118   5.696   1.925
  302SOL    HW2 1806   0.188   5.675   1.779
  303SOL     OW 1807   5.610   5.853   3.074
  303SOL    HW1 1808   5.626   5.931   3.013
  303SOL    HW2 1809   5.579   5.886   3.163
  304SOL     OW 1810   2.449   5.755   4.593
  304SOL    HW1 1811   2.355   5.722   4.580
  304SOL    HW2 1812   2.448   5.853   4.610
  305SOL     OW 1813   1.012   3.039   2.154
  305SOL    HW1 1814   1.087   3.054   2.219
  305SOL    HW2 1815   0.971   2.949   2.170
  306SOL     OW 1816   0.357   6.408   2.919
  306SOL    HW1 1817   0.265   6.381   2.947
  306SOL    HW2 1818   0.377   6.370   2.829
  307SOL     OW 1819   3.258   3.080   3.248
  307SOL    HW1 1820   3.176   3.091   3.304
  307SOL    HW2 1821   3.246   3.130   3.162
  308SOL     OW 1822   5.234   2.277   3.749
  308SOL    HW1 1823   5.275   2.248   3.662
  308SOL    HW2 1824   5.193   2.368   3.737
  309SOL     OW 1825   1.373   6.674   6.605
  309SOL    HW1 1826   1.438   6.665   6.530
  309SOL    HW2 1827   1.295   6.612   6.588
  310SOL     OW 1828   5.284   0.149   5.204
  310SOL    HW1 1829   5.375   0.126   5.239
  310SOL    HW2 1830   5.226   0.181   5.278
  311SOL     OW 1831   2.000   5.737   2.721
  311SOL    HW1 1832   1.932   5.794   2.675
  311SOL    HW2 1833   2.071   5.794   2.761
  312SOL     OW 1834   4.457   1.667   3.097
  312SOL    HW1 1835   4.449   1.568   3.082
  312SOL    HW2 1836   4.553   1.691   3.113
  313SOL     OW 1837   4.130   3.735   2.877
  313SOL    HW1 1838   4.219   3.688   2.876
  313SOL    HW2 1839   4.111   3.767   2.970
  314SOL     OW 1840   2.522   5.761   6.163
  314SOL    HW1 1841   2.568   5.734   6.248
  314SOL    HW2 1842   2.430   5.722   6.162
  315SOL     OW 1843   6.283   1.175   3.455
  315SOL    HW1 1844   6.303   1.192   3.552
  315SOL    HW2 1845   6.185   1.184   3.439
  316SOL     OW 1846   3.577   1.371   5.751
  316SOL    HW1 1847   3.629   1.286   5.754
  316SOL    HW2 1848   3.517   1.370   5.671
  317SOL     OW 1849   1.444   1.627   1.847
  317SOL    HW1 1850   1.471   1.536   1.818
  317SOL    HW2 1851   1.478   1.695   1.782
  318SOL     OW 1852   1.125   0.421   4.739
  318SOL    HW1 1853   1.101   0.332   4.778
  318SOL    HW2 1854   1.206   0.457   4.785
  319SOL     OW 1855   1.549   1.270   2.590
  319SOL    HW1 1856   1.623   1.227   2.539
  319SOL    HW2 1857   1.581   1.358   2.626
  320SOL     OW 1858   6.077   1.861   5.922
  320SOL    HW1 1859   6.048   1.800   5.996
  320SOL    HW2 1860   6.033   1.950   5.933
  321SOL     OW 1861   4.425   3.137   1.035
  321SOL    HW1 1862   4.441   3.190   1.119
  321SOL    HW2 1863   4.351   3.179   0.983
  322SOL     OW 1864   3.458   3.335   5.979
  322SOL    HW1 1865   3.469   3.355   6.076
  322SOL    HW2 1866   3.429   3.240   5.967
  323SOL     OW 1867   0.470   3.435   2.085
  323SOL    HW1 1868   0.503   3.464   2.175
  323SOL    HW2 1869   0.435   3.342   2.091
  324SOL     OW 1870   0.155   0.322   3.580
  324SOL    HW1 1871   0.252   0.318   3.556
  324SOL    HW2 1872   0.131   0.239   3.631
  325SOL     OW 1873   6.918   3.857   2.113
  325SOL    HW1 1874   6.906   3.829   2.208
  325SOL    HW2 1875   6.843   3.822   2.058
  326SOL     OW 1876   0.745   6.671   6.376
  326SOL    HW1 1877   0.793   6.654   6.463
  326SOL    HW2 1878   0.812   6.671   6.301
  327SOL     OW 1879   4.708   5.770   4.088
  327SOL    HW1 1880   4.707   5.697   4.156
  327SOL    HW2 1881   4.619   5.775   4.043
  328SOL     OW 1882   2.146   4.064   2.428
  328SOL    HW1 1883   2.143   3.967   2.453
  328SOL    HW2 1884   2.135   4.073   2.329
  329SOL     OW 1885   3.231   3.454   2.205
  329SOL    HW1 1886   3.180   3.458   2.118
  329SOL    HW2 1887   3.170   3.418   2.276
  330SOL     OW 1888   3.274   5.694   0.704
  330SOL    HW1 1889   3.199   5.747   0.741
  330SOL    HW2 1890   3.248   5.655   0.616
  331SOL     OW 1891   5.714   5.246   6.975
  331SOL    HW1 1892   5.709   5.228   6.876
  331SOL    HW2 1893   5.766   5.173   7.019
  332SOL     OW 1894   5.593   2.026   3.095
  332SOL    HW1 1895   5.671   2.063   3.145
  332SOL    HW2 1896   5.510   2.075   3.122
  333SOL     OW 1897   3.219   0.779   5.772
  333SOL    HW1 1898   3.208   0.863   5.719
  333SOL    HW2 1899   3.316   0.757   5.781
  334SOL     OW 1900   3.911   3.470   3.478
  334SOL    HW1 1901   3.862   3.407   3.538
  334SOL    HW2 1902   3.905   3.437   3.383
  335SOL     OW 1903   3.803   0.176   6.928
  335SOL    HW1 1904   3.761   0.254   6.974
  335SOL    HW2 1905   3.901   0.175   6.946
  336SOL     OW 1906   2.844   1.796   3.976
  336SOL    HW1 1907   2.774   1.867   3.982
  336SOL    HW2 1908   2.917   1.815   4.043
  337SOL     OW 1909   2.071   0.575   6.334
  337SOL    HW1 1910   2.035   0.520   6.410
  337SOL    HW2 1911   2.015   0.657   6.323
  338SOL     OW 1912   4.228   1.509   1.082
  338SOL    HW1 1913   4.270   1.600   1.074
  338SOL    HW2 1914   4.299   1.441   1.096
  339SOL     OW 1915   4.049   5.595   5.242
  339SOL    HW1 1916   4.080   5.567   5.333
  339SOL    HW2 1917   4.032   5.694   5.242
  340SOL     OW 1918   4.531   2.086   3.817
  340SOL    HW1 1919   4.564   1.995   3.790
  340SOL    HW2 1920   4.478   2.125   3.742
  341SOL     OW 1921   5.633   6.633   2.822
  341SOL    HW1 1922   5.712   6.597   2.872
  341SOL    HW2 1923   5.558   6.566   2.827
  342SOL     OW 1924   4.355   2.274   2.308
  342SOL    HW1 1925   4.431   2.337   2.290
  342SOL    HW2 1926   4.290   2.278   2.233
  343SOL     OW 1927   0.088   5.892   2.718
  343SOL    HW1 1928   0.146   5.842   2.782
  343SOL    HW2 1929   0.113   5.866   2.624
  344SOL     OW 1930   2.229   2.045   1.150
  344SOL    HW1 1931   2.253   1.985   1.074
  344SOL    HW2 1932   2.275   2.133   1.139
  345SOL     OW 1933   6.666   3.606   3.932
  345SOL    HW1 1934   6.727   3.573   4.003
  345SOL    HW2 1935   6.571   3.605   3.966
  346SOL     OW 1936   1.768   6.872   3.516
  346SOL    HW1 1937   1.677   6.913   3.522
  346SOL    HW2 1938   1.762   6.783   3.470
  347SOL     OW 1939   2.993   4.745   0.436
  347SOL    HW1 1940   3.036   4.655   0.431
  347SOL    HW2 1941   2.940   4.752   0.520
  348SOL     OW 1942   4.255   5.291   1.470
  348SOL    HW1 1943   4.354   5.288   1.456
  348SOL    HW2 1944   4.231   5.235   1.549
  349SOL     OW 1945   6.334   4.283   1.358
  349SOL    HW1 1946   6.328   4.186   1.337
  349SOL    HW2 1947   6.242   4.320   1.373
  350SOL     OW 1948   2.959   3.009   0.472
  350SOL    HW1 1949   3.051   3.008   0.511
  350SOL    HW2 1950   2.899   3.063   0.531
  351SOL     OW 1951   3.230   4.287   1.592
  351SOL    HW1 1952   3.144   4.317   1.633
  351SOL    HW2 1953   3.281   4.233   1.659
  352SOL     OW 1954   4.178   0.107   3.313
  352SOL    HW1 1955   4.185   0.158   3.399
  352SOL    HW2 1956   4.083   0.108   3.282
  353SOL     OW 1957   2.101   6.203   6.872
  353SOL    HW1 1958   2.047   6.190   6.955
  353SOL    HW2 1959   2.060   6.150   6.797
  354SOL     OW 1960   0.402   2.739   0.279
  354SOL    HW1 1961   0.302   2.741   0.280
  354SOL    HW2 1962   0.437   2.783   0.362
  355SOL     OW 1963   1.887   2.195   2.346
  355SOL    HW1 1964   1.897   2.120   2.281
  355SOL    HW2 1965   1.921   2.280   2.305
  356SOL     OW 1966   0.946   6.678   6.145
  356SOL    HW1 1967   1.013   6.744   6.180
  356SOL    HW2 1968   0.993   6.610   6.088
  357SOL     OW 1969   5.781   6.651   4.766
  357SOL    HW1 1970   5.747   6.718   4.701
  357SOL    HW2 1971   5.875   6.625   4.742
  358SOL     OW 1972   4.380   5.745   0.291
  358SOL    HW1 1973   4.396   5.775   0.197
  358SOL    HW2 1974   4.385   5.645   0.296
  359SOL     OW 1975   2.449   2.610   2.838
  359SOL    HW1 1976   2.471   2.634   2.743
  359SOL    HW2 1977   2.529   2.570   2.882
  360SOL     OW 1978   1.709   5.054   4.577
  360SOL    HW1 1979   1.616   5.087   4.591
  360SOL    HW2 1980   1.747   5.095   4.494
  361SOL     OW 1981   6.200   6.989   3.465
  361SOL    HW1 1982   6.169   6.949   3.378
  361SOL    HW2 1983   6.227   0.059   3.449
  362SOL     OW 1984   4.289   4.993   1.136
  362SOL    HW1 1985   4.252   5.016   1.046
  362SOL    HW2 1986   4.386   4.969   1.126
  363SOL     OW 1987   4.909   5.498   1.911
  363SOL    HW1 1988   5.002   5.506   1.874
  363SOL    HW2 1989   4.899   5.410   1.957
  364SOL     OW 1990   0.550   5.920   6.525
  364SOL    HW1 1991   0.568   5.997   6.586
  364SOL    HW2 1992   0.454   5.921   6.496
  365SOL     OW 1993   4.776   1.883   3.122
  365SOL    HW1 1994   4.760   1.859   3.218
  365SOL    HW2 1995   4.823   1.808   3.076
  366SOL     OW 1996   5.230   2.254   0.178
  366SOL    HW1 1997   5.195   2.296   0.094
  366SOL    HW2 1998   5.157   2.199   0.220
  367SOL     OW 1999   4.719   2.033   5.607
  367SOL    HW1 2000   4.679   1.951   5.648
  367SOL    HW2 2001   4.706   2.111   5.667
  368SOL     OW 2002   6.659   2.464   6.071
  368SOL    HW1 2003   6.619   2.380   6.034
  368SOL    HW2 2004   6.711   2.443   6.153
  369SOL     OW 2005   6.083   3.132   2.246
  369SOL    HW1 2006   6.143   3.211   2.242
  369SOL    HW2 2007   6.010   3.148   2.312
  370SOL     OW 2008   2.158   3.453   4.092
  370SOL    HW1 2009   2.163   3.548   4.123
  370SOL    HW2 2010   2.078   3.409   4.134
  371SOL     OW 2011   1.449   4.702   6.934
  371SOL    HW1 2012   1.374   4.724   6.997
  371SOL    HW2 2013   1.497   4.620   6.966
  372SOL     OW 2014   3.816   6.764   6.702
  372SOL    HW1 2015   3.788   6.854   6.734
  372SOL    HW2 2016   3.839   6.769   6.605
  373SOL     OW 2017   5.697   5.745   4.207
  373SOL    HW1 2018   5.634   5.786   4.141
  373SOL    HW2 2019   5.742   5.817   4.259
  374SOL     OW 2020   2.765   2.077   2.517
  374SOL    HW1 2021   2.749   2.137   2.439
  374SOL    HW2 2022   2.679   2.064   2.567
  375SOL     OW 2023   1.193   4.965   5.039
  375SOL    HW1 2024   1.271   4.936   5.094
  375SOL    HW2 2025   1.110   4.964   5.095
  376SOL     OW 2026   2.710   1.059   4.650
  376SOL    HW1 2027   2.667   1.079   4.738
  376SOL    HW2 2028   2.658   0.988   4.603
  377SOL     OW 2029   1.070   2.166   6.379
  377SOL    HW1 2030   1.054   2.069   6.393
  377SOL    HW2 2031   0.983   2.213   6.363
  378SOL     OW 2032   3.607   0.905   1.670
  378SOL    HW1 2033   3.657   0.818   1.676
  378SOL    HW2 2034   3.658   0.968   1.611
  379SOL     OW 2035   6.304   2.052   5.827
  379SOL    HW1 2036   6.316   2.042   5.926
  379SOL    HW2 2037   6.208   2.067   5.807
  380SOL     OW 2038   4.233   2.040   1.028
  380SOL    HW1 2039   4.153   1.987   0.998
  380SOL    HW2 2040   4.264   2.005   1.116
  381SOL     OW 2041   1.449   3.866   3.281
  381SOL    HW1 2042   1.355   3.889   3.255
  381SOL    HW2 2043   1.507   3.868   3.200
  382SOL     OW 2044   5.290   0.536   6.924
  382SOL    HW1 2045   5.296   0.635   6.934
  382SOL    HW2 2046   5.354   0.491   6.986
  383SOL     OW 2047   4.212   3.187   0.869
  383SOL    HW1 2048   4.200   3.111   0.805
  383SOL    HW2 2049   4.145   3.259   0.849
  384SOL     OW 2050   6.044   4.251   4.681
  384SOL    HW1 2051   6.024   4.305   4.763
  384SOL    HW2 2052   6.075   4.160   4.707
  385SOL     OW 2053   4.743   4.718   0.610
  385SOL    HW1 2054   4.837   4.734   0.639
  385SOL    HW2 2055   4.724   4.771   0.527
  386SOL     OW 2056   3.023   6.937   3.966
  386SOL    HW1 2057   2.972   6.930   3.880
  386SOL    HW2 2058   2.965   6.903   4.041
  387SOL     OW 2059   2.086   5.758   4.111
  387SOL    HW1 2060   2.137   5.722   4.032
  387SOL    HW2 2061   2.150   5.795   4.178
  388SOL     OW 2062   2.426   3.224   5.909
  388SOL    HW1 2063   2.328   3.202   5.908
  388SOL    HW2 2064   2.460   3.231   5.816
  389SOL     OW 2065   2.920   3.659   3.302
  389SOL    HW1 2066   2.962   3.620   3.383
  389SOL    HW2 2067   2.919   3.592   3.228
  390SOL     OW 2068   2.298   1.013   4.366
  390SOL    HW1 2069   2.248   0.935   4.328
  390SOL    HW2 2070   2.261   1.035   4.456
  391SOL     OW 2071   0.857   3.006   0.215
  391SOL    HW1 2072   0.900   3.059   0.288
  391SOL    HW2 2073   0.843   2.912   0.246
  392SOL     OW 2074   2.172   4.874   2.490
  392SOL    HW1 2075   2.212   4.909   2.405
  392SOL    HW2 2076   2.159   4.775   2.482
  393SOL     OW 2077   5.979   4.264   5.396
  393SOL    HW1 2078   6.073   4.268   5.363
  393SOL    HW2 2079   5.922   4.328   5.344
  394SOL     OW 2080   1.337   6.907   1.090
  394SOL    HW1 2081   1.283   6.869   1.015
  394SOL    HW2 2082   1.299   6.995   1.118
  395SOL     OW 2083   5.364   3.928   1.612
  395SOL    HW1 2084   5.382   3.935   1.514
  395SOL    HW2 2085   5.286   3.868   1.628
  396SOL     OW 2086   3.092   3.990   3.433
  396SOL    HW1 2087   3.036   3.907   3.436
  396SOL    HW2 2088   3.096   4.024   3.339
  397SOL     OW 2089   4.354   2.004   5.530
  397SOL    HW1 2090   4.411   1.993   5.449
  397SOL    HW2 2091   4.364   2.097   5.566
  398SOL     OW 2092   1.012   5.356   2.401
  398SOL    HW1 2093   0.944   5.286   2.380
  398SOL    HW2 2094   1.104   5.319   2.384
  399SOL     OW 2095   4.564   5.237   1.378
  399SOL    HW1 2096   4.573   5.138   1.386
  399SOL    HW2 2097   4.552   5.262   1.281
  400SOL     OW 2098   0.366   6.026   5.006
  400SOL    HW1 2099   0.456   6.068   5.014
  400SOL    HW2 2100   0.338   5.990   5.095
  401SOL     OW 2101   4.574   1.984   6.915
  401SOL    HW1 2102   4.521   1.902   6.936
  401SOL    HW2 2103   4.535   2.062   6.962
  402SOL     OW 2104   6.201   5.881   1.564
  402SOL    HW1 2105   6.290   5.837   1.564
  402SOL    HW2 2106   6.154   5.861   1.650
  403SOL     OW 2107   4.583   2.011   5.906
  403SOL    HW1 2108   4.541   1.940   5.849
  403SOL    HW2 2109   4.554   2.101   5.872
  404SOL     OW 2110   0.560   6.878   4.520
  404SOL    HW1 2111   0.534   6.874   4.424
  404SOL    HW2 2112   0.484   6.844   4.576
  405SOL     OW 2113   1.062   2.201   0.790
  405SOL    HW1 2114   1.120   2.121   0.776
  405SOL    HW2 2115   1.091   2.275   0.729
  406SOL     OW 2116   1.507   2.513   4.538
  406SOL    HW1 2117   1.493   2.588   4.603
  406SOL    HW2 2118   1.528   2.551   4.448
  407SOL     OW 2119   2.805   0.505   5.700
  407SOL    HW1 2120   2.756   0.591   5.708
  407SOL    HW2 2121   2.802   0.473   5.606
  408SOL     OW 2122   1.419   0.200   3.659
  408SOL    HW1 2123   1.456   0.217   3.750
  408SOL    HW2 2124   1.319   0.204   3.663
  409SOL     OW 2125   5.949   3.465   3.586
  409SOL    HW1 2126   5.971   3.469   3.684
  409SOL    HW2 2127   5.994   3.386   3.546
  410SOL     OW 2128   2.596   0.681   6.883
  410SOL    HW1 2129   2.688   0.718   6.869
  410SOL    HW2 2130   2.552   0.669   6.794
  411SOL     OW 2131   6.375   4.104   5.551
  411SOL    HW1 2132   6.462   4.151   5.533
  411SOL    HW2 2133   6.330   4.082   5.465
  412SOL     OW 2134   3.657   0.411   2.415
  412SOL    HW1 2135   3.718   0.339   2.381
  412SOL    HW2 2136   3.599   0.375   2.488
  413SOL     OW 2137   3.247   6.174   0.801
  413SOL    HW1 2138   3.164   6.214   0.839
  413SOL    HW2 2139   3.288   6.112   0.868
  414SOL     OW 2140   4.633   4.729   0.866
  414SOL    HW1 2141   4.664   4.697   0.777
  414SOL    HW2 2142   4.545   4.776   0.857
  415SOL     OW 2143   1.952   6.406   1.642
  415SOL    HW1 2144   1.950   6.466   1.722
  415SOL    HW2 2145   1.899   6.323   1.662
  416SOL     OW 2146   4.304   6.417   4.706
  416SOL    HW1 2147   4.221   6.405   4.761
  416SOL    HW2 2148   4.297   6.500   4.651
  417SOL     OW 2149   3.663   6.216   2.069
  417SOL    HW1 2150   3.718   6.133   2.084
  417SOL    HW2 2151   3.657   6.268   2.154
  418SOL     OW 2152   4.730   5.942   0.268
  418SOL    HW1 2153   4.758   5.880   0.194
  418SOL    HW2 2154   4.666   5.895   0.328
  419SOL     OW 2155   0.136   7.025   1.140
  419SOL    HW1 2156   0.200   6.985   1.205
  419SOL    HW2 2157   0.045   6.987   1.155
  420SOL     OW 2158   5.848   3.740   0.141
  420SOL    HW1 2159   5.896   3.674   0.084
  420SOL    HW2 2160   5.785   3.691   0.202
  421SOL     OW 2161   2.711   6.135   0.041
  421SOL    HW1 2162   2.634   6.088   0.086
  421SOL    HW2 2163   2.733   6.088   6.981
  422SOL     OW 2164   6.333   4.505   6.741
  422SOL    HW1 2165   6.401   4.571   6.708
  422SOL    HW2 2166   6.254   4.553   6.778
  423SOL     OW 2167   6.099   2.647   0.117
  423SOL    HW1 2168   6.160   2.684   0.187
  423SOL    HW2 2169   6.004   2.665   0.143
  424SOL     OW 2170   3.379   4.103   0.443
  424SOL    HW1 2171   3.461   4.159   0.444
  424SOL    HW2 2172   3.351   4.081   0.536
  425SOL     OW 2173   4.205   1.001   1.382
  425SOL    HW1 2174   4.291   0.995   1.331
  425SOL    HW2 2175   4.195   1.093   1.419
  426SOL     OW 2176   4.898   2.636   5.636
  426SOL    HW1 2177   4.906   2.540   5.665
  426SOL    HW2 2178   4.988   2.670   5.608
  427SOL     OW 2179   5.391   3.986   1.314
  427SOL    HW1 2180   5.370   4.074   1.272
  427SOL    HW2 2181   5.432   3.925   1.246
  428SOL     OW 2182   4.351   0.733   5.096
  428SOL    HW1 2183   4.423   0.690   5.040
  428SOL    HW2 2184   4.391   0.808   5.149
  429SOL     OW 2185   1.753   4.698   0.156
  429SOL    HW1 2186   1.836   4.722   0.206
  429SOL    HW2 2187   1.760   4.728   0.061
  430SOL     OW 2188   1.231   7.015   4.471
  430SOL    HW1 2189   1.149   6.986   4.521
  430SOL    HW2 2190   1.232   6.970   4.381
  431SOL     OW 2191   3.679   1.620   0.296
  431SOL    HW1 2192   3.767   1.573   0.283
  431SOL    HW2 2193   3.686   1.682   0.374
  432SOL     OW 2194   6.890   1.985   0.448
  432SOL    HW1 2195   6.856   2.077   0.471
  432SOL    HW2 2196   6.974   1.993   0.394
  433SOL     OW 2197   2.753   6.964   4.967
  433SOL    HW1 2198   2.781   6.965   5.063
  433SOL    HW2 2199   2.723   6.872   4.942
  434SOL     OW 2200   6.016   3.508   0.967
  434SOL    HW1 2201   6.002   3.480   0.872
  434SOL    HW2 2202   6.073   3.441   1.013
  435SOL     OW 2203   3.102   3.207   6.184
  435SOL    HW1 2204   3.176   3.252   6.233
  435SOL    HW2 2205   3.027   3.188   6.248
  436SOL     OW 2206   1.665   0.287   1.259
  436SOL    HW1 2207   1.707   0.375   1.283
  436SOL    HW2 2208   1.698   0.258   1.169
  437SOL     OW 2209   0.303   0.139   6.253
  437SOL    HW1 2210   0.311   0.227   6.299
  437SOL    HW2 2211   0.246   0.078   6.308
  438SOL     OW 2212   1.779   3.037   1.894
  438SOL    HW1 2213   1.719   3.026   1.973
  438SOL    HW2 2214   1.839   2.958   1.886
  439SOL     OW 2215   6.253   4.559   2.471
  439SOL    HW1 2216   6.230   4.473   2.426
  439SOL    HW2 2217   6.210   4.635   2.422
  440SOL     OW 2218   0.617   2.296   4.300
  440SOL    HW1 2219   0.553   2.223   4.277
  440SOL    HW2 2220   0.708   2.257   4.318
  441SOL     OW 2221   1.898   1.344   3.030
  441SOL    HW1 2222   1.914   1.413   2.960
  441SOL    HW2 2223   1.905   1.386   3.121
  442SOL     OW 2224   6.888   4.272   0.063
  442SOL    HW1 2225   6.963   4.210   0.087
  442SOL    HW2 2226   6.800   4.227   0.080
  443SOL     OW 2227   1.407   4.390   5.317
  443SOL    HW1 2228   1.363   4.334   5.386
  443SOL    HW2 2229   1.377   4.361   5.226
  444SOL     OW 2230   4.126   2.417   6.337
  444SOL    HW1 2231   4.162   2.427   6.245
  444SOL    HW2 2232   4.114   2.320   6.359
  445SOL     OW 2233   2.310   4.826   3.480
  445SOL    HW1 2234   2.399   4.794   3.449
  445SOL    HW2 2235   2.290   4.916   3.441
  446SOL     OW 2236   3.547   4.991   3.848
  446SOL    HW1 2237   3.463   5.025   3.890
  446SOL    HW2 2238   3.602   4.943   3.916
  447SOL     OW 2239   7.006   4.513   0.116
  447SOL    HW1 2240   6.954   4.429   0.096
  447SOL    HW2 2241   7.001   4.532   0.214
  448SOL     OW 2242   4.074   0.660   5.159
  448SOL    HW1 2243   4.012   0.662   5.081
  448SOL    HW2 2244   4.161   0.703   5.134
  449SOL     OW 2245   6.233   1.322   4.454
  449SOL    HW1 2246   6.148   1.284   4.416
  449SOL    HW2 2247   6.233   1.309   4.553
  450SOL     OW 2248   0.278   5.991   3.492
  450SOL    HW1 2249   0.351   5.986   3.560
  450SOL    HW2 2250   0.263   5.901   3.452
  451SOL     OW 2251   0.871   1.999   2.595
  451SOL    HW1 2252   0.911   2.044   2.515
  451SOL    HW2 2253   0.869   2.063   2.672
  452SOL     OW 2254   0.013   4.911   0.391
  452SOL    HW1 2255   7.003   4.943   0.479
  452SOL    HW2 2256   0.059   4.824   0.403
  453SOL     OW 2257   3.069   1.418   6.969
  453SOL    HW1 2258   2.982   1.371   6.959
  453SOL    HW2 2259   3.085   1.475   6.887
  454SOL     OW 2260   0.302   5.966   6.415
  454SOL    HW1 2261   0.239   5.936   6.486
  454SOL    HW2 2262   0.264   5.944   6.325
  455SOL     OW 2263   5.671   0.403   3.907
  455SOL    HW1 2264   5.662   0.338   3.832
  455SOL    HW2 2265   5.710   0.488   3.873
  456SOL     OW 2266   4.024   5.757   6.004
  456SOL    HW1 2267   4.000   5.683   5.940
  456SOL    HW2 2268   3.992   5.844   5.968
  457SOL     OW 2269   2.156   4.092   3.192
  457SOL    HW1 2270   2.139   3.996   3.216
  457SOL    HW2 2271   2.068   4.140   3.185
  458SOL     OW 2272   5.528   6.108   5.952
  458SOL    HW1 2273   5.616   6.154   5.967
  458SOL    HW2 2274   5.542   6.009   5.949
  459SOL     OW 2275   0.957   0.318   2.863
  459SOL    HW1 2276   0.880   0.378   2.844
  459SOL    HW2 2277   0.953   0.288   2.959
  460SOL     OW 2278   6.968   1.693   2.119
  460SOL    HW1 2279   0.041   1.677   2.126
  460SOL    HW2 2280   6.927   1.687   2.210
  461SOL     OW 2281   4.594   6.763   4.976
  461SOL    HW1 2282   4.577   6.799   5.068
  461SOL    HW2 2283   4.526   6.692   4.956
  462SOL     OW 2284   3.158   2.782   5.950
  462SOL    HW1 2285   3.202   2.791   6.040
  462SOL    HW2 2286   3.223   2.805   5.878
  463SOL     OW 2287   6.169   5.091   3.371
  463SOL    HW1 2288   6.171   5.170   3.433
  463SOL    HW2 2289   6.222   5.112   3.288
  464SOL     OW 2290   1.765   0.975   6.548
  464SOL    HW1 2291   1.746   0.952   6.643
  464SOL    HW2 2292   1.807   0.896   6.503
  465SOL     OW 2293   0.582   1.732   4.089
  465SOL    HW1 2294   0.525   1.651   4.096
  465SOL    HW2 2295   0.632   1.745   4.175
  466SOL     OW 2296   0.386   6.591   3.664
  466SOL    HW1 2297   0.363   6.688   3.674
  466SOL    HW2 2298   0.412   6.553   3.752
  467SOL     OW 2299   0.851   0.244   6.019
  467SOL    HW1 2300   0.790   0.166   6.008
  467SOL    HW2 2301   0.817   0.304   6.091
  468SOL     OW 2302   4.087   5.909   1.011
  468SOL    HW1 2303   4.038   5.848   0.949
  468SOL    HW2 2304   4.072   6.004   0.983
  469SOL     OW 2305   2.382   5.392   0.361
  469SOL    HW1 2306   2.362   5.328   0.286
  469SOL    HW2 2307   2.421   5.341   0.438
  470SOL     OW 2308   4.671   0.340   2.097
  470SOL    HW1 2309   4.703   0.245   2.087
  470SOL    HW2 2310   4.747   0.402   2.079
  471SOL     OW 2311   1.755   2.391   4.477
  471SOL    HW1 2312   1.659   2.388   4.505
  471SOL    HW2 2313   1.785   2.299   4.453
  472SOL     OW 2314   4.817   4.711   6.282
  472SOL    HW1 2315   4.751   4.771   6.237
  472SOL    HW2 2316   4.800   4.616   6.254
  473SOL     OW 2317   0.435   2.622   1.907
  473SOL    HW1 2318   0.451   2.524   1.915
  473SOL    HW2 2319   0.371   2.651   1.979
  474SOL     OW 2320   4.305   5.270   4.071
  474SOL    HW1 2321   4.356   5.334   4.013
  474SOL    HW2 2322   4.312   5.178   4.032
  475SOL     OW 2323   6.718   6.778   6.837
  475SOL    HW1 2324   6.734   6.769   6.738
  475SOL    HW2 2325   6.639   6.722   6.862
  476SOL     OW 2326   6.280   4.070   2.208
  476SOL    HW1 2327   6.215   4.029   2.273
  476SOL    HW2 2328   6.323   3.998   2.153
  477SOL     OW 2329   2.190   4.938   4.778
  477SOL    HW1 2330   2.101   4.984   4.789
  477SOL    HW2 2331   2.221   4.904   4.867
  478SOL     OW 2332   3.488   5.878   3.234
  478SOL    HW1 2333   3.515   5.867   3.139
  478SOL    HW2 2334   3.409   5.939   3.240
  479SOL     OW 2335   2.550   1.921   0.401
  479SOL    HW1 2336   2.612   1.918   0.322
  479SOL    HW2 2337   2.538   1.829   0.437
  480SOL     OW 2338   1.541   0.024   1.476
  480SOL    HW1 2339   1.540   0.073   1.563
  480SOL    HW2 2340   1.509   6.955   1.489
  481SOL     OW 2341   2.320   0.997   1.718
  481SOL    HW1 2342   2.327   0.912   1.666
  481SOL    HW2 2343   2.354   1.073   1.661
  482SOL     OW 2344   5.257   4.264   2.636
  482SOL    HW1 2345   5.351   4.295   2.626
  482SOL    HW2 2346   5.245   4.178   2.587
  483SOL     OW 2347   5.357   2.063   1.767
  483SOL    HW1 2348   5.290   2.106   1.706
  483SOL    HW2 2349   5.316   1.982   1.809
  484SOL     OW 2350   0.575   2.827   4.616
  484SOL    HW1 2351   0.506   2.764   4.580
  484SOL    HW2 2352   0.645   2.844   4.546
  485SOL     OW 2353   3.444   4.955   2.428
  485SOL    HW1 2354   3.499   5.037   2.412
  485SOL    HW2 2355   3.439   4.901   2.344
  486SOL     OW 2356   1.327   1.481   1.087
  486SOL    HW1 2357   1.318   1.419   1.009
  486SOL    HW2 2358   1.423   1.505   1.100
  487SOL     OW 2359   1.031   2.165   6.994
  487SOL    HW1 2360   0.962   2.158   0.041
  487SOL    HW2 2361   0.990   2.145   6.905
  488SOL     OW 2362   0.839   1.464   1.429
  488SOL    HW1 2363   0.855   1.371   1.463
  488SOL    HW2 2364   0.850   1.465   1.329
  489SOL     OW 2365   3.307   5.639   0.138
  489SOL    HW1 2366   3.370   5.564   0.156
  489SOL    HW2 2367   3.359   5.724   0.126
  490SOL     OW 2368   6.042   6.199   4.408
  490SOL    HW1 2369   6.110   6.239   4.346
  490SOL    HW2 2370   5.951   6.231   4.381
  491SOL     OW 2371   0.326   2.848   2.640
  491SOL    HW1 2372   0.334   2.772   2.705
  491SOL    HW2 2373   0.343   2.934   2.687
  492SOL     OW 2374   3.466   0.591   5.714
  492SOL    HW1 2375   3.510   0.501   5.716
  492SOL    HW2 2376   3.399   0.593   5.640
  493SOL     OW 2377   6.693   5.065   6.194
  493SOL    HW1 2378   6.676   5.164   6.188
  493SOL    HW2 2379   6.667   5.021   6.108
  494SOL     OW 2380   0.355   6.081   7.009
  494SOL    HW1 2381   0.334   6.034   0.070
  494SOL    HW2 2382   0.277   6.138   6.983
  495SOL     OW 2383   4.814   5.014   2.622
  495SOL    HW1 2384   4.843   5.041   2.531
  495SOL    HW2 2385   4.757   4.932   2.616
  496SOL     OW 2386   5.467   2.847   2.956
  496SOL    HW1 2387   5.555   2.890   2.938
  496SOL    HW2 2388   5.448   2.780   2.884
  497SOL     OW 2389   3.444   1.335   4.845
  497SOL    HW1 2390   3.485   1.358   4.933
  497SOL    HW2 2391   3.466   1.407   4.779
  498SOL     OW 2392   1.160   3.141   2.381
  498SOL    HW1 2393   1.255   3.157   2.410
  498SOL    HW2 2394   1.098   3.194   2.439
  499SOL     OW 2395   3.097   0.637   4.304
  499SOL    HW1 2396   3.062   0.549   4.338
  499SOL    HW2 2397   3.090   0.640   4.205
  500SOL     OW 2398   0.931   4.396   3.590
  500SOL    HW1 2399   0.993   4.332   3.543
  500SOL    HW2 2400   0.837   4.372   3.568
  501SOL     OW 2401   2.406   1.918   6.971
  501SOL    HW1 2402   2.389   1.847   0.014
  501SOL    HW2 2403   2.478   1.979   7.005
  502SOL     OW 2404   5.230   4.234   5.655
  502SOL    HW1 2405   5.273   4.317   5.690
  502SOL    HW2 2406   5.251   4.158   5.717
  503SOL     OW 2407   6.314   4.155   6.157
  503SOL    HW1 2408   6.334   4.208   6.074
  503SOL    HW2 2409   6.219   4.168   6.183
  504SOL     OW 2410   2.108   6.077   4.239
  504SOL    HW1 2411   2.182   6.012   4.255
  504SOL    HW2 2412   2.124   6.160   4.292
  505SOL     OW 2413   4.001   0.118   5.478
  505SOL    HW1 2414   4.008   0.212   5.510
  505SOL    HW2 2415   4.007   0.116   5.378
  506SOL     OW 2416   1.753   4.701   4.708
  506SOL    HW1 2417   1.748   4.795   4.741
  506SOL    HW2 2418   1.833   4.656   4.747
  507SOL     OW 2419   2.776   0.079   4.605
  507SOL    HW1 2420   2.692   0.117   4.645
  507SOL    HW2 2421   2.779   7.005   4.623
  508SOL     OW 2422   6.151   3.109   2.882
  508SOL    HW1 2423   6.221   3.165   2.925
  508SOL    HW2 2424   6.065   3.159   2.878
  509SOL     OW 2425   4.117   1.095   1.920
  509SOL    HW1 2426   4.183   1.020   1.918
  509SOL    HW2 2427   4.147   1.163   1.987
  510SOL     OW 2428   6.872   4.925   5.571
  510SOL    HW1 2429   6.928   4.842   5.570
  510SOL    HW2 2430   6.775   4.899   5.566
  511SOL     OW 2431   0.163   6.230   6.893
  511SOL    HW1 2432   0.097   6.239   6.819
  511SOL    HW2 2433   0.221   6.312   6.896
  512SOL     OW 2434   0.876   2.736   0.308
  512SOL    HW1 2435   0.948   2.690   0.255
  512SOL    HW2 2436   0.795   2.678   0.312
  513SOL     OW 2437   5.899   6.083   2.757
  513SOL    HW1 2438   5.924   5.991   2.787
  513SOL    HW2 2439   5.952   6.108   2.676
  514SOL     OW 2440   6.728   2.592   3.975
  514SOL    HW1 2441   6.809   2.611   3.919
  514SOL    HW2 2442   6.744   2.511   4.031
  515SOL     OW 2443   2.609   6.778   6.048
  515SOL    HW1 2444   2.527   6.823   6.013
  515SOL    HW2 2445   2.618   6.798   6.146
  516SOL     OW 2446   2.836   4.761   1.743
  516SOL    HW1 2447   2.844   4.714   1.831
  516SOL    HW2 2448   2.915   4.738   1.686
  517SOL     OW 2449   5.478   6.797   2.157
  517SOL    HW1 2450   5.467   6.878   2.099
  517SOL    HW2 2451   5.505   6.825   2.249
  518SOL     OW 2452   2.386   2.339   1.797
  518SOL    HW1 2453   2.305   2.334   1.738
  518SOL    HW2 2454   2.365   2.392   1.878
  519SOL     OW 2455   6.922   0.396   4.773
  519SOL    HW1 2456   6.871   0.403   4.859
  519SOL    HW2 2457   6.934   0.488   4.734
  520SOL     OW 2458   5.663   4.608   6.480
  520SOL    HW1 2459   5.734   4.541   6.503
  520SOL    HW2 2460   5.580   4.586   6.532
  521SOL     OW 2461   6.401   1.561   6.172
  521SOL    HW1 2462   6.438   1.654   6.172
  521SOL    HW2 2463   6.388   1.531   6.267
  522SOL     OW 2464   3.969   2.973   5.225
  522SOL    HW1 2465   3.967   2.877   5.254
  522SOL    HW2 2466   4.059   3.012   5.245
  523SOL     OW 2467   6.938   6.208   3.820
  523SOL    HW1 2468   6.846   6.228   3.785
  523SOL    HW2 2469   7.003   6.273   3.781
  524SOL     OW 2470   2.952   0.942   6.626
  524SOL    HW1 2471   2.954   0.990   6.538
  524SOL    HW2 2472   2.863   0.956   6.670
  525SOL     OW 2473   2.690   3.700   6.301
  525SOL    HW1 2474   2.710   3.610   6.261
  525SOL    HW2 2475   2.620   3.746   6.246
  526SOL     OW 2476   2.600   5.517   5.112
  526SOL    HW1 2477   2.609   5.422   5.081
  526SOL    HW2 2478   2.688   5.549   5.147
  527SOL     OW 2479   6.316   1.496   5.918
  527SOL    HW1 2480   6.405   1.460   5.887
  527SOL    HW2 2481   6.319   1.513   6.016
  528SOL     OW 2482   1.850   1.257   4.458
  528SOL    HW1 2483   1.765   1.245   4.509
  528SOL    HW2 2484   1.895   1.168   4.446
  529SOL     OW 2485   0.720   5.033   5.018
  529SOL    HW1 2486   0.807   4.998   5.052
  529SOL    HW2 2487   0.681   4.969   4.951
  530SOL     OW 2488   2.479   3.082   5.434
  530SOL    HW1 2489   2.481   2.998   5.489
  530SOL    HW2 2490   2.474   3.058   5.337
  531SOL     OW 2491   0.459   0.907   1.065
  531SOL    HW1 2492   0.417   0.855   1.140
  531SOL    HW2 2493   0.484   0.845   0.991
  532SOL     OW 2494   0.868   1.767   5.770
  532SOL    HW1 2495   0.814   1.765   5.686
  532SOL    HW2 2496   0.941   1.834   5.761
  533SOL     OW 2497   5.104   6.509   4.603
  533SOL    HW1 2498   5.110   6.540   4.698
  533SOL    HW2 2499   5.020   6.456   4.591
  534SOL     OW 2500   4.708   5.648   3.642
  534SOL    HW1 2501   4.766   5.585   3.694
  534SOL    HW2 2502   4.750   5.738   3.638
  535SOL     OW 2503   0.574   3.985   3.996
  535SOL    HW1 2504   0.628   4.069   3.997
  535SOL    HW2 2505   0.628   3.910   3.957
  536SOL     OW 2506   0.520   5.295   1.553
  536SOL    HW1 2507   0.567   5.383   1.559
  536SOL    HW2 2508   0.524   5.262   1.459
  537SOL     OW 2509   1.995   6.271   3.672
  537SOL    HW1 2510   1.897   6.291   3.668
  537SOL    HW2 2511   2.017   6.231   3.761
  538SOL     OW 2512   0.857   5.672   3.557
  538SOL    HW1 2513   0.793   5.597   3.572
  538SOL    HW2 2514   0.909   5.656   3.473
  539SOL     OW 2515   0.830   5.328   1.651
  539SOL    HW1 2516   0.842   5.420   1.688
  539SOL    HW2 2517   0.803   5.266   1.725
  540SOL     OW 2518   0.706   1.805   2.693
  540SOL    HW1 2519   0.673   1.810   2.599
  540SOL    HW2 2520   0.801   1.836   2.697
  541SOL     OW 2521   3.125   6.398   5.111
  541SOL    HW1 2522   3.062   6.434   5.043
  541SOL    HW2 2523   3.212   6.448   5.106
  542SOL     OW 2524   6.168   6.329   0.101
  542SOL    HW1 2525   6.244   6.384   0.135
  542SOL    HW2 2526   6.139   6.364   0.012
  543SOL     OW 2527   1.092   5.150   6.630
  543SOL    HW1 2528   1.144   5.197   6.701
  543SOL    HW2 2529   1.100   5.051   6.642
  544SOL     OW 2530   0.945   4.997   1.087
  544SOL    HW1 2531   0.992   4.945   1.158
  544SOL    HW2 2532   1.012   5.044   1.030
  545SOL     OW 2533   3.802   1.557   3.319
  545SOL    HW1 2534   3.781   1.648   3.355
  545SOL    HW2 2535   3.896   1.556   3.286
  546SOL     OW 2536   1.015   3.552   1.527
  546SOL    HW1 2537   1.022   3.472   1.587
  546SOL    HW2 2538   0.945   3.535   1.458
  547SOL     OW 2539   2.680   2.677   0.463
  547SOL    HW1 2540   2.634   2.599   0.505
  547SOL    HW2 2541   2.611   2.734   0.417
  548SOL     OW 2542   4.138   3.465   3.662
  548SOL    HW1 2543   4.053   3.455   3.611
  548SOL    HW2 2544   4.213   3.480   3.598
  549SOL     OW 2545   5.450   3.464   1.543
  549SOL    HW1 2546   5.407   3.487   1.631
  549SOL    HW2 2547   5.440   3.366   1.527
  550SOL     OW 2548   6.772   2.979   2.386
  550SOL    HW1 2549   6.765   3.020   2.294
  550SOL    HW2 2550   6.868   2.970   2.412
  551SOL     OW 2551   6.805   1.888   0.742
  551SOL    HW1 2552   6.744   1.819   0.704
  551SOL    HW2 2553   6.831   1.953   0.670
  552SOL     OW 2554   3.803   5.373   0.606
  552SOL    HW1 2555   3.879   5.372   0.671
  552SOL    HW2 2556   3.820   5.305   0.535
  553SOL     OW 2557   1.687   0.667   2.142
  553SOL    HW1 2558   1.727   0.758   2.153
  553SOL    HW2 2559   1.654   0.635   2.231
  554SOL     OW 2560   5.540   6.729   5.901
  554SOL    HW1 2561   5.607   6.672   5.854
  554SOL    HW2 2562   5.453   6.681   5.907
  555SOL     OW 2563   2.252   4.564   4.507
  555SOL    HW1 2564   2.338   4.522   4.477
  555SOL    HW2 2565   2.269   4.661   4.527
  556SOL     OW 2566   6.126   2.410   3.953
  556SOL    HW1 2567   6.112   2.388   3.857
  556SOL    HW2 2568   6.070   2.489   3.978
  557SOL     OW 2569   6.788   5.903   6.319
  557SOL    HW1 2570   6.731   5.821   6.332
  557SOL    HW2 2571   6.743   5.964   6.254
  558SOL     OW 2572   4.151   3.695   5.505
  558SOL    HW1 2573   4.188   3.605   5.481
  558SOL    HW2 2574   4.200   3.766   5.454
  559SOL     OW 2575   7.024   5.685   6.220
  559SOL    HW1 2576   0.042   5.774   6.237
  559SOL    HW2 2577   6.939   5.679   6.272
  560SOL     OW 2578   4.497   6.492   6.722
  560SOL    HW1 2579   4.492   6.562   6.651
  560SOL    HW2 2580   4.406   6.475   6.759
  561SOL     OW 2581   5.749   6.807   0.102
  561SOL    HW1 2582   5.839   6.834   0.068
  561SOL    HW2 2583   5.688   6.790   0.024
  562SOL     OW 2584   5.319   1.091   6.149
  562SOL    HW1 2585   5.307   1.074   6.247
  562SOL    HW2 2586   5.401   1.045   6.117
  563SOL     OW 2587   2.773   6.230   4.179
  563SOL    HW1 2588   2.737   6.174   4.105
  563SOL    HW2 2589   2.771   6.326   4.152
  564SOL     OW 2590   1.912   1.584   6.329
  564SOL    HW1 2591   1.965   1.639   6.265
  564SOL    HW2 2592   1.965   1.503   6.355
  565SOL     OW 2593   4.491   3.673   5.626
  565SOL    HW1 2594   4.471   3.724   5.542
  565SOL    HW2 2595   4.452   3.581   5.620
  566SOL     OW 2596   4.235   4.790   3.184
  566SOL    HW1 2597   4.191   4.841   3.110
  566SOL    HW2 2598   4.295   4.720   3.145
  567SOL     OW 2599   3.630   3.196   4.114
  567SOL    HW1 2600   3.641   3.294   4.128
  567SOL    HW2 2601   3.689   3.146   4.177
  568SOL     OW 2602   2.996   2.477   0.038
  568SOL    HW1 2603   2.958   2.542   6.997
  568SOL    HW2 2604   3.057   2.525   0.100
  569SOL     OW 2605   1.823   2.647   0.617
  569SOL    HW1 2606   1.907   2.592   0.628
  569SOL    HW2 2607   1.744   2.590   0.637
  570SOL     OW 2608   1.413   6.716   0.525
  570SOL    HW1 2609   1.508   6.686   0.533
  570SOL    HW2 2610   1.398   6.796   0.583
  571SOL     OW 2611   3.491   5.604   2.918
  571SOL    HW1 2612   3.506   5.505   2.905
  571SOL    HW2 2613   3.560   5.639   2.982
  572SOL     OW 2614   2.054   4.191   5.834
  572SOL    HW1 2615   2.137   4.136   5.849
  572SOL    HW2 2616   1.994   4.182   5.914
  573SOL     OW 2617   4.398   1.032   4.981
  573SOL    HW1 2618   4.475   1.028   4.917
  573SOL    HW2 2619   4.362   1.125   4.985
  574SOL     OW 2620   2.358   2.050   4.284
  574SOL    HW1 2621   2.295   2.086   4.352
  574SOL    HW2 2622   2.443   2.103   4.285
  575SOL     OW 2623   6.828   3.014   0.401
  575SOL    HW1 2624   6.859   2.986   0.492
  575SOL    HW2 2625   6.797   3.109   0.404
  576SOL     OW 2626   0.898   2.587   2.395
  576SOL    HW1 2627   0.996   2.576   2.374
  576SOL    HW2 2628   0.871   2.519   2.463
  577SOL     OW 2629   2.172   1.927   3.471
  577SOL    HW1 2630   2.198   1.960   3.381
  577SOL    HW2 2631   2.098   1.984   3.508
  578SOL     OW 2632   0.478   3.447   3.403
  578SOL    HW1 2633   0.447   3.541   3.415
  578SOL    HW2 2634   0.408   3.384   3.438
  579SOL     OW 2635   3.943   1.754   0.591
  579SOL    HW1 2636   3.938   1.698   0.673
  579SOL    HW2 2637   3.852   1.791   0.570
  580SOL     OW 2638   1.219   5.261   6.866
  580SOL    HW1 2639   1.251   5.353   6.846
  580SOL    HW2 2640   1.245   5.236   6.959
  581SOL     OW 2641   3.819   3.265   2.879
  581SOL    HW1 2642   3.788   3.170   2.875
  581SOL    HW2 2643   3.762   3.321   2.819
  582SOL     OW 2644   5.450   3.697   2.920
  582SOL    HW1 2645   5.516   3.634   2.880
  582SOL    HW2 2646   5.448   3.782   2.868
  583SOL     OW 2647   2.416   4.439   7.004
  583SOL    HW1 2648   2.362   4.489   6.936
  583SOL    HW2 2649   2.384   4.462   0.071
  584SOL     OW 2650   0.526   4.698   5.387
  584SOL    HW1 2651   0.510   4.748   5.302
  584SOL    HW2 2652   0.512   4.600   5.371
  585SOL     OW 2653   0.332   2.385   6.054
  585SOL    HW1 2654   0.244   2.419   6.087
  585SOL    HW2 2655   0.317   2.305   5.997
  586SOL     OW 2656   2.882   6.500   1.421
  586SOL    HW1 2657   2.962   6.442   1.405
  586SOL    HW2 2658   2.838   6.474   1.507
  587SOL     OW 2659   1.297   3.072   6.205
  587SOL    HW1 2660   1.372   3.047   6.144
  587SOL    HW2 2661   1.210   3.040   6.167
  588SOL     OW 2662   3.508   6.608   1.508
  588SOL    HW1 2663   3.473   6.526   1.463
  588SOL    HW2 2664   3.541   6.584   1.600
  589SOL     OW 2665   3.724   4.957   2.548
  589SOL    HW1 2666   3.676   4.871   2.563
  589SOL    HW2 2667   3.661   5.026   2.512
  590SOL     OW 2668   0.324   2.213   1.704
  590SOL    HW1 2669   0.230   2.232   1.673
  590SOL    HW2 2670   0.326   2.125   1.750
  591SOL     OW 2671   3.514   0.381   3.332
  591SOL    HW1 2672   3.508   0.283   3.352
  591SOL    HW2 2673   3.519   0.432   3.417
  592SOL     OW 2674   4.701   0.690   0.707
  592SOL    HW1 2675   4.636   0.615   0.711
  592SOL    HW2 2676   4.670   0.758   0.640
  593SOL     OW 2677   4.827   2.419   3.776
  593SOL    HW1 2678   4.908   2.400   3.721
  593SOL    HW2 2679   4.825   2.356   3.854
  594SOL     OW 2680   4.033   4.016   1.007
  594SOL    HW1 2681   4.081   4.055   0.928
  594SOL    HW2 2682   3.940   3.992   0.981
  595SOL     OW 2683   3.692   6.026   4.058
  595SOL    HW1 2684   3.626   6.101   4.062
  595SOL    HW2 2685   3.656   5.947   4.108
  596SOL     OW 2686   0.775   4.585   2.577
  596SOL    HW1 2687   0.873   4.592   2.598
  596SOL    HW2 2688   0.722   4.616   2.656
  597SOL     OW 2689   4.758   0.228   6.147
  597SOL    HW1 2690   4.718   0.210   6.057
  597SOL    HW2 2691   4.690   0.273   6.205
  598SOL     OW 2692   3.896   4.598   0.523
  598SOL    HW1 2693   3.844   4.676   0.489
  598SOL    HW2 2694   3.923   4.539   0.446
  599SOL     OW 2695   6.867   0.329   2.742
  599SOL    HW1 2696   6.850   0.284   2.830
  599SOL    HW2 2697   6.782   0.333   2.689
  600SOL     OW 2698   1.160   0.018   0.165
  600SOL    HW1 2699   1.062   0.004   0.178
  600SOL    HW2 2700   1.201   0.046   0.252
  601SOL     OW 2701   2.729   5.771   3.863
  601SOL    HW1 2702   2.797   5.697   3.856
  601SOL    HW2 2703   2.677   5.776   3.777
  602SOL     OW 2704   1.554   0.431   1.462
  602SOL    HW1 2705   1.529   0.503   1.397
  602SOL    HW2 2706   1.569   0.346   1.413
  603SOL     OW 2707   4.160   2.258   3.198
  603SOL    HW1 2708   4.234   2.309   3.241
  603SOL    HW2 2709   4.162   2.271   3.099
  604SOL     OW 2710   1.081   3.448   6.389
  604SOL    HW1 2711   1.080   3.548   6.393
  604SOL    HW2 2712   1.052   3.411   6.477
  605SOL     OW 2713   6.047   6.619   3.046
  605SOL    HW1 2714   6.012   6.673   2.970
  605SOL    HW2 2715   6.147   6.612   3.039
  606SOL     OW 2716   3.667   0.472   3.572
  606SOL    HW1 2717   3.719   0.555   3.553
  606SOL    HW2 2718   3.653   0.463   3.671
  607SOL     OW 2719   5.038   1.558   4.099
  607SOL    HW1 2720   5.032   1.616   4.181
  607SOL    HW2 2721   5.133   1.555   4.068
  608SOL     OW 2722   3.719   1.072   0.601
  608SOL    HW1 2723   3.755   1.110   0.686
  608SOL    HW2 2724   3.788   1.080   0.529
  609SOL     OW 2725   3.384   3.058   3.979
  609SOL    HW1 2726   3.458   3.095   4.035
  609SOL    HW2 2727   3.301   3.053   4.034
  610SOL     OW 2728   5.481   2.140   4.353
  610SOL    HW1 2729   5.538   2.067   4.389
  610SOL    HW2 2730   5.401   2.100   4.306
  611SOL     OW 2731   0.026   0.228   0.425
  611SOL    HW1 2732   0.118   0.255   0.394
  611SOL    HW2 2733   0.000   0.142   0.380
  612SOL     OW 2734   3.123   5.428   5.980
  612SOL    HW1 2735   3.048   5.432   5.914
  612SOL    HW2 2736   3.087   5.413   6.071
  613SOL     OW 2737   4.069   1.638   6.033
  613SOL    HW1 2738   4.074   1.540   6.054
  613SOL    HW2 2739   4.070   1.691   6.118
  614SOL     OW 2740   5.616   4.604   0.943
  614SOL    HW1 2741   5.642   4.522   0.993
  614SOL    HW2 2742   5.519   4.623   0.957
  615SOL     OW 2743   0.067   0.020   0.794
  615SOL    HW1 2744   0.007   7.001   0.862
  615SOL    HW2 2745   0.030   0.109   0.769
  616SOL     OW 2746   5.768   1.471   4.206
  616SOL    HW1 2747   5.819   1.535   4.148
  616SOL    HW2 2748   5.746   1.389   4.154
  617SOL     OW 2749   0.421   4.856   5.592
  617SOL    HW1 2750   0.454   4.790   5.523
  617SOL    HW2 2751   0.445   4.823   5.683
  618SOL     OW 2752   5.916   3.383   0.286
  618SOL    HW1 2753   5.843   3.445   0.256
  618SOL    HW2 2754   5.927   3.389   0.385
  619SOL     OW 2755   3.000   0.720   0.653
  619SOL    HW1 2756   3.054   0.640   0.629
  619SOL    HW2 2757   2.994   0.781   0.574
  620SOL     OW 2758   5.684   2.267   1.970
  620SOL    HW1 2759   5.688   2.222   1.882
  620SOL    HW2 2760   5.593   2.258   2.009
  621SOL     OW 2761   2.838   0.625   6.551
  621SOL    HW1 2762   2.930   0.631   6.513
  621SOL    HW2 2763   2.817   0.711   6.598
  622SOL     OW 2764   1.276   1.711   4.947
  622SOL    HW1 2765   1.267   1.733   4.850
  622SOL    HW2 2766   1.363   1.745   4.981
  623SOL     OW 2767   5.555   6.727   4.094
  623SOL    HW1 2768   5.615   6.648   4.111
  623SOL    HW2 2769   5.496   6.707   4.016
  624SOL     OW 2770   6.637   1.321   6.464
  624SOL    HW1 2771   6.637   1.383   6.543
  624SOL    HW2 2772   6.724   1.329   6.416
  625SOL     OW 2773   2.794   0.986   0.825
  625SOL    HW1 2774   2.876   0.979   0.769
  625SOL    HW2 2775   2.791   0.910   0.889
  626SOL     OW 2776   0.674   5.465   3.714
  626SOL    HW1 2777   0.738   5.474   3.790
  626SOL    HW2 2778   0.698   5.386   3.659
  627SOL     OW 2779   6.604   0.341   7.001
  627SOL    HW1 2780   6.594   0.245   7.024
  627SOL    HW2 2781   6.641   0.350   6.908
  628SOL     OW 2782   5.081   4.730   5.270
  628SOL    HW1 2783   5.109   4.772   5.357
  628SOL    HW2 2784   5.162   4.704   5.218
  629SOL     OW 2785   6.994   0.175   6.352
  629SOL    HW1 2786   6.959   0.085   6.323
  629SOL    HW2 2787   6.926   0.245   6.332
  630SOL     OW 2788   6.570   1.434   1.079
  630SOL    HW1 2789   6.521   1.521   1.070
  630SOL    HW2 2790   6.669   1.450   1.072
  631SOL     OW 2791   1.916   2.564   4.966
  631SOL    HW1 2792   1.900   2.496   4.894
  631SOL    HW2 2793   2.014   2.586   4.969
  632SOL     OW 2794   3.564   3.363   6.710
  632SOL    HW1 2795   3.466   3.365   6.687
  632SOL    HW2 2796   3.586   3.274   6.751
  633SOL     OW 2797   1.226   5.835   1.707
  633SOL    HW1 2798   1.316   5.810   1.673
  633SOL    HW2 2799   1.209   5.788   1.794
  634SOL     OW 2800   2.969   3.409   4.377
  634SOL    HW1 2801   3.029   3.341   4.418
  634SOL    HW2 2802   2.979   3.407   4.278
  635SOL     OW 2803   5.792   0.929   6.460
  635SOL    HW1 2804   5.761   1.022   6.440
  635SOL    HW2 2805   5.876   0.932   6.514
  636SOL     OW 2806   2.838   0.387   0.049
  636SOL    HW1 2807   2.866   0.339   0.132
  636SOL    HW2 2808   2.878   0.479   0.049
  637SOL     OW 2809   6.303   1.024   1.210
  637SOL    HW1 2810   6.319   1.012   1.308
  637SOL    HW2 2811   6.352   0.953   1.160
  638SOL     OW 2812   6.273   3.569   4.390
  638SOL    HW1 2813   6.360   3.548   4.345
  638SOL    HW2 2814   6.266   3.515   4.474
  639SOL     OW 2815   5.120   4.835   3.164
  639SOL    HW1 2816   5.104   4.821   3.066
  639SOL    HW2 2817   5.047   4.792   3.217
  640SOL     OW 2818   0.482   2.494   2.467
  640SOL    HW1 2819   0.466   2.568   2.401
  640SOL    HW2 2820   0.494   2.533   2.558
  641SOL     OW 2821   1.940   4.678   4.461
  641SOL    HW1 2822   1.963   4.642   4.551
  641SOL    HW2 2823   1.858   4.633   4.426
  642SOL     OW 2824   1.350   3.693   4.865
  642SOL    HW1 2825   1.293   3.611   4.869
  642SOL    HW2 2826   1.293   3.775   4.870
  643SOL     OW 2827   4.927   5.279   6.929
  643SOL    HW1 2828   5.023   5.285   6.903
  643SOL    HW2 2829   4.901   5.182   6.937
  644SOL     OW 2830   6.577   0.215   4.767
  644SOL    HW1 2831   6.506   0.147   4.751
  644SOL    HW2 2832   6.652   0.174   4.820
  645SOL     OW 2833   4.204   4.733   2.537
  645SOL    HW1 2834   4.265   4.730   2.458
  645SOL    HW2 2835   4.112   4.758   2.507
  646SOL     OW 2836   4.532   0.612   4.945
  646SOL    HW1 2837   4.616   0.562   4.924
  646SOL    HW2 2838   4.455   0.567   4.901
  647SOL     OW 2839   4.815   2.045   5.109
  647SOL    HW1 2840   4.775   1.955   5.097
  647SOL    HW2 2841   4.914   2.040   5.091
  648SOL     OW 2842   6.065   2.335   2.905
  648SOL    HW1 2843   6.110   2.306   2.990
  648SOL    HW2 2844   6.027   2.427   2.918
  649SOL     OW 2845   2.381   4.884   0.470
  649SOL    HW1 2846   2.371   4.794   0.511
  649SOL    HW2 2847   2.430   4.945   0.533
  650SOL     OW 2848   6.949   5.652   0.936
  650SOL    HW1 2849   6.906   5.645   1.026
  650SOL    HW2 2850   6.905   5.723   0.883
  651SOL     OW 2851   1.177   0.304   5.126
  651SOL    HW1 2852   1.108   0.359   5.078
  651SOL    HW2 2853   1.203   0.226   5.070
  652SOL     OW 2854   3.833   0.003   1.463
  652SOL    HW1 2855   3.848   0.032   1.368
  652SOL    HW2 2856   3.907   6.967   1.491
  653SOL     OW 2857   0.468   6.151   1.670
  653SOL    HW1 2858   0.553   6.100   1.685
  653SOL    HW2 2859   0.475   6.201   1.584
  654SOL     OW 2860   0.046   6.815   5.529
  654SOL    HW1 2861   0.009   6.723   5.519
  654SOL    HW2 2862   6.996   6.880   5.539
  655SOL     OW 2863   6.819   4.447   2.104
  655SOL    HW1 2864   6.876   4.378   2.149
  655SOL    HW2 2865   6.843   4.538   2.139
  656SOL     OW 2866   3.571   6.469   0.433
  656SOL    HW1 2867   3.614   6.528   0.501
  656SOL    HW2 2868   3.530   6.390   0.478
  657SOL     OW 2869   3.548   2.722   1.821
  657SOL    HW1 2870   3.455   2.709   1.788
  657SOL    HW2 2871   3.548   2.725   1.921
  658SOL     OW 2872   2.281   4.223   4.274
  658SOL    HW1 2873   2.252   4.303   4.222
  658SOL    HW2 2874   2.238   4.141   4.235
  659SOL     OW 2875   2.311   6.629   5.895
  659SOL    HW1 2876   2.287   6.570   5.972
  659SOL    HW2 2877   2.254   6.711   5.898
  660SOL     OW 2878   4.821   4.114   2.120
  660SOL    HW1 2879   4.734   4.163   2.120
  660SOL    HW2 2880   4.890   4.168   2.169
  661SOL     OW 2881   4.106   4.808   3.965
  661SOL    HW1 2882   4.010   4.831   3.978
  661SOL    HW2 2883   4.122   4.782   3.870
  662SOL     OW 2884   5.011   3.463   0.460
  662SOL    HW1 2885   5.096   3.515   0.462
  662SOL    HW2 2886   4.990   3.438   0.366
  663SOL     OW 2887   0.409   4.661   0.521
  663SOL    HW1 2888   0.474   4.586   0.504
  663SOL    HW2 2889   0.459   4.747   0.525
  664SOL     OW 2890   1.584   6.873   6.873
  664SOL    HW1 2891   1.681   6.852   6.859
  664SOL    HW2 2892   1.543   6.800   6.929
  665SOL     OW 2893   4.052   6.203   0.958
  665SOL    HW1 2894   4.098   6.244   1.037
  665SOL    HW2 2895   4.098   6.232   0.874
  666SOL     OW 2896   3.424   1.932   0.335
  666SOL    HW1 2897   3.379   2.000   0.277
  666SOL    HW2 2898   3.461   1.978   0.416
  667SOL     OW 2899   1.045   3.526   3.120
  667SOL    HW1 2900   1.142   3.542   3.103
  667SOL    HW2 2901   1.032   3.433   3.157
  668SOL     OW 2902   4.956   6.677   0.602
  668SOL    HW1 2903   5.047   6.683   0.560
  668SOL    HW2 2904   4.920   6.769   0.616
  669SOL     OW 2905   1.478   6.399   3.507
  669SOL    HW1 2906   1.483   6.497   3.489
  669SOL    HW2 2907   1.410   6.383   3.579
  670SOL     OW 2908   3.032   3.692   3.879
  670SOL    HW1 2909   2.963   3.699   3.951
  670SOL    HW2 2910   3.054   3.783   3.844
  671SOL     OW 2911   2.198   0.368   6.150
  671SOL    HW1 2912   2.170   0.432   6.222
  671SOL    HW2 2913   2.165   0.276   6.173
  672SOL     OW 2914   2.000   3.452   3.852
  672SOL    HW1 2915   2.060   3.459   3.931
  672SOL    HW2 2916   1.931   3.525   3.855
  673SOL     OW 2917   4.767   0.453   0.348
  673SOL    HW1 2918   4.775   0.408   0.437
  673SOL    HW2 2919   4.687   0.418   0.300
  674SOL     OW 2920   0.623   1.681   3.687
  674SOL    HW1 2921   0.556   1.609   3.701
  674SOL    HW2 2922   0.695   1.674   3.756
  675SOL     OW 2923   0.030   2.579   4.358
  675SOL    HW1 2924   7.011   2.648   4.416
  675SOL    HW2 2925   6.993   2.503   4.344
  676SOL     OW 2926   2.159   4.682   4.230
  676SOL    HW1 2927   2.182   4.593   4.190
  676SOL    HW2 2928   2.161   4.675   4.329
  677SOL     OW 2929   5.927   7.020   0.599
  677SOL    HW1 2930   5.978   6.959   0.660
  677SOL    HW2 2931   5.878   0.063   0.653
  678SOL     OW 2932   2.246   0.893   6.423
  678SOL    HW1 2933   2.341   0.884   6.452
  678SOL    HW2 2934   2.186   0.864   6.498
  679SOL     OW 2935   4.385   0.548   2.653
  679SOL    HW1 2936   4.444   0.584   2.726
  679SOL    HW2 2937   4.389   0.610   2.574
  680SOL     OW 2938   4.766   4.341   5.378
  680SOL    HW1 2939   4.788   4.336   5.476
  680SOL    HW2 2940   4.670   4.318   5.364
  681SOL     OW 2941   1.028   6.703   1.168
  681SOL    HW1 2942   1.042   6.730   1.263
  681SOL    HW2 2943   1.027   6.603   1.161
  682SOL     OW 2944   1.735   5.724   0.093
  682SOL    HW1 2945   1.766   5.753   0.184
  682SOL    HW2 2946   1.809   5.736   0.027
  683SOL     OW 2947   4.065   1.305   6.901
  683SOL    HW1 2948   4.033   1.353   6.819
  683SOL    HW2 2949   3.989   1.259   6.945
  684SOL     OW 2950   0.282   5.755   5.538
  684SOL    HW1 2951   0.303   5.824   5.607
  684SOL    HW2 2952   0.354   5.753   5.469
  685SOL     OW 2953   5.577   7.014   5.509
  685SOL    HW1 2954   5.567   6.929   5.457
  685SOL    HW2 2955   5.620   6.994   5.597
  686SOL     OW 2956   5.168   3.915   3.148
  686SOL    HW1 2957   5.214   3.922   3.059
  686SOL    HW2 2958   5.075   3.880   3.135
  687SOL     OW 2959   0.163   3.404   5.606
  687SOL    HW1 2960   0.154   3.407   5.506
  687SOL    HW2 2961   0.196   3.492   5.639
  688SOL     OW 2962   0.708   3.802   6.151
  688SOL    HW1 2963   0.782   3.740   6.129
  688SOL    HW2 2964   0.744   3.882   6.199
  689SOL     OW 2965   6.279   3.391   5.829
  689SOL    HW1 2966   6.310   3.485   5.814
  689SOL    HW2 2967   6.190   3.377   5.786
  690SOL     OW 2968   1.491   2.190   3.564
  690SOL    HW1 2969   1.461   2.276   3.522
  690SOL    HW2 2970   1.453   2.184   3.657
  691SOL     OW 2971   0.939   2.351   6.816
  691SOL    HW1 2972   1.021   2.348   6.873
  691SOL    HW2 2973   0.930   2.265   6.766
  692SOL     OW 2974   2.512   0.215   2.285
  692SOL    HW1 2975   2.582   0.284   2.265
  692SOL    HW2 2976   2.550   0.145   2.346
  693SOL     OW 2977   6.600   2.787   2.822
  693SOL    HW1 2978   6.625   2.756   2.730
  693SOL    HW2 2979   6.581   2.885   2.819
  694SOL     OW 2980   1.716   6.283   1.150
  694SOL    HW1 2981   1.760   6.315   1.234
  694SOL    HW2 2982   1.715   6.183   1.149
  695SOL     OW 2983   5.350   5.372   5.418
  695SOL    HW1 2984   5.366   5.431   5.498
  695SOL    HW2 2985   5.434   5.321   5.398
  696SOL     OW 2986   4.284   4.755   2.271
  696SOL    HW1 2987   4.187   4.768   2.248
  696SOL    HW2 2988   4.326   4.693   2.204
  697SOL     OW 2989   0.917   4.635   4.413
  697SOL    HW1 2990   1.000   4.687   4.390
  697SOL    HW2 2991   0.879   4.595   4.329
  698SOL     OW 2992   4.603   0.412   3.479
  698SOL    HW1 2993   4.578   0.321   3.446
  698SOL    HW2 2994   4.520   0.466   3.493
  699SOL     OW 2995   1.245   3.910   1.010
  699SOL    HW1 2996   1.197   3.932   0.925
  699SOL    HW2 2997   1.218   3.976   1.080
  700SOL     OW 2998   2.716   2.424   4.416
  700SOL    HW1 2999   2.802   2.387   4.379
  700SOL    HW2 3000   2.692   2.374   4.500
  701SOL     OW 3001   0.817   4.279   6.185
  701SOL    HW1 3002   0.802   4.187   6.220
  701SOL    HW2 3003   0.762   4.344   6.238
  702SOL     OW 3004   4.960   6.955   4.026
  702SOL    HW1 3005   5.034   6.931   4.088
  702SOL    HW2 3006   4.974   0.023   3.992
  703SOL     OW 3007   4.123   3.819   6.294
  703SOL    HW1 3008   4.039   3.787   6.250
  703SOL    HW2 3009   4.123   3.919   6.294
  704SOL     OW 3010   1.368   0.112   6.903
  704SOL    HW1 3011   1.308   0.107   6.823
  704SOL    HW2 3012   1.428   0.032   6.904
  705SOL     OW 3013   5.519   1.314   2.676
  705SOL    HW1 3014   5.577   1.393   2.658
  705SOL    HW2 3015   5.576   1.237   2.705
  706SOL     OW 3016   3.580   1.923   3.826
  706SOL    HW1 3017   3.623   2.012   3.809
  706SOL    HW2 3018   3.481   1.934   3.827
  707SOL     OW 3019   5.375   0.088   1.758
  707SOL    HW1 3020   5.385   0.057   1.663
  707SOL    HW2 3021   5.310   0.163   1.761
  708SOL     OW 3022   4.035   0.306   1.091
  708SOL    HW1 3023   3.988   0.363   1.158
  708SOL    HW2 3024   4.043   0.354   1.004
  709SOL     OW 3025   1.187   5.077   0.975
  709SOL    HW1 3026   1.259   5.032   1.029
  709SOL    HW2 3027   1.229   5.129   0.900
  710SOL     OW 3028   3.292   4.010   2.597
  710SOL    HW1 3029   3.197   3.983   2.610
  710SOL    HW2 3030   3.324   3.979   2.507
  711SOL     OW 3031   6.610   1.687   4.240
  711SOL    HW1 3032   6.542   1.707   4.311
  711SOL    HW2 3033   6.584   1.730   4.154
  712SOL     OW 3034   1.263   3.637   1.624
  712SOL    HW1 3035   1.322   3.672   1.552
  712SOL    HW2 3036   1.171   3.620   1.587
  713SOL     OW 3037   3.945   3.245   2.359
  713SOL    HW1 3038   3.967   3.224   2.264
  713SOL    HW2 3039   3.890   3.171   2.397
  714SOL     OW 3040   5.834   4.378   4.855
  714SOL    HW1 3041   5.855   4.284   4.880
  714SOL    HW2 3042   5.735   4.391   4.851
  715SOL     OW 3043   4.669   0.058   5.932
  715SOL    HW1 3044   4.711   7.023   6.001
  715SOL    HW2 3045   4.588   0.101   5.972
  716SOL     OW 3046   0.355   4.805   1.778
  716SOL    HW1 3047   0.359   4.741   1.854
  716SOL    HW2 3048   0.267   4.854   1.780
  717SOL     OW 3049   6.818   3.294   6.756
  717SOL    HW1 3050   6.826   3.272   6.659
  717SOL    HW2 3051   6.726   3.271   6.788
  718SOL     OW 3052   3.880   3.660   6.433
  718SOL    HW1 3053   3.831   3.600   6.497
  718SOL    HW2 3054   3.978   3.639   6.435
  719SOL     OW 3055   6.858   3.792   1.278
  719SOL    HW1 3056   6.807   3.866   1.321
  719SOL    HW2 3057   6.861   3.713   1.340
  720SOL     OW 3058   2.443   1.610   6.288
  720SOL    HW1 3059   2.506   1.617   6.366
  720SOL    HW2 3060   2.394   1.523   6.294
  721SOL     OW 3061   1.619   0.304   5.753
  721SOL    HW1 3062   1.563   0.268   5.678
  721SOL    HW2 3063   1.570   0.378   5.798
  722SOL     OW 3064   4.069   0.155   4.629
  722SOL    HW1 3065   4.078   0.254   4.628
  722SOL    HW2 3066   4.067   0.121   4.535
  723SOL     OW 3067   1.375   2.479   2.434
  723SOL    HW1 3068   1.448   2.507   2.497
  723SOL    HW2 3069   1.410   2.481   2.340
  724SOL     OW 3070   0.216   1.039   4.515
  724SOL    HW1 3071   0.211   0.941   4.493
  724SOL    HW2 3072   0.247   1.090   4.435
  725SOL     OW 3073   1.985   5.021   2.611
  725SOL    HW1 3074   2.075   4.981   2.589
  725SOL    HW2 3075   1.914   4.952   2.594
  726SOL     OW 3076   3.526   6.540   6.923
  726SOL    HW1 3077   3.603   6.477   6.911
  726SOL    HW2 3078   3.451   6.494   6.970
  727SOL     OW 3079   3.339   5.302   4.473
  727SOL    HW1 3080   3.349   5.224   4.536
  727SOL    HW2 3081   3.285   5.373   4.517
  728SOL     OW 3082   0.010   4.090   5.213
  728SOL    HW1 3083   7.018   4.065   5.117
  728SOL    HW2 3084   6.949   4.118   5.256
  729SOL     OW 3085   2.202   0.847   1.362
  729SOL    HW1 3086   2.292   0.877   1.394
  729SOL    HW2 3087   2.139   0.841   1.440
  730SOL     OW 3088   6.238   0.652   3.522
  730SOL    HW1 3089   6.211   0.746   3.501
  730SOL    HW2 3090   6.336   0.649   3.539
  731SOL     OW 3091   5.823   3.565   4.595
  731SOL    HW1 3092   5.751   3.592   4.531
  731SOL    HW2 3093   5.783   3.512   4.670
  732SOL     OW 3094   6.917   2.947   1.484
  732SOL    HW1 3095   6.860   3.001   1.547
  732SOL    HW2 3096   6.866   2.866   1.456
  733SOL     OW 3097   4.764   4.017   3.967
  733SOL    HW1 3098   4.719   4.061   4.045
  733SOL    HW2 3099   4.748   4.071   3.885
  734SOL     OW 3100   0.006   4.399   1.183
  734SOL    HW1 3101   6.942   4.433   1.154
  734SOL    HW2 3102   7.023   4.349   1.269
  735SOL     OW 3103   1.215   3.666   6.608
  735SOL    HW1 3104   1.135   3.713   6.571
  735SOL    HW2 3105   1.287   3.732   6.626
  736SOL     OW 3106   6.817   0.447   3.240
  736SOL    HW1 3107   6.855   0.536   3.215
  736SOL    HW2 3108   6.807   0.391   3.157
  737SOL     OW 3109   5.471   3.779   1.129
  737SOL    HW1 3110   5.420   3.695   1.151
  737SOL    HW2 3111   5.565   3.755   1.105
  738SOL     OW 3112   0.165   4.120   4.487
  738SOL    HW1 3113   0.195   4.181   4.414
  738SOL    HW2 3114   0.244   4.071   4.525
  739SOL     OW 3115   4.217   6.331   5.812
  739SOL    HW1 3116   4.208   6.380   5.898
  739SOL    HW2 3117   4.213   6.396   5.736
  740SOL     OW 3118   5.962   6.712   1.638
  740SOL    HW1 3119   5.870   6.673   1.646
  740SOL    HW2 3120   6.010   6.701   1.724
  741SOL     OW 3121   1.468   6.568   3.022
  741SOL    HW1 3122   1.510   6.479   3.041
  741SOL    HW2 3123   1.480   6.629   3.100
  742SOL     OW 3124   1.440   6.656   3.442
  742SOL    HW1 3125   1.358   6.696   3.481
  742SOL    HW2 3126   1.438   6.666   3.342
  743SOL     OW 3127   1.751   3.821   4.239
  743SOL    HW1 3128   1.733   3.886   4.165
  743SOL    HW2 3129   1.692   3.842   4.317
  744SOL     OW 3130   0.036   5.645   7.004
  744SOL    HW1 3131   0.018   5.590   0.060
  744SOL    HW2 3132   6.976   5.656   6.952
  745SOL     OW 3133   1.383   6.160   3.114
  745SOL    HW1 3134   1.321   6.111   3.052
  745SOL    HW2 3135   1.476   6.128   3.100
  746SOL     OW 3136   1.033   0.174   4.802
  746SOL    HW1 3137   1.052   0.106   4.731
  746SOL    HW2 3138   1.090   0.155   4.882
  747SOL     OW 3139   4.578   4.625   3.235
  747SOL    HW1 3140   4.673   4.604   3.215
  747SOL    HW2 3141   4.521   4.600   3.156
  748SOL     OW 3142   4.135   3.671   0.875
  748SOL    HW1 3143   4.059   3.642   0.934
  748SOL    HW2 3144   4.184   3.747   0.917
  749SOL     OW 3145   0.545   2.286   5.100
  749SOL    HW1 3146   0.608   2.363   5.114
  749SOL    HW2 3147   0.594   2.200   5.114
  750SOL     OW 3148   2.022   3.468   0.326
  750SOL    HW1 3149   2.063   3.378   0.340
  750SOL    HW2 3150   2.089   3.530   0.285
  751SOL     OW 3151   4.795   0.977   0.342
  751SOL    HW1 3152   4.777   1.071   0.313
  751SOL    HW2 3153   4.893   0.965   0.359
  752SOL     OW 3154   4.150   2.313   1.800
  752SOL    HW1 3155   4.205   2.358   1.730
  752SOL    HW2 3156   4.053   2.326   1.780
  753SOL     OW 3157   1.847   3.236   4.747
  753SOL    HW1 3158   1.932   3.239   4.695
  753SOL    HW2 3159   1.771   3.263   4.687
  754SOL     OW 3160   4.419   4.079   6.443
  754SOL    HW1 3161   4.328   4.070   6.483
  754SOL    HW2 3162   4.485   4.030   6.500
  755SOL     OW 3163   0.813   5.846   0.200
  755SOL    HW1 3164   0.905   5.849   0.160
  755SOL    HW2 3165   0.771   5.937   0.194
  756SOL     OW 3166   5.218   0.343   1.726
  756SOL    HW1 3167   5.287   0.370   1.660
  756SOL    HW2 3168   5.170   0.424   1.760
  757SOL     OW 3169   0.514   6.292   3.715
  757SOL    HW1 3170   0.454   6.287   3.795
  757SOL    HW2 3171   0.515   6.385   3.679
  758SOL     OW 3172   3.385   2.193   0.945
  758SOL    HW1 3173   3.312   2.246   0.902
  758SOL    HW2 3174   3.346   2.122   1.003
  759SOL     OW 3175   0.992   1.795   6.994
  759SOL    HW1 3176   1.065   1.848   6.950
  759SOL    HW2 3177   0.938   1.749   6.924
  760SOL     OW 3178   5.418   1.654   6.996
  760SOL    HW1 3179   5.350   1.598   0.019
  760SOL    HW2 3180   5.379   1.745   6.979
  761SOL     OW 3181   6.500   2.710   0.255
  761SOL    HW1 3182   6.406   2.677   0.253
  761SOL    HW2 3183   6.562   2.635   0.231
  762SOL     OW 3184   2.605   5.820   3.485
  762SOL    HW1 3185   2.593   5.725   3.453
  762SOL    HW2 3186   2.694   5.854   3.455
  763SOL     OW 3187   4.128   5.609   6.761
  763SOL    HW1 3188   4.048   5.589   6.705
  763SOL    HW2 3189   4.198   5.655   6.705
  764SOL     OW 3190   3.606   1.849   2.321
  764SOL    HW1 3191   3.656   1.814   2.400
  764SOL    HW2 3192   3.649   1.816   2.237
  765SOL     OW 3193   0.049   6.684   2.298
  765SOL    HW1 3194   7.002   6.729   2.353
  765SOL    HW2 3195   0.008   6.648   2.214
  766SOL     OW 3196   6.915   6.954   6.891
  766SOL    HW1 3197   6.853   6.876   6.883
  766SOL    HW2 3198   6.889   7.010   6.970
  767SOL     OW 3199   6.794   6.409   2.373
  767SOL    HW1 3200   6.702   6.407   2.334
  767SOL    HW2 3201   6.861   6.388   2.302
  768SOL     OW 3202   2.829   0.702   2.715
  768SOL    HW1 3203   2.800   0.797   2.711
  768SOL    HW2 3204   2.793   0.660   2.799
  769SOL     OW 3205   4.594   0.154   4.861
  769SOL    HW1 3206   4.534   0.114   4.931
  769SOL    HW2 3207   4.632   0.239   4.896
  770SOL     OW 3208   2.998   4.890   3.771
  770SOL    HW1 3209   3.092   4.920   3.752
  770SOL    HW2 3210   2.943   4.968   3.801
  771SOL     OW 3211   1.637   5.516   3.585
  771SOL    HW1 3212   1.581   5.433   3.589
  771SOL    HW2 3213   1.601   5.576   3.513
  772SOL     OW 3214   6.696   4.535   6.838
  772SOL    HW1 3215   6.672   4.439   6.846
  772SOL    HW2 3216   6.641   4.589   6.901
  773SOL     OW 3217   6.883   3.893   3.223
  773SOL    HW1 3218   6.823   3.830   3.272
  773SOL    HW2 3219   6.957   3.923   3.284
  774SOL     OW 3220   1.499   1.136   1.894
  774SOL    HW1 3221   1.413   1.085   1.889
  774SOL    HW2 3222   1.540   1.123   1.985
  775SOL     OW 3223   1.272   2.074   4.088
  775SOL    HW1 3224   1.190   2.016   4.090
  775SOL    HW2 3225   1.297   2.092   3.993
  776SOL     OW 3226   1.824   0.682   6.212
  776SOL    HW1 3227   1.880   0.617   6.160
  776SOL    HW2 3228   1.728   0.654   6.208
  777SOL     OW 3229   4.716   1.318   0.526
  777SOL    HW1 3230   4.706   1.412   0.557
  777SOL    HW2 3231   4.708   1.256   0.604
  778SOL     OW 3232   4.234   0.751   3.669
  778SOL    HW1 3233   4.276   0.770   3.581
  778SOL    HW2 3234   4.181   0.829   3.699
  779SOL     OW 3235   0.826   2.087   1.881
  779SOL    HW1 3236   0.803   2.151   1.808
  779SOL    HW2 3237   0.748   2.078   1.944
  780SOL     OW 3238   6.293   2.904   4.083
  780SOL    HW1 3239   6.307   2.805   4.081
  780SOL    HW2 3240   6.382   2.949   4.096
  781SOL     OW 3241   6.747   1.136   5.867
  781SOL    HW1 3242   6.787   1.163   5.779
  781SOL    HW2 3243   6.700   1.049   5.856
  782SOL     OW 3244   0.674   2.864   0.922
  782SOL    HW1 3245   0.643   2.814   1.003
  782SOL    HW2 3246   0.691   2.960   0.946
  783SOL     OW 3247   2.781   5.357   0.825
  783SOL    HW1 3248   2.817   5.386   0.913
  783SOL    HW2 3249   2.810   5.422   0.754
  784SOL     OW 3250   4.185   0.417   5.029
  784SOL    HW1 3251   4.206   0.484   5.099
  784SOL    HW2 3252   4.152   0.332   5.071
  785SOL     OW 3253   6.175   1.688   2.899
  785SOL    HW1 3254   6.100   1.623   2.886
  785SOL    HW2 3255   6.139   1.781   2.898
  786SOL     OW 3256   0.234   6.871   0.267
  786SOL    HW1 3257   0.247   6.961   0.309
  786SOL    HW2 3258   0.171   6.879   0.190
  787SOL     OW 3259   2.507   1.251   6.454
  787SOL    HW1 3260   2.467   1.302   6.378
  787SOL    HW2 3261   2.438   1.238   6.526
  788SOL     OW 3262   2.102   3.846   4.517
  788SOL    HW1 3263   2.108   3.776   4.588
  788SOL    HW2 3264   2.007   3.875   4.507
  789SOL     OW 3265   5.686   3.548   1.624
  789SOL    HW1 3266   5.599   3.526   1.579
  789SOL    HW2 3267   5.677   3.635   1.673
  790SOL     OW 3268   2.557   1.544   3.596
  790SOL    HW1 3269   2.639   1.556   3.651
  790SOL    HW2 3270   2.485   1.605   3.629
  791SOL     OW 3271   4.080   0.944   3.786
  791SOL    HW1 3272   3.986   0.919   3.763
  791SOL    HW2 3273   4.088   1.044   3.791
  792SOL     OW 3274   6.088   0.635   2.057
  792SOL    HW1 3275   6.113   0.544   2.022
  792SOL    HW2 3276   6.070   0.629   2.155
  793SOL     OW 3277   5.267   6.557   0.823
  793SOL    HW1 3278   5.273   6.555   0.724
  793SOL    HW2 3279   5.232   6.470   0.857
  794SOL     OW 3280   2.596   4.883   5.370
  794SOL    HW1 3281   2.573   4.815   5.300
  794SOL    HW2 3282   2.675   4.851   5.423
  795SOL     OW 3283   3.614   5.112   5.639
  795SOL    HW1 3284   3.641   5.059   5.558
  795SOL    HW2 3285   3.586   5.049   5.711
  796SOL     OW 3286   0.308   2.638   5.623
  796SOL    HW1 3287   0.307   2.666   5.719
  796SOL    HW2 3288   0.230   2.578   5.604
  797SOL     OW 3289   6.061   2.261   3.721
  797SOL    HW1 3290   6.027   2.203   3.647
  797SOL    HW2 3291   6.083   2.204   3.800
  798SOL     OW 3292   4.908   0.589   0.153
  798SOL    HW1 3293   4.923   0.680   0.190
  798SOL    HW2 3294   4.876   0.528   0.227
  799SOL     OW 3295   6.739   1.851   3.277
  799SOL    HW1 3296   6.762   1.895   3.190
  799SOL    HW2 3297   6.803   1.882   3.348
  800SOL     OW 3298   5.201   1.120   2.296
  800SOL    HW1 3299   5.239   1.151   2.382
  800SOL    HW2 3300   5.103   1.103   2.307
  801SOL     OW 3301   0.850   2.343   3.636
  801SOL    HW1 3302   0.916   2.367   3.565
  801SOL    HW2 3303   0.784   2.278   3.598
  802SOL     OW 3304   5.353   2.021   0.206
  802SOL    HW1 3305   5.330   2.118   0.200
  802SOL    HW2 3306   5.302   1.980   0.282
  803SOL     OW 3307   6.024   5.694   4.033
  803SOL    HW1 3308   6.122   5.682   4.018
  803SOL    HW2 3309   5.987   5.752   3.960
  804SOL     OW 3310   0.350   6.203   0.536
  804SOL    HW1 3311   0.262   6.244   0.513
  804SOL    HW2 3312   0.345   6.161   0.627
  805SOL     OW 3313   3.764   2.633   5.649
  805SOL    HW1 3314   3.707   2.551   5.654
  805SOL    HW2 3315   3.764   2.669   5.556
  806SOL     OW 3316   4.530   1.959   6.651
  806SOL    HW1 3317   4.527   1.938   6.749
  806SOL    HW2 3318   4.596   1.899   6.606
  807SOL     OW 3319   0.862   0.882   3.502
  807SOL    HW1 3320   0.805   0.879   3.585
  807SOL    HW2 3321   0.805   0.903   3.423
  808SOL     OW 3322   5.258   3.015   5.704
  808SOL    HW1 3323   5.242   3.042   5.798
  808SOL    HW2 3324   5.356   2.998   5.691
  809SOL     OW 3325   1.214   4.605   0.649
  809SOL    HW1 3326   1.193   4.507   0.653
  809SOL    HW2 3327   1.307   4.621   0.681
  810SOL     OW 3328   4.914   3.785   0.732
  810SOL    HW1 3329   4.853   3.718   0.774
  810SOL    HW2 3330   4.914   3.868   0.789
  811SOL     OW 3331   5.027   5.206   3.645
  811SOL    HW1 3332   5.108   5.263   3.637
  811SOL    HW2 3333   4.977   5.207   3.558
  812SOL     OW 3334   6.905   0.340   1.223
  812SOL    HW1 3335   6.975   0.411   1.216
  812SOL    HW2 3336   6.880   0.326   1.318
  813SOL     OW 3337   4.317   5.780   3.527
  813SOL    HW1 3338   4.292   5.854   3.589
  813SOL    HW2 3339   4.249   5.774   3.454
  814SOL     OW 3340   5.581   6.626   1.844
  814SOL    HW1 3341   5.535   6.636   1.932
  814SOL    HW2 3342   5.675   6.658   1.851
  815SOL     OW 3343   6.797   2.720   1.161
  815SOL    HW1 3344   6.837   2.707   1.071
  815SOL    HW2 3345   6.703   2.685   1.161
  816SOL     OW 3346   6.934   6.472   0.651
  816SOL    HW1 3347   6.948   6.479   0.552
  816SOL    HW2 3348   7.017   6.436   0.694
  817SOL     OW 3349   1.716   3.575   2.025
  817SOL    HW1 3350   1.700   3.665   1.985
  817SOL    HW2 3351   1.754   3.513   1.956
  818SOL     OW 3352   6.237   2.166   0.524
  818SOL    HW1 3353   6.287   2.208   0.600
  818SOL    HW2 3354   6.279   2.079   0.500
  819SOL     OW 3355   6.822   2.167   3.455
  819SOL    HW1 3356   6.732   2.130   3.476
  819SOL    HW2 3357   6.892   2.096   3.465
  820SOL     OW 3358   0.520   2.540   4.279
  820SOL    HW1 3359   0.430   2.540   4.321
  820SOL    HW2 3360   0.556   2.447   4.275
  821SOL     OW 3361   1.404   4.262   0.664
  821SOL    HW1 3362   1.406   4.165   0.641
  821SOL    HW2 3363   1.323   4.281   0.720
  822SOL     OW 3364   0.870   4.095   5.255
  822SOL    HW1 3365   0.967   4.095   5.232
  822SOL    HW2 3366   0.816   4.070   5.175
  823SOL     OW 3367   5.257   3.962   6.406
  823SOL    HW1 3368   5.343   3.953   6.356
  823SOL    HW2 3369   5.234   3.874   6.448
  824SOL     OW 3370   4.858   2.418   5.334
  824SOL    HW1 3371   4.937   2.359   5.352
  824SOL    HW2 3372   4.774   2.371   5.359
  825SOL     OW 3373   2.139   3.196   2.091
  825SOL    HW1 3374   2.149   3.150   2.002
  825SOL    HW2 3375   2.159   3.294   2.080
  826SOL     OW 3376   5.719   3.360   7.023
  826SOL    HW1 3377   5.637   3.374   0.053
  826SOL    HW2 3378   5.697   3.369   6.926
  827SOL     OW 3379   3.455   5.416   0.146
  827SOL    HW1 3380   3.408   5.329   0.133
  827SOL    HW2 3381   3.521   5.429   0.073
  828SOL     OW 3382   5.962   0.805   5.266
  828SOL    HW1 3383   6.029   0.746   5.311
  828SOL    HW2 3384   5.877   0.754   5.252
  829SOL     OW 3385   3.151   3.084   4.192
  829SOL    HW1 3386   3.055   3.092   4.219
  829SOL    HW2 3387   3.205   3.051   4.270
  830SOL     OW 3388   4.653   4.004   5.283
  830SOL    HW1 3389   4.608   4.091   5.267
  830SOL    HW2 3390   4.594   3.945   5.338
  831SOL     OW 3391   5.560   0.778   4.960
  831SOL    HW1 3392   5.614   0.836   4.899
  831SOL    HW2 3393   5.505   0.835   5.021
  832SOL     OW 3394   1.998   1.910   0.231
  832SOL    HW1 3395   2.074   1.912   0.296
  832SOL    HW2 3396   2.027   1.951   0.145
  833SOL     OW 3397   6.514   6.523   5.970
  833SOL    HW1 3398   6.489   6.476   5.886
  833SOL    HW2 3399   6.606   6.562   5.960
  834SOL     OW 3400   3.237   3.450   3.918
  834SOL    HW1 3401   3.169   3.518   3.891
  834SOL    HW2 3402   3.317   3.457   3.859
  835SOL     OW 3403   3.275   6.360   3.949
  835SOL    HW1 3404   3.306   6.271   3.915
  835SOL    HW2 3405   3.202   6.346   4.016
  836SOL     OW 3406   3.250   0.029   0.186
  836SOL    HW1 3407   3.221   6.961   0.210
  836SOL    HW2 3408   3.260   0.035   0.087
  837SOL     OW 3409   5.215   0.379   6.238
  837SOL    HW1 3410   5.199   0.474   6.210
  837SOL    HW2 3411   5.239   0.376   6.335
  838SOL     OW 3412   1.677   6.051   4.612
  838SOL    HW1 3413   1.629   6.071   4.527
  838SOL    HW2 3414   1.749   5.983   4.595
  839SOL     OW 3415   2.701   1.612   3.336
  839SOL    HW1 3416   2.636   1.688   3.329
  839SOL    HW2 3417   2.675   1.553   3.412
  840SOL     OW 3418   1.031   1.173   6.656
  840SOL    HW1 3419   1.035   1.215   6.746
  840SOL    HW2 3420   0.942   1.193   6.614
  841SOL     OW 3421   0.144   3.528   6.894
  841SOL    HW1 3422   0.202   3.603   6.926
  841SOL    HW2 3423   0.124   3.542   6.796
  842SOL     OW 3424   3.931   5.474   2.946
  842SOL    HW1 3425   3.978   5.442   2.863
  842SOL    HW2 3426   3.879   5.398   2.986
  843SOL     OW 3427   6.333   2.201   2.080
  843SOL    HW1 3428   6.387   2.220   2.162
  843SOL    HW2 3429   6.236   2.198   2.105
  844SOL     OW 3430   4.990   6.045   0.260
  844SOL    HW1 3431   5.020   6.017   0.169
  844SOL    HW2 3432   4.901   6.003   0.280
  845SOL     OW 3433   0.210   4.164   4.917
  845SOL    HW1 3434   0.139   4.202   4.857
  845SOL    HW2 3435   0.196   4.199   5.009
  846SOL     OW 3436   6.052   1.175   0.213
  846SOL    HW1 3437   6.115   1.239   0.170
  846SOL    HW2 3438   6.047   1.193   0.311
  847SOL     OW 3439   6.095   3.284   1.079
  847SOL    HW1 3440   6.109   3.204   1.020
  847SOL    HW2 3441   6.118   3.260   1.173
  848SOL     OW 3442   6.339   0.029   5.831
  848SOL    HW1 3443   6.406   0.102   5.815
  848SOL    HW2 3444   6.352   6.981   5.763
  849SOL     OW 3445   0.710   5.327   5.027
  849SOL    HW1 3446   0.730   5.233   5.055
  849SOL    HW2 3447   0.769   5.353   4.950
  850SOL     OW 3448   4.287   1.125   3.224
  850SOL    HW1 3449   4.211   1.190   3.221
  850SOL    HW2 3450   4.253   1.033   3.204
  851SOL     OW 3451   0.321   0.911   0.241
  851SOL    HW1 3452   0.290   1.006   0.244
  851SOL    HW2 3453   0.383   0.898   0.164
  852SOL     OW 3454   2.307   3.207   6.447
  852SOL    HW1 3455   2.402   3.200   6.478
  852SOL    HW2 3456   2.301   3.177   6.352
  853SOL     OW 3457   1.218   3.108   1.719
  853SOL    HW1 3458   1.243   3.170   1.793
  853SOL    HW2 3459   1.131   3.063   1.741
  854SOL     OW 3460   5.218   5.818   2.701
  854SOL    HW1 3461   5.297   5.880   2.698
  854SOL    HW2 3462   5.172   5.827   2.790
  855SOL     OW 3463   5.976   0.144   1.876
  855SOL    HW1 3464   5.955   0.145   1.779
  855SOL    HW2 3465   5.896   0.173   1.928
  856SOL     OW 3466   1.996   6.017   5.353
  856SOL    HW1 3467   2.049   6.102   5.362
  856SOL    HW2 3468   1.908   6.028   5.398
  857SOL     OW 3469   5.838   3.619   0.577
  857SOL    HW1 3470   5.925   3.643   0.533
  857SOL    HW2 3471   5.833   3.660   0.667
  858SOL     OW 3472   3.244   4.962   1.965
  858SOL    HW1 3473   3.242   5.053   2.007
  858SOL    HW2 3474   3.156   4.918   1.979
  859SOL     OW 3475   0.187   4.897   6.620
  859SOL    HW1 3476   0.231   4.961   6.683
  859SOL    HW2 3477   0.158   4.815   6.670
  860SOL     OW 3478   3.152   4.207   1.133
  860SOL    HW1 3479   3.077   4.147   1.161
  860SOL    HW2 3480   3.160   4.282   1.199
  861SOL     OW 3481   3.002   6.056   5.631
  861SOL    HW1 3482   3.000   6.093   5.724
  861SOL    HW2 3483   3.069   5.982   5.626
  862SOL     OW 3484   5.510   4.480   4.872
  862SOL    HW1 3485   5.513   4.502   4.970
  862SOL    HW2 3486   5.480   4.560   4.821
  863SOL     OW 3487   0.308   1.119   0.944
  863SOL    HW1 3488   0.368   1.187   0.901
  863SOL    HW2 3489   0.363   1.057   1.000
  864SOL     OW 3490   5.578   4.302   2.515
  864SOL    HW1 3491   5.594   4.380   2.576
  864SOL    HW2 3492   5.665   4.274   2.474
  865SOL     OW 3493   1.497   0.110   3.279
  865SOL    HW1 3494   1.492   0.189   3.341
  865SOL    HW2 3495   1.592   0.081   3.269
  866SOL     OW 3496   3.406   2.098   1.997
  866SOL    HW1 3497   3.355   2.120   1.914
  866SOL    HW2 3498   3.492   2.149   1.997
  867SOL     OW 3499   2.781   2.978   6.595
  867SOL    HW1 3500   2.749   2.885   6.578
  867SOL    HW2 3501   2.783   2.995   6.694
  868SOL     OW 3502   5.553   1.032   3.201
  868SOL    HW1 3503   5.589   1.096   3.133
  868SOL    HW2 3504   5.579   0.939   3.176
  869SOL     OW 3505   5.894   6.221   1.399
  869SOL    HW1 3506   5.897   6.263   1.489
  869SOL    HW2 3507   5.878   6.123   1.408
  870SOL     OW 3508   6.541   1.748   1.311
  870SOL    HW1 3509   6.465   1.784   1.257
  870SOL    HW2 3510   6.565   1.814   1.382
  871SOL     OW 3511   5.763   2.281   1.648
  871SOL    HW1 3512   5.714   2.201   1.684
  871SOL    HW2 3513   5.700   2.338   1.596
  872SOL     OW 3514   6.530   2.692   3.809
  872SOL    HW1 3515   6.571   2.760   3.748
  872SOL    HW2 3516   6.595   2.667   3.880
  873SOL     OW 3517   3.288   6.961   3.910
  873SOL    HW1 3518   3.311   6.876   3.864
  873SOL    HW2 3519   3.198   6.952   3.954
  874SOL     OW 3520   1.431   4.095   5.391
  874SOL    HW1 3521   1.483   4.085   5.306
  874SOL    HW2 3522   1.488   4.068   5.468
  875SOL     OW 3523   5.713   3.756   6.920
  875SOL    HW1 3524   5.743   3.795   7.007
  875SOL    HW2 3525   5.773   3.680   6.895
  876SOL     OW 3526   6.887   3.457   2.087
  876SOL    HW1 3527   6.966   3.516   2.106
  876SOL    HW2 3528   6.879   3.388   2.159
  877SOL     OW 3529   4.855   5.670   6.697
  877SOL    HW1 3530   4.792   5.615   6.751
  877SOL    HW2 3531   4.942   5.679   6.746
  878SOL     OW 3532   2.891   5.093   0.706
  878SOL    HW1 3533   2.887   5.191   0.690
  878SOL    HW2 3534   2.976   5.056   0.670
  879SOL     OW 3535   3.979   2.148   2.709
  879SOL    HW1 3536   4.042   2.191   2.775
  879SOL    HW2 3537   3.990   2.190   2.620
  880SOL     OW 3538   3.517   4.989   0.719
  880SOL    HW1 3539   3.488   5.008   0.626
  880SOL    HW2 3540   3.508   4.891   0.738
  881SOL     OW 3541   3.702   4.915   4.812
  881SOL    HW1 3542   3.625   4.944   4.869
  881SOL    HW2 3543   3.787   4.944   4.855
  882SOL     OW 3544   1.677   0.481   4.574
  882SOL    HW1 3545   1.587   0.443   4.550
  882SOL    HW2 3546   1.699   0.555   4.511
  883SOL     OW 3547   3.470   5.679   6.593
  883SOL    HW1 3548   3.527   5.608   6.554
  883SOL    HW2 3549   3.420   5.642   6.672
  884SOL     OW 3550   5.653   3.140   1.730
  884SOL    HW1 3551   5.688   3.124   1.822
  884SOL    HW2 3552   5.722   3.187   1.675
  885SOL     OW 3553   5.417   5.939   0.717
  885SOL    HW1 3554   5.439   6.015   0.656
  885SOL    HW2 3555   5.437   5.965   0.812
  886SOL     OW 3556   4.703   1.762   6.511
  886SOL    HW1 3557   4.688   1.707   6.593
  886SOL    HW2 3558   4.706   1.702   6.430
  887SOL     OW 3559   4.462   0.012   5.392
  887SOL    HW1 3560   4.429   0.003   5.486
  887SOL    HW2 3561   4.433   0.099   5.354
  888SOL     OW 3562   5.934   5.834   2.827
  888SOL    HW1 3563   5.950   5.862   2.922
  888SOL    HW2 3564   5.968   5.741   2.814
  889SOL     OW 3565   0.652   6.201   5.050
  889SOL    HW1 3566   0.663   6.284   4.995
  889SOL    HW2 3567   0.702   6.126   5.007
  890SOL     OW 3568   2.793   4.698   2.228
  890SOL    HW1 3569   2.820   4.656   2.142
  890SOL    HW2 3570   2.812   4.797   2.224
  891SOL     OW 3571   5.218   3.008   0.282
  891SOL    HW1 3572   5.179   2.935   0.225
  891SOL    HW2 3573   5.317   3.004   0.278
  892SOL     OW 3574   2.869   4.588   1.128
  892SOL    HW1 3575   2.862   4.492   1.154
  892SOL    HW2 3576   2.965   4.611   1.110
  893SOL     OW 3577   1.406   0.683   0.208
  893SOL    HW1 3578   1.441   0.774   0.231
  893SOL    HW2 3579   1.351   0.689   0.124
  894SOL     OW 3580   1.120   5.692   4.520
  894SOL    HW1 3581   1.126   5.792   4.508
  894SOL    HW2 3582   1.211   5.655   4.534
  895SOL     OW 3583   2.158   6.726   4.593
  895SOL    HW1 3584   2.062   6.716   4.617
  895SOL    HW2 3585   2.209   6.646   4.624
  896SOL     OW 3586   5.917   6.748   2.819
  896SOL    HW1 3587   5.819   6.764   2.833
  896SOL    HW2 3588   5.930   6.687   2.741
  897SOL     OW 3589   4.822   2.126   6.860
  897SOL    HW1 3590   4.863   2.157   6.945
  897SOL    HW2 3591   4.725   2.149   6.859
  898SOL     OW 3592   5.428   6.464   2.827
  898SOL    HW1 3593   5.473   6.413   2.754
  898SOL    HW2 3594   5.328   6.456   2.817
  899SOL     OW 3595   0.618   4.431   6.317
  899SOL    HW1 3596   0.551   4.448   6.244
  899SOL    HW2 3597   0.622   4.511   6.377
  900SOL     OW 3598   0.504   6.026   3.659
  900SOL    HW1 3599   0.556   6.008   3.575
  900SOL    HW2 3600   0.496   6.125   3.672
  901SOL     OW 3601   6.242   1.059   4.286
  901SOL    HW1 3602   6.313   1.018   4.343
  901SOL    HW2 3603   6.238   1.157   4.302
  902SOL     OW 3604   0.093   6.540   0.377
  902SOL    HW1 3605   0.145   6.604   0.433
  902SOL    HW2 3606   0.114   6.555   0.280
  903SOL     OW 3607   0.912   5.092   0.675
  903SOL    HW1 3608   0.982   5.164   0.676
  903SOL    HW2 3609   0.924   5.036   0.594
  904SOL     OW 3610   1.773   1.730   3.304
  904SOL    HW1 3611   1.858   1.739   3.356
  904SOL    HW2 3612   1.755   1.815   3.255
  905SOL     OW 3613   5.311   1.635   4.997
  905SOL    HW1 3614   5.269   1.546   4.979
  905SOL    HW2 3615   5.249   1.691   5.051
  906SOL     OW 3616   0.108   3.201   5.780
  906SOL    HW1 3617   0.021   3.179   5.735
  906SOL    HW2 3618   0.154   3.274   5.729
  907SOL     OW 3619   6.473   2.234   2.648
  907SOL    HW1 3620   6.408   2.308   2.661
  907SOL    HW2 3621   6.454   2.188   2.561
  908SOL     OW 3622   1.700   0.989   4.214
  908SOL    HW1 3623   1.730   0.985   4.309
  908SOL    HW2 3624   1.776   0.962   4.154
  909SOL     OW 3625   4.161   1.220   1.665
  909SOL    HW1 3626   4.153   1.150   1.736
  909SOL    HW2 3627   4.186   1.308   1.708
  910SOL     OW 3628   1.927   1.261   0.906
  910SOL    HW1 3629   1.861   1.299   0.841
  910SOL    HW2 3630   1.991   1.333   0.934
  911SOL     OW 3631   0.398   4.570   1.959
  911SOL    HW1 3632   0.495   4.577   1.984
  911SOL    HW2 3633   0.350   4.519   2.029
  912SOL     OW 3634   0.729   6.612   5.948
  912SOL    HW1 3635   0.810   6.647   5.995
  912SOL    HW2 3636   0.707   6.670   5.870
  913SOL     OW 3637   2.907   0.972   2.412
  913SOL    HW1 3638   2.974   0.998   2.481
  913SOL    HW2 3639   2.886   0.875   2.419
  914SOL     OW 3640   2.760   6.245   2.646
  914SOL    HW1 3641   2.821   6.266   2.569
  914SOL    HW2 3642   2.746   6.327   2.700
  915SOL     OW 3643   1.013   2.534   0.821
  915SOL    HW1 3644   0.975   2.447   0.850
  915SOL    HW2 3645   1.074   2.520   0.743
  916SOL     OW 3646   2.275   2.919   3.117
  916SOL    HW1 3647   2.261   2.960   3.207
  916SOL    HW2 3648   2.269   2.819   3.125
  917SOL     OW 3649   4.129   1.601   0.820
  917SOL    HW1 3650   4.121   1.521   0.761
  917SOL    HW2 3651   4.156   1.572   0.912
  918SOL     OW 3652   2.210   0.101   6.260
  918SOL    HW1 3653   2.230   0.104   6.358
  918SOL    HW2 3654   2.117   0.070   6.246
  919SOL     OW 3655   2.540   5.824   2.591
  919SOL    HW1 3656   2.513   5.802   2.497
  919SOL    HW2 3657   2.507   5.916   2.614
  920SOL     OW 3658   2.175   0.838   4.137
  920SOL    HW1 3659   2.079   0.816   4.154
  920SOL    HW2 3660   2.190   0.847   4.039
  921SOL     OW 3661   5.595   5.252   4.653
  921SOL    HW1 3662   5.502   5.253   4.690
  921SOL    HW2 3663   5.648   5.324   4.696
  922SOL     OW 3664   3.107   3.433   0.011
  922SOL    HW1 3665   3.075   3.475   6.951
  922SOL    HW2 3666   3.190   3.380   7.018
  923SOL     OW 3667   3.243   0.095   6.317
  923SOL    HW1 3668   3.261   0.007   6.359
  923SOL    HW2 3669   3.175   0.084   6.244
  924SOL     OW 3670   5.621   2.688   3.132
  924SOL    HW1 3671   5.552   2.728   3.072
  924SOL    HW2 3672   5.576   2.639   3.207
  925SOL     OW 3673   0.638   1.977   3.745
  925SOL    HW1 3674   0.620   1.985   3.843
  925SOL    HW2 3675   0.626   1.882   3.716
  926SOL     OW 3676   5.209   5.841   0.862
  926SOL    HW1 3677   5.276   5.883   0.799
  926SOL    HW2 3678   5.151   5.778   0.810
  927SOL     OW 3679   3.759   5.006   4.525
  927SOL    HW1 3680   3.702   5.080   4.489
  927SOL    HW2 3681   3.711   4.960   4.600
  928SOL     OW 3682   1.925   1.372   1.332
  928SOL    HW1 3683   1.998   1.440   1.321
  928SOL    HW2 3684   1.925   1.310   1.254
  929SOL     OW 3685   0.355   2.678   2.857
  929SOL    HW1 3686   0.398   2.702   2.944
  929SOL    HW2 3687   0.259   2.655   2.872
  930SOL     OW 3688   5.004   5.889   4.085
  930SOL    HW1 3689   4.954   5.968   4.051
  930SOL    HW2 3690   4.946   5.807   4.079
  931SOL     OW 3691   1.747   2.592   2.873
  931SOL    HW1 3692   1.746   2.692   2.871
  931SOL    HW2 3693   1.783   2.556   2.787
  932SOL     OW 3694   4.604   6.770   0.810
  932SOL    HW1 3695   4.651   6.686   0.838
  932SOL    HW2 3696   4.505   6.756   0.810
  933SOL     OW 3697   1.666   6.381   3.084
  933SOL    HW1 3698   1.726   6.349   3.158
  933SOL    HW2 3699   1.608   6.306   3.052
  934SOL     OW 3700   3.308   1.315   5.340
  934SOL    HW1 3701   3.327   1.217   5.339
  934SOL    HW2 3702   3.211   1.331   5.321
  935SOL     OW 3703   3.728   3.200   6.263
  935SOL    HW1 3704   3.739   3.215   6.165
  935SOL    HW2 3705   3.659   3.263   6.299
  936SOL     OW 3706   0.967   1.187   1.434
  936SOL    HW1 3707   1.006   1.212   1.345
  936SOL    HW2 3708   1.041   1.177   1.501
  937SOL     OW 3709   4.697   2.030   4.683
  937SOL    HW1 3710   4.650   2.116   4.667
  937SOL    HW2 3711   4.635   1.965   4.726
  938SOL     OW 3712   0.774   2.861   6.692
  938SOL    HW1 3713   0.824   2.900   6.769
  938SOL    HW2 3714   0.681   2.838   6.720
  939SOL     OW 3715   5.979   1.270   5.424
  939SOL    HW1 3716   6.011   1.360   5.393
  939SOL    HW2 3717   5.983   1.205   5.347
  940SOL     OW 3718   6.901   1.270   3.787
  940SOL    HW1 3719   6.985   1.313   3.754
  940SOL    HW2 3720   6.890   1.181   3.743
  941SOL     OW 3721   5.366   1.823   4.526
  941SOL    HW1 3722   5.446   1.825   4.467
  941SOL    HW2 3723   5.369   1.742   4.584
  942SOL     OW 3724   5.867   6.751   5.538
  942SOL    HW1 3725   5.818   6.816   5.596
  942SOL    HW2 3726   5.845   6.658   5.567
  943SOL     OW 3727   5.494   1.900   1.448
  943SOL    HW1 3728   5.427   1.945   1.389
  943SOL    HW2 3729   5.451   1.823   1.494
  944SOL     OW 3730   5.098   4.484   3.883
  944SOL    HW1 3731   5.195   4.467   3.904
  944SOL    HW2 3732   5.091   4.525   3.793
  945SOL     OW 3733   5.619   4.334   4.405
  945SOL    HW1 3734   5.526   4.297   4.414
  945SOL    HW2 3735   5.679   4.289   4.471
  946SOL     OW 3736   5.617   2.451   5.249
  946SOL    HW1 3737   5.567   2.538   5.248
  946SOL    HW2 3738   5.649   2.430   5.157
  947SOL     OW 3739   2.200   2.439   6.104
  947SOL    HW1 3740   2.162   2.513   6.049
  947SOL    HW2 3741   2.147   2.355   6.089
  948SOL     OW 3742   4.019   2.046   0.479
  948SOL    HW1 3743   3.993   1.986   0.403
  948SOL    HW2 3744   4.004   1.998   0.565
  949SOL     OW 3745   6.104   5.950   6.331
  949SOL    HW1 3746   6.046   5.872   6.311
  949SOL    HW2 3747   6.118   6.003   6.247
  950SOL     OW 3748   4.259   5.340   0.787
  950SOL    HW1 3749   4.275   5.434   0.814
  950SOL    HW2 3750   4.291   5.278   0.859
  951SOL     OW 3751   1.059   1.339   2.401
  951SOL    HW1 3752   1.151   1.351   2.437
  951SOL    HW2 3753   1.035   1.418   2.343
  952SOL     OW 3754   5.538   1.236   2.972
  952SOL    HW1 3755   5.589   1.177   2.909
  952SOL    HW2 3756   5.492   1.309   2.920
  953SOL     OW 3757   4.868   6.483   6.067
  953SOL    HW1 3758   4.853   6.393   6.106
  953SOL    HW2 3759   4.780   6.528   6.052
  954SOL     OW 3760   6.383   6.915   0.369
  954SOL    HW1 3761   6.431   6.862   0.439
  954SOL    HW2 3762   6.313   6.973   0.413
  955SOL     OW 3763   0.370   6.305   2.665
  955SOL    HW1 3764   0.421   6.377   2.618
  955SOL    HW2 3765   0.279   6.297   2.624
  956SOL     OW 3766   1.292   2.252   1.568
  956SOL    HW1 3767   1.194   2.270   1.563
  956SOL    HW2 3768   1.309   2.183   1.638
  957SOL     OW 3769   1.968   4.948   4.398
  957SOL    HW1 3770   1.885   4.983   4.356
  957SOL    HW2 3771   1.951   4.856   4.433
  958SOL     OW 3772   4.838   2.396   1.209
  958SOL    HW1 3773   4.755   2.452   1.213
  958SOL    HW2 3774   4.815   2.302   1.235
  959SOL     OW 3775   2.439   4.419   2.971
  959SOL    HW1 3776   2.434   4.458   2.879
  959SOL    HW2 3777   2.405   4.325   2.969
  960SOL     OW 3778   1.749   5.419   4.668
  960SOL    HW1 3779   1.788   5.340   4.620
  960SOL    HW2 3780   1.700   5.388   4.749
  961SOL     OW 3781   3.982   6.765   1.814
  961SOL    HW1 3782   4.000   6.691   1.878
  961SOL    HW2 3783   4.052   6.836   1.825
  962SOL     OW 3784   1.864   0.206   3.709
  962SOL    HW1 3785   1.826   0.288   3.667
  962SOL    HW2 3786   1.792   0.156   3.757
  963SOL     OW 3787   6.691   0.369   0.766
  963SOL    HW1 3788   6.646   0.353   0.678
  963SOL    HW2 3789   6.787   0.340   0.759
  964SOL     OW 3790   5.835   3.329   1.630
  964SOL    HW1 3791   5.932   3.352   1.634
  964SOL    HW2 3792   5.780   3.411   1.641
  965SOL     OW 3793   0.346   2.299   0.088
  965SOL    HW1 3794   0.378   2.363   0.018
  965SOL    HW2 3795   0.423   2.268   0.144
  966SOL     OW 3796   6.714   2.355   2.670
  966SOL    HW1 3797   6.689   2.376   2.764
  966SOL    HW2 3798   6.633   2.327   2.619
  967SOL     OW 3799   1.608   5.677   1.348
  967SOL    HW1 3800   1.677   5.647   1.414
  967SOL    HW2 3801   1.517   5.654   1.382
  968SOL     OW 3802   4.999   2.732   2.683
  968SOL    HW1 3803   5.048   2.649   2.711
  968SOL    HW2 3804   4.943   2.765   2.759
  969SOL     OW 3805   4.724   5.937   5.641
  969SOL    HW1 3806   4.773   6.018   5.609
  969SOL    HW2 3807   4.643   5.923   5.583
  970SOL     OW 3808   4.241   2.338   5.339
  970SOL    HW1 3809   4.317   2.373   5.394
  970SOL    HW2 3810   4.206   2.411   5.281
  971SOL     OW 3811   6.950   1.645   1.474
  971SOL    HW1 3812   6.914   1.588   1.548
  971SOL    HW2 3813   0.025   1.635   1.470
  972SOL     OW 3814   6.290   5.180   0.692
  972SOL    HW1 3815   6.379   5.221   0.676
  972SOL    HW2 3816   6.291   5.130   0.779
  973SOL     OW 3817   6.134   4.607   5.865
  973SOL    HW1 3818   6.117   4.547   5.943
  973SOL    HW2 3819   6.211   4.571   5.811
  974SOL     OW 3820   2.671   1.098   3.718
  974SOL    HW1 3821   2.646   1.073   3.812
  974SOL    HW2 3822   2.599   1.155   3.679
  975SOL     OW 3823   3.361   6.316   5.888
  975SOL    HW1 3824   3.334   6.310   5.984
  975SOL    HW2 3825   3.457   6.342   5.882
  976SOL     OW 3826   0.267   4.138   3.254
  976SOL    HW1 3827   0.357   4.097   3.245
  976SOL    HW2 3828   0.197   4.067   3.253
  977SOL     OW 3829   1.770   0.705   3.916
  977SOL    HW1 3830   1.693   0.641   3.919
  977SOL    HW2 3831   1.741   0.790   3.872
  978SOL     OW 3832   4.944   4.096   4.657
  978SOL    HW1 3833   4.898   4.085   4.746
  978SOL    HW2 3834   5.012   4.023   4.646
  979SOL     OW 3835   6.180   0.893   2.998
  979SOL    HW1 3836   6.102   0.830   2.993
  979SOL    HW2 3837   6.236   0.871   3.078
  980SOL     OW 3838   5.372   2.213   4.802
  980SOL    HW1 3839   5.416   2.302   4.793
  980SOL    HW2 3840   5.432   2.142   4.764
  981SOL     OW 3841   0.952   1.983   4.895
  981SOL    HW1 3842   0.952   2.038   4.811
  981SOL    HW2 3843   0.865   1.936   4.904
  982SOL     OW 3844   0.431   3.103   1.543
  982SOL    HW1 3845   0.514   3.149   1.575
  982SOL    HW2 3846   0.352   3.139   1.593
  983SOL     OW 3847   6.392   2.013   3.067
  983SOL    HW1 3848   6.420   1.937   3.126
  983SOL    HW2 3849   6.429   1.999   2.975
  984SOL     OW 3850   4.721   1.375   4.804
  984SOL    HW1 3851   4.724   1.458   4.747
  984SOL    HW2 3852   4.689   1.298   4.749
  985SOL     OW 3853   3.117   5.503   0.942
  985SOL    HW1 3854   3.070   5.426   0.986
  985SOL    HW2 3855   3.084   5.514   0.848
  986SOL     OW 3856   4.192   4.511   6.434
  986SOL    HW1 3857   4.137   4.428   6.439
  986SOL    HW2 3858   4.159   4.569   6.359
  987SOL     OW 3859   3.630   6.526   2.589
  987SOL    HW1 3860   3.602   6.433   2.565
  987SOL    HW2 3861   3.645   6.579   2.506
  988SOL     OW 3862   3.715   3.029   0.498
  988SOL    HW1 3863   3.755   3.112   0.537
  988SOL    HW2 3864   3.619   3.024   0.523
  989SOL     OW 3865   0.645   6.969   5.620
  989SOL    HW1 3866   0.564   6.923   5.657
  989SOL    HW2 3867   0.617   0.023   5.566
  990SOL     OW 3868   4.187   0.566   3.970
  990SOL    HW1 3869   4.224   0.531   4.056
  990SOL    HW2 3870   4.234   0.650   3.945
  991SOL     OW 3871   0.735   1.414   4.723
  991SOL    HW1 3872   0.821   1.424   4.773
  991SOL    HW2 3873   0.711   1.501   4.680
  992SOL     OW 3874   0.538   3.295   0.076
  992SOL    HW1 3875   0.460   3.232   0.074
  992SOL    HW2 3876   0.504   3.389   0.070
  993SOL     OW 3877   2.855   4.774   3.011
  993SOL    HW1 3878   2.870   4.819   3.099
  993SOL    HW2 3879   2.767   4.727   3.013
  994SOL     OW 3880   3.093   3.165   3.027
  994SOL    HW1 3881   3.121   3.234   2.961
  994SOL    HW2 3882   3.064   3.083   2.978
  995SOL     OW 3883   1.803   1.996   5.500
  995SOL    HW1 3884   1.768   2.082   5.463
  995SOL    HW2 3885   1.727   1.935   5.521
  996SOL     OW 3886   2.162   4.051   2.790
  996SOL    HW1 3887   2.198   4.041   2.697
  996SOL    HW2 3888   2.067   4.083   2.786
  997SOL     OW 3889   0.463   0.632   1.738
  997SOL    HW1 3890   0.540   0.684   1.702
  997SOL    HW2 3891   0.401   0.694   1.787
  998SOL     OW 3892   4.547   0.193   2.297
  998SOL    HW1 3893   4.571   0.138   2.217
  998SOL    HW2 3894   4.525   0.286   2.267
  999SOL     OW 3895   6.645   5.310   1.425
  999SOL    HW1 3896   6.641   5.322   1.524
  999SOL    HW2 3897   6.644   5.400   1.380
 1000SOL     OW 3898   2.828   2.364   4.055
 1000SOL    HW1 3899   2.847   2.444   4.112
 1000SOL    HW2 3900   2.754   2.385   3.991
 1001SOL     OW 3901   5.182   0.321   5.824
 1001SOL    HW1 3902   5.217   0.229   5.839
 1001SOL    HW2 3903   5.089   0.327   5.859
 1002SOL     OW 3904   5.979   1.657   0.226
 1002SOL    HW1 3905   5.943   1.663   0.319
 1002SOL    HW2 3906   6.070   1.614   0.228
 1003SOL     OW 3907   2.913   6.244   2.388
 1003SOL    HW1 3908   2.826   6.203   2.360
 1003SOL    HW2 3909   2.971   6.256   2.308
 1004SOL     OW 3910   6.569   6.830   0.129
 1004SOL    HW1 3911   6.498   6.837   0.058
 1004SOL    HW2 3912   6.527   6.847   0.218
 1005SOL     OW 3913   0.681   0.218   3.010
 1005SOL    HW1 3914   0.704   0.145   2.945
 1005SOL    HW2 3915   0.748   0.219   3.084
 1006SOL     OW 3916   2.519   4.959   1.305
 1006SOL    HW1 3917   2.607   4.911   1.310
 1006SOL    HW2 3918   2.484   4.953   1.211
 1007SOL     OW 3919   0.014   1.011   3.044
 1007SOL    HW1 3920   7.006   1.099   3.010
 1007SOL    HW2 3921   0.093   0.982   2.990
 1008SOL     OW 3922   1.173   3.471   3.804
 1008SOL    HW1 3923   1.212   3.380   3.814
 1008SOL    HW2 3924   1.247   3.536   3.783
 1009SOL     OW 3925   0.596   6.512   4.589
 1009SOL    HW1 3926   0.563   6.602   4.561
 1009SOL    HW2 3927   0.520   6.459   4.629
 1010SOL     OW 3928   4.335   2.780   0.634
 1010SOL    HW1 3929   4.365   2.775   0.538
 1010SOL    HW2 3930   4.389   2.718   0.689
 1011SOL     OW 3931   2.304   5.829   4.277
 1011SOL    HW1 3932   2.401   5.843   4.297
 1011SOL    HW2 3933   2.262   5.778   4.352
 1012SOL     OW 3934   5.681   5.302   0.517
 1012SOL    HW1 3935   5.678   5.203   0.504
 1012SOL    HW2 3936   5.603   5.344   0.470
 1013SOL     OW 3937   0.923   0.694   0.742
 1013SOL    HW1 3938   0.864   0.682   0.663
 1013SOL    HW2 3939   0.880   0.653   0.823
 1014SOL     OW 3940   4.625   6.305   5.881
 1014SOL    HW1 3941   4.652   6.252   5.961
 1014SOL    HW2 3942   4.577   6.388   5.911
 1015SOL     OW 3943   3.527   5.838   4.788
 1015SOL    HW1 3944   3.494   5.813   4.697
 1015SOL    HW2 3945   3.539   5.937   4.794
 1016SOL     OW 3946   3.674   2.715   1.100
 1016SOL    HW1 3947   3.663   2.616   1.089
 1016SOL    HW2 3948   3.594   2.752   1.146
 1017SOL     OW 3949   4.388   3.152   0.566
 1017SOL    HW1 3950   4.299   3.197   0.567
 1017SOL    HW2 3951   4.378   3.060   0.527
 1018SOL     OW 3952   0.731   3.226   4.141
 1018SOL    HW1 3953   0.660   3.241   4.072
 1018SOL    HW2 3954   0.821   3.235   4.098
 1019SOL     OW 3955   6.954   1.462   0.021
 1019SOL    HW1 3956   6.904   1.516   0.090
 1019SOL    HW2 3957   6.984   1.376   0.061
 1020SOL     OW 3958   2.814   1.235   1.070
 1020SOL    HW1 3959   2.872   1.233   1.152
 1020SOL    HW2 3960   2.750   1.158   1.072
 1021SOL     OW 3961   6.816   1.209   0.975
 1021SOL    HW1 3962   6.758   1.173   1.047
 1021SOL    HW2 3963   6.898   1.151   0.966
 1022SOL     OW 3964   4.033   3.333   5.986
 1022SOL    HW1 3965   4.080   3.421   5.995
 1022SOL    HW2 3966   3.935   3.346   5.999
 1023SOL     OW 3967   6.016   0.552   2.323
 1023SOL    HW1 3968   5.919   0.566   2.306
 1023SOL    HW2 3969   6.034   0.456   2.345
 1024SOL     OW 3970   6.739   1.970   4.021
 1024SOL    HW1 3971   6.757   1.984   3.924
 1024SOL    HW2 3972   6.661   1.908   4.031
 1025SOL     OW 3973   3.156   4.521   1.032
 1025SOL    HW1 3974   3.191   4.557   0.946
 1025SOL    HW2 3975   3.216   4.448   1.065
 1026SOL     OW 3976   2.341   2.154   6.748
 1026SOL    HW1 3977   2.405   2.215   6.795
 1026SOL    HW2 3978   2.335   2.068   6.798
 1027SOL     OW 3979   3.026   4.972   2.302
 1027SOL    HW1 3980   2.995   5.066   2.287
 1027SOL    HW2 3981   3.076   4.967   2.388
 1028SOL     OW 3982   1.631   5.821   0.921
 1028SOL    HW1 3983   1.702   5.751   0.927
 1028SOL    HW2 3984   1.674   5.910   0.902
 1029SOL     OW 3985   2.249   0.040   6.973
 1029SOL    HW1 3986   2.314   0.041   6.896
 1029SOL    HW2 3987   2.293   0.078   0.029
 1030SOL     OW 3988   4.255   3.874   5.251
 1030SOL    HW1 3989   4.218   3.794   5.205
 1030SOL    HW2 3990   4.209   3.956   5.217
 1031SOL     OW 3991   2.644   5.211   1.847
 1031SOL    HW1 3992   2.661   5.310   1.843
 1031SOL    HW2 3993   2.729   5.163   1.826
 1032SOL     OW 3994   1.651   1.288   4.656
 1032SOL    HW1 3995   1.619   1.380   4.633
 1032SOL    HW2 3996   1.572   1.227   4.663
 1033SOL     OW 3997   2.371   5.734   1.713
 1033SOL    HW1 3998   2.356   5.722   1.614
 1033SOL    HW2 3999   2.394   5.647   1.754
 1034SOL     OW 4000   2.401   5.302   3.443
 1034SOL    HW1 4001   2.324   5.350   3.485
 1034SOL    HW2 4002   2.476   5.296   3.508
 1035SOL     OW 4003   3.256   1.185   4.765
 1035SOL    HW1 4004   3.166   1.213   4.798
 1035SOL    HW2 4005   3.327   1.240   4.810
 1036SOL     OW 4006   4.358   2.580   0.911
 1036SOL    HW1 4007   4.271   2.620   0.884
 1036SOL    HW2 4008   4.364   2.487   0.875
 1037SOL     OW 4009   2.384   0.927   0.466
 1037SOL    HW1 4010   2.405   0.988   0.390
 1037SOL    HW2 4011   2.459   0.930   0.532
 1038SOL     OW 4012   1.829   1.013   5.678
 1038SOL    HW1 4013   1.791   1.101   5.648
 1038SOL    HW2 4014   1.910   1.029   5.733
 1039SOL     OW 4015   3.979   2.143   4.429
 1039SOL    HW1 4016   4.001   2.192   4.344
 1039SOL    HW2 4017   3.888   2.103   4.422
 1040SOL     OW 4018   5.783   4.165   2.883
 1040SOL    HW1 4019   5.865   4.185   2.937
 1040SOL    HW2 4020   5.710   4.228   2.908
 1041SOL     OW 4021   0.039   1.110   4.141
 1041SOL    HW1 4022   0.113   1.160   4.185
 1041SOL    HW2 4023   6.985   1.171   4.129
 1042SOL     OW 4024   5.452   4.979   0.889
 1042SOL    HW1 4025   5.546   4.953   0.912
 1042SOL    HW2 4026   5.453   5.040   0.810
 1043SOL     OW 4027   3.438   1.819   6.806
 1043SOL    HW1 4028   3.344   1.788   6.791
 1043SOL    HW2 4029   3.439   1.919   6.812
 1044SOL     OW 4030   3.779   3.282   1.864
 1044SOL    HW1 4031   3.698   3.233   1.897
 1044SOL    HW2 4032   3.778   3.284   1.764
 1045SOL     OW 4033   3.070   1.396   2.878
 1045SOL    HW1 4034   2.996   1.336   2.909
 1045SOL    HW2 4035   3.095   1.371   2.784
 1046SOL     OW 4036   3.586   6.797   0.969
 1046SOL    HW1 4037   3.627   6.709   0.993
 1046SOL    HW2 4038   3.586   6.808   0.870
 1047SOL     OW 4039   1.009   4.890   3.067
 1047SOL    HW1 4040   0.918   4.905   3.029
 1047SOL    HW2 4041   1.070   4.856   2.995
 1048SOL     OW 4042   5.124   4.607   4.825
 1048SOL    HW1 4043   5.141   4.679   4.757
 1048SOL    HW2 4044   5.139   4.517   4.783
 1049SOL     OW 4045   0.399   4.157   4.700
 1049SOL    HW1 4046   0.436   4.240   4.659
 1049SOL    HW2 4047   0.338   4.182   4.776
 1050SOL     OW 4048   3.693   6.999   6.762
 1050SOL    HW1 4049   3.607   0.006   6.721
 1050SOL    HW2 4050   3.731   0.047   6.819
 1051SOL     OW 4051   4.995   4.655   0.086
 1051SOL    HW1 4052   4.967   4.589   0.155
 1051SOL    HW2 4053   4.918   4.675   0.026
 1052SOL     OW 4054   3.829   0.317   5.151
 1052SOL    HW1 4055   3.748   0.273   5.113
 1052SOL    HW2 4056   3.833   0.412   5.119
 1053SOL     OW 4057   4.662   5.002   3.804
 1053SOL    HW1 4058   4.604   4.941   3.858
 1053SOL    HW2 4059   4.756   4.998   3.838
 1054SOL     OW 4060   3.403   4.991   5.379
 1054SOL    HW1 4061   3.368   4.982   5.472
 1054SOL    HW2 4062   3.353   4.930   5.318
 1055SOL     OW 4063   4.304   6.099   4.892
 1055SOL    HW1 4064   4.336   6.010   4.925
 1055SOL    HW2 4065   4.380   6.147   4.847
 1056SOL     OW 4066   1.920   6.175   5.760
 1056SOL    HW1 4067   1.960   6.108   5.823
 1056SOL    HW2 4068   1.847   6.132   5.707
 1057SOL     OW 4069   2.894   3.501   2.755
 1057SOL    HW1 4070   2.816   3.449   2.720
 1057SOL    HW2 4071   2.952   3.529   2.679
 1058SOL     OW 4072   3.448   1.396   1.901
 1058SOL    HW1 4073   3.371   1.376   1.961
 1058SOL    HW2 4074   3.484   1.310   1.864
 1059SOL     OW 4075   4.466   1.168   1.960
 1059SOL    HW1 4076   4.480   1.222   1.877
 1059SOL    HW2 4077   4.507   1.216   2.038
 1060SOL     OW 4078   1.032   2.527   5.951
 1060SOL    HW1 4079   1.031   2.431   5.924
 1060SOL    HW2 4080   1.021   2.585   5.869
 1061SOL     OW 4081   3.762   5.190   1.616
 1061SOL    HW1 4082   3.802   5.112   1.568
 1061SOL    HW2 4083   3.821   5.270   1.605
 1062SOL     OW 4084   6.261   6.037   5.648
 1062SOL    HW1 4085   6.290   5.999   5.560
 1062SOL    HW2 4086   6.162   6.039   5.652
 1063SOL     OW 4087   1.848   3.163   0.412
 1063SOL    HW1 4088   1.845   3.063   0.415
 1063SOL    HW2 4089   1.928   3.193   0.360
 1064SOL     OW 4090   0.460   2.923   1.941
 1064SOL    HW1 4091   0.537   2.879   1.988
 1064SOL    HW2 4092   0.437   2.871   1.859
 1065SOL     OW 4093   5.923   6.897   4.114
 1065SOL    HW1 4094   5.901   6.804   4.145
 1065SOL    HW2 4095   6.008   6.927   4.157
 1066SOL     OW 4096   4.799   0.355   3.702
 1066SOL    HW1 4097   4.738   0.377   3.626
 1066SOL    HW2 4098   4.894   0.367   3.673
 1067SOL     OW 4099   2.171   2.867   2.186
 1067SOL    HW1 4100   2.148   2.962   2.205
 1067SOL    HW2 4101   2.252   2.841   2.238
 1068SOL     OW 4102   0.274   3.793   2.459
 1068SOL    HW1 4103   0.212   3.718   2.482
 1068SOL    HW2 4104   0.366   3.757   2.443
 1069SOL     OW 4105   4.294   4.287   1.169
 1069SOL    HW1 4106   4.361   4.213   1.159
 1069SOL    HW2 4107   4.335   4.361   1.223
 1070SOL     OW 4108   2.253   1.141   0.611
 1070SOL    HW1 4109   2.162   1.123   0.648
 1070SOL    HW2 4110   2.281   1.064   0.554
 1071SOL     OW 4111   3.732   6.573   3.792
 1071SOL    HW1 4112   3.806   6.530   3.843
 1071SOL    HW2 4113   3.644   6.533   3.820
 1072SOL     OW 4114   3.181   6.536   2.786
 1072SOL    HW1 4115   3.165   6.455   2.730
 1072SOL    HW2 4116   3.263   6.583   2.754
 1073SOL     OW 4117   2.643   4.617   2.771
 1073SOL    HW1 4118   2.627   4.609   2.870
 1073SOL    HW2 4119   2.735   4.651   2.754
 1074SOL     OW 4120   0.677   4.585   1.946
 1074SOL    HW1 4121   0.677   4.588   1.846
 1074SOL    HW2 4122   0.659   4.677   1.982
 1075SOL     OW 4123   5.274   4.723   4.245
 1075SOL    HW1 4124   5.215   4.801   4.224
 1075SOL    HW2 4125   5.362   4.735   4.200
 1076SOL     OW 4126   0.563   4.480   3.812
 1076SOL    HW1 4127   0.646   4.453   3.763
 1076SOL    HW2 4128   0.526   4.402   3.861
 1077SOL     OW 4129   4.411   0.233   0.818
 1077SOL    HW1 4130   4.341   0.258   0.751
 1077SOL    HW2 4131   4.367   0.200   0.901
 1078SOL     OW 4132   1.524   2.371   1.598
 1078SOL    HW1 4133   1.539   2.469   1.584
 1078SOL    HW2 4134   1.431   2.347   1.572
 1079SOL     OW 4135   2.944   5.672   3.671
 1079SOL    HW1 4136   2.924   5.600   3.736
 1079SOL    HW2 4137   3.042   5.675   3.652
 1080SOL     OW 4138   1.889   5.261   3.960
 1080SOL    HW1 4139   1.846   5.276   4.049
 1080SOL    HW2 4140   1.819   5.247   3.890
 1081SOL     OW 4141   1.775   0.647   0.375
 1081SOL    HW1 4142   1.708   0.626   0.446
 1081SOL    HW2 4143   1.734   0.707   0.307
 1082SOL     OW 4144   1.431   0.002   5.667
 1082SOL    HW1 4145   1.504   6.991   5.608
 1082SOL    HW2 4146   1.412   6.961   5.740
 1083SOL     OW 4147   3.456   3.668   2.052
 1083SOL    HW1 4148   3.462   3.635   2.146
 1083SOL    HW2 4149   3.530   3.734   2.035
 1084SOL     OW 4150   5.854   4.029   1.441
 1084SOL    HW1 4151   5.775   4.053   1.497
 1084SOL    HW2 4152   5.823   3.990   1.355
 1085SOL     OW 4153   1.712   4.878   4.167
 1085SOL    HW1 4154   1.782   4.948   4.147
 1085SOL    HW2 4155   1.624   4.923   4.184
 1086SOL     OW 4156   4.360   4.614   2.030
 1086SOL    HW1 4157   4.401   4.526   2.005
 1086SOL    HW2 4158   4.418   4.688   1.998
 1087SOL     OW 4159   4.442   2.793   5.314
 1087SOL    HW1 4160   4.429   2.883   5.356
 1087SOL    HW2 4161   4.370   2.731   5.345
 1088SOL     OW 4162   5.071   4.545   4.212
 1088SOL    HW1 4163   5.155   4.592   4.240
 1088SOL    HW2 4164   5.012   4.533   4.292
 1089SOL     OW 4165   0.102   0.038   4.034
 1089SOL    HW1 4166   0.138   0.074   4.120
 1089SOL    HW2 4167   0.072   6.968   4.048
 1090SOL     OW 4168   1.604   1.636   0.018
 1090SOL    HW1 4169   1.613   1.735   0.026
 1090SOL    HW2 4170   1.676   1.600   6.984
 1091SOL     OW 4171   1.959   1.653   4.761
 1091SOL    HW1 4172   1.976   1.749   4.783
 1091SOL    HW2 4173   2.038   1.615   4.713
 1092SOL     OW 4174   2.399   3.889   1.621
 1092SOL    HW1 4175   2.427   3.953   1.692
 1092SOL    HW2 4176   2.333   3.824   1.659
 1093SOL     OW 4177   0.368   1.965   2.547
 1093SOL    HW1 4178   0.440   1.897   2.534
 1093SOL    HW2 4179   0.395   2.051   2.505
 1094SOL     OW 4180   0.170   6.726   1.218
 1094SOL    HW1 4181   0.155   6.738   1.120
 1094SOL    HW2 4182   0.267   6.739   1.239
 1095SOL     OW 4183   6.151   3.144   6.275
 1095SOL    HW1 4184   6.148   3.171   6.178
 1095SOL    HW2 4185   6.139   3.225   6.332
 1096SOL     OW 4186   3.524   4.374   1.751
 1096SOL    HW1 4187   3.540   4.396   1.655
 1096SOL    HW2 4188   3.541   4.455   1.807
 1097SOL     OW 4189   1.346   5.711   5.358
 1097SOL    HW1 4190   1.281   5.737   5.429
 1097SOL    HW2 4191   1.343   5.612   5.344
 1098SOL     OW 4192   4.784   1.978   2.290
 1098SOL    HW1 4193   4.879   1.988   2.319
 1098SOL    HW2 4194   4.775   1.893   2.237
 1099SOL     OW 4195   4.265   1.711   4.078
 1099SOL    HW1 4196   4.234   1.805   4.096
 1099SOL    HW2 4197   4.187   1.655   4.050
 1100SOL     OW 4198   0.679   0.849   6.830
 1100SOL    HW1 4199   0.649   0.827   6.737
 1100SOL    HW2 4200   0.705   0.765   6.877
 1101SOL     OW 4201   5.115   3.473   0.908
 1101SOL    HW1 4202   5.203   3.463   0.955
 1101SOL    HW2 4203   5.113   3.416   0.827
 1102SOL     OW 4204   0.690   4.729   3.749
 1102SOL    HW1 4205   0.654   4.636   3.748
 1102SOL    HW2 4206   0.626   4.790   3.702
 1103SOL     OW 4207   1.686   2.391   1.846
 1103SOL    HW1 4208   1.670   2.411   1.749
 1103SOL    HW2 4209   1.784   2.389   1.864
 1104SOL     OW 4210   3.722   4.707   6.048
 1104SOL    HW1 4211   3.712   4.638   6.121
 1104SOL    HW2 4212   3.668   4.680   5.969
 1105SOL     OW 4213   5.054   4.131   6.282
 1105SOL    HW1 4214   5.113   4.057   6.315
 1105SOL    HW2 4215   5.111   4.208   6.252
 1106SOL     OW 4216   0.410   2.691   5.863
 1106SOL    HW1 4217   0.382   2.736   5.948
 1106SOL    HW2 4218   0.487   2.629   5.882
 1107SOL     OW 4219   1.101   0.462   0.679
 1107SOL    HW1 4220   1.057   0.386   0.727
 1107SOL    HW2 4221   1.051   0.547   0.698
 1108SOL     OW 4222   1.497   1.190   5.325
 1108SOL    HW1 4223   1.479   1.283   5.293
 1108SOL    HW2 4224   1.412   1.147   5.355
 1109SOL     OW 4225   4.236   6.707   3.810
 1109SOL    HW1 4226   4.208   6.682   3.717
 1109SOL    HW2 4227   4.275   6.800   3.809
 1110SOL     OW 4228   2.836   3.485   2.280
 1110SOL    HW1 4229   2.778   3.429   2.221
 1110SOL    HW2 4230   2.816   3.464   2.376
 1111SOL     OW 4231   5.471   1.004   0.095
 1111SOL    HW1 4232   5.485   1.008   7.021
 1111SOL    HW2 4233   5.556   1.029   0.142
 1112SOL     OW 4234   6.948   0.902   2.132
 1112SOL    HW1 4235   6.888   0.978   2.154
 1112SOL    HW2 4236   0.005   0.936   2.085
 1113SOL     OW 4237   6.564   3.258   2.554
 1113SOL    HW1 4238   6.649   3.216   2.583
 1113SOL    HW2 4239   6.510   3.191   2.502
 1114SOL     OW 4240   4.430   1.638   5.551
 1114SOL    HW1 4241   4.496   1.642   5.475
 1114SOL    HW2 4242   4.367   1.562   5.536
 1115SOL     OW 4243   2.975   3.177   0.911
 1115SOL    HW1 4244   3.052   3.114   0.923
 1115SOL    HW2 4245   2.892   3.135   0.947
 1116SOL     OW 4246   3.978   6.807   4.273
 1116SOL    HW1 4247   3.958   6.717   4.312
 1116SOL    HW2 4248   3.994   6.798   4.174
 1117SOL     OW 4249   2.868   2.722   1.139
 1117SOL    HW1 4250   2.873   2.756   1.045
 1117SOL    HW2 4251   2.907   2.630   1.143
 1118SOL     OW 4252   2.339   4.295   3.338
 1118SOL    HW1 4253   2.253   4.341   3.358
 1118SOL    HW2 4254   2.326   4.228   3.266
 1119SOL     OW 4255   4.470   3.910   1.449
 1119SOL    HW1 4256   4.537   3.875   1.384
 1119SOL    HW2 4257   4.512   3.917   1.539
 1120SOL     OW 4258   4.884   0.521   5.275
 1120SOL    HW1 4259   4.837   0.533   5.362
 1120SOL    HW2 4260   4.833   0.456   5.218
 1121SOL     OW 4261   5.523   2.859   1.993
 1121SOL    HW1 4262   5.574   2.811   1.922
 1121SOL    HW2 4263   5.425   2.849   1.976
 1122SOL     OW 4264   5.221   3.382   6.345
 1122SOL    HW1 4265   5.174   3.377   6.434
 1122SOL    HW2 4266   5.313   3.345   6.355
 1123SOL     OW 4267   4.542   0.993   2.402
 1123SOL    HW1 4268   4.613   1.064   2.412
 1123SOL    HW2 4269   4.453   1.037   2.393
 1124SOL     OW 4270   0.094   4.309   4.697
 1124SOL    HW1 4271   0.120   4.250   4.621
 1124SOL    HW2 4272   0.093   4.404   4.666
 1125SOL     OW 4273   3.447   3.237   5.005
 1125SOL    HW1 4274   3.403   3.304   4.945
 1125SOL    HW2 4275   3.516   3.283   5.061
 1126SOL     OW 4276   5.205   6.254   1.663
 1126SOL    HW1 4277   5.138   6.326   1.645
 1126SOL    HW2 4278   5.247   6.270   1.753
 1127SOL     OW 4279   2.027   4.945   6.995
 1127SOL    HW1 4280   1.947   4.891   6.967
 1127SOL    HW2 4281   1.999   5.037   7.019
 1128SOL     OW 4282   3.139   1.628   4.176
 1128SOL    HW1 4283   3.237   1.614   4.188
 1128SOL    HW2 4284   3.101   1.551   4.124
 1129SOL     OW 4285   5.268   0.423   6.690
 1129SOL    HW1 4286   5.314   0.506   6.657
 1129SOL    HW2 4287   5.254   0.430   6.789
 1130SOL     OW 4288   1.151   4.472   6.826
 1130SOL    HW1 4289   1.188   4.536   6.894
 1130SOL    HW2 4290   1.103   4.398   6.873
 1131SOL     OW 4291   0.670   6.252   5.345
 1131SOL    HW1 4292   0.698   6.225   5.253
 1131SOL    HW2 4293   0.573   6.277   5.344
 1132SOL     OW 4294   5.198   6.400   5.479
 1132SOL    HW1 4295   5.114   6.453   5.489
 1132SOL    HW2 4296   5.264   6.452   5.425
 1133SOL     OW 4297   0.315   3.879   1.494
 1133SOL    HW1 4298   0.328   3.787   1.456
 1133SOL    HW2 4299   0.290   3.942   1.421
 1134SOL     OW 4300   5.177   2.827   5.933
 1134SOL    HW1 4301   5.094   2.826   5.876
 1134SOL    HW2 4302   5.181   2.913   5.983
 1135SOL     OW 4303   2.639   2.191   3.235
 1135SOL    HW1 4304   2.664   2.132   3.312
 1135SOL    HW2 4305   2.722   2.226   3.192
 1136SOL     OW 4306   3.217   5.655   3.643
 1136SOL    HW1 4307   3.257   5.564   3.650
 1136SOL    HW2 4308   3.278   5.721   3.687
 1137SOL     OW 4309   0.988   1.342   6.278
 1137SOL    HW1 4310   1.047   1.420   6.301
 1137SOL    HW2 4311   0.912   1.374   6.221
 1138SOL     OW 4312   1.290   3.795   5.961
 1138SOL    HW1 4313   1.314   3.745   6.045
 1138SOL    HW2 4314   1.233   3.874   5.984
 1139SOL     OW 4315   1.608   6.444   2.579
 1139SOL    HW1 4316   1.664   6.361   2.582
 1139SOL    HW2 4317   1.551   6.442   2.497
 1140SOL     OW 4318   3.397   1.717   3.579
 1140SOL    HW1 4319   3.495   1.699   3.586
 1140SOL    HW2 4320   3.346   1.644   3.624
 1141SOL     OW 4321   6.288   5.619   5.340
 1141SOL    HW1 4322   6.284   5.616   5.240
 1141SOL    HW2 4323   6.367   5.567   5.372
 1142SOL     OW 4324   5.246   0.556   3.989
 1142SOL    HW1 4325   5.288   0.479   3.942
 1142SOL    HW2 4326   5.318   0.615   4.027
 1143SOL     OW 4327   3.940   2.081   3.100
 1143SOL    HW1 4328   4.012   2.151   3.103
 1143SOL    HW2 4329   3.879   2.099   3.023
 1144SOL     OW 4330   0.068   5.124   4.275
 1144SOL    HW1 4331   0.105   5.168   4.194
 1144SOL    HW2 4332   0.098   5.173   4.357
 1145SOL     OW 4333   6.753   5.551   4.511
 1145SOL    HW1 4334   6.812   5.632   4.521
 1145SOL    HW2 4335   6.672   5.561   4.568
 1146SOL     OW 4336   5.886   1.775   1.002
 1146SOL    HW1 4337   5.985   1.767   1.011
 1146SOL    HW2 4338   5.864   1.826   0.918
 1147SOL     OW 4339   0.422   3.142   2.126
 1147SOL    HW1 4340   0.414   3.080   2.048
 1147SOL    HW2 4341   0.331   3.168   2.158
 1148SOL     OW 4342   3.711   6.727   0.032
 1148SOL    HW1 4343   3.709   6.636   0.074
 1148SOL    HW2 4344   3.672   6.722   6.965
 1149SOL     OW 4345   6.842   3.316   2.331
 1149SOL    HW1 4346   6.786   3.247   2.285
 1149SOL    HW2 4347   6.926   3.273   2.366
 1150SOL     OW 4348   1.750   5.118   0.495
 1150SOL    HW1 4349   1.672   5.078   0.449
 1150SOL    HW2 4350   1.797   5.048   0.549
 1151SOL     OW 4351   6.064   5.135   6.550
 1151SOL    HW1 4352   6.022   5.204   6.490
 1151SOL    HW2 4353   6.097   5.180   6.633
 1152SOL     OW 4354   1.570   7.001   5.032
 1152SOL    HW1 4355   1.508   6.944   5.087
 1152SOL    HW2 4356   1.589   0.061   5.081
 1153SOL     OW 4357   2.211   5.406   2.853
 1153SOL    HW1 4358   2.261   5.329   2.813
 1153SOL    HW2 4359   2.202   5.393   2.951
 1154SOL     OW 4360   0.329   3.822   1.932
 1154SOL    HW1 4361   0.253   3.885   1.951
 1154SOL    HW2 4362   0.294   3.728   1.928
 1155SOL     OW 4363   3.737   5.590   2.009
 1155SOL    HW1 4364   3.723   5.542   2.096
 1155SOL    HW2 4365   3.812   5.548   1.959
 1156SOL     OW 4366   2.256   0.364   4.305
 1156SOL    HW1 4367   2.201   0.307   4.365
 1156SOL    HW2 4368   2.345   0.380   4.347
 1157SOL     OW 4369   0.492   2.843   3.776
 1157SOL    HW1 4370   0.487   2.807   3.870
 1157SOL    HW2 4371   0.564   2.796   3.726
 1158SOL     OW 4372   5.547   5.202   5.317
 1158SOL    HW1 4373   5.616   5.238   5.255
 1158SOL    HW2 4374   5.474   5.157   5.265
 1159SOL     OW 4375   3.772   5.226   3.542
 1159SOL    HW1 4376   3.755   5.149   3.482
 1159SOL    HW2 4377   3.768   5.195   3.637
 1160SOL     OW 4378   3.719   3.620   1.759
 1160SOL    HW1 4379   3.804   3.607   1.707
 1160SOL    HW2 4380   3.736   3.600   1.855
 1161SOL     OW 4381   5.459   0.895   3.625
 1161SOL    HW1 4382   5.386   0.963   3.632
 1161SOL    HW2 4383   5.504   0.904   3.536
 1162SOL     OW 4384   3.529   4.166   1.946
 1162SOL    HW1 4385   3.543   4.241   1.882
 1162SOL    HW2 4386   3.597   4.094   1.930
 1163SOL     OW 4387   5.167   1.780   2.922
 1163SOL    HW1 4388   5.262   1.751   2.932
 1163SOL    HW2 4389   5.159   1.838   2.840
 1164SOL     OW 4390   5.762   2.830   3.369
 1164SOL    HW1 4391   5.719   2.768   3.303
 1164SOL    HW2 4392   5.734   2.924   3.350
 1165SOL     OW 4393   0.734   4.442   3.349
 1165SOL    HW1 4394   0.651   4.392   3.321
 1165SOL    HW2 4395   0.726   4.538   3.322
 1166SOL     OW 4396   4.114   2.507   6.067
 1166SOL    HW1 4397   4.042   2.494   5.999
 1166SOL    HW2 4398   4.124   2.605   6.086
 1167SOL     OW 4399   4.816   1.271   5.108
 1167SOL    HW1 4400   4.854   1.229   5.025
 1167SOL    HW2 4401   4.720   1.295   5.093
 1168SOL     OW 4402   6.846   6.801   3.093
 1168SOL    HW1 4403   6.790   6.855   3.156
 1168SOL    HW2 4404   6.937   6.787   3.132
 1169SOL     OW 4405   0.522   3.692   1.413
 1169SOL    HW1 4406   0.566   3.705   1.501
 1169SOL    HW2 4407   0.489   3.597   1.406
 1170SOL     OW 4408   3.296   1.047   1.899
 1170SOL    HW1 4409   3.218   1.110   1.900
 1170SOL    HW2 4410   3.310   1.010   1.991
 1171SOL     OW 4411   3.109   5.882   0.869
 1171SOL    HW1 4412   3.030   5.932   0.904
 1171SOL    HW2 4413   3.165   5.850   0.945
 1172SOL     OW 4414   3.055   3.278   4.749
 1172SOL    HW1 4415   2.988   3.350   4.729
 1172SOL    HW2 4416   3.080   3.283   4.846
 1173SOL     OW 4417   3.312   1.069   6.548
 1173SOL    HW1 4418   3.389   1.026   6.500
 1173SOL    HW2 4419   3.256   0.998   6.592
 1174SOL     OW 4420   3.146   6.075   1.115
 1174SOL    HW1 4421   3.090   6.015   1.171
 1174SOL    HW2 4422   3.234   6.031   1.095
 1175SOL     OW 4423   6.026   4.821   6.007
 1175SOL    HW1 4424   6.063   4.749   5.949
 1175SOL    HW2 4425   5.957   4.873   5.956
 1176SOL     OW 4426   5.429   4.480   1.335
 1176SOL    HW1 4427   5.376   4.402   1.366
 1176SOL    HW2 4428   5.486   4.454   1.258
 1177SOL     OW 4429   6.873   2.829   5.805
 1177SOL    HW1 4430   6.816   2.749   5.821
 1177SOL    HW2 4431   6.970   2.804   5.816
 1178SOL     OW 4432   6.071   3.448   1.593
 1178SOL    HW1 4433   6.149   3.486   1.643
 1178SOL    HW2 4434   6.036   3.516   1.529
 1179SOL     OW 4435   2.275   5.597   6.541
 1179SOL    HW1 4436   2.268   5.680   6.486
 1179SOL    HW2 4437   2.243   5.615   6.634
 1180SOL     OW 4438   2.452   1.840   4.082
 1180SOL    HW1 4439   2.549   1.824   4.060
 1180SOL    HW2 4440   2.431   1.937   4.066
 1181SOL     OW 4441   1.955   4.257   3.170
 1181SOL    HW1 4442   2.025   4.304   3.116
 1181SOL    HW2 4443   1.910   4.322   3.231
 1182SOL     OW 4444   2.475   4.504   3.987
 1182SOL    HW1 4445   2.518   4.547   3.907
 1182SOL    HW2 4446   2.535   4.515   4.066
 1183SOL     OW 4447   4.474   5.777   0.728
 1183SOL    HW1 4448   4.436   5.865   0.757
 1183SOL    HW2 4449   4.532   5.740   0.800
 1184SOL     OW 4450   2.968   2.843   5.704
 1184SOL    HW1 4451   3.060   2.803   5.700
 1184SOL    HW2 4452   2.947   2.868   5.798
 1185SOL     OW 4453   1.746   0.877   0.215
 1185SOL    HW1 4454   1.824   0.904   0.271
 1185SOL    HW2 4455   1.694   0.958   0.187
 1186SOL     OW 4456   5.002   0.802   4.577
 1186SOL    HW1 4457   5.088   0.787   4.528
 1186SOL    HW2 4458   5.018   0.796   4.675
 1187SOL     OW 4459   5.997   0.261   5.168
 1187SOL    HW1 4460   5.999   0.318   5.086
 1187SOL    HW2 4461   5.932   0.186   5.155
 1188SOL     OW 4462   1.877   0.214   6.167
 1188SOL    HW1 4463   1.806   0.247   6.228
 1188SOL    HW2 4464   1.903   0.287   6.103
 1189SOL     OW 4465   5.555   0.466   1.710
 1189SOL    HW1 4466   5.648   0.443   1.683
 1189SOL    HW2 4467   5.494   0.457   1.631
 1190SOL     OW 4468   4.407   4.998   2.311
 1190SOL    HW1 4469   4.498   5.007   2.269
 1190SOL    HW2 4470   4.364   4.914   2.278
 1191SOL     OW 4471   3.048   5.805   6.563
 1191SOL    HW1 4472   3.101   5.730   6.603
 1191SOL    HW2 4473   2.994   5.770   6.486
 1192SOL     OW 4474   5.903   5.195   3.205
 1192SOL    HW1 4475   5.973   5.132   3.239
 1192SOL    HW2 4476   5.817   5.145   3.194
 1193SOL     OW 4477   5.303   0.594   3.673
 1193SOL    HW1 4478   5.370   0.623   3.742
 1193SOL    HW2 4479   5.219   0.646   3.685
 1194SOL     OW 4480   6.387   0.160   0.569
 1194SOL    HW1 4481   6.309   0.114   0.526
 1194SOL    HW2 4482   6.387   0.140   0.667
 1195SOL     OW 4483   5.365   0.242   6.463
 1195SOL    HW1 4484   5.352   0.272   6.557
 1195SOL    HW2 4485   5.298   0.171   6.442
 1196SOL     OW 4486   0.246   5.070   2.697
 1196SOL    HW1 4487   0.161   5.088   2.747
 1196SOL    HW2 4488   0.283   5.157   2.663
 1197SOL     OW 4489   3.935   5.729   5.705
 1197SOL    HW1 4490   3.908   5.691   5.617
 1197SOL    HW2 4491   3.854   5.737   5.764
 1198SOL     OW 4492   3.225   2.089   2.960
 1198SOL    HW1 4493   3.214   1.989   2.956
 1198SOL    HW2 4494   3.306   2.115   2.907
 1199SOL     OW 4495   3.752   4.017   1.849
 1199SOL    HW1 4496   3.843   4.055   1.833
 1199SOL    HW2 4497   3.702   4.012   1.762
 1200SOL     OW 4498   4.024   4.083   6.817
 1200SOL    HW1 4499   3.973   4.170   6.813
 1200SOL    HW2 4500   4.072   4.077   6.905
 1201SOL     OW 4501   1.480   1.448   5.209
 1201SOL    HW1 4502   1.387   1.454   5.174
 1201SOL    HW2 4503   1.544   1.438   5.133
 1202SOL     OW 4504   6.013   0.343   4.885
 1202SOL    HW1 4505   6.097   0.387   4.852
 1202SOL    HW2 4506   5.969   0.294   4.810
 1203SOL     OW 4507   5.345   6.818   0.767
 1203SOL    HW1 4508   5.294   6.766   0.698
 1203SOL    HW2 4509   5.349   6.765   0.852
 1204SOL     OW 4510   3.620   0.810   0.638
 1204SOL    HW1 4511   3.603   0.750   0.560
 1204SOL    HW2 4512   3.665   0.894   0.607
 1205SOL     OW 4513   6.086   2.470   5.009
 1205SOL    HW1 4514   6.137   2.467   5.095
 1205SOL    HW2 4515   6.146   2.441   4.934
 1206SOL     OW 4516   2.305   1.987   5.014
 1206SOL    HW1 4517   2.392   1.979   5.062
 1206SOL    HW2 4518   2.309   1.938   4.927
 1207SOL     OW 4519   6.033   0.250   6.726
 1207SOL    HW1 4520   6.120   0.279   6.685
 1207SOL    HW2 4521   5.973   0.330   6.736
 1208SOL     OW 4522   3.804   3.444   3.208
 1208SOL    HW1 4523   3.871   3.459   3.135
 1208SOL    HW2 4524   3.753   3.529   3.223
 1209SOL     OW 4525   5.230   5.255   4.174
 1209SOL    HW1 4526   5.293   5.325   4.205
 1209SOL    HW2 4527   5.281   5.176   4.141
 1210SOL     OW 4528   4.227   0.019   2.425
 1210SOL    HW1 4529   4.138   7.010   2.455
 1210SOL    HW2 4530   4.264   0.080   2.494
 1211SOL     OW 4531   0.403   4.595   4.724
 1211SOL    HW1 4532   0.481   4.548   4.765
 1211SOL    HW2 4533   0.411   4.593   4.624
 1212SOL     OW 4534   1.782   3.689   5.136
 1212SOL    HW1 4535   1.806   3.593   5.117
 1212SOL    HW2 4536   1.750   3.733   5.052
 1213SOL     OW 4537   6.312   2.220   5.414
 1213SOL    HW1 4538   6.354   2.155   5.350
 1213SOL    HW2 4539   6.213   2.218   5.403
 1214SOL     OW 4540   1.903   3.930   3.434
 1214SOL    HW1 4541   1.962   3.881   3.370
 1214SOL    HW2 4542   1.953   4.007   3.473
 1215SOL     OW 4543   0.875   4.567   2.184
 1215SOL    HW1 4544   0.789   4.554   2.233
 1215SOL    HW2 4545   0.949   4.585   2.250
 1216SOL     OW 4546   1.652   0.174   1.835
 1216SOL    HW1 4547   1.711   0.210   1.762
 1216SOL    HW2 4548   1.686   0.204   1.924
 1217SOL     OW 4549   1.652   6.524   1.876
 1217SOL    HW1 4550   1.577   6.590   1.874
 1217SOL    HW2 4551   1.628   6.444   1.821
 1218SOL     OW 4552   0.665   3.825   4.232
 1218SOL    HW1 4553   0.611   3.907   4.214
 1218SOL    HW2 4554   0.685   3.778   4.146
 1219SOL     OW 4555   3.696   6.191   1.537
 1219SOL    HW1 4556   3.785   6.171   1.495
 1219SOL    HW2 4557   3.710   6.246   1.619
 1220SOL     OW 4558   5.742   3.553   3.805
 1220SOL    HW1 4559   5.650   3.565   3.767
 1220SOL    HW2 4560   5.809   3.580   3.736
 1221SOL     OW 4561   4.961   3.660   0.003
 1221SOL    HW1 4562   4.961   3.577   6.973
 1221SOL    HW2 4563   4.932   3.737   6.971
 1222SOL     OW 4564   6.764   6.505   1.144
 1222SOL    HW1 4565   6.759   6.407   1.122
 1222SOL    HW2 4566   6.706   6.524   1.223
 1223SOL     OW 4567   6.547   6.632   6.571
 1223SOL    HW1 4568   6.587   6.660   6.484
 1223SOL    HW2 4569   6.481   6.559   6.555
 1224SOL     OW 4570   4.977   5.512   1.480
 1224SOL    HW1 4571   4.912   5.449   1.523
 1224SOL    HW2 4572   4.931   5.599   1.461
 1225SOL     OW 4573   4.787   1.959   0.535
 1225SOL    HW1 4574   4.837   2.042   0.512
 1225SOL    HW2 4575   4.804   1.936   0.631
 1226SOL     OW 4576   5.861   6.007   1.045
 1226SOL    HW1 4577   5.794   5.978   1.114
 1226SOL    HW2 4578   5.944   6.039   1.091
 1227SOL     OW 4579   6.065   3.805   5.195
 1227SOL    HW1 4580   6.111   3.808   5.106
 1227SOL    HW2 4581   6.027   3.713   5.208
 1228SOL     OW 4582   4.065   3.147   2.855
 1228SOL    HW1 4583   3.974   3.184   2.875
 1228SOL    HW2 4584   4.087   3.076   2.923
 1229SOL     OW 4585   2.550   5.728   3.122
 1229SOL    HW1 4586   2.528   5.663   3.050
 1229SOL    HW2 4587   2.622   5.691   3.180
 1230SOL     OW 4588   5.276   4.936   1.091
 1230SOL    HW1 4589   5.336   4.893   1.159
 1230SOL    HW2 4590   5.330   4.959   1.010
 1231SOL     OW 4591   1.794   2.444   6.646
 1231SOL    HW1 4592   1.840   2.418   6.561
 1231SOL    HW2 4593   1.696   2.448   6.631
 1232SOL     OW 4594   3.139   0.536   5.683
 1232SOL    HW1 4595   3.073   0.481   5.735
 1232SOL    HW2 4596   3.148   0.626   5.725
 1233SOL     OW 4597   0.188   5.963   4.774
 1233SOL    HW1 4598   0.227   5.975   4.865
 1233SOL    HW2 4599   0.228   6.030   4.712
 1234SOL     OW 4600   6.561   2.969   6.793
 1234SOL    HW1 4601   6.517   2.921   6.869
 1234SOL    HW2 4602   6.549   3.068   6.804
 1235SOL     OW 4603   6.226   5.131   0.184
 1235SOL    HW1 4604   6.256   5.037   0.165
 1235SOL    HW2 4605   6.146   5.129   0.244
 1236SOL     OW 4606   1.830   1.854   1.871
 1236SOL    HW1 4607   1.842   1.933   1.811
 1236SOL    HW2 4608   1.906   1.791   1.859
 1237SOL     OW 4609   1.049   6.962   4.668
 1237SOL    HW1 4610   1.086   6.936   4.757
 1237SOL    HW2 4611   0.950   6.942   4.666
 1238SOL     OW 4612   6.744   0.978   4.122
 1238SOL    HW1 4613   6.795   1.064   4.112
 1238SOL    HW2 4614   6.749   0.927   4.036
 1239SOL     OW 4615   6.315   4.596   4.166
 1239SOL    HW1 4616   6.307   4.692   4.141
 1239SOL    HW2 4617   6.294   4.585   4.263
 1240SOL     OW 4618   5.922   4.093   3.793
 1240SOL    HW1 4619   5.957   4.136   3.709
 1240SOL    HW2 4620   5.891   4.000   3.772
 1241SOL     OW 4621   5.398   4.962   4.716
 1241SOL    HW1 4622   5.393   4.928   4.810
 1241SOL    HW2 4623   5.482   4.930   4.673
 1242SOL     OW 4624   1.183   4.667   0.012
 1242SOL    HW1 4625   1.201   4.637   0.106
 1242SOL    HW2 4626   1.130   4.752   0.014
 1243SOL     OW 4627   0.645   4.801   4.764
 1243SOL    HW1 4628   0.685   4.766   4.849
 1243SOL    HW2 4629   0.553   4.764   4.754
 1244SOL     OW 4630   5.278   0.118   4.529
 1244SOL    HW1 4631   5.196   0.096   4.476
 1244SOL    HW2 4632   5.334   0.184   4.479
 1245SOL     OW 4633   4.853   6.685   1.759
 1245SOL    HW1 4634   4.798   6.607   1.789
 1245SOL    HW2 4635   4.817   6.719   1.672
 1246SOL     OW 4636   4.507   1.582   0.311
 1246SOL    HW1 4637   4.534   1.582   0.408
 1246SOL    HW2 4638   4.567   1.522   0.259
 1247SOL     OW 4639   6.543   6.842   3.785
 1247SOL    HW1 4640   6.549   6.785   3.867
 1247SOL    HW2 4641   6.461   6.816   3.732
 1248SOL     OW 4642   1.179   6.847   4.894
 1248SOL    HW1 4643   1.125   6.770   4.928
 1248SOL    HW2 4644   1.275   6.820   4.887
 1249SOL     OW 4645   6.155   4.516   6.947
 1249SOL    HW1 4646   6.066   4.473   6.959
 1249SOL    HW2 4647   6.142   4.612   6.922
 1250SOL     OW 4648   6.676   3.015   4.654
 1250SOL    HW1 4649   6.593   3.058   4.619
 1250SOL    HW2 4650   6.685   2.923   4.616
 1251SOL     OW 4651   2.771   0.558   2.936
 1251SOL    HW1 4652   2.737   0.464   2.931
 1251SOL    HW2 4653   2.806   0.576   3.028
 1252SOL     OW 4654   1.525   5.540   0.052
 1252SOL    HW1 4655   1.466   5.573   0.126
 1252SOL    HW2 4656   1.596   5.608   0.032
 1253SOL     OW 4657   3.412   0.944   1.055
 1253SOL    HW1 4658   3.502   0.943   1.011
 1253SOL    HW2 4659   3.422   0.922   1.152
 1254SOL     OW 4660   6.825   1.323   1.751
 1254SOL    HW1 4661   6.773   1.325   1.836
 1254SOL    HW2 4662   6.832   1.229   1.718
 1255SOL     OW 4663   5.457   1.293   5.294
 1255SOL    HW1 4664   5.523   1.252   5.357
 1255SOL    HW2 4665   5.489   1.283   5.200
 1256SOL     OW 4666   0.655   5.744   4.759
 1256SOL    HW1 4667   0.597   5.782   4.686
 1256SOL    HW2 4668   0.729   5.691   4.719
 1257SOL     OW 4669   0.189   5.290   4.040
 1257SOL    HW1 4670   0.288   5.292   4.025
 1257SOL    HW2 4671   0.148   5.374   4.006
 1258SOL     OW 4672   3.176   6.001   4.742
 1258SOL    HW1 4673   3.177   6.092   4.783
 1258SOL    HW2 4674   3.085   5.982   4.705
 1259SOL     OW 4675   5.356   0.346   3.891
 1259SOL    HW1 4676   5.451   0.351   3.919
 1259SOL    HW2 4677   5.339   0.260   3.843
 1260SOL     OW 4678   2.092   0.720   2.099
 1260SOL    HW1 4679   2.085   0.762   2.190
 1260SOL    HW2 4680   2.126   0.787   2.034
 1261SOL     OW 4681   6.592   4.611   6.273
 1261SOL    HW1 4682   6.550   4.531   6.316
 1261SOL    HW2 4683   6.656   4.580   6.202
 1262SOL     OW 4684   4.976   5.319   0.157
 1262SOL    HW1 4685   4.988   5.417   0.177
 1262SOL    HW2 4686   4.961   5.307   0.059
 1263SOL     OW 4687   0.542   2.275   1.541
 1263SOL    HW1 4688   0.450   2.259   1.577
 1263SOL    HW2 4689   0.570   2.197   1.485
 1264SOL     OW 4690   0.155   3.807   3.711
 1264SOL    HW1 4691   0.178   3.790   3.807
 1264SOL    HW2 4692   0.230   3.775   3.652
 1265SOL     OW 4693   6.915   4.410   5.651
 1265SOL    HW1 4694   6.946   4.500   5.620
 1265SOL    HW2 4695   6.826   4.390   5.610
 1266SOL     OW 4696   3.189   1.642   5.393
 1266SOL    HW1 4697   3.152   1.729   5.361
 1266SOL    HW2 4698   3.267   1.616   5.337
 1267SOL     OW 4699   6.832   5.234   2.888
 1267SOL    HW1 4700   6.912   5.177   2.869
 1267SOL    HW2 4701   6.797   5.214   2.980
 1268SOL     OW 4702   5.296   2.605   6.696
 1268SOL    HW1 4703   5.260   2.648   6.779
 1268SOL    HW2 4704   5.233   2.535   6.665
 1269SOL     OW 4705   6.812   5.410   5.565
 1269SOL    HW1 4706   6.855   5.402   5.656
 1269SOL    HW2 4707   6.821   5.323   5.517
 1270SOL     OW 4708   1.788   3.681   4.567
 1270SOL    HW1 4709   1.843   3.753   4.609
 1270SOL    HW2 4710   1.709   3.721   4.521
 1271SOL     OW 4711   3.699   1.859   2.770
 1271SOL    HW1 4712   3.606   1.829   2.749
 1271SOL    HW2 4713   3.732   1.916   2.695
 1272SOL     OW 4714   6.872   5.451   1.800
 1272SOL    HW1 4715   6.955   5.404   1.767
 1272SOL    HW2 4716   6.856   5.426   1.895
 1273SOL     OW 4717   3.074   5.616   6.793
 1273SOL    HW1 4718   2.980   5.647   6.781
 1273SOL    HW2 4719   3.083   5.523   6.757
 1274SOL     OW 4720   6.921   2.625   2.208
 1274SOL    HW1 4721   6.831   2.629   2.251
 1274SOL    HW2 4722   6.914   2.655   2.112
 1275SOL     OW 4723   3.991   1.625   4.677
 1275SOL    HW1 4724   3.982   1.658   4.583
 1275SOL    HW2 4725   3.984   1.702   4.740
 1276SOL     OW 4726   0.898   0.218   2.430
 1276SOL    HW1 4727   0.919   0.148   2.497
 1276SOL    HW2 4728   0.883   0.305   2.477
 1277SOL     OW 4729   7.008   0.667   4.040
 1277SOL    HW1 4730   7.019   0.648   3.943
 1277SOL    HW2 4731   6.924   0.624   4.074
 1278SOL     OW 4732   2.185   1.860   5.648
 1278SOL    HW1 4733   2.140   1.784   5.696
 1278SOL    HW2 4734   2.257   1.898   5.706
 1279SOL     OW 4735   2.782   6.064   0.550
 1279SOL    HW1 4736   2.788   6.019   0.461
 1279SOL    HW2 4737   2.769   6.162   0.538
 1280SOL     OW 4738   2.327   0.244   3.433
 1280SOL    HW1 4739   2.228   0.257   3.434
 1280SOL    HW2 4740   2.348   0.147   3.439
 1281SOL     OW 4741   1.294   6.401   3.269
 1281SOL    HW1 4742   1.314   6.322   3.211
 1281SOL    HW2 4743   1.371   6.416   3.332
 1282SOL     OW 4744   0.845   1.014   1.104
 1282SOL    HW1 4745   0.771   1.069   1.064
 1282SOL    HW2 4746   0.811   0.967   1.185
 1283SOL     OW 4747   5.718   5.168   5.108
 1283SOL    HW1 4748   5.668   5.188   5.023
 1283SOL    HW2 4749   5.810   5.135   5.086
 1284SOL     OW 4750   3.010   2.644   1.729
 1284SOL    HW1 4751   2.931   2.704   1.719
 1284SOL    HW2 4752   2.990   2.575   1.799
 1285SOL     OW 4753   4.644   2.577   5.579
 1285SOL    HW1 4754   4.741   2.599   5.571
 1285SOL    HW2 4755   4.590   2.645   5.529
 1286SOL     OW 4756   5.635   4.053   1.936
 1286SOL    HW1 4757   5.616   4.022   2.029
 1286SOL    HW2 4758   5.561   4.112   1.904
 1287SOL     OW 4759   6.590   5.790   6.767
 1287SOL    HW1 4760   6.516   5.819   6.829
 1287SOL    HW2 4761   6.630   5.871   6.724
 1288SOL     OW 4762   0.039   3.293   0.502
 1288SOL    HW1 4763   0.067   3.377   0.549
 1288SOL    HW2 4764   0.117   3.255   0.453
 1289SOL     OW 4765   6.805   6.161   2.516
 1289SOL    HW1 4766   6.836   6.237   2.459
 1289SOL    HW2 4767   6.735   6.109   2.467
 1290SOL     OW 4768   0.548   6.608   0.463
 1290SOL    HW1 4769   0.613   6.624   0.389
 1290SOL    HW2 4770   0.487   6.687   0.471
 1291SOL     OW 4771   0.963   6.198   0.218
 1291SOL    HW1 4772   1.058   6.211   0.192
 1291SOL    HW2 4773   0.941   6.258   0.295
 1292SOL     OW 4774   0.625   4.841   1.316
 1292SOL    HW1 4775   0.663   4.752   1.291
 1292SOL    HW2 4776   0.697   4.897   1.358
 1293SOL     OW 4777   0.364   1.767   6.626
 1293SOL    HW1 4778   0.374   1.851   6.573
 1293SOL    HW2 4779   0.275   1.726   6.607
 1294SOL     OW 4780   0.182   2.990   2.015
 1294SOL    HW1 4781   0.143   3.007   1.924
 1294SOL    HW2 4782   0.272   2.948   2.006
 1295SOL     OW 4783   5.427   2.564   1.870
 1295SOL    HW1 4784   5.420   2.509   1.787
 1295SOL    HW2 4785   5.522   2.594   1.883
 1296SOL     OW 4786   3.357   2.182   6.199
 1296SOL    HW1 4787   3.272   2.235   6.194
 1296SOL    HW2 4788   3.350   2.102   6.140
 1297SOL     OW 4789   6.756   1.381   5.109
 1297SOL    HW1 4790   6.799   1.471   5.100
 1297SOL    HW2 4791   6.824   1.317   5.145
 1298SOL     OW 4792   6.043   2.885   2.464
 1298SOL    HW1 4793   6.012   2.976   2.435
 1298SOL    HW2 4794   6.101   2.894   2.545
 1299SOL     OW 4795   1.282   4.039   4.603
 1299SOL    HW1 4796   1.379   4.035   4.581
 1299SOL    HW2 4797   1.230   3.994   4.530
 1300SOL     OW 4798   3.227   2.838   1.953
 1300SOL    HW1 4799   3.232   2.888   1.867
 1300SOL    HW2 4800   3.175   2.754   1.939
 1301SOL     OW 4801   0.907   6.664   4.147
 1301SOL    HW1 4802   0.866   6.737   4.093
 1301SOL    HW2 4803   1.005   6.659   4.128
 1302SOL     OW 4804   2.171   0.106   4.932
 1302SOL    HW1 4805   2.199   0.051   4.853
 1302SOL    HW2 4806   2.094   0.165   4.907
 1303SOL     OW 4807   3.630   1.819   0.781
 1303SOL    HW1 4808   3.554   1.762   0.750
 1303SOL    HW2 4809   3.690   1.765   0.840
 1304SOL     OW 4810   1.969   0.392   6.509
 1304SOL    HW1 4811   1.897   0.340   6.462
 1304SOL    HW2 4812   1.938   0.415   6.601
 1305SOL     OW 4813   4.300   0.215   4.362
 1305SOL    HW1 4814   4.338   0.306   4.348
 1305SOL    HW2 4815   4.367   0.157   4.408
 1306SOL     OW 4816   0.542   4.417   4.293
 1306SOL    HW1 4817   0.569   4.327   4.259
 1306SOL    HW2 4818   0.520   4.411   4.390
 1307SOL     OW 4819   1.155   3.093   4.524
 1307SOL    HW1 4820   1.078   3.043   4.564
 1307SOL    HW2 4821   1.201   3.146   4.596
 1308SOL     OW 4822   4.368   6.094   4.077
 1308SOL    HW1 4823   4.387   6.012   4.022
 1308SOL    HW2 4824   4.390   6.076   4.173
 1309SOL     OW 4825   5.692   2.437   4.503
 1309SOL    HW1 4826   5.680   2.395   4.414
 1309SOL    HW2 4827   5.753   2.380   4.559
 1310SOL     OW 4828   5.687   3.703   4.346
 1310SOL    HW1 4829   5.730   3.793   4.355
 1310SOL    HW2 4830   5.588   3.714   4.344
 1311SOL     OW 4831   6.166   6.765   4.674
 1311SOL    HW1 4832   6.264   6.755   4.654
 1311SOL    HW2 4833   6.143   6.712   4.756
 1312SOL     OW 4834   0.245   0.329   0.290
 1312SOL    HW1 4835   0.329   0.382   0.297
 1312SOL    HW2 4836   0.188   0.367   0.217
 1313SOL     OW 4837   3.540   5.108   5.154
 1313SOL    HW1 4838   3.632   5.073   5.142
 1313SOL    HW2 4839   3.492   5.055   5.224
 1314SOL     OW 4840   1.152   1.687   5.393
 1314SOL    HW1 4841   1.074   1.729   5.345
 1314SOL    HW2 4842   1.216   1.649   5.326
 1315SOL     OW 4843   2.112   1.637   1.548
 1315SOL    HW1 4844   2.198   1.586   1.548
 1315SOL    HW2 4845   2.059   1.613   1.629
 1316SOL     OW 4846   2.727   6.856   3.986
 1316SOL    HW1 4847   2.691   6.901   3.905
 1316SOL    HW2 4848   2.652   6.838   4.050
 1317SOL     OW 4849   6.871   4.933   4.625
 1317SOL    HW1 4850   6.928   4.926   4.707
 1317SOL    HW2 4851   6.827   5.023   4.623
 1318SOL     OW 4852   0.156   0.091   7.001
 1318SOL    HW1 4853   0.100   0.014   0.006
 1318SOL    HW2 4854   0.097   0.163   6.965
 1319SOL     OW 4855   6.024   1.487   0.508
 1319SOL    HW1 4856   5.993   1.406   0.459
 1319SOL    HW2 4857   6.082   1.459   0.584
 1320SOL     OW 4858   6.060   4.479   6.084
 1320SOL    HW1 4859   6.010   4.520   6.161
 1320SOL    HW2 4860   6.094   4.389   6.111
 1321SOL     OW 4861   3.891   2.688   0.097
 1321SOL    HW1 4862   3.819   2.644   0.152
 1321SOL    HW2 4863   3.904   2.635   0.013
 1322SOL     OW 4864   6.502   1.543   3.721
 1322SOL    HW1 4865   6.562   1.492   3.659
 1322SOL    HW2 4866   6.532   1.528   3.816
 1323SOL     OW 4867   0.679   1.676   5.099
 1323SOL    HW1 4868   0.705   1.717   5.011
 1323SOL    HW2 4869   0.699   1.578   5.097
 1324SOL     OW 4870   1.258   3.226   1.449
 1324SOL    HW1 4871   1.252   3.167   1.529
 1324SOL    HW2 4872   1.179   3.210   1.389
 1325SOL     OW 4873   2.117   6.485   3.526
 1325SOL    HW1 4874   2.069   6.436   3.599
 1325SOL    HW2 4875   2.057   6.555   3.488
 1326SOL     OW 4876   5.653   2.734   4.549
 1326SOL    HW1 4877   5.696   2.645   4.535
 1326SOL    HW2 4878   5.554   2.722   4.554
 1327SOL     OW 4879   3.370   4.863   3.567
 1327SOL    HW1 4880   3.452   4.825   3.608
 1327SOL    HW2 4881   3.395   4.918   3.487
 1328SOL     OW 4882   1.668   1.892   0.075
 1328SOL    HW1 4883   1.706   1.889   7.007
 1328SOL    HW2 4884   1.712   1.965   0.126
 1329SOL     OW 4885   0.742   1.131   0.646
 1329SOL    HW1 4886   0.811   1.172   0.705
 1329SOL    HW2 4887   0.776   1.129   0.552
 1330SOL     OW 4888   6.680   0.313   1.063
 1330SOL    HW1 4889   6.709   0.335   0.970
 1330SOL    HW2 4890   6.752   0.339   1.127
 1331SOL     OW 4891   5.880   0.340   2.201
 1331SOL    HW1 4892   5.831   0.295   2.127
 1331SOL    HW2 4893   5.859   0.438   2.200
 1332SOL     OW 4894   4.444   1.295   1.424
 1332SOL    HW1 4895   4.394   1.380   1.446
 1332SOL    HW2 4896   4.496   1.267   1.505
 1333SOL     OW 4897   4.031   3.822   5.039
 1333SOL    HW1 4898   3.984   3.763   4.974
 1333SOL    HW2 4899   4.111   3.774   5.075
 1334SOL     OW 4900   1.021   3.905   5.438
 1334SOL    HW1 4901   0.940   3.862   5.400
 1334SOL    HW2 4902   1.002   4.001   5.458
 1335SOL     OW 4903   1.916   5.649   2.956
 1335SOL    HW1 4904   1.969   5.688   2.880
 1335SOL    HW2 4905   1.978   5.626   3.031
 1336SOL     OW 4906   0.814   1.166   5.471
 1336SOL    HW1 4907   0.779   1.209   5.554
 1336SOL    HW2 4908   0.738   1.144   5.410
 1337SOL     OW 4909   1.547   1.913   6.414
 1337SOL    HW1 4910   1.587   1.994   6.458
 1337SOL    HW2 4911   1.533   1.932   6.316
 1338SOL     OW 4912   4.288   4.644   6.681
 1338SOL    HW1 4913   4.270   4.742   6.676
 1338SOL    HW2 4914   4.268   4.601   6.593
 1339SOL     OW 4915   6.944   3.995   5.922
 1339SOL    HW1 4916   6.960   4.013   6.019
 1339SOL    HW2 4917   6.849   3.967   5.909
 1340SOL     OW 4918   1.739   2.152   0.185
 1340SOL    HW1 4919   1.683   2.224   0.145
 1340SOL    HW2 4920   1.691   2.114   0.264
 1341SOL     OW 4921   2.982   1.671   3.512
 1341SOL    HW1 4922   2.966   1.712   3.602
 1341SOL    HW2 4923   2.894   1.647   3.471
 1342SOL     OW 4924   1.042   5.878   0.090
 1342SOL    HW1 4925   1.017   5.903   7.022
 1342SOL    HW2 4926   1.107   5.945   0.126
 1343SOL     OW 4927   4.052   6.001   2.499
 1343SOL    HW1 4928   3.957   5.984   2.471
 1343SOL    HW2 4929   4.109   6.011   2.418
 1344SOL     OW 4930   6.553   1.157   2.684
 1344SOL    HW1 4931   6.486   1.148   2.758
 1344SOL    HW2 4932   6.510   1.199   2.604
 1345SOL     OW 4933   0.760   0.575   2.931
 1345SOL    HW1 4934   0.672   0.608   2.964
 1345SOL    HW2 4935   0.823   0.566   3.009
 1346SOL     OW 4936   6.595   0.481   3.894
 1346SOL    HW1 4937   6.604   0.385   3.921
 1346SOL    HW2 4938   6.617   0.492   3.797
 1347SOL     OW 4939   6.414   6.606   3.133
 1347SOL    HW1 4940   6.449   6.677   3.194
 1347SOL    HW2 4941   6.326   6.573   3.168
 1348SOL     OW 4942   5.581   4.618   3.985
 1348SOL    HW1 4943   5.539   4.605   4.075
 1348SOL    HW2 4944   5.608   4.529   3.949
 1349SOL     OW 4945   3.738   2.442   0.014
 1349SOL    HW1 4946   3.649   2.446   0.059
 1349SOL    HW2 4947   3.810   2.441   0.084
 1350SOL     OW 4948   2.994   7.008   6.663
 1350SOL    HW1 4949   2.921   6.974   6.605
 1350SOL    HW2 4950   3.034   6.932   6.714
 1351SOL     OW 4951   0.152   1.183   3.414
 1351SOL    HW1 4952   0.184   1.092   3.387
 1351SOL    HW2 4953   0.053   1.188   3.405
 1352SOL     OW 4954   0.250   0.972   2.330
 1352SOL    HW1 4955   0.275   0.940   2.421
 1352SOL    HW2 4956   0.182   1.045   2.337
 1353SOL     OW 4957   0.596   4.442   4.853
 1353SOL    HW1 4958   0.692   4.443   4.881
 1353SOL    HW2 4959   0.539   4.416   4.931
 1354SOL     OW 4960   0.346   0.413   1.625
 1354SOL    HW1 4961   0.381   0.329   1.668
 1354SOL    HW2 4962   0.396   0.491   1.662
 1355SOL     OW 4963   4.927   3.393   6.869
 1355SOL    HW1 4964   4.848   3.332   6.881
 1355SOL    HW2 4965   4.930   3.424   6.774
 1356SOL     OW 4966   3.602   3.483   2.665
 1356SOL    HW1 4967   3.551   3.566   2.644
 1356SOL    HW2 4968   3.695   3.506   2.695
 1357SOL     OW 4969   2.595   2.920   5.822
 1357SOL    HW1 4970   2.529   2.989   5.851
 1357SOL    HW2 4971   2.687   2.947   5.849
 1358SOL     OW 4972   2.489   3.371   6.612
 1358SOL    HW1 4973   2.514   3.437   6.683
 1358SOL    HW2 4974   2.399   3.395   6.575
 1359SOL     OW 4975   6.393   2.938   0.861
 1359SOL    HW1 4976   6.459   2.970   0.929
 1359SOL    HW2 4977   6.388   3.005   0.787
 1360SOL     OW 4978   3.417   4.093   3.291
 1360SOL    HW1 4979   3.404   4.180   3.244
 1360SOL    HW2 4980   3.358   4.024   3.250
 1361SOL     OW 4981   0.737   6.133   6.669
 1361SOL    HW1 4982   0.795   6.190   6.611
 1361SOL    HW2 4983   0.672   6.191   6.718
 1362SOL     OW 4984   2.786   3.343   5.908
 1362SOL    HW1 4985   2.848   3.274   5.872
 1362SOL    HW2 4986   2.821   3.378   5.995
 1363SOL     OW 4987   6.200   5.450   2.362
 1363SOL    HW1 4988   6.164   5.482   2.450
 1363SOL    HW2 4989   6.288   5.493   2.344
 1364SOL     OW 4990   6.998   3.362   0.976
 1364SOL    HW1 4991   0.004   3.437   1.033
 1364SOL    HW2 4992   0.032   3.282   0.989
 1365SOL     OW 4993   0.468   3.639   6.321
 1365SOL    HW1 4994   0.456   3.690   6.236
 1365SOL    HW2 4995   0.559   3.598   6.322
 1366SOL     OW 4996   0.086   1.990   0.277
 1366SOL    HW1 4997   0.121   2.066   0.223
 1366SOL    HW2 4998   0.081   1.908   0.220
 1367SOL     OW 4999   0.166   5.534   3.954
 1367SOL    HW1 5000   0.205   5.585   4.031
 1367SOL    HW2 5001   0.095   5.589   3.910
 1368SOL     OW 5002   0.012   0.262   3.902
 1368SOL    HW1 5003   6.955   0.240   3.850
 1368SOL    HW2 5004   0.034   0.186   3.964
 1369SOL     OW 5005   2.935   6.478   3.095
 1369SOL    HW1 5006   2.991   6.410   3.048
 1369SOL    HW2 5007   2.938   6.564   3.045
 1370SOL     OW 5008   6.963   2.407   3.010
 1370SOL    HW1 5009   6.935   2.372   3.100
 1370SOL    HW2 5010   6.881   2.424   2.954
 1371SOL     OW 5011   5.551   1.202   4.442
 1371SOL    HW1 5012   5.633   1.242   4.482
 1371SOL    HW2 5013   5.472   1.224   4.499
 1372SOL     OW 5014   6.431   2.544   0.012
 1372SOL    HW1 5015   6.512   2.551   6.980
 1372SOL    HW2 5016   6.355   2.593   6.995
 1373SOL     OW 5017   4.727   2.792   2.103
 1373SOL    HW1 5018   4.726   2.875   2.047
 1373SOL    HW2 5019   4.754   2.815   2.196
 1374SOL     OW 5020   5.329   4.364   0.093
 1374SOL    HW1 5021   5.387   4.298   0.045
 1374SOL    HW2 5022   5.243   4.376   0.043
 1375SOL     OW 5023   5.811   5.899   4.840
 1375SOL    HW1 5024   5.830   5.919   4.743
 1375SOL    HW2 5025   5.882   5.939   4.897
 1376SOL     OW 5026   2.329   5.260   6.951
 1376SOL    HW1 5027   2.323   5.265   6.851
 1376SOL    HW2 5028   2.408   5.313   6.982
 1377SOL     OW 5029   1.751   2.296   2.979
 1377SOL    HW1 5030   1.775   2.383   3.022
 1377SOL    HW2 5031   1.699   2.240   3.044
 1378SOL     OW 5032   4.541   2.192   4.532
 1378SOL    HW1 5033   4.583   2.185   4.442
 1378SOL    HW2 5034   4.481   2.113   4.547
 1379SOL     OW 5035   5.572   5.487   1.138
 1379SOL    HW1 5036   5.532   5.396   1.144
 1379SOL    HW2 5037   5.500   5.553   1.113
 1380SOL     OW 5038   6.819   5.653   1.203
 1380SOL    HW1 5039   6.862   5.578   1.254
 1380SOL    HW2 5040   6.744   5.691   1.257
 1381SOL     OW 5041   6.521   2.226   5.742
 1381SOL    HW1 5042   6.567   2.256   5.825
 1381SOL    HW2 5043   6.435   2.181   5.766
 1382SOL     OW 5044   3.929   2.444   1.356
 1382SOL    HW1 5045   3.985   2.452   1.274
 1382SOL    HW2 5046   3.977   2.386   1.423
 1383SOL     OW 5047   1.269   0.421   1.796
 1383SOL    HW1 5048   1.352   0.473   1.818
 1383SOL    HW2 5049   1.274   0.332   1.840
 1384SOL     OW 5050   5.882   0.225   0.450
 1384SOL    HW1 5051   5.802   0.183   0.493
 1384SOL    HW2 5052   5.937   0.154   0.406
 1385SOL     OW 5053   1.757   5.541   2.726
 1385SOL    HW1 5054   1.788   5.587   2.809
 1385SOL    HW2 5055   1.836   5.512   2.673
 1386SOL     OW 5056   2.929   6.029   4.262
 1386SOL    HW1 5057   2.873   6.105   4.229
 1386SOL    HW2 5058   2.923   5.953   4.197
 1387SOL     OW 5059   3.862   6.033   1.757
 1387SOL    HW1 5060   3.884   6.130   1.743
 1387SOL    HW2 5061   3.774   6.025   1.804
 1388SOL     OW 5062   6.209   0.189   1.205
 1388SOL    HW1 5063   6.153   0.201   1.123
 1388SOL    HW2 5064   6.298   0.150   1.180
 1389SOL     OW 5065   6.707   0.940   2.973
 1389SOL    HW1 5066   6.657   1.024   2.996
 1389SOL    HW2 5067   6.752   0.951   2.884
 1390SOL     OW 5068   0.525   3.092   5.714
 1390SOL    HW1 5069   0.466   3.124   5.640
 1390SOL    HW2 5070   0.621   3.110   5.691
 1391SOL     OW 5071   6.994   1.954   3.463
 1391SOL    HW1 5072   0.009   1.991   3.547
 1391SOL    HW2 5073   0.037   1.897   3.417
 1392SOL     OW 5074   5.345   5.133   5.126
 1392SOL    HW1 5075   5.303   5.209   5.076
 1392SOL    HW2 5076   5.280   5.096   5.192
 1393SOL     OW 5077   4.934   6.287   6.264
 1393SOL    HW1 5078   4.983   6.209   6.301
 1393SOL    HW2 5079   4.987   6.371   6.280
 1394SOL     OW 5080   2.862   6.197   5.845
 1394SOL    HW1 5081   2.789   6.228   5.784
 1394SOL    HW2 5082   2.829   6.195   5.939
 1395SOL     OW 5083   2.917   4.420   5.792
 1395SOL    HW1 5084   2.990   4.430   5.725
 1395SOL    HW2 5085   2.948   4.456   5.880
 1396SOL     OW 5086   6.760   7.009   4.348
 1396SOL    HW1 5087   6.704   6.988   4.268
 1396SOL    HW2 5088   6.755   0.082   4.368
 1397SOL     OW 5089   6.107   0.294   4.550
 1397SOL    HW1 5090   6.169   0.232   4.598
 1397SOL    HW2 5091   6.148   0.321   4.463
 1398SOL     OW 5092   1.641   1.399   4.974
 1398SOL    HW1 5093   1.565   1.406   4.908
 1398SOL    HW2 5094   1.717   1.455   4.943
 1399SOL     OW 5095   3.125   6.137   1.488
 1399SOL    HW1 5096   3.093   6.204   1.554
 1399SOL    HW2 5097   3.187   6.072   1.533
 1400SOL     OW 5098   0.056   1.301   2.092
 1400SOL    HW1 5099   7.013   1.368   2.120
 1400SOL    HW2 5100   0.095   1.327   2.004
 1401SOL     OW 5101   0.442   1.786   5.183
 1401SOL    HW1 5102   0.481   1.848   5.251
 1401SOL    HW2 5103   0.514   1.751   5.124
 1402SOL     OW 5104   0.243   3.297   6.786
 1402SOL    HW1 5105   0.246   3.385   6.833
 1402SOL    HW2 5106   0.208   3.310   6.693
 1403SOL     OW 5107   3.310   0.293   2.075
 1403SOL    HW1 5108   3.388   0.342   2.113
 1403SOL    HW2 5109   3.232   0.301   2.138
 1404SOL     OW 5110   5.146   0.674   0.556
 1404SOL    HW1 5111   5.243   0.648   0.552
 1404SOL    HW2 5112   5.132   0.759   0.505
 1405SOL     OW 5113   1.803   4.099   1.064
 1405SOL    HW1 5114   1.853   4.080   0.979
 1405SOL    HW2 5115   1.798   4.015   1.119
 1406SOL     OW 5116   1.390   4.845   1.554
 1406SOL    HW1 5117   1.474   4.802   1.586
 1406SOL    HW2 5118   1.410   4.938   1.525
 1407SOL     OW 5119   6.673   1.220   1.981
 1407SOL    HW1 5120   6.607   1.149   1.956
 1407SOL    HW2 5121   6.740   1.181   2.045
 1408SOL     OW 5122   5.446   0.681   6.292
 1408SOL    HW1 5123   5.514   0.685   6.365
 1408SOL    HW2 5124   5.490   0.650   6.207
 1409SOL     OW 5125   0.143   0.521   4.847
 1409SOL    HW1 5126   0.104   0.456   4.782
 1409SOL    HW2 5127   0.073   0.587   4.874
 1410SOL     OW 5128   1.653   3.242   6.573
 1410SOL    HW1 5129   1.617   3.273   6.660
 1410SOL    HW2 5130   1.595   3.275   6.498
 1411SOL     OW 5131   2.025   6.667   3.227
 1411SOL    HW1 5132   2.069   6.596   3.172
 1411SOL    HW2 5133   2.082   6.749   3.226
 1412SOL     OW 5134   1.460   2.938   0.589
 1412SOL    HW1 5135   1.528   3.008   0.607
 1412SOL    HW2 5136   1.371   2.966   0.626
 1413SOL     OW 5137   2.509   0.829   4.587
 1413SOL    HW1 5138   2.456   0.824   4.502
 1413SOL    HW2 5139   2.450   0.864   4.661
 1414SOL     OW 5140   2.624   1.404   2.051
 1414SOL    HW1 5141   2.540   1.352   2.039
 1414SOL    HW2 5142   2.670   1.414   1.962
 1415SOL     OW 5143   2.740   6.154   4.672
 1415SOL    HW1 5144   2.783   6.235   4.632
 1415SOL    HW2 5145   2.670   6.119   4.610
 1416SOL     OW 5146   4.791   4.242   2.712
 1416SOL    HW1 5147   4.722   4.290   2.768
 1416SOL    HW2 5148   4.754   4.224   2.621
 1417SOL     OW 5149   2.426   2.494   6.524
 1417SOL    HW1 5150   2.402   2.494   6.621
 1417SOL    HW2 5151   2.353   2.538   6.471
 1418SOL     OW 5152   3.310   3.587   2.875
 1418SOL    HW1 5153   3.321   3.563   2.778
 1418SOL    HW2 5154   3.298   3.686   2.884
 1419SOL     OW 5155   2.778   6.833   4.621
 1419SOL    HW1 5156   2.739   6.769   4.555
 1419SOL    HW2 5157   2.803   6.784   4.704
 1420SOL     OW 5158   1.485   6.501   2.341
 1420SOL    HW1 5159   1.528   6.589   2.323
 1420SOL    HW2 5160   1.390   6.503   2.308
 1421SOL     OW 5161   1.718   2.935   3.235
 1421SOL    HW1 5162   1.770   2.938   3.320
 1421SOL    HW2 5163   1.702   2.840   3.208
 1422SOL     OW 5164   2.391   4.598   2.055
 1422SOL    HW1 5165   2.418   4.564   2.145
 1422SOL    HW2 5166   2.468   4.642   2.010
 1423SOL     OW 5167   5.851   6.396   1.667
 1423SOL    HW1 5168   5.880   6.408   1.761
 1423SOL    HW2 5169   5.803   6.478   1.635
 1424SOL     OW 5170   5.402   4.626   4.667
 1424SOL    HW1 5171   5.457   4.685   4.609
 1424SOL    HW2 5172   5.340   4.572   4.610
 1425SOL     OW 5173   1.188   5.891   4.186
 1425SOL    HW1 5174   1.138   5.909   4.102
 1425SOL    HW2 5175   1.272   5.946   4.186
 1426SOL     OW 5176   1.301   2.144   5.687
 1426SOL    HW1 5177   1.382   2.124   5.742
 1426SOL    HW2 5178   1.328   2.181   5.599
 1427SOL     OW 5179   0.121   6.885   3.122
 1427SOL    HW1 5180   0.218   6.868   3.140
 1427SOL    HW2 5181   0.101   6.867   3.026
 1428SOL     OW 5182   5.899   2.512   0.811
 1428SOL    HW1 5183   5.855   2.591   0.853
 1428SOL    HW2 5184   5.894   2.520   0.712
 1429SOL     OW 5185   5.900   1.731   0.577
 1429SOL    HW1 5186   5.924   1.807   0.517
 1429SOL    HW2 5187   5.968   1.658   0.566
 1430SOL     OW 5188   1.126   4.197   4.354
 1430SOL    HW1 5189   1.120   4.099   4.370
 1430SOL    HW2 5190   1.181   4.239   4.427
 1431SOL     OW 5191   2.123   2.283   1.736
 1431SOL    HW1 5192   2.049   2.329   1.785
 1431SOL    HW2 5193   2.151   2.201   1.786
 1432SOL     OW 5194   2.463   1.803   3.360
 1432SOL    HW1 5195   2.441   1.818   3.456
 1432SOL    HW2 5196   2.470   1.892   3.313
 1433SOL     OW 5197   4.341   1.056   4.142
 1433SOL    HW1 5198   4.437   1.063   4.115
 1433SOL    HW2 5199   4.299   0.979   4.094
 1434SOL     OW 5200   0.406   1.270   5.231
 1434SOL    HW1 5201   0.365   1.276   5.140
 1434SOL    HW2 5202   0.352   1.209   5.288
 1435SOL     OW 5203   6.354   1.053   2.247
 1435SOL    HW1 5204   6.339   0.975   2.187
 1435SOL    HW2 5205   6.326   1.029   2.340
 1436SOL     OW 5206   4.376   4.132   6.855
 1436SOL    HW1 5207   4.289   4.109   6.898
 1436SOL    HW2 5208   4.433   4.050   6.848
 1437SOL     OW 5209   2.742   2.041   4.026
 1437SOL    HW1 5210   2.678   2.007   3.957
 1437SOL    HW2 5211   2.707   2.127   4.064
 1438SOL     OW 5212   3.831   6.028   1.330
 1438SOL    HW1 5213   3.876   6.117   1.320
 1438SOL    HW2 5214   3.827   5.984   1.240
 1439SOL     OW 5215   0.200   6.067   1.589
 1439SOL    HW1 5216   0.177   6.131   1.516
 1439SOL    HW2 5217   0.299   6.067   1.604
 1440SOL     OW 5218   3.255   3.771   1.557
 1440SOL    HW1 5219   3.205   3.857   1.551
 1440SOL    HW2 5220   3.195   3.698   1.590
 1441SOL     OW 5221   6.375   0.897   1.475
 1441SOL    HW1 5222   6.445   0.962   1.507
 1441SOL    HW2 5223   6.419   0.819   1.431
 1442SOL     OW 5224   6.388   6.111   6.779
 1442SOL    HW1 5225   6.406   6.119   6.681
 1442SOL    HW2 5226   6.435   6.185   6.827
 1443SOL     OW 5227   0.572   2.605   2.715
 1443SOL    HW1 5228   0.639   2.540   2.752
 1443SOL    HW2 5229   0.493   2.609   2.776
 1444SOL     OW 5230   5.268   6.687   1.048
 1444SOL    HW1 5231   5.244   6.637   1.131
 1444SOL    HW2 5232   5.241   6.634   0.968
 1445SOL     OW 5233   0.770   3.538   2.993
 1445SOL    HW1 5234   0.807   3.498   2.909
 1445SOL    HW2 5235   0.842   3.545   3.062
 1446SOL     OW 5236   6.442   0.419   6.391
 1446SOL    HW1 5237   6.502   0.457   6.461
 1446SOL    HW2 5238   6.451   0.471   6.306
 1447SOL     OW 5239   5.680   5.220   2.900
 1447SOL    HW1 5240   5.612   5.148   2.894
 1447SOL    HW2 5241   5.658   5.281   2.977
 1448SOL     OW 5242   0.252   3.226   4.689
 1448SOL    HW1 5243   0.314   3.164   4.738
 1448SOL    HW2 5244   0.276   3.321   4.710
 1449SOL     OW 5245   1.831   4.221   5.212
 1449SOL    HW1 5246   1.866   4.297   5.266
 1449SOL    HW2 5247   1.861   4.135   5.253
 1450SOL     OW 5248   1.039   2.140   5.982
 1450SOL    HW1 5249   1.049   2.220   5.923
 1450SOL    HW2 5250   1.020   2.059   5.927
 1451SOL     OW 5251   1.391   6.040   1.811
 1451SOL    HW1 5252   1.384   6.129   1.766
 1451SOL    HW2 5253   1.331   5.975   1.765
 1452SOL     OW 5254   4.444   3.000   5.656
 1452SOL    HW1 5255   4.368   2.937   5.672
 1452SOL    HW2 5256   4.435   3.080   5.715
 1453SOL     OW 5257   0.826   4.737   5.530
 1453SOL    HW1 5258   0.753   4.694   5.582
 1453SOL    HW2 5259   0.910   4.737   5.584
 1454SOL     OW 5260   2.690   1.874   3.109
 1454SOL    HW1 5261   2.721   1.916   3.024
 1454SOL    HW2 5262   2.749   1.902   3.184
 1455SOL     OW 5263   0.963   6.235   3.063
 1455SOL    HW1 5264   1.050   6.186   3.056
 1455SOL    HW2 5265   0.932   6.233   3.158
 1456SOL     OW 5266   6.595   6.116   6.160
 1456SOL    HW1 5267   6.597   6.153   6.253
 1456SOL    HW2 5268   6.656   6.169   6.101
 1457SOL     OW 5269   0.480   4.146   0.758
 1457SOL    HW1 5270   0.520   4.058   0.783
 1457SOL    HW2 5271   0.388   4.131   0.722
 1458SOL     OW 5272   5.731   4.983   5.645
 1458SOL    HW1 5273   5.759   4.961   5.552
 1458SOL    HW2 5274   5.632   4.975   5.653
 1459SOL     OW 5275   4.982   6.845   5.930
 1459SOL    HW1 5276   5.042   6.766   5.940
 1459SOL    HW2 5277   4.960   6.858   5.833
 1460SOL     OW 5278   1.850   6.485   5.578
 1460SOL    HW1 5279   1.911   6.409   5.558
 1460SOL    HW2 5280   1.804   6.513   5.493
 1461SOL     OW 5281   0.489   3.776   3.020
 1461SOL    HW1 5282   0.472   3.857   2.964
 1461SOL    HW2 5283   0.560   3.796   3.087
 1462SOL     OW 5284   1.003   0.707   6.840
 1462SOL    HW1 5285   0.964   0.714   6.748
 1462SOL    HW2 5286   0.934   0.735   6.907
 1463SOL     OW 5287   1.772   5.426   6.622
 1463SOL    HW1 5288   1.780   5.471   6.711
 1463SOL    HW2 5289   1.728   5.488   6.557
 1464SOL     OW 5290   6.396   4.139   3.680
 1464SOL    HW1 5291   6.354   4.204   3.743
 1464SOL    HW2 5292   6.428   4.059   3.731
 1465SOL     OW 5293   1.930   1.556   3.696
 1465SOL    HW1 5294   1.859   1.622   3.719
 1465SOL    HW2 5295   1.999   1.555   3.769
 1466SOL     OW 5296   3.663   2.493   1.715
 1466SOL    HW1 5297   3.602   2.565   1.748
 1466SOL    HW2 5298   3.647   2.409   1.767
 1467SOL     OW 5299   1.338   1.421   4.124
 1467SOL    HW1 5300   1.355   1.329   4.160
 1467SOL    HW2 5301   1.383   1.431   4.035
 1468SOL     OW 5302   2.886   5.788   1.910
 1468SOL    HW1 5303   2.984   5.802   1.894
 1468SOL    HW2 5304   2.844   5.747   1.829
 1469SOL     OW 5305   6.419   6.311   3.318
 1469SOL    HW1 5306   6.321   6.320   3.297
 1469SOL    HW2 5307   6.470   6.303   3.233
 1470SOL     OW 5308   0.177   2.906   1.010
 1470SOL    HW1 5309   0.247   2.845   0.974
 1470SOL    HW2 5310   0.153   2.879   1.103
 1471SOL     OW 5311   6.947   0.225   0.672
 1471SOL    HW1 5312   6.973   0.233   0.576
 1471SOL    HW2 5313   6.876   0.155   0.682
 1472SOL     OW 5314   2.707   6.493   6.478
 1472SOL    HW1 5315   2.798   6.453   6.496
 1472SOL    HW2 5316   2.657   6.500   6.564
 1473SOL     OW 5317   3.223   4.891   5.200
 1473SOL    HW1 5318   3.250   4.896   5.104
 1473SOL    HW2 5319   3.125   4.870   5.206
 1474SOL     OW 5320   4.392   5.034   1.654
 1474SOL    HW1 5321   4.349   4.957   1.700
 1474SOL    HW2 5322   4.472   5.002   1.603
 1475SOL     OW 5323   5.141   1.382   0.346
 1475SOL    HW1 5324   5.189   1.321   0.408
 1475SOL    HW2 5325   5.049   1.346   0.328
 1476SOL     OW 5326   3.153   1.338   1.255
 1476SOL    HW1 5327   3.232   1.298   1.208
 1476SOL    HW2 5328   3.184   1.386   1.337
 1477SOL     OW 5329   4.351   6.714   0.656
 1477SOL    HW1 5330   4.277   6.776   0.630
 1477SOL    HW2 5331   4.410   6.698   0.577
 1478SOL     OW 5332   5.185   6.613   4.845
 1478SOL    HW1 5333   5.222   6.706   4.837
 1478SOL    HW2 5334   5.186   6.585   4.941
 1479SOL     OW 5335   3.781   3.985   2.151
 1479SOL    HW1 5336   3.856   4.041   2.115
 1479SOL    HW2 5337   3.742   3.930   2.078
 1480SOL     OW 5338   2.545   0.839   6.366
 1480SOL    HW1 5339   2.501   0.826   6.277
 1480SOL    HW2 5340   2.600   0.922   6.363
 1481SOL     OW 5341   5.446   2.886   5.437
 1481SOL    HW1 5342   5.445   2.793   5.401
 1481SOL    HW2 5343   5.362   2.933   5.411
 1482SOL     OW 5344   4.581   0.455   0.833
 1482SOL    HW1 5345   4.517   0.378   0.832
 1482SOL    HW2 5346   4.665   0.427   0.880
 1483SOL     OW 5347   4.512   1.850   5.684
 1483SOL    HW1 5348   4.468   1.922   5.631
 1483SOL    HW2 5349   4.492   1.761   5.644
 1484SOL     OW 5350   3.213   4.890   4.922
 1484SOL    HW1 5351   3.189   4.898   4.825
 1484SOL    HW2 5352   3.164   4.812   4.961
 1485SOL     OW 5353   4.894   1.111   3.415
 1485SOL    HW1 5354   4.917   1.191   3.360
 1485SOL    HW2 5355   4.805   1.125   3.459
 1486SOL     OW 5356   5.095   6.742   3.770
 1486SOL    HW1 5357   5.033   6.671   3.737
 1486SOL    HW2 5358   5.176   6.700   3.810
 1487SOL     OW 5359   7.010   0.748   0.131
 1487SOL    HW1 5360   7.022   0.846   0.149
 1487SOL    HW2 5361   7.011   0.698   0.217
 1488SOL     OW 5362   6.204   0.415   2.538
 1488SOL    HW1 5363   6.109   0.445   2.546
 1488SOL    HW2 5364   6.211   0.344   2.468
 1489SOL     OW 5365   4.330   4.608   6.947
 1489SOL    HW1 5366   4.411   4.550   6.954
 1489SOL    HW2 5367   4.297   4.610   6.852
 1490SOL     OW 5368   0.491   2.348   1.890
 1490SOL    HW1 5369   0.432   2.314   1.817
 1490SOL    HW2 5370   0.469   2.301   1.976
 1491SOL     OW 5371   6.672   3.503   1.904
 1491SOL    HW1 5372   6.620   3.423   1.874
 1491SOL    HW2 5373   6.727   3.479   1.984
 1492SOL     OW 5374   6.658   0.596   2.378
 1492SOL    HW1 5375   6.699   0.658   2.444
 1492SOL    HW2 5376   6.562   0.581   2.401
 1493SOL     OW 5377   4.288   1.369   5.499
 1493SOL    HW1 5378   4.201   1.325   5.480
 1493SOL    HW2 5379   4.344   1.310   5.557
 1494SOL     OW 5380   5.337   2.361   5.949
 1494SOL    HW1 5381   5.307   2.383   5.856
 1494SOL    HW2 5382   5.353   2.445   6.000
 1495SOL     OW 5383   6.030   3.497   3.844
 1495SOL    HW1 5384   6.008   3.417   3.900
 1495SOL    HW2 5385   5.962   3.569   3.860
 1496SOL     OW 5386   0.202   6.563   0.131
 1496SOL    HW1 5387   0.231   6.657   0.109
 1496SOL    HW2 5388   0.262   6.498   0.084
 1497SOL     OW 5389   5.332   2.017   3.409
 1497SOL    HW1 5390   5.312   1.949   3.339
 1497SOL    HW2 5391   5.383   1.973   3.484
 1498SOL     OW 5392   2.855   4.386   1.433
 1498SOL    HW1 5393   2.809   4.399   1.521
 1498SOL    HW2 5394   2.911   4.467   1.412
 1499SOL     OW 5395   0.039   3.778   5.789
 1499SOL    HW1 5396   7.021   3.866   5.807
 1499SOL    HW2 5397   0.006   3.710   5.855
 1500SOL     OW 5398   0.903   5.765   0.453
 1500SOL    HW1 5399   0.869   5.676   0.484
 1500SOL    HW2 5400   0.888   5.775   0.355
 1501SOL     OW 5401   5.972   1.810   6.363
 1501SOL    HW1 5402   6.060   1.853   6.385
 1501SOL    HW2 5403   5.967   1.793   6.265
 1502SOL     OW 5404   6.997   1.001   6.011
 1502SOL    HW1 5405   6.912   1.052   5.997
 1502SOL    HW2 5406   0.026   1.046   6.082
 1503SOL     OW 5407   0.613   3.691   2.064
 1503SOL    HW1 5408   0.620   3.685   1.965
 1503SOL    HW2 5409   0.553   3.768   2.089
 1504SOL     OW 5410   0.499   6.999   3.874
 1504SOL    HW1 5411   0.592   6.995   3.910
 1504SOL    HW2 5412   0.468   0.069   3.875
 1505SOL     OW 5413   5.845   6.366   5.199
 1505SOL    HW1 5414   5.845   6.453   5.149
 1505SOL    HW2 5415   5.922   6.364   5.263
 1506SOL     OW 5416   1.609   0.608   0.995
 1506SOL    HW1 5417   1.559   0.531   1.033
 1506SOL    HW2 5418   1.545   0.680   0.968
 1507SOL     OW 5419   1.235   1.794   4.249
 1507SOL    HW1 5420   1.152   1.836   4.214
 1507SOL    HW2 5421   1.280   1.742   4.176
 1508SOL     OW 5422   0.562   1.340   0.343
 1508SOL    HW1 5423   0.505   1.296   0.413
 1508SOL    HW2 5424   0.606   1.269   0.288
 1509SOL     OW 5425   5.122   1.393   4.786
 1509SOL    HW1 5426   5.128   1.377   4.885
 1509SOL    HW2 5427   5.080   1.314   4.741
 1510SOL     OW 5428   4.037   6.811   3.984
 1510SOL    HW1 5429   4.077   6.767   3.904
 1510SOL    HW2 5430   4.091   6.891   4.009
 1511SOL     OW 5431   3.146   4.046   4.537
 1511SOL    HW1 5432   3.131   4.094   4.623
 1511SOL    HW2 5433   3.244   4.045   4.515
 1512SOL     OW 5434   6.111   5.783   0.918
 1512SOL    HW1 5435   6.098   5.876   0.883
 1512SOL    HW2 5436   6.092   5.717   0.845
 1513SOL     OW 5437   3.123   6.829   5.933
 1513SOL    HW1 5438   3.150   6.813   5.838
 1513SOL    HW2 5439   3.090   6.744   5.973
 1514SOL     OW 5440   3.601   2.400   5.643
 1514SOL    HW1 5441   3.553   2.438   5.721
 1514SOL    HW2 5442   3.535   2.367   5.575
 1515SOL     OW 5443   6.751   1.851   2.912
 1515SOL    HW1 5444   6.654   1.873   2.901
 1515SOL    HW2 5445   6.799   1.929   2.952
 1516SOL     OW 5446   6.365   6.078   4.395
 1516SOL    HW1 5447   6.274   6.081   4.353
 1516SOL    HW2 5448   6.366   6.134   4.477
 1517SOL     OW 5449   3.612   6.554   3.395
 1517SOL    HW1 5450   3.550   6.495   3.447
 1517SOL    HW2 5451   3.677   6.597   3.457
 1518SOL     OW 5452   6.669   2.566   6.908
 1518SOL    HW1 5453   6.663   2.649   6.853
 1518SOL    HW2 5454   6.749   2.571   6.968
 1519SOL     OW 5455   6.964   4.983   0.674
 1519SOL    HW1 5456   6.993   4.946   0.763
 1519SOL    HW2 5457   6.991   5.079   0.668
 1520SOL     OW 5458   1.077   4.820   1.306
 1520SOL    HW1 5459   0.998   4.822   1.366
 1520SOL    HW2 5460   1.094   4.727   1.275
 1521SOL     OW 5461   2.989   4.626   7.001
 1521SOL    HW1 5462   2.892   4.612   6.977
 1521SOL    HW2 5463   2.998   4.707   0.032
 1522SOL     OW 5464   5.350   5.827   5.070
 1522SOL    HW1 5465   5.334   5.826   5.169
 1522SOL    HW2 5466   5.286   5.766   5.025
 1523SOL     OW 5467   3.456   0.079   6.618
 1523SOL    HW1 5468   3.410   0.007   6.566
 1523SOL    HW2 5469   3.388   0.141   6.657
 1524SOL     OW 5470   2.439   2.315   3.084
 1524SOL    HW1 5471   2.507   2.252   3.119
 1524SOL    HW2 5472   2.457   2.407   3.118
 1525SOL     OW 5473   6.137   2.764   0.841
 1525SOL    HW1 5474   6.221   2.811   0.813
 1525SOL    HW2 5475   6.069   2.770   0.768
 1526SOL     OW 5476   0.696   1.620   6.931
 1526SOL    HW1 5477   0.712   1.646   6.836
 1526SOL    HW2 5478   0.732   1.690   6.992
 1527SOL     OW 5479   3.768   1.375   5.123
 1527SOL    HW1 5480   3.814   1.421   5.047
 1527SOL    HW2 5481   3.670   1.371   5.105
 1528SOL     OW 5482   4.590   4.042   0.854
 1528SOL    HW1 5483   4.598   4.141   0.851
 1528SOL    HW2 5484   4.588   4.006   0.760
 1529SOL     OW 5485   5.509   1.252   6.695
 1529SOL    HW1 5486   5.474   1.319   6.631
 1529SOL    HW2 5487   5.520   1.294   6.785
 1530SOL     OW 5488   3.303   0.468   1.698
 1530SOL    HW1 5489   3.393   0.494   1.734
 1530SOL    HW2 5490   3.284   0.521   1.616
 1531SOL     OW 5491   4.070   0.410   3.747
 1531SOL    HW1 5492   4.061   0.348   3.825
 1531SOL    HW2 5493   4.069   0.504   3.779
 1532SOL     OW 5494   3.561   4.657   5.831
 1532SOL    HW1 5495   3.466   4.635   5.806
 1532SOL    HW2 5496   3.618   4.652   5.749
 1533SOL     OW 5497   5.539   5.908   0.958
 1533SOL    HW1 5498   5.627   5.861   0.956
 1533SOL    HW2 5499   5.534   5.968   1.038
 1534SOL     OW 5500   3.559   5.829   0.236
 1534SOL    HW1 5501   3.510   5.790   0.314
 1534SOL    HW2 5502   3.493   5.853   0.165
 1535SOL     OW 5503   5.983   6.938   4.757
 1535SOL    HW1 5504   5.950   7.021   4.714
 1535SOL    HW2 5505   6.051   6.895   4.698
 1536SOL     OW 5506   4.102   4.394   6.863
 1536SOL    HW1 5507   4.154   4.370   6.781
 1536SOL    HW2 5508   4.166   4.412   6.939
 1537SOL     OW 5509   3.580   5.300   3.857
 1537SOL    HW1 5510   3.538   5.351   3.782
 1537SOL    HW2 5511   3.570   5.202   3.841
 1538SOL     OW 5512   3.432   1.483   0.092
 1538SOL    HW1 5513   3.462   1.390   0.113
 1538SOL    HW2 5514   3.491   1.522   0.021
 1539SOL     OW 5515   4.968   3.026   1.634
 1539SOL    HW1 5516   4.938   2.976   1.553
 1539SOL    HW2 5517   4.976   2.963   1.711
 1540SOL     OW 5518   1.374   6.900   5.193
 1540SOL    HW1 5519   1.365   6.992   5.231
 1540SOL    HW2 5520   1.283   6.857   5.189
 1541SOL     OW 5521   4.065   3.293   4.811
 1541SOL    HW1 5522   4.120   3.336   4.882
 1541SOL    HW2 5523   3.995   3.358   4.780
 1542SOL     OW 5524   6.593   6.377   2.101
 1542SOL    HW1 5525   6.495   6.390   2.117
 1542SOL    HW2 5526   6.607   6.295   2.044
 1543SOL     OW 5527   3.460   5.618   6.057
 1543SOL    HW1 5528   3.486   5.714   6.058
 1543SOL    HW2 5529   3.420   5.594   5.969
 1544SOL     OW 5530   3.868   3.668   4.110
 1544SOL    HW1 5531   3.785   3.636   4.064
 1544SOL    HW2 5532   3.861   3.651   4.208
 1545SOL     OW 5533   5.834   0.379   1.716
 1545SOL    HW1 5534   5.866   0.293   1.676
 1545SOL    HW2 5535   5.907   0.447   1.711
 1546SOL     OW 5536   5.247   0.051   5.831
 1546SOL    HW1 5537   5.207   0.029   5.920
 1546SOL    HW2 5538   5.330   7.022   5.818
 1547SOL     OW 5539   1.402   4.393   0.947
 1547SOL    HW1 5540   1.475   4.327   0.965
 1547SOL    HW2 5541   1.442   4.484   0.933
 1548SOL     OW 5542   6.591   3.322   0.134
 1548SOL    HW1 5543   6.613   3.242   0.191
 1548SOL    HW2 5544   6.492   3.331   0.126
 1549SOL     OW 5545   3.839   1.161   4.331
 1549SOL    HW1 5546   3.936   1.178   4.350
 1549SOL    HW2 5547   3.794   1.131   4.415
 1550SOL     OW 5548   3.907   2.972   2.687
 1550SOL    HW1 5549   3.863   2.907   2.748
 1550SOL    HW2 5550   3.980   3.020   2.736
 1551SOL     OW 5551   1.293   4.986   0.224
 1551SOL    HW1 5552   1.361   4.941   0.166
 1551SOL    HW2 5553   1.201   4.957   0.196
 1552SOL     OW 5554   2.741   4.614   0.880
 1552SOL    HW1 5555   2.793   4.594   0.963
 1552SOL    HW2 5556   2.711   4.528   0.838
 1553SOL     OW 5557   0.311   1.491   6.449
 1553SOL    HW1 5558   0.238   1.559   6.456
 1553SOL    HW2 5559   0.341   1.464   6.541
 1554SOL     OW 5560   2.963   1.933   3.703
 1554SOL    HW1 5561   3.007   1.986   3.630
 1554SOL    HW2 5562   2.917   1.996   3.766
 1555SOL     OW 5563   5.702   2.674   5.955
 1555SOL    HW1 5564   5.755   2.703   5.876
 1555SOL    HW2 5565   5.628   2.739   5.972
 1556SOL     OW 5566   2.060   1.092   6.302
 1556SOL    HW1 5567   1.978   1.069   6.250
 1556SOL    HW2 5568   2.101   1.009   6.339
 1557SOL     OW 5569   1.850   3.659   6.125
 1557SOL    HW1 5570   1.947   3.671   6.143
 1557SOL    HW2 5571   1.836   3.638   6.028
 1558SOL     OW 5572   6.368   0.626   4.596
 1558SOL    HW1 5573   6.320   0.597   4.679
 1558SOL    HW2 5574   6.438   0.558   4.573
 1559SOL     OW 5575   0.819   2.546   6.679
 1559SOL    HW1 5576   0.872   2.600   6.613
 1559SOL    HW2 5577   0.869   2.463   6.702
 1560SOL     OW 5578   0.203   1.192   6.579
 1560SOL    HW1 5579   0.288   1.162   6.623
 1560SOL    HW2 5580   0.218   1.280   6.534
 1561SOL     OW 5581   4.498   5.929   2.965
 1561SOL    HW1 5582   4.527   5.848   2.914
 1561SOL    HW2 5583   4.457   5.901   3.052
 1562SOL     OW 5584   4.309   6.667   1.839
 1562SOL    HW1 5585   4.279   6.730   1.911
 1562SOL    HW2 5586   4.311   6.574   1.876
 1563SOL     OW 5587   3.595   0.767   6.191
 1563SOL    HW1 5588   3.611   0.744   6.095
 1563SOL    HW2 5589   3.574   0.684   6.242
 1564SOL     OW 5590   1.590   0.516   2.380
 1564SOL    HW1 5591   1.491   0.529   2.372
 1564SOL    HW2 5592   1.625   0.576   2.452
 1565SOL     OW 5593   4.861   3.839   2.180
 1565SOL    HW1 5594   4.837   3.930   2.145
 1565SOL    HW2 5595   4.798   3.772   2.143
 1566SOL     OW 5596   5.382   3.844   3.562
 1566SOL    HW1 5597   5.336   3.757   3.544
 1566SOL    HW2 5598   5.315   3.912   3.593
 1567SOL     OW 5599   5.884   6.296   6.549
 1567SOL    HW1 5600   5.872   6.250   6.636
 1567SOL    HW2 5601   5.824   6.376   6.545
 1568SOL     OW 5602   1.010   0.266   0.317
 1568SOL    HW1 5603   1.001   0.362   0.344
 1568SOL    HW2 5604   1.094   0.228   0.357
 1569SOL     OW 5605   4.130   6.459   4.243
 1569SOL    HW1 5606   4.109   6.494   4.152
 1569SOL    HW2 5607   4.216   6.499   4.275
 1570SOL     OW 5608   2.787   1.395   1.796
 1570SOL    HW1 5609   2.722   1.319   1.798
 1570SOL    HW2 5610   2.834   1.396   1.708
 1571SOL     OW 5611   6.068   2.917   1.550
 1571SOL    HW1 5612   6.104   2.999   1.505
 1571SOL    HW2 5613   6.092   2.837   1.495
 1572SOL     OW 5614   0.496   0.440   2.424
 1572SOL    HW1 5615   0.562   0.472   2.492
 1572SOL    HW2 5616   0.414   0.498   2.428
 1573SOL     OW 5617   5.143   6.589   1.867
 1573SOL    HW1 5618   5.110   6.552   1.781
 1573SOL    HW2 5619   5.199   6.670   1.850
 1574SOL     OW 5620   0.415   1.967   1.818
 1574SOL    HW1 5621   0.454   1.904   1.751
 1574SOL    HW2 5622   0.489   2.014   1.866
 1575SOL     OW 5623   2.526   2.470   0.567
 1575SOL    HW1 5624   2.514   2.415   0.650
 1575SOL    HW2 5625   2.436   2.497   0.532
 1576SOL     OW 5626   5.219   6.282   3.852
 1576SOL    HW1 5627   5.196   6.329   3.937
 1576SOL    HW2 5628   5.208   6.184   3.864
 1577SOL     OW 5629   2.204   1.238   5.375
 1577SOL    HW1 5630   2.118   1.284   5.356
 1577SOL    HW2 5631   2.231   1.255   5.470
 1578SOL     OW 5632   5.704   3.971   5.121
 1578SOL    HW1 5633   5.629   4.032   5.094
 1578SOL    HW2 5634   5.751   4.010   5.200
 1579SOL     OW 5635   0.553   1.292   3.071
 1579SOL    HW1 5636   0.529   1.341   3.155
 1579SOL    HW2 5637   0.484   1.310   3.001
 1580SOL     OW 5638   2.781   4.146   5.225
 1580SOL    HW1 5639   2.682   4.137   5.208
 1580SOL    HW2 5640   2.797   4.224   5.285
 1581SOL     OW 5641   6.371   4.052   4.179
 1581SOL    HW1 5642   6.416   3.973   4.138
 1581SOL    HW2 5643   6.318   4.100   4.109
 1582SOL     OW 5644   0.277   4.999   4.575
 1582SOL    HW1 5645   0.208   4.983   4.505
 1582SOL    HW2 5646   0.237   5.051   4.650
 1583SOL     OW 5647   2.063   3.021   3.824
 1583SOL    HW1 5648   2.128   3.021   3.748
 1583SOL    HW2 5649   2.058   2.930   3.864
 1584SOL     OW 5650   2.571   6.691   5.274
 1584SOL    HW1 5651   2.612   6.780   5.295
 1584SOL    HW2 5652   2.557   6.640   5.359
 1585SOL     OW 5653   5.387   2.183   3.192
 1585SOL    HW1 5654   5.312   2.202   3.128
 1585SOL    HW2 5655   5.351   2.131   3.270
 1586SOL     OW 5656   3.847   3.892   2.395
 1586SOL    HW1 5657   3.834   3.933   2.305
 1586SOL    HW2 5658   3.929   3.836   2.396
 1587SOL     OW 5659   3.352   6.196   6.806
 1587SOL    HW1 5660   3.292   6.116   6.814
 1587SOL    HW2 5661   3.329   6.262   6.877
 1588SOL     OW 5662   5.301   1.367   2.816
 1588SOL    HW1 5663   5.375   1.348   2.752
 1588SOL    HW2 5664   5.220   1.397   2.766
 1589SOL     OW 5665   5.377   4.555   3.696
 1589SOL    HW1 5666   5.452   4.620   3.710
 1589SOL    HW2 5667   5.291   4.598   3.723
 1590SOL     OW 5668   1.588   6.588   0.047
 1590SOL    HW1 5669   1.642   6.552   6.996
 1590SOL    HW2 5670   1.649   6.618   0.121
 1591SOL     OW 5671   1.236   5.135   2.150
 1591SOL    HW1 5672   1.175   5.202   2.108
 1591SOL    HW2 5673   1.275   5.173   2.233
 1592SOL     OW 5674   3.243   3.345   2.579
 1592SOL    HW1 5675   3.303   3.323   2.657
 1592SOL    HW2 5676   3.209   3.260   2.539
 1593SOL     OW 5677   0.300   6.477   4.507
 1593SOL    HW1 5678   0.218   6.461   4.562
 1593SOL    HW2 5679   0.323   6.394   4.457
 1594SOL     OW 5680   6.681   5.431   2.760
 1594SOL    HW1 5681   6.644   5.489   2.832
 1594SOL    HW2 5682   6.705   5.342   2.797
 1595SOL     OW 5683   0.515   4.605   6.579
 1595SOL    HW1 5684   0.462   4.571   6.657
 1595SOL    HW2 5685   0.453   4.636   6.507
 1596SOL     OW 5686   1.898   5.059   6.098
 1596SOL    HW1 5687   1.995   5.037   6.087
 1596SOL    HW2 5688   1.880   5.081   6.194
 1597SOL     OW 5689   2.123   6.369   2.018
 1597SOL    HW1 5690   2.072   6.363   2.103
 1597SOL    HW2 5691   2.078   6.433   1.956
 1598SOL     OW 5692   0.727   4.226   1.080
 1598SOL    HW1 5693   0.758   4.289   1.152
 1598SOL    HW2 5694   0.699   4.279   1.000
 1599SOL     OW 5695   3.811   4.354   6.589
 1599SOL    HW1 5696   3.755   4.374   6.670
 1599SOL    HW2 5697   3.758   4.301   6.523
 1600SOL     OW 5698   5.104   1.639   5.167
 1600SOL    HW1 5699   5.095   1.539   5.171
 1600SOL    HW2 5700   5.020   1.681   5.201
 1601SOL     OW 5701   1.624   4.845   5.183
 1601SOL    HW1 5702   1.527   4.861   5.205
 1601SOL    HW2 5703   1.633   4.832   5.084
 1602SOL     OW 5704   1.514   6.099   3.397
 1602SOL    HW1 5705   1.605   6.060   3.385
 1602SOL    HW2 5706   1.492   6.158   3.320
 1603SOL     OW 5707   0.775   6.408   2.154
 1603SOL    HW1 5708   0.697   6.466   2.173
 1603SOL    HW2 5709   0.822   6.440   2.071
 1604SOL     OW 5710   6.701   5.403   6.831
 1604SOL    HW1 5711   6.641   5.402   6.751
 1604SOL    HW2 5712   6.768   5.478   6.821
 1605SOL     OW 5713   6.359   0.331   2.758
 1605SOL    HW1 5714   6.399   0.390   2.828
 1605SOL    HW2 5715   6.297   0.384   2.700
 1606SOL     OW 5716   4.754   7.002   5.372
 1606SOL    HW1 5717   4.791   6.978   5.282
 1606SOL    HW2 5718   4.654   7.004   5.367
 1607SOL     OW 5719   4.042   2.212   1.184
 1607SOL    HW1 5720   4.048   2.183   1.280
 1607SOL    HW2 5721   4.115   2.168   1.132
 1608SOL     OW 5722   2.561   0.055   0.418
 1608SOL    HW1 5723   2.609   0.064   0.331
 1608SOL    HW2 5724   2.532   6.985   0.431
 1609SOL     OW 5725   5.580   2.118   5.746
 1609SOL    HW1 5726   5.508   2.099   5.813
 1609SOL    HW2 5727   5.625   2.204   5.768
 1610SOL     OW 5728   6.058   5.987   4.671
 1610SOL    HW1 5729   6.057   5.893   4.636
 1610SOL    HW2 5730   6.059   6.051   4.595
 1611SOL     OW 5731   3.733   3.048   2.435
 1611SOL    HW1 5732   3.694   2.994   2.360
 1611SOL    HW2 5733   3.773   2.987   2.504
 1612SOL     OW 5734   2.613   1.720   4.803
 1612SOL    HW1 5735   2.594   1.816   4.827
 1612SOL    HW2 5736   2.711   1.709   4.786
 1613SOL     OW 5737   1.941   6.080   0.628
 1613SOL    HW1 5738   1.882   5.999   0.624
 1613SOL    HW2 5739   1.979   6.089   0.720
 1614SOL     OW 5740   6.098   2.270   6.675
 1614SOL    HW1 5741   6.140   2.259   6.765
 1614SOL    HW2 5742   6.007   2.228   6.675
 1615SOL     OW 5743   7.010   4.377   6.691
 1615SOL    HW1 5744   6.953   4.297   6.674
 1615SOL    HW2 5745   6.965   4.459   6.658
 1616SOL     OW 5746   3.799   1.853   6.136
 1616SOL    HW1 5747   3.890   1.894   6.127
 1616SOL    HW2 5748   3.790   1.778   6.071
 1617SOL     OW 5749   5.782   0.778   2.710
 1617SOL    HW1 5750   5.724   0.718   2.766
 1617SOL    HW2 5751   5.749   0.778   2.616
 1618SOL     OW 5752   6.756   3.538   1.453
 1618SOL    HW1 5753   6.761   3.581   1.543
 1618SOL    HW2 5754   6.672   3.567   1.407
 1619SOL     OW 5755   1.168   3.431   4.141
 1619SOL    HW1 5756   1.201   3.475   4.057
 1619SOL    HW2 5757   1.077   3.467   4.164
 1620SOL     OW 5758   2.282   5.928   1.271
 1620SOL    HW1 5759   2.357   5.954   1.210
 1620SOL    HW2 5760   2.319   5.883   1.352
 1621SOL     OW 5761   0.633   0.403   0.901
 1621SOL    HW1 5762   0.560   0.336   0.917
 1621SOL    HW2 5763   0.662   0.399   0.805
 1622SOL     OW 5764   1.885   1.760   4.370
 1622SOL    HW1 5765   1.896   1.756   4.271
 1622SOL    HW2 5766   1.906   1.671   4.410
 1623SOL     OW 5767   2.384   2.739   6.128
 1623SOL    HW1 5768   2.355   2.692   6.045
 1623SOL    HW2 5769   2.341   2.697   6.207
 1624SOL     OW 5770   3.528   1.307   6.816
 1624SOL    HW1 5771   3.550   1.259   6.901
 1624SOL    HW2 5772   3.570   1.258   6.739
 1625SOL     OW 5773   0.819   5.187   2.284
 1625SOL    HW1 5774   0.755   5.131   2.338
 1625SOL    HW2 5775   0.811   5.162   2.187
 1626SOL     OW 5776   2.268   3.129   6.195
 1626SOL    HW1 5777   2.297   3.113   6.100
 1626SOL    HW2 5778   2.170   3.151   6.196
 1627SOL     OW 5779   6.341   2.173   3.619
 1627SOL    HW1 5780   6.336   2.112   3.540
 1627SOL    HW2 5781   6.297   2.260   3.596
 1628SOL     OW 5782   3.087   4.996   1.080
 1628SOL    HW1 5783   3.000   5.022   1.038
 1628SOL    HW2 5784   3.111   5.064   1.149
 1629SOL     OW 5785   3.593   1.949   4.525
 1629SOL    HW1 5786   3.526   1.891   4.479
 1629SOL    HW2 5787   3.667   1.971   4.461
 1630SOL     OW 5788   0.841   5.103   5.662
 1630SOL    HW1 5789   0.853   5.196   5.696
 1630SOL    HW2 5790   0.744   5.084   5.650
 1631SOL     OW 5791   0.295   0.370   5.579
 1631SOL    HW1 5792   0.294   0.432   5.657
 1631SOL    HW2 5793   0.254   0.414   5.500
 1632SOL     OW 5794   0.022   0.994   0.232
 1632SOL    HW1 5795   7.022   0.983   0.328
 1632SOL    HW2 5796   0.056   1.087   0.217
 1633SOL     OW 5797   5.980   1.729   3.120
 1633SOL    HW1 5798   6.073   1.702   3.098
 1633SOL    HW2 5799   5.965   1.824   3.092
 1634SOL     OW 5800   3.158   6.333   6.176
 1634SOL    HW1 5801   3.200   6.385   6.250
 1634SOL    HW2 5802   3.088   6.272   6.214
 1635SOL     OW 5803   0.401   5.488   4.826
 1635SOL    HW1 5804   0.423   5.552   4.900
 1635SOL    HW2 5805   0.348   5.536   4.756
 1636SOL     OW 5806   2.614   5.561   1.624
 1636SOL    HW1 5807   2.601   5.527   1.531
 1636SOL    HW2 5808   2.631   5.659   1.622
 1637SOL     OW 5809   0.028   3.080   2.382
 1637SOL    HW1 5810   0.085   3.001   2.406
 1637SOL    HW2 5811   7.021   3.070   2.288
 1638SOL     OW 5812   0.302   3.380   4.131
 1638SOL    HW1 5813   0.255   3.440   4.195
 1638SOL    HW2 5814   0.352   3.435   4.064
 1639SOL     OW 5815   4.819   5.744   2.848
 1639SOL    HW1 5816   4.720   5.734   2.855
 1639SOL    HW2 5817   4.841   5.815   2.781
 1640SOL     OW 5818   6.484   1.462   0.425
 1640SOL    HW1 5819   6.465   1.405   0.504
 1640SOL    HW2 5820   6.458   1.413   0.342
 1641SOL     OW 5821   6.234   2.994   4.335
 1641SOL    HW1 5822   6.270   2.985   4.242
 1641SOL    HW2 5823   6.195   2.907   4.364
 1642SOL     OW 5824   6.907   2.354   0.234
 1642SOL    HW1 5825   6.845   2.281   0.261
 1642SOL    HW2 5826   6.986   2.315   0.186
 1643SOL     OW 5827   3.243   6.517   5.416
 1643SOL    HW1 5828   3.222   6.428   5.376
 1643SOL    HW2 5829   3.260   6.584   5.344
 1644SOL     OW 5830   3.214   2.014   1.461
 1644SOL    HW1 5831   3.163   1.929   1.447
 1644SOL    HW2 5832   3.179   2.083   1.398
 1645SOL     OW 5833   3.101   6.105   5.958
 1645SOL    HW1 5834   3.023   6.149   5.912
 1645SOL    HW2 5835   3.121   6.154   6.043
 1646SOL     OW 5836   1.489   4.671   0.765
 1646SOL    HW1 5837   1.515   4.669   0.862
 1646SOL    HW2 5838   1.569   4.651   0.709
 1647SOL     OW 5839   5.764   2.898   3.815
 1647SOL    HW1 5840   5.717   2.896   3.727
 1647SOL    HW2 5841   5.733   2.821   3.871
 1648SOL     OW 5842   4.604   0.498   1.852
 1648SOL    HW1 5843   4.600   0.423   1.919
 1648SOL    HW2 5844   4.687   0.489   1.797
 1649SOL     OW 5845   2.882   0.438   3.183
 1649SOL    HW1 5846   2.884   0.375   3.105
 1649SOL    HW2 5847   2.975   0.469   3.204
 1650SOL     OW 5848   2.632   0.625   4.143
 1650SOL    HW1 5849   2.683   0.539   4.145
 1650SOL    HW2 5850   2.664   0.684   4.217
 1651SOL     OW 5851   0.075   0.471   0.102
 1651SOL    HW1 5852   0.063   0.408   0.025
 1651SOL    HW2 5853   0.052   0.564   0.073
 1652SOL     OW 5854   3.114   2.235   1.291
 1652SOL    HW1 5855   3.066   2.290   1.359
 1652SOL    HW2 5856   3.171   2.294   1.233
 1653SOL     OW 5857   0.017   5.529   0.276
 1653SOL    HW1 5858   0.110   5.497   0.297
 1653SOL    HW2 5859   7.009   5.586   0.352
 1654SOL     OW 5860   0.033   3.372   2.928
 1654SOL    HW1 5861   0.049   3.468   2.951
 1654SOL    HW2 5862   0.024   3.363   2.828
 1655SOL     OW 5863   5.212   4.345   6.217
 1655SOL    HW1 5864   5.200   4.439   6.184
 1655SOL    HW2 5865   5.299   4.309   6.184
 1656SOL     OW 5866   0.995   4.639   3.456
 1656SOL    HW1 5867   0.953   4.560   3.501
 1656SOL    HW2 5868   1.017   4.617   3.361
 1657SOL     OW 5869   1.726   0.830   5.861
 1657SOL    HW1 5870   1.699   0.894   5.789
 1657SOL    HW2 5871   1.820   0.848   5.890
 1658SOL     OW 5872   5.742   6.304   2.397
 1658SOL    HW1 5873   5.816   6.368   2.378
 1658SOL    HW2 5874   5.678   6.303   2.319
 1659SOL     OW 5875   3.572   2.192   6.604
 1659SOL    HW1 5876   3.645   2.124   6.598
 1659SOL    HW2 5877   3.501   2.170   6.536
 1660SOL     OW 5878   0.992   5.833   3.721
 1660SOL    HW1 5879   1.084   5.819   3.685
 1660SOL    HW2 5880   0.928   5.773   3.673
 1661SOL     OW 5881   3.007   1.695   2.491
 1661SOL    HW1 5882   2.933   1.744   2.444
 1661SOL    HW2 5883   2.971   1.610   2.530
 1662SOL     OW 5884   0.018   1.681   3.059
 1662SOL    HW1 5885   0.077   1.602   3.076
 1662SOL    HW2 5886   0.056   1.735   2.984
 1663SOL     OW 5887   3.005   6.837   3.062
 1663SOL    HW1 5888   2.957   6.806   3.143
 1663SOL    HW2 5889   2.979   6.781   2.984
 1664SOL     OW 5890   1.838   6.839   4.326
 1664SOL    HW1 5891   1.892   6.898   4.386
 1664SOL    HW2 5892   1.748   6.825   4.366
 1665SOL     OW 5893   0.546   1.549   2.458
 1665SOL    HW1 5894   0.543   1.647   2.437
 1665SOL    HW2 5895   0.478   1.501   2.403
 1666SOL     OW 5896   5.877   2.503   5.693
 1666SOL    HW1 5897   5.894   2.463   5.602
 1666SOL    HW2 5898   5.938   2.460   5.759
 1667SOL     OW 5899   6.409   6.744   6.154
 1667SOL    HW1 5900   6.426   6.672   6.087
 1667SOL    HW2 5901   6.317   6.732   6.193
 1668SOL     OW 5902   3.941   0.533   4.135
 1668SOL    HW1 5903   4.018   0.542   4.198
 1668SOL    HW2 5904   3.971   0.553   4.042
 1669SOL     OW 5905   5.896   6.953   6.094
 1669SOL    HW1 5906   5.976   6.952   6.034
 1669SOL    HW2 5907   5.925   6.976   6.188
 1670SOL     OW 5908   5.562   4.702   5.678
 1670SOL    HW1 5909   5.520   4.785   5.714
 1670SOL    HW2 5910   5.657   4.697   5.710
 1671SOL     OW 5911   4.674   3.530   0.346
 1671SOL    HW1 5912   4.670   3.470   0.266
 1671SOL    HW2 5913   4.663   3.476   0.429
 1672SOL     OW 5914   1.927   4.322   2.332
 1672SOL    HW1 5915   2.014   4.363   2.304
 1672SOL    HW2 5916   1.939   4.275   2.419
 1673SOL     OW 5917   6.801   3.573   4.531
 1673SOL    HW1 5918   6.870   3.644   4.545
 1673SOL    HW2 5919   6.845   3.485   4.514
 1674SOL     OW 5920   1.112   4.032   0.814
 1674SOL    HW1 5921   1.078   4.084   0.736
 1674SOL    HW2 5922   1.049   4.043   0.891
 1675SOL     OW 5923   4.716   1.257   6.589
 1675SOL    HW1 5924   4.712   1.157   6.584
 1675SOL    HW2 5925   4.705   1.296   6.498
 1676SOL     OW 5926   2.273   1.144   2.064
 1676SOL    HW1 5927   2.289   1.169   2.159
 1676SOL    HW2 5928   2.329   1.201   2.004
 1677SOL     OW 5929   5.788   1.705   5.247
 1677SOL    HW1 5930   5.796   1.785   5.306
 1677SOL    HW2 5931   5.727   1.726   5.171
 1678SOL     OW 5932   4.905   6.344   2.427
 1678SOL    HW1 5933   4.970   6.305   2.493
 1678SOL    HW2 5934   4.894   6.282   2.350
 1679SOL     OW 5935   1.147   3.172   5.776
 1679SOL    HW1 5936   1.212   3.102   5.806
 1679SOL    HW2 5937   1.069   3.173   5.839
 1680SOL     OW 5938   0.924   1.352   3.835
 1680SOL    HW1 5939   0.827   1.327   3.834
 1680SOL    HW2 5940   0.938   1.425   3.902
 1681SOL     OW 5941   6.275   5.326   1.002
 1681SOL    HW1 5942   6.234   5.238   0.978
 1681SOL    HW2 5943   6.207   5.399   0.992
 1682SOL     OW 5944   7.014   3.261   4.782
 1682SOL    HW1 5945   0.074   3.233   4.737
 1682SOL    HW2 5946   0.008   3.286   4.877
 1683SOL     OW 5947   4.544   5.354   1.112
 1683SOL    HW1 5948   4.596   5.358   1.027
 1683SOL    HW2 5949   4.565   5.434   1.167
 1684SOL     OW 5950   0.387   6.624   5.274
 1684SOL    HW1 5951   0.376   6.713   5.318
 1684SOL    HW2 5952   0.309   6.606   5.215
 1685SOL     OW 5953   1.778   1.227   0.495
 1685SOL    HW1 5954   1.875   1.249   0.488
 1685SOL    HW2 5955   1.724   1.311   0.482
 1686SOL     OW 5956   1.286   5.549   5.743
 1686SOL    HW1 5957   1.234   5.597   5.672
 1686SOL    HW2 5958   1.230   5.541   5.826
 1687SOL     OW 5959   1.618   4.728   2.477
 1687SOL    HW1 5960   1.618   4.819   2.518
 1687SOL    HW2 5961   1.688   4.723   2.406
 1688SOL     OW 5962   1.654   1.503   3.158
 1688SOL    HW1 5963   1.714   1.551   3.222
 1688SOL    HW2 5964   1.684   1.408   3.150
 1689SOL     OW 5965   3.255   1.835   2.480
 1689SOL    HW1 5966   3.163   1.795   2.480
 1689SOL    HW2 5967   3.281   1.858   2.386
 1690SOL     OW 5968   1.685   1.274   2.172
 1690SOL    HW1 5969   1.638   1.360   2.156
 1690SOL    HW2 5970   1.619   1.199   2.176
 1691SOL     OW 5971   5.421   3.099   2.969
 1691SOL    HW1 5972   5.401   3.002   2.975
 1691SOL    HW2 5973   5.450   3.133   3.058
 1692SOL     OW 5974   0.605   0.039   1.533
 1692SOL    HW1 5975   0.655   0.029   1.619
 1692SOL    HW2 5976   0.617   0.131   1.498
 1693SOL     OW 5977   2.455   2.615   3.496
 1693SOL    HW1 5978   2.398   2.559   3.556
 1693SOL    HW2 5979   2.551   2.596   3.514
 1694SOL     OW 5980   4.325   5.611   4.710
 1694SOL    HW1 5981   4.337   5.698   4.757
 1694SOL    HW2 5982   4.326   5.536   4.776
 1695SOL     OW 5983   2.868   2.606   5.536
 1695SOL    HW1 5984   2.872   2.660   5.620
 1695SOL    HW2 5985   2.959   2.604   5.493
 1696SOL     OW 5986   4.995   5.641   0.379
 1696SOL    HW1 5987   5.072   5.680   0.328
 1696SOL    HW2 5988   4.922   5.616   0.315
 1697SOL     OW 5989   1.186   0.058   1.466
 1697SOL    HW1 5990   1.261   0.085   1.406
 1697SOL    HW2 5991   1.102   0.105   1.438
 1698SOL     OW 5992   4.926   2.214   2.115
 1698SOL    HW1 5993   5.008   2.271   2.114
 1698SOL    HW2 5994   4.951   2.117   2.109
 1699SOL     OW 5995   2.672   3.137   1.014
 1699SOL    HW1 5996   2.657   3.235   1.008
 1699SOL    HW2 5997   2.599   3.095   1.069
 1700SOL     OW 5998   6.965   2.889   2.838
 1700SOL    HW1 5999   0.032   2.867   2.804
 1700SOL    HW2 6000   6.901   2.817   2.810
 1701SOL     OW 6001   6.440   2.675   4.158
 1701SOL    HW1 6002   6.479   2.609   4.095
 1701SOL    HW2 6003   6.386   2.628   4.228
 1702SOL     OW 6004   5.825   3.454   1.219
 1702SOL    HW1 6005   5.882   3.458   1.138
 1702SOL    HW2 6006   5.830   3.363   1.260
 1703SOL     OW 6007   2.292   3.779   0.752
 1703SOL    HW1 6008   2.384   3.818   0.758
 1703SOL    HW2 6009   2.265   3.744   0.842
 1704SOL     OW 6010   6.911   0.688   1.319
 1704SOL    HW1 6011   6.833   0.672   1.258
 1704SOL    HW2 6012   6.884   0.670   1.413
 1705SOL     OW 6013   3.666   2.395   1.400
 1705SOL    HW1 6014   3.642   2.451   1.479
 1705SOL    HW2 6015   3.766   2.394   1.389
 1706SOL     OW 6016   4.188   0.681   0.452
 1706SOL    HW1 6017   4.175   0.668   0.354
 1706SOL    HW2 6018   4.112   0.734   0.490
 1707SOL     OW 6019   5.410   1.986   2.906
 1707SOL    HW1 6020   5.492   2.037   2.931
 1707SOL    HW2 6021   5.330   2.046   2.914
 1708SOL     OW 6022   6.498   6.327   2.421
 1708SOL    HW1 6023   6.485   6.299   2.516
 1708SOL    HW2 6024   6.468   6.422   2.411
 1709SOL     OW 6025   2.566   6.396   2.462
 1709SOL    HW1 6026   2.608   6.308   2.480
 1709SOL    HW2 6027   2.470   6.383   2.435
 1710SOL     OW 6028   0.349   4.834   4.075
 1710SOL    HW1 6029   0.407   4.899   4.124
 1710SOL    HW2 6030   0.369   4.741   4.107
 1711SOL     OW 6031   1.416   4.939   5.874
 1711SOL    HW1 6032   1.477   4.939   5.953
 1711SOL    HW2 6033   1.463   4.977   5.795
 1712SOL     OW 6034   0.095   4.114   0.200
 1712SOL    HW1 6035   0.063   4.100   0.294
 1712SOL    HW2 6036   0.193   4.136   0.201
 1713SOL     OW 6037   1.630   2.796   1.774
 1713SOL    HW1 6038   1.723   2.785   1.810
 1713SOL    HW2 6039   1.603   2.892   1.783
 1714SOL     OW 6040   3.688   1.813   0.077
 1714SOL    HW1 6041   3.695   1.756   0.159
 1714SOL    HW2 6042   3.619   1.774   0.016
 1715SOL     OW 6043   0.937   3.176   2.975
 1715SOL    HW1 6044   0.946   3.200   3.071
 1715SOL    HW2 6045   0.998   3.098   2.954
 1716SOL     OW 6046   0.064   6.854   0.064
 1716SOL    HW1 6047   7.000   6.829   0.102
 1716SOL    HW2 6048   0.059   6.853   6.989
 1717SOL     OW 6049   2.432   6.540   0.099
 1717SOL    HW1 6050   2.412   6.632   0.067
 1717SOL    HW2 6051   2.378   6.520   0.181
 1718SOL     OW 6052   2.332   3.940   0.320
 1718SOL    HW1 6053   2.336   3.925   0.221
 1718SOL    HW2 6054   2.419   3.910   0.361
 1719SOL     OW 6055   1.830   3.413   1.532
 1719SOL    HW1 6056   1.867   3.340   1.590
 1719SOL    HW2 6057   1.887   3.495   1.541
 1720SOL     OW 6058   6.824   1.526   0.688
 1720SOL    HW1 6059   6.824   1.559   0.594
 1720SOL    HW2 6060   6.918   1.527   0.723
 1721SOL     OW 6061   1.710   6.380   3.366
 1721SOL    HW1 6062   1.723   6.478   3.383
 1721SOL    HW2 6063   1.634   6.346   3.420
 1722SOL     OW 6064   6.116   0.257   2.337
 1722SOL    HW1 6065   6.176   0.186   2.302
 1722SOL    HW2 6066   6.034   0.263   2.281
 1723SOL     OW 6067   0.322   1.905   2.850
 1723SOL    HW1 6068   0.341   1.940   2.758
 1723SOL    HW2 6069   0.407   1.872   2.891
 1724SOL     OW 6070   4.944   1.067   6.667
 1724SOL    HW1 6071   4.883   1.041   6.592
 1724SOL    HW2 6072   5.032   1.096   6.631
 1725SOL     OW 6073   3.350   4.128   1.409
 1725SOL    HW1 6074   3.293   4.056   1.369
 1725SOL    HW2 6075   3.308   4.160   1.494
 1726SOL     OW 6076   6.912   4.620   5.067
 1726SOL    HW1 6077   6.822   4.585   5.092
 1726SOL    HW2 6078   6.929   4.602   4.970
 1727SOL     OW 6079   4.030   3.385   5.159
 1727SOL    HW1 6080   3.944   3.368   5.111
 1727SOL    HW2 6081   4.030   3.333   5.244
 1728SOL     OW 6082   4.523   4.515   4.009
 1728SOL    HW1 6083   4.461   4.526   4.087
 1728SOL    HW2 6084   4.473   4.533   3.924
 1729SOL     OW 6085   1.161   4.011   2.861
 1729SOL    HW1 6086   1.176   4.093   2.916
 1729SOL    HW2 6087   1.183   4.030   2.765
 1730SOL     OW 6088   6.882   1.665   4.412
 1730SOL    HW1 6089   6.928   1.604   4.348
 1730SOL    HW2 6090   6.796   1.696   4.373
 1731SOL     OW 6091   2.230   4.739   1.400
 1731SOL    HW1 6092   2.138   4.735   1.360
 1731SOL    HW2 6093   2.282   4.658   1.372
 1732SOL     OW 6094   2.049   4.509   7.010
 1732SOL    HW1 6095   2.066   4.422   0.031
 1732SOL    HW2 6096   1.951   4.517   6.991
 1733SOL     OW 6097   1.183   3.797   1.849
 1733SOL    HW1 6098   1.213   3.742   1.771
 1733SOL    HW2 6099   1.220   3.889   1.841
 1734SOL     OW 6100   4.150   2.942   0.724
 1734SOL    HW1 6101   4.216   2.867   0.719
 1734SOL    HW2 6102   4.067   2.917   0.674
 1735SOL     OW 6103   5.886   4.983   1.280
 1735SOL    HW1 6104   5.921   5.075   1.261
 1735SOL    HW2 6105   5.953   4.933   1.335
 1736SOL     OW 6106   3.328   3.248   6.972
 1736SOL    HW1 6107   3.273   3.165   6.987
 1736SOL    HW2 6108   3.407   3.247   0.008
 1737SOL     OW 6109   2.045   0.521   4.168
 1737SOL    HW1 6110   2.123   0.467   4.197
 1737SOL    HW2 6111   2.003   0.478   4.088
 1738SOL     OW 6112   2.076   3.090   2.345
 1738SOL    HW1 6113   2.085   3.119   2.250
 1738SOL    HW2 6114   2.061   3.170   2.403
 1739SOL     OW 6115   4.467   2.180   4.951
 1739SOL    HW1 6116   4.487   2.087   4.918
 1739SOL    HW2 6117   4.552   2.226   4.977
 1740SOL     OW 6118   6.935   1.168   0.015
 1740SOL    HW1 6119   6.938   1.101   0.089
 1740SOL    HW2 6120   6.841   1.187   7.015
 1741SOL     OW 6121   2.311   0.817   2.599
 1741SOL    HW1 6122   2.213   0.808   2.619
 1741SOL    HW2 6123   2.348   0.728   2.572
 1742SOL     OW 6124   5.851   0.533   5.013
 1742SOL    HW1 6125   5.809   0.602   4.954
 1742SOL    HW2 6126   5.926   0.489   4.964
 1743SOL     OW 6127   3.284   1.493   1.475
 1743SOL    HW1 6128   3.202   1.506   1.531
 1743SOL    HW2 6129   3.312   1.581   1.437
 1744SOL     OW 6130   2.504   0.837   1.947
 1744SOL    HW1 6131   2.531   0.927   1.982
 1744SOL    HW2 6132   2.429   0.848   1.882
 1745SOL     OW 6133   0.115   1.854   3.262
 1745SOL    HW1 6134   0.125   1.952   3.243
 1745SOL    HW2 6135   0.098   1.805   3.177
 1746SOL     OW 6136   2.974   0.372   6.639
 1746SOL    HW1 6137   2.926   0.295   6.681
 1746SOL    HW2 6138   2.913   0.451   6.634
 1747SOL     OW 6139   3.395   0.099   0.971
 1747SOL    HW1 6140   3.393   0.015   1.026
 1747SOL    HW2 6141   3.357   0.080   0.880
 1748SOL     OW 6142   6.309   1.950   3.820
 1748SOL    HW1 6143   6.351   2.031   3.777
 1748SOL    HW2 6144   6.212   1.967   3.834
 1749SOL     OW 6145   4.469   6.534   6.423
 1749SOL    HW1 6146   4.445   6.627   6.451
 1749SOL    HW2 6147   4.395   6.472   6.446
 1750SOL     OW 6148   5.319   1.231   2.514
 1750SOL    HW1 6149   5.403   1.188   2.548
 1750SOL    HW2 6150   5.341   1.320   2.473
 1751SOL     OW 6151   1.940   5.072   4.716
 1751SOL    HW1 6152   1.990   5.139   4.661
 1751SOL    HW2 6153   1.863   5.037   4.664
 1752SOL     OW 6154   0.056   1.843   0.799
 1752SOL    HW1 6155   0.101   1.866   0.885
 1752SOL    HW2 6156   6.982   1.858   0.808
 1753SOL     OW 6157   0.819   0.116   0.463
 1753SOL    HW1 6158   0.751   0.077   0.401
 1753SOL    HW2 6159   0.892   0.159   0.411
 1754SOL     OW 6160   2.954   2.974   1.216
 1754SOL    HW1 6161   3.021   2.910   1.254
 1754SOL    HW2 6162   2.898   2.927   1.148
 1755SOL     OW 6163   5.194   5.000   1.469
 1755SOL    HW1 6164   5.208   5.086   1.420
 1755SOL    HW2 6165   5.281   4.971   1.509
 1756SOL     OW 6166   6.250   4.872   4.283
 1756SOL    HW1 6167   6.183   4.874   4.209
 1756SOL    HW2 6168   6.204   4.891   4.370
 1757SOL     OW 6169   3.001   6.400   4.556
 1757SOL    HW1 6170   3.079   6.429   4.612
 1757SOL    HW2 6171   2.924   6.462   4.571
 1758SOL     OW 6172   3.021   1.223   3.411
 1758SOL    HW1 6173   3.037   1.302   3.353
 1758SOL    HW2 6174   2.924   1.201   3.413
 1759SOL     OW 6175   0.205   4.510   6.134
 1759SOL    HW1 6176   0.182   4.423   6.090
 1759SOL    HW2 6177   0.123   4.568   6.137
 1760SOL     OW 6178   6.188   1.615   1.578
 1760SOL    HW1 6179   6.211   1.554   1.653
 1760SOL    HW2 6180   6.247   1.595   1.500
 1761SOL     OW 6181   5.637   0.959   0.857
 1761SOL    HW1 6182   5.720   0.991   0.902
 1761SOL    HW2 6183   5.557   0.992   0.908
 1762SOL     OW 6184   6.710   2.325   5.552
 1762SOL    HW1 6185   6.788   2.382   5.577
 1762SOL    HW2 6186   6.661   2.297   5.634
 1763SOL     OW 6187   1.936   4.076   4.265
 1763SOL    HW1 6188   1.864   4.006   4.264
 1763SOL    HW2 6189   1.931   4.127   4.351
 1764SOL     OW 6190   1.479   3.075   3.175
 1764SOL    HW1 6191   1.473   3.175   3.181
 1764SOL    HW2 6192   1.572   3.045   3.195
 1765SOL     OW 6193   2.618   1.301   0.363
 1765SOL    HW1 6194   2.678   1.281   0.286
 1765SOL    HW2 6195   2.559   1.222   0.380
 1766SOL     OW 6196   5.294   3.116   4.893
 1766SOL    HW1 6197   5.257   3.103   4.985
 1766SOL    HW2 6198   5.221   3.111   4.826
 1767SOL     OW 6199   5.275   3.652   2.062
 1767SOL    HW1 6200   5.239   3.582   2.125
 1767SOL    HW2 6201   5.361   3.687   2.098
 1768SOL     OW 6202   4.179   0.260   3.531
 1768SOL    HW1 6203   4.115   0.295   3.600
 1768SOL    HW2 6204   4.269   0.247   3.572
 1769SOL     OW 6205   3.917   1.609   3.718
 1769SOL    HW1 6206   3.994   1.673   3.714
 1769SOL    HW2 6207   3.924   1.544   3.642
 1770SOL     OW 6208   1.895   5.678   5.376
 1770SOL    HW1 6209   1.935   5.719   5.458
 1770SOL    HW2 6210   1.802   5.712   5.364
 1771SOL     OW 6211   3.086   6.404   0.123
 1771SOL    HW1 6212   3.038   6.447   0.046
 1771SOL    HW2 6213   3.020   6.381   0.195
 1772SOL     OW 6214   3.654   6.823   3.784
 1772SOL    HW1 6215   3.631   6.832   3.880
 1772SOL    HW2 6216   3.687   6.730   3.766
 1773SOL     OW 6217   2.488   5.035   6.176
 1773SOL    HW1 6218   2.450   5.023   6.085
 1773SOL    HW2 6219   2.429   5.097   6.229
 1774SOL     OW 6220   3.963   5.446   1.916
 1774SOL    HW1 6221   4.034   5.378   1.935
 1774SOL    HW2 6222   4.001   5.520   1.862
 1775SOL     OW 6223   0.564   4.190   2.456
 1775SOL    HW1 6224   0.660   4.184   2.484
 1775SOL    HW2 6225   0.556   4.249   2.376
 1776SOL     OW 6226   4.412   5.959   4.366
 1776SOL    HW1 6227   4.392   6.051   4.400
 1776SOL    HW2 6228   4.351   5.894   4.411
 1777SOL     OW 6229   3.391   5.904   0.045
 1777SOL    HW1 6230   3.398   5.999   0.075
 1777SOL    HW2 6231   3.445   5.890   6.987
 1778SOL     OW 6232   4.505   3.199   5.353
 1778SOL    HW1 6233   4.420   3.147   5.338
 1778SOL    HW2 6234   4.583   3.138   5.341
 1779SOL     OW 6235   3.888   0.385   4.782
 1779SOL    HW1 6236   3.849   0.297   4.809
 1779SOL    HW2 6237   3.877   0.450   4.857
 1780SOL     OW 6238   3.289   2.774   6.220
 1780SOL    HW1 6239   3.377   2.798   6.261
 1780SOL    HW2 6240   3.216   2.788   6.287
 1781SOL     OW 6241   3.954   6.122   2.709
 1781SOL    HW1 6242   3.967   6.092   2.614
 1781SOL    HW2 6243   3.861   6.099   2.739
 1782SOL     OW 6244   3.135   1.611   3.088
 1782SOL    HW1 6245   3.141   1.578   3.182
 1782SOL    HW2 6246   3.135   1.534   3.025
 1783SOL     OW 6247   3.016   5.315   6.287
 1783SOL    HW1 6248   3.065   5.372   6.352
 1783SOL    HW2 6249   2.921   5.346   6.280
 1784SOL     OW 6250   4.105   0.917   5.685
 1784SOL    HW1 6251   4.185   0.860   5.705
 1784SOL    HW2 6252   4.025   0.881   5.734
 1785SOL     OW 6253   6.573   4.036   2.784
 1785SOL    HW1 6254   6.481   4.004   2.761
 1785SOL    HW2 6255   6.599   3.999   2.874
 1786SOL     OW 6256   2.118   2.814   6.735
 1786SOL    HW1 6257   2.162   2.903   6.723
 1786SOL    HW2 6258   2.045   2.803   6.668
 1787SOL     OW 6259   3.007   1.326   5.598
 1787SOL    HW1 6260   3.099   1.319   5.637
 1787SOL    HW2 6261   2.980   1.422   5.594
 1788SOL     OW 6262   2.231   4.637   6.482
 1788SOL    HW1 6263   2.309   4.575   6.479
 1788SOL    HW2 6264   2.164   4.602   6.548
 1789SOL     OW 6265   6.071   2.254   1.116
 1789SOL    HW1 6266   6.100   2.179   1.056
 1789SOL    HW2 6267   5.986   2.228   1.162
 1790SOL     OW 6268   4.037   6.370   3.456
 1790SOL    HW1 6269   4.011   6.462   3.428
 1790SOL    HW2 6270   4.136   6.359   3.448
 1791SOL     OW 6271   6.760   0.792   2.565
 1791SOL    HW1 6272   6.679   0.847   2.587
 1791SOL    HW2 6273   6.821   0.843   2.505
 1792SOL     OW 6274   0.139   3.825   4.806
 1792SOL    HW1 6275   0.154   3.744   4.863
 1792SOL    HW2 6276   0.219   3.838   4.747
 1793SOL     OW 6277   6.076   0.046   3.729
 1793SOL    HW1 6278   6.091   7.016   3.647
 1793SOL    HW2 6279   6.163   0.064   3.774
 1794SOL     OW 6280   5.013   5.768   5.792
 1794SOL    HW1 6281   5.059   5.804   5.711
 1794SOL    HW2 6282   4.929   5.820   5.808
 1795SOL     OW 6283   0.818   2.817   1.191
 1795SOL    HW1 6284   0.738   2.832   1.248
 1795SOL    HW2 6285   0.846   2.904   1.149
 1796SOL     OW 6286   3.079   1.187   5.935
 1796SOL    HW1 6287   2.992   1.222   5.968
 1796SOL    HW2 6288   3.140   1.170   6.012
 1797SOL     OW 6289   1.314   0.362   7.007
 1797SOL    HW1 6290   1.308   0.262   7.003
 1797SOL    HW2 6291   1.230   0.398   0.023
 1798SOL     OW 6292   4.397   2.386   4.301
 1798SOL    HW1 6293   4.380   2.401   4.399
 1798SOL    HW2 6294   4.462   2.311   4.290
 1799SOL     OW 6295   6.975   2.882   4.498
 1799SOL    HW1 6296   0.046   2.893   4.472
 1799SOL    HW2 6297   6.916   2.909   4.422
 1800SOL     OW 6298   4.365   4.178   1.463
 1800SOL    HW1 6299   4.444   4.226   1.425
 1800SOL    HW2 6300   4.388   4.082   1.479
 1801SOL     OW 6301   0.230   0.519   2.431
 1801SOL    HW1 6302   0.180   0.590   2.381
 1801SOL    HW2 6303   0.200   0.429   2.401
 1802SOL     OW 6304   5.450   5.969   4.196
 1802SOL    HW1 6305   5.476   6.033   4.125
 1802SOL    HW2 6306   5.352   5.977   4.215
 1803SOL     OW 6307   0.581   5.460   6.909
 1803SOL    HW1 6308   0.536   5.528   6.852
 1803SOL    HW2 6309   0.521   5.435   6.985
 1804SOL     OW 6310   2.493   4.139   5.320
 1804SOL    HW1 6311   2.474   4.116   5.415
 1804SOL    HW2 6312   2.443   4.076   5.260
 1805SOL     OW 6313   4.984   3.442   6.178
 1805SOL    HW1 6314   5.051   3.403   6.241
 1805SOL    HW2 6315   4.980   3.386   6.095
 1806SOL     OW 6316   0.164   6.968   6.413
 1806SOL    HW1 6317   0.132   6.877   6.388
 1806SOL    HW2 6318   0.093   7.014   6.468
 1807SOL     OW 6319   5.341   2.871   4.734
 1807SOL    HW1 6320   5.254   2.826   4.712
 1807SOL    HW2 6321   5.323   2.962   4.770
 1808SOL     OW 6322   0.015   4.673   5.612
 1808SOL    HW1 6323   0.073   4.615   5.669
 1808SOL    HW2 6324   0.069   4.709   5.536
 1809SOL     OW 6325   2.686   2.113   5.374
 1809SOL    HW1 6326   2.640   2.048   5.314
 1809SOL    HW2 6327   2.679   2.205   5.335
 1810SOL     OW 6328   2.726   0.125   4.172
 1810SOL    HW1 6329   2.792   0.069   4.223
 1810SOL    HW2 6330   2.654   0.066   4.137
 1811SOL     OW 6331   5.743   5.836   3.693
 1811SOL    HW1 6332   5.673   5.898   3.659
 1811SOL    HW2 6333   5.700   5.750   3.722
 1812SOL     OW 6334   3.947   5.953   4.944
 1812SOL    HW1 6335   3.903   5.889   5.008
 1812SOL    HW2 6336   3.883   5.974   4.870
 1813SOL     OW 6337   5.868   3.962   0.556
 1813SOL    HW1 6338   5.889   3.941   0.651
 1813SOL    HW2 6339   5.952   3.960   0.502
 1814SOL     OW 6340   4.796   0.326   1.769
 1814SOL    HW1 6341   4.873   0.265   1.786
 1814SOL    HW2 6342   4.755   0.304   1.680
 1815SOL     OW 6343   0.613   1.811   2.412
 1815SOL    HW1 6344   0.702   1.811   2.366
 1815SOL    HW2 6345   0.540   1.808   2.344
 1816SOL     OW 6346   2.847   2.914   0.930
 1816SOL    HW1 6347   2.821   2.860   0.850
 1816SOL    HW2 6348   2.775   2.979   0.952
 1817SOL     OW 6349   1.525   6.298   2.166
 1817SOL    HW1 6350   1.527   6.366   2.239
 1817SOL    HW2 6351   1.619   6.271   2.143
 1818SOL     OW 6352   1.087   0.389   3.369
 1818SOL    HW1 6353   1.015   0.449   3.402
 1818SOL    HW2 6354   1.056   0.340   3.288
 1819SOL     OW 6355   1.352   4.248   2.230
 1819SOL    HW1 6356   1.353   4.266   2.132
 1819SOL    HW2 6357   1.261   4.265   2.266
 1820SOL     OW 6358   4.463   1.358   2.315
 1820SOL    HW1 6359   4.559   1.340   2.338
 1820SOL    HW2 6360   4.446   1.456   2.316
 1821SOL     OW 6361   2.065   1.131   2.593
 1821SOL    HW1 6362   1.966   1.124   2.601
 1821SOL    HW2 6363   2.101   1.185   2.670
 1822SOL     OW 6364   3.311   2.587   1.765
 1822SOL    HW1 6365   3.218   2.605   1.732
 1822SOL    HW2 6366   3.341   2.498   1.732
 1823SOL     OW 6367   3.737   6.308   2.999
 1823SOL    HW1 6368   3.804   6.360   2.947
 1823SOL    HW2 6369   3.759   6.310   3.096
 1824SOL     OW 6370   4.096   2.507   1.066
 1824SOL    HW1 6371   4.018   2.445   1.056
 1824SOL    HW2 6372   4.121   2.544   0.976
 1825SOL     OW 6373   1.104   0.366   1.561
 1825SOL    HW1 6374   1.071   0.460   1.563
 1825SOL    HW2 6375   1.188   0.359   1.616
 1826SOL     OW 6376   3.011   1.786   1.692
 1826SOL    HW1 6377   2.986   1.882   1.703
 1826SOL    HW2 6378   3.099   1.769   1.736
 1827SOL     OW 6379   0.035   4.707   1.980
 1827SOL    HW1 6380   7.017   4.695   1.891
 1827SOL    HW2 6381   0.107   4.638   1.993
 1828SOL     OW 6382   0.815   3.156   6.991
 1828SOL    HW1 6383   0.815   3.128   0.062
 1828SOL    HW2 6384   0.733   3.122   6.946
 1829SOL     OW 6385   5.227   6.432   3.266
 1829SOL    HW1 6386   5.164   6.423   3.343
 1829SOL    HW2 6387   5.298   6.498   3.289
 1830SOL     OW 6388   4.640   0.145   3.840
 1830SOL    HW1 6389   4.686   0.056   3.839
 1830SOL    HW2 6390   4.704   0.215   3.807
 1831SOL     OW 6391   6.201   6.966   2.503
 1831SOL    HW1 6392   6.260   0.018   2.527
 1831SOL    HW2 6393   6.186   6.965   2.404
 1832SOL     OW 6394   4.294   2.491   1.243
 1832SOL    HW1 6395   4.221   2.485   1.175
 1832SOL    HW2 6396   4.331   2.584   1.244
 1833SOL     OW 6397   5.333   0.141   4.788
 1833SOL    HW1 6398   5.309   0.132   4.691
 1833SOL    HW2 6399   5.301   0.061   4.838
 1834SOL     OW 6400   3.380   3.628   0.792
 1834SOL    HW1 6401   3.357   3.532   0.775
 1834SOL    HW2 6402   3.354   3.652   0.886
 1835SOL     OW 6403   1.920   4.428   1.401
 1835SOL    HW1 6404   1.862   4.359   1.358
 1835SOL    HW2 6405   1.973   4.385   1.475
 1836SOL     OW 6406   0.023   1.554   0.827
 1836SOL    HW1 6407   0.051   1.649   0.838
 1836SOL    HW2 6408   6.988   1.528   0.902
 1837SOL     OW 6409   0.917   2.153   4.344
 1837SOL    HW1 6410   1.015   2.169   4.339
 1837SOL    HW2 6411   0.885   2.118   4.256
 1838SOL     OW 6412   6.957   2.575   3.661
 1838SOL    HW1 6413   7.013   2.605   3.583
 1838SOL    HW2 6414   6.866   2.550   3.629
 1839SOL     OW 6415   5.499   3.274   4.882
 1839SOL    HW1 6416   5.412   3.232   4.856
 1839SOL    HW2 6417   5.555   3.209   4.933
 1840SOL     OW 6418   2.497   6.234   0.969
 1840SOL    HW1 6419   2.508   6.237   0.870
 1840SOL    HW2 6420   2.442   6.311   0.999
 1841SOL     OW 6421   2.166   3.941   4.272
 1841SOL    HW1 6422   2.096   4.012   4.265
 1841SOL    HW2 6423   2.154   3.890   4.358
 1842SOL     OW 6424   0.381   5.010   1.294
 1842SOL    HW1 6425   0.434   5.093   1.303
 1842SOL    HW2 6426   0.442   4.931   1.292
 1843SOL     OW 6427   1.781   2.183   5.293
 1843SOL    HW1 6428   1.824   2.131   5.220
 1843SOL    HW2 6429   1.796   2.281   5.279
 1844SOL     OW 6430   4.025   2.204   5.142
 1844SOL    HW1 6431   4.021   2.106   5.159
 1844SOL    HW2 6432   4.001   2.254   5.225
 1845SOL     OW 6433   2.715   0.138   6.680
 1845SOL    HW1 6434   2.753   0.047   6.670
 1845SOL    HW2 6435   2.717   0.165   6.777
 1846SOL     OW 6436   4.170   2.042   7.009
 1846SOL    HW1 6437   4.240   2.095   6.961
 1846SOL    HW2 6438   4.080   2.063   6.971
 1847SOL     OW 6439   0.696   0.434   0.117
 1847SOL    HW1 6440   0.772   0.488   0.153
 1847SOL    HW2 6441   0.682   0.457   0.021
 1848SOL     OW 6442   2.173   5.919   2.862
 1848SOL    HW1 6443   2.230   5.989   2.905
 1848SOL    HW2 6444   2.170   5.838   2.919
 1849SOL     OW 6445   4.225   0.770   0.180
 1849SOL    HW1 6446   4.242   0.719   0.096
 1849SOL    HW2 6447   4.289   0.847   0.186
 1850SOL     OW 6448   6.181   1.762   3.520
 1850SOL    HW1 6449   6.090   1.732   3.491
 1850SOL    HW2 6450   6.194   1.740   3.617
 1851SOL     OW 6451   0.404   1.721   1.517
 1851SOL    HW1 6452   0.448   1.677   1.439
 1851SOL    HW2 6453   0.464   1.717   1.597
 1852SOL     OW 6454   4.679   4.009   0.586
 1852SOL    HW1 6455   4.718   3.930   0.539
 1852SOL    HW2 6456   4.751   4.078   0.600
 1853SOL     OW 6457   0.726   3.804   1.801
 1853SOL    HW1 6458   0.793   3.860   1.751
 1853SOL    HW2 6459   0.652   3.862   1.835
 1854SOL     OW 6460   2.903   5.859   4.035
 1854SOL    HW1 6461   2.822   5.834   3.983
 1854SOL    HW2 6462   2.945   5.777   4.074
 1855SOL     OW 6463   5.045   5.574   0.775
 1855SOL    HW1 6464   4.965   5.529   0.736
 1855SOL    HW2 6465   5.111   5.595   0.702
 1856SOL     OW 6466   5.550   2.403   5.512
 1856SOL    HW1 6467   5.570   2.314   5.551
 1856SOL    HW2 6468   5.582   2.406   5.417
 1857SOL     OW 6469   4.581   1.057   4.400
 1857SOL    HW1 6470   4.497   1.007   4.420
 1857SOL    HW2 6471   4.657   0.992   4.389
 1858SOL     OW 6472   5.484   3.437   4.181
 1858SOL    HW1 6473   5.569   3.407   4.138
 1858SOL    HW2 6474   5.441   3.358   4.225
 1859SOL     OW 6475   4.313   2.304   3.571
 1859SOL    HW1 6476   4.345   2.211   3.556
 1859SOL    HW2 6477   4.358   2.366   3.507
 1860SOL     OW 6478   6.678   1.423   3.909
 1860SOL    HW1 6479   6.625   1.365   3.970
 1860SOL    HW2 6480   6.745   1.368   3.860
 1861SOL     OW 6481   4.708   6.307   2.072
 1861SOL    HW1 6482   4.623   6.291   2.123
 1861SOL    HW2 6483   4.785   6.271   2.123
 1862SOL     OW 6484   2.240   0.434   0.013
 1862SOL    HW1 6485   2.295   0.398   6.962
 1862SOL    HW2 6486   2.300   0.464   0.087
 1863SOL     OW 6487   2.551   2.276   0.752
 1863SOL    HW1 6488   2.468   2.270   0.809
 1863SOL    HW2 6489   2.572   2.186   0.715
 1864SOL     OW 6490   0.791   6.757   4.947
 1864SOL    HW1 6491   0.756   6.797   4.862
 1864SOL    HW2 6492   0.738   6.792   5.024
 1865SOL     OW 6493   3.495   1.729   5.588
 1865SOL    HW1 6494   3.431   1.714   5.512
 1865SOL    HW2 6495   3.486   1.823   5.620
 1866SOL     OW 6496   4.601   4.541   1.936
 1866SOL    HW1 6497   4.634   4.588   2.018
 1866SOL    HW2 6498   4.588   4.444   1.957
 1867SOL     OW 6499   0.446   4.196   0.436
 1867SOL    HW1 6500   0.367   4.170   0.492
 1867SOL    HW2 6501   0.520   4.131   0.452
 1868SOL     OW 6502   5.955   4.378   6.720
 1868SOL    HW1 6503   6.002   4.465   6.730
 1868SOL    HW2 6504   5.884   4.370   6.791
 1869SOL     OW 6505   6.671   2.346   5.286
 1869SOL    HW1 6506   6.682   2.325   5.383
 1869SOL    HW2 6507   6.761   2.365   5.245
 1870SOL     OW 6508   2.128   4.628   5.874
 1870SOL    HW1 6509   2.131   4.544   5.927
 1870SOL    HW2 6510   2.070   4.615   5.793
 1871SOL     OW 6511   1.996   6.793   1.011
 1871SOL    HW1 6512   1.949   6.802   1.098
 1871SOL    HW2 6513   1.939   6.742   0.946
 1872SOL     OW 6514   3.156   4.518   0.435
 1872SOL    HW1 6515   3.226   4.500   0.505
 1872SOL    HW2 6516   3.200   4.556   0.354
 1873SOL     OW 6517   3.932   0.565   5.377
 1873SOL    HW1 6518   3.866   0.640   5.384
 1873SOL    HW2 6519   4.000   0.587   5.306
 1874SOL     OW 6520   2.396   1.610   1.965
 1874SOL    HW1 6521   2.482   1.660   1.963
 1874SOL    HW2 6522   2.320   1.673   1.977
 1875SOL     OW 6523   0.626   6.920   6.381
 1875SOL    HW1 6524   0.643   6.822   6.380
 1875SOL    HW2 6525   0.713   6.968   6.368
 1876SOL     OW 6526   3.001   6.931   4.848
 1876SOL    HW1 6527   2.906   6.944   4.876
 1876SOL    HW2 6528   3.034   7.012   4.800
 1877SOL     OW 6529   0.781   0.376   4.166
 1877SOL    HW1 6530   0.790   0.296   4.107
 1877SOL    HW2 6531   0.772   0.347   4.261
 1878SOL     OW 6532   0.188   1.888   3.957
 1878SOL    HW1 6533   0.095   1.910   3.988
 1878SOL    HW2 6534   0.184   1.842   3.868
 1879SOL     OW 6535   1.682   3.469   4.393
 1879SOL    HW1 6536   1.599   3.517   4.420
 1879SOL    HW2 6537   1.671   3.432   4.301
 1880SOL     OW 6538   6.839   1.609   4.992
 1880SOL    HW1 6539   6.863   1.565   4.906
 1880SOL    HW2 6540   6.753   1.659   4.982
 1881SOL     OW 6541   6.278   1.884   1.225
 1881SOL    HW1 6542   6.282   1.948   1.302
 1881SOL    HW2 6543   6.253   1.933   1.142
 1882SOL     OW 6544   1.278   4.283   6.603
 1882SOL    HW1 6545   1.325   4.211   6.653
 1882SOL    HW2 6546   1.252   4.356   6.665
 1883SOL     OW 6547   6.539   2.272   2.253
 1883SOL    HW1 6548   6.518   2.188   2.303
 1883SOL    HW2 6549   6.638   2.281   2.244
 1884SOL     OW 6550   0.927   1.327   0.691
 1884SOL    HW1 6551   1.007   1.275   0.661
 1884SOL    HW2 6552   0.924   1.330   0.791
 1885SOL     OW 6553   1.826   1.634   5.706
 1885SOL    HW1 6554   1.856   1.622   5.611
 1885SOL    HW2 6555   1.903   1.665   5.762
 1886SOL     OW 6556   2.204   0.042   2.076
 1886SOL    HW1 6557   2.218   6.973   2.106
 1886SOL    HW2 6558   2.219   0.104   2.153
 1887SOL     OW 6559   0.833   5.775   6.087
 1887SOL    HW1 6560   0.804   5.783   6.182
 1887SOL    HW2 6561   0.778   5.705   6.041
 1888SOL     OW 6562   3.077   2.081   0.396
 1888SOL    HW1 6563   3.014   2.130   0.337
 1888SOL    HW2 6564   3.102   1.994   0.353
 1889SOL     OW 6565   0.915   3.776   4.345
 1889SOL    HW1 6566   0.830   3.817   4.309
 1889SOL    HW2 6567   0.945   3.703   4.285
 1890SOL     OW 6568   0.724   5.407   4.311
 1890SOL    HW1 6569   0.769   5.340   4.252
 1890SOL    HW2 6570   0.630   5.419   4.281
 1891SOL     OW 6571   4.000   2.932   1.774
 1891SOL    HW1 6572   4.003   2.950   1.872
 1891SOL    HW2 6573   3.914   2.886   1.751
 1892SOL     OW 6574   6.913   0.520   1.699
 1892SOL    HW1 6575   6.990   0.495   1.641
 1892SOL    HW2 6576   6.867   0.600   1.660
 1893SOL     OW 6577   3.469   2.870   2.366
 1893SOL    HW1 6578   3.405   2.794   2.355
 1893SOL    HW2 6579   3.523   2.881   2.283
 1894SOL     OW 6580   3.276   3.837   4.288
 1894SOL    HW1 6581   3.282   3.748   4.242
 1894SOL    HW2 6582   3.334   3.903   4.240
 1895SOL     OW 6583   4.256   0.207   1.227
 1895SOL    HW1 6584   4.178   0.247   1.178
 1895SOL    HW2 6585   4.233   0.200   1.325
 1896SOL     OW 6586   6.537   1.295   0.819
 1896SOL    HW1 6587   6.614   1.277   0.758
 1896SOL    HW2 6588   6.556   1.377   0.873
 1897SOL     OW 6589   1.371   5.496   2.202
 1897SOL    HW1 6590   1.428   5.578   2.199
 1897SOL    HW2 6591   1.428   5.417   2.224
 1898SOL     OW 6592   2.225   4.663   2.782
 1898SOL    HW1 6593   2.148   4.706   2.735
 1898SOL    HW2 6594   2.243   4.573   2.742
 1899SOL     OW 6595   0.386   0.507   1.364
 1899SOL    HW1 6596   0.306   0.473   1.316
 1899SOL    HW2 6597   0.394   0.461   1.453
 1900SOL     OW 6598   2.670   0.121   0.174
 1900SOL    HW1 6599   2.667   0.156   0.080
 1900SOL    HW2 6600   2.745   0.164   0.223
 1901SOL     OW 6601   2.484   3.007   1.168
 1901SOL    HW1 6602   2.408   3.050   1.218
 1901SOL    HW2 6603   2.533   2.945   1.229
 1902SOL     OW 6604   2.636   0.394   4.681
 1902SOL    HW1 6605   2.697   0.388   4.759
 1902SOL    HW2 6606   2.665   0.468   4.621
 1903SOL     OW 6607   0.585   3.118   3.692
 1903SOL    HW1 6608   0.553   3.027   3.719
 1903SOL    HW2 6609   0.682   3.113   3.666
 1904SOL     OW 6610   5.857   4.888   2.540
 1904SOL    HW1 6611   5.883   4.878   2.636
 1904SOL    HW2 6612   5.770   4.842   2.524
 1905SOL     OW 6613   0.704   0.261   3.722
 1905SOL    HW1 6614   0.718   0.360   3.718
 1905SOL    HW2 6615   0.626   0.236   3.665
 1906SOL     OW 6616   3.050   0.652   5.979
 1906SOL    HW1 6617   3.052   0.567   6.032
 1906SOL    HW2 6618   3.139   0.696   5.985
 1907SOL     OW 6619   5.045   2.624   0.849
 1907SOL    HW1 6620   4.996   2.672   0.921
 1907SOL    HW2 6621   4.982   2.566   0.798
 1908SOL     OW 6622   4.020   6.607   6.853
 1908SOL    HW1 6623   4.006   6.576   6.947
 1908SOL    HW2 6624   3.941   6.661   6.824
 1909SOL     OW 6625   6.949   3.382   4.393
 1909SOL    HW1 6626   7.021   3.319   4.423
 1909SOL    HW2 6627   6.984   3.442   4.321
 1910SOL     OW 6628   6.275   6.167   5.876
 1910SOL    HW1 6629   6.317   6.255   5.857
 1910SOL    HW2 6630   6.252   6.121   5.790
 1911SOL     OW 6631   6.882   4.728   4.119
 1911SOL    HW1 6632   6.972   4.690   4.142
 1911SOL    HW2 6633   6.893   4.814   4.070
 1912SOL     OW 6634   2.664   4.963   2.698
 1912SOL    HW1 6635   2.579   4.911   2.708
 1912SOL    HW2 6636   2.700   4.949   2.606
 1913SOL     OW 6637   1.907   5.591   4.943
 1913SOL    HW1 6638   1.973   5.547   4.882
 1913SOL    HW2 6639   1.949   5.605   5.032
 1914SOL     OW 6640   3.050   3.987   5.972
 1914SOL    HW1 6641   3.025   4.025   5.882
 1914SOL    HW2 6642   3.006   4.041   6.043
 1915SOL     OW 6643   4.105   2.776   6.186
 1915SOL    HW1 6644   4.025   2.834   6.204
 1915SOL    HW2 6645   4.171   2.827   6.130
 1916SOL     OW 6646   3.834   0.139   1.228
 1916SOL    HW1 6647   3.799   0.219   1.276
 1916SOL    HW2 6648   3.889   0.168   1.150
 1917SOL     OW 6649   2.723   4.413   0.576
 1917SOL    HW1 6650   2.655   4.390   0.646
 1917SOL    HW2 6651   2.814   4.414   0.618
 1918SOL     OW 6652   0.991   0.897   4.759
 1918SOL    HW1 6653   0.980   0.809   4.713
 1918SOL    HW2 6654   1.035   0.883   4.847
 1919SOL     OW 6655   1.643   2.334   1.258
 1919SOL    HW1 6656   1.568   2.270   1.274
 1919SOL    HW2 6657   1.612   2.427   1.276
 1920SOL     OW 6658   5.922   2.417   2.001
 1920SOL    HW1 6659   5.848   2.354   1.977
 1920SOL    HW2 6660   5.993   2.412   1.931
 1921SOL     OW 6661   1.464   2.525   0.235
 1921SOL    HW1 6662   1.451   2.436   0.278
 1921SOL    HW2 6663   1.425   2.596   0.294
 1922SOL     OW 6664   3.204   3.264   1.770
 1922SOL    HW1 6665   3.217   3.167   1.746
 1922SOL    HW2 6666   3.292   3.311   1.767
 1923SOL     OW 6667   5.415   0.318   6.024
 1923SOL    HW1 6668   5.451   0.228   6.000
 1923SOL    HW2 6669   5.345   0.307   6.095
 1924SOL     OW 6670   4.512   0.298   1.314
 1924SOL    HW1 6671   4.565   0.285   1.230
 1924SOL    HW2 6672   4.415   0.288   1.295
 1925SOL     OW 6673   1.494   4.336   1.236
 1925SOL    HW1 6674   1.503   4.295   1.145
 1925SOL    HW2 6675   1.418   4.292   1.284
 1926SOL     OW 6676   3.768   0.082   1.718
 1926SOL    HW1 6677   3.860   0.082   1.757
 1926SOL    HW2 6678   3.774   0.069   1.619
 1927SOL     OW 6679   2.326   4.499   1.381
 1927SOL    HW1 6680   2.231   4.470   1.387
 1927SOL    HW2 6681   2.371   4.449   1.307
 1928SOL     OW 6682   4.685   4.513   4.223
 1928SOL    HW1 6683   4.640   4.519   4.134
 1928SOL    HW2 6684   4.721   4.603   4.248
 1929SOL     OW 6685   3.118   1.012   2.582
 1929SOL    HW1 6686   3.217   1.026   2.583
 1929SOL    HW2 6687   3.085   1.000   2.676
 1930SOL     OW 6688   4.727   3.257   6.534
 1930SOL    HW1 6689   4.675   3.220   6.611
 1930SOL    HW2 6690   4.667   3.261   6.454
 1931SOL     OW 6691   0.809   1.500   6.119
 1931SOL    HW1 6692   0.859   1.577   6.078
 1931SOL    HW2 6693   0.808   1.423   6.055
 1932SOL     OW 6694   4.499   2.118   3.202
 1932SOL    HW1 6695   4.422   2.054   3.194
 1932SOL    HW2 6696   4.561   2.106   3.125
 1933SOL     OW 6697   0.599   1.997   0.079
 1933SOL    HW1 6698   0.692   2.026   0.102
 1933SOL    HW2 6699   0.584   1.904   0.114
 1934SOL     OW 6700   0.220   0.462   5.345
 1934SOL    HW1 6701   0.236   0.410   5.261
 1934SOL    HW2 6702   0.174   0.548   5.323
 1935SOL     OW 6703   5.090   4.467   3.140
 1935SOL    HW1 6704   5.105   4.369   3.131
 1935SOL    HW2 6705   5.115   4.513   3.055
 1936SOL     OW 6706   5.518   3.272   4.578
 1936SOL    HW1 6707   5.427   3.311   4.593
 1936SOL    HW2 6708   5.570   3.276   4.663
 1937SOL     OW 6709   5.003   5.351   6.633
 1937SOL    HW1 6710   5.031   5.330   6.727
 1937SOL    HW2 6711   5.046   5.436   6.604
 1938SOL     OW 6712   0.853   1.984   6.458
 1938SOL    HW1 6713   0.911   1.947   6.386
 1938SOL    HW2 6714   0.760   1.997   6.423
 1939SOL     OW 6715   0.922   5.691   4.991
 1939SOL    HW1 6716   0.832   5.671   5.029
 1939SOL    HW2 6717   0.986   5.710   5.066
 1940SOL     OW 6718   6.045   4.949   1.500
 1940SOL    HW1 6719   6.137   4.985   1.519
 1940SOL    HW2 6720   5.996   4.937   1.586
 1941SOL     OW 6721   0.827   2.998   3.906
 1941SOL    HW1 6722   0.831   3.087   3.950
 1941SOL    HW2 6723   0.791   2.930   3.971
 1942SOL     OW 6724   5.609   3.180   2.585
 1942SOL    HW1 6725   5.522   3.202   2.630
 1942SOL    HW2 6726   5.596   3.102   2.524
 1943SOL     OW 6727   1.522   1.061   2.214
 1943SOL    HW1 6728   1.428   1.079   2.241
 1943SOL    HW2 6729   1.579   1.053   2.295
 1944SOL     OW 6730   0.426   3.147   0.764
 1944SOL    HW1 6731   0.375   3.136   0.678
 1944SOL    HW2 6732   0.524   3.154   0.744
 1945SOL     OW 6733   3.831   6.650   0.783
 1945SOL    HW1 6734   3.803   6.637   0.688
 1945SOL    HW2 6735   3.928   6.670   0.787
 1946SOL     OW 6736   6.835   6.042   1.287
 1946SOL    HW1 6737   6.770   6.115   1.306
 1946SOL    HW2 6738   6.898   6.031   1.364
 1947SOL     OW 6739   5.511   3.887   3.278
 1947SOL    HW1 6740   5.532   3.974   3.235
 1947SOL    HW2 6741   5.553   3.884   3.369
 1948SOL     OW 6742   5.792   3.394   3.033
 1948SOL    HW1 6743   5.756   3.329   2.966
 1948SOL    HW2 6744   5.723   3.412   3.102
 1949SOL     OW 6745   3.940   4.933   0.588
 1949SOL    HW1 6746   3.891   4.891   0.512
 1949SOL    HW2 6747   3.917   5.030   0.593
 1950SOL     OW 6748   3.369   4.037   4.102
 1950SOL    HW1 6749   3.433   4.063   4.029
 1950SOL    HW2 6750   3.277   4.028   4.065
 1951SOL     OW 6751   6.424   4.948   5.670
 1951SOL    HW1 6752   6.503   4.888   5.681
 1951SOL    HW2 6753   6.377   4.959   5.758
 1952SOL     OW 6754   5.623   3.843   0.500
 1952SOL    HW1 6755   5.686   3.921   0.503
 1952SOL    HW2 6756   5.662   3.772   0.441
 1953SOL     OW 6757   0.557   1.279   6.190
 1953SOL    HW1 6758   0.525   1.373   6.200
 1953SOL    HW2 6759   0.586   1.262   6.096
 1954SOL     OW 6760   3.553   6.891   1.429
 1954SOL    HW1 6761   3.556   6.792   1.445
 1954SOL    HW2 6762   3.637   6.920   1.384
 1955SOL     OW 6763   1.104   1.741   2.160
 1955SOL    HW1 6764   1.096   1.824   2.104
 1955SOL    HW2 6765   1.105   1.661   2.101
 1956SOL     OW 6766   6.188   0.759   1.839
 1956SOL    HW1 6767   6.151   0.722   1.924
 1956SOL    HW2 6768   6.231   0.848   1.857
 1957SOL     OW 6769   5.385   2.201   3.967
 1957SOL    HW1 6770   5.333   2.217   3.882
 1957SOL    HW2 6771   5.469   2.256   3.965
 1958SOL     OW 6772   4.572   1.593   0.583
 1958SOL    HW1 6773   4.643   1.642   0.635
 1958SOL    HW2 6774   4.482   1.626   0.611
 1959SOL     OW 6775   6.597   0.203   3.969
 1959SOL    HW1 6776   6.613   0.171   3.875
 1959SOL    HW2 6777   6.683   0.198   4.021
 1960SOL     OW 6778   5.670   3.201   2.876
 1960SOL    HW1 6779   5.679   3.116   2.928
 1960SOL    HW2 6780   5.650   3.180   2.781
 1961SOL     OW 6781   6.567   4.188   5.380
 1961SOL    HW1 6782   6.585   4.090   5.378
 1961SOL    HW2 6783   6.533   4.217   5.291
 1962SOL     OW 6784   1.002   6.922   2.896
 1962SOL    HW1 6785   1.099   6.920   2.918
 1962SOL    HW2 6786   0.972   6.831   2.867
 1963SOL     OW 6787   1.110   1.752   1.760
 1963SOL    HW1 6788   1.121   1.709   1.671
 1963SOL    HW2 6789   1.191   1.806   1.782
 1964SOL     OW 6790   5.563   4.534   1.825
 1964SOL    HW1 6791   5.532   4.556   1.733
 1964SOL    HW2 6792   5.643   4.589   1.848
 1965SOL     OW 6793   0.145   4.667   4.516
 1965SOL    HW1 6794   0.115   4.755   4.481
 1965SOL    HW2 6795   0.244   4.668   4.532
 1966SOL     OW 6796   1.916   4.727   0.961
 1966SOL    HW1 6797   1.902   4.641   1.010
 1966SOL    HW2 6798   1.836   4.785   0.972
 1967SOL     OW 6799   6.411   2.787   3.163
 1967SOL    HW1 6800   6.421   2.885   3.176
 1967SOL    HW2 6801   6.471   2.739   3.227
 1968SOL     OW 6802   1.978   1.365   5.321
 1968SOL    HW1 6803   1.887   1.333   5.295
 1968SOL    HW2 6804   1.971   1.456   5.362
 1969SOL     OW 6805   2.819   6.900   0.908
 1969SOL    HW1 6806   2.794   6.872   0.816
 1969SOL    HW2 6807   2.807   6.822   0.970
 1970SOL     OW 6808   6.484   5.696   4.948
 1970SOL    HW1 6809   6.505   5.794   4.947
 1970SOL    HW2 6810   6.397   5.682   4.995
 1971SOL     OW 6811   1.622   6.875   5.474
 1971SOL    HW1 6812   1.708   6.843   5.514
 1971SOL    HW2 6813   1.633   6.969   5.441
 1972SOL     OW 6814   6.220   2.628   1.509
 1972SOL    HW1 6815   6.169   2.562   1.455
 1972SOL    HW2 6816   6.273   2.580   1.579
 1973SOL     OW 6817   2.137   4.115   0.753
 1973SOL    HW1 6818   2.175   4.162   0.673
 1973SOL    HW2 6819   2.210   4.099   0.820
 1974SOL     OW 6820   3.813   6.575   5.101
 1974SOL    HW1 6821   3.868   6.549   5.022
 1974SOL    HW2 6822   3.783   6.493   5.150
 1975SOL     OW 6823   1.623   3.353   3.058
 1975SOL    HW1 6824   1.574   3.371   3.143
 1975SOL    HW2 6825   1.661   3.261   3.060
 1976SOL     OW 6826   6.785   0.342   6.075
 1976SOL    HW1 6827   6.739   0.404   6.011
 1976SOL    HW2 6828   6.797   0.387   6.163
 1977SOL     OW 6829   1.796   4.161   6.750
 1977SOL    HW1 6830   1.753   4.071   6.759
 1977SOL    HW2 6831   1.725   4.230   6.736
 1978SOL     OW 6832   2.279   6.880   2.280
 1978SOL    HW1 6833   2.310   6.804   2.223
 1978SOL    HW2 6834   2.319   6.872   2.371
 1979SOL     OW 6835   6.037   5.446   6.547
 1979SOL    HW1 6836   5.943   5.480   6.542
 1979SOL    HW2 6837   6.088   5.499   6.614
 1980SOL     OW 6838   2.941   1.588   1.898
 1980SOL    HW1 6839   2.926   1.664   1.835
 1980SOL    HW2 6840   2.894   1.506   1.864
 1981SOL     OW 6841   4.683   2.469   3.122
 1981SOL    HW1 6842   4.686   2.399   3.193
 1981SOL    HW2 6843   4.698   2.559   3.164
 1982SOL     OW 6844   6.735   3.041   3.609
 1982SOL    HW1 6845   6.815   3.099   3.617
 1982SOL    HW2 6846   6.684   3.042   3.695
 1983SOL     OW 6847   0.064   0.242   1.011
 1983SOL    HW1 6848   7.017   0.282   1.067
 1983SOL    HW2 6849   0.074   0.145   1.034
 1984SOL     OW 6850   5.883   3.039   5.169
 1984SOL    HW1 6851   5.979   3.048   5.195
 1984SOL    HW2 6852   5.859   2.942   5.167
 1985SOL     OW 6853   6.418   4.711   2.043
 1985SOL    HW1 6854   6.482   4.780   2.008
 1985SOL    HW2 6855   6.469   4.643   2.096
 1986SOL     OW 6856   3.244   1.663   0.478
 1986SOL    HW1 6857   3.282   1.707   0.396
 1986SOL    HW2 6858   3.157   1.706   0.502
 1987SOL     OW 6859   1.669   0.381   3.225
 1987SOL    HW1 6860   1.680   0.473   3.189
 1987SOL    HW2 6861   1.583   0.375   3.276
 1988SOL     OW 6862   0.129   2.166   1.302
 1988SOL    HW1 6863   0.118   2.163   1.203
 1988SOL    HW2 6864   0.044   2.138   1.346
 1989SOL     OW 6865   2.773   5.155   5.328
 1989SOL    HW1 6866   2.710   5.210   5.273
 1989SOL    HW2 6867   2.774   5.061   5.293
 1990SOL     OW 6868   3.613   0.699   0.153
 1990SOL    HW1 6869   3.559   0.779   0.177
 1990SOL    HW2 6870   3.557   0.616   0.162
 1991SOL     OW 6871   3.082   5.373   0.516
 1991SOL    HW1 6872   3.053   5.468   0.530
 1991SOL    HW2 6873   3.182   5.371   0.507
 1992SOL     OW 6874   0.568   6.368   0.580
 1992SOL    HW1 6875   0.496   6.302   0.561
 1992SOL    HW2 6876   0.560   6.446   0.518
 1993SOL     OW 6877   1.985   3.504   4.443
 1993SOL    HW1 6878   1.905   3.540   4.492
 1993SOL    HW2 6879   1.993   3.551   4.355
 1994SOL     OW 6880   3.402   3.555   0.117
 1994SOL    HW1 6881   3.435   3.570   0.024
 1994SOL    HW2 6882   3.469   3.589   0.183
 1995SOL     OW 6883   5.454   2.445   4.672
 1995SOL    HW1 6884   5.453   2.518   4.740
 1995SOL    HW2 6885   5.536   2.452   4.615
 1996SOL     OW 6886   3.794   1.571   0.931
 1996SOL    HW1 6887   3.845   1.552   1.015
 1996SOL    HW2 6888   3.851   1.551   0.852
 1997SOL     OW 6889   3.177   1.240   3.633
 1997SOL    HW1 6890   3.160   1.159   3.690
 1997SOL    HW2 6891   3.128   1.231   3.546
 1998SOL     OW 6892   1.037   3.361   1.712
 1998SOL    HW1 6893   0.978   3.291   1.671
 1998SOL    HW2 6894   1.068   3.330   1.802
 1999SOL     OW 6895   0.915   0.045   5.208
 1999SOL    HW1 6896   0.862   0.054   5.123
 1999SOL    HW2 6897   0.902   0.127   5.264
 2000SOL     OW 6898   3.762   3.723   6.926
 2000SOL    HW1 6899   3.784   3.629   6.951
 2000SOL    HW2 6900   3.666   3.742   6.949
 2001SOL     OW 6901   2.035   1.353   6.692
 2001SOL    HW1 6902   1.937   1.365   6.710
 2001SOL    HW2 6903   2.086   1.431   6.729
 2002SOL     OW 6904   6.516   5.418   0.954
 2002SOL    HW1 6905   6.421   5.391   0.968
 2002SOL    HW2 6906   6.551   5.378   0.869
 2003SOL     OW 6907   6.227   5.091   2.305
 2003SOL    HW1 6908   6.296   5.034   2.350
 2003SOL    HW2 6909   6.167   5.131   2.374
 2004SOL     OW 6910   3.398   0.758   3.475
 2004SOL    HW1 6911   3.374   0.719   3.564
 2004SOL    HW2 6912   3.496   0.777   3.472
 2005SOL     OW 6913   1.174   6.210   0.480
 2005SOL    HW1 6914   1.126   6.126   0.455
 2005SOL    HW2 6915   1.108   6.281   0.502
 2006SOL     OW 6916   5.191   6.975   3.245
 2006SOL    HW1 6917   5.168   6.878   3.256
 2006SOL    HW2 6918   5.108   0.002   3.225
 2007SOL     OW 6919   5.313   4.467   0.648
 2007SOL    HW1 6920   5.241   4.422   0.700
 2007SOL    HW2 6921   5.391   4.404   0.638
 2008SOL     OW 6922   2.164   4.099   3.529
 2008SOL    HW1 6923   2.176   4.145   3.617
 2008SOL    HW2 6924   2.252   4.063   3.499
 2009SOL     OW 6925   6.581   6.075   2.062
 2009SOL    HW1 6926   6.558   6.079   2.159
 2009SOL    HW2 6927   6.680   6.077   2.051
 2010SOL     OW 6928   1.665   2.614   1.559
 2010SOL    HW1 6929   1.763   2.604   1.576
 2010SOL    HW2 6930   1.627   2.680   1.622
 2011SOL     OW 6931   0.027   6.108   5.895
 2011SOL    HW1 6932   7.004   6.139   5.813
 2011SOL    HW2 6933   7.012   6.021   5.926
 2012SOL     OW 6934   1.504   3.056   2.887
 2012SOL    HW1 6935   1.416   3.075   2.843
 2012SOL    HW2 6936   1.490   3.044   2.985
 2013SOL     OW 6937   0.703   3.303   3.348
 2013SOL    HW1 6938   0.737   3.256   3.429
 2013SOL    HW2 6939   0.618   3.351   3.371
 2014SOL     OW 6940   2.873   0.429   3.910
 2014SOL    HW1 6941   2.861   0.330   3.912
 2014SOL    HW2 6942   2.956   0.452   3.858
 2015SOL     OW 6943   3.790   0.695   1.650
 2015SOL    HW1 6944   3.747   0.604   1.642
 2015SOL    HW2 6945   3.880   0.693   1.607
 2016SOL     OW 6946   1.973   6.973   6.224
 2016SOL    HW1 6947   1.895   6.912   6.240
 2016SOL    HW2 6948   1.943   0.026   6.169
 2017SOL     OW 6949   4.056   7.018   2.701
 2017SOL    HW1 6950   3.997   6.974   2.634
 2017SOL    HW2 6951   4.023   6.998   2.793
 2018SOL     OW 6952   0.820   1.427   3.220
 2018SOL    HW1 6953   0.763   1.435   3.138
 2018SOL    HW2 6954   0.774   1.472   3.297
 2019SOL     OW 6955   6.150   4.769   6.229
 2019SOL    HW1 6956   6.087   4.746   6.303
 2019SOL    HW2 6957   6.097   4.784   6.145
 2020SOL     OW 6958   1.479   6.494   6.222
 2020SOL    HW1 6959   1.391   6.468   6.262
 2020SOL    HW2 6960   1.492   6.593   6.230
 2021SOL     OW 6961   5.884   6.146   3.571
 2021SOL    HW1 6962   5.864   6.064   3.517
 2021SOL    HW2 6963   5.818   6.217   3.548
 2022SOL     OW 6964   2.068   4.456   5.113
 2022SOL    HW1 6965   2.126   4.479   5.190
 2022SOL    HW2 6966   2.079   4.359   5.090
 2023SOL     OW 6967   0.229   6.929   6.815
 2023SOL    HW1 6968   0.317   6.882   6.822
 2023SOL    HW2 6969   0.203   6.966   6.904
 2024SOL     OW 6970   0.794   5.335   4.552
 2024SOL    HW1 6971   0.770   5.362   4.459
 2024SOL    HW2 6972   0.825   5.415   4.603
 2025SOL     OW 6973   2.395   0.524   4.796
 2025SOL    HW1 6974   2.484   0.490   4.767
 2025SOL    HW2 6975   2.401   0.560   4.889
 2026SOL     OW 6976   6.257   1.170   6.046
 2026SOL    HW1 6977   6.312   1.160   5.963
 2026SOL    HW2 6978   6.162   1.144   6.026
 2027SOL     OW 6979   0.485   6.069   2.621
 2027SOL    HW1 6980   0.418   5.995   2.610
 2027SOL    HW2 6981   0.437   6.157   2.627
 2028SOL     OW 6982   4.173   5.802   2.666
 2028SOL    HW1 6983   4.147   5.867   2.595
 2028SOL    HW2 6984   4.242   5.844   2.725
 2029SOL     OW 6985   6.525   2.893   5.986
 2029SOL    HW1 6986   6.612   2.942   5.985
 2029SOL    HW2 6987   6.459   2.942   5.929
 2030SOL     OW 6988   2.339   5.740   3.311
 2030SOL    HW1 6989   2.410   5.747   3.241
 2030SOL    HW2 6990   2.379   5.704   3.395
 2031SOL     OW 6991   6.381   5.466   3.268
 2031SOL    HW1 6992   6.324   5.401   3.218
 2031SOL    HW2 6993   6.433   5.417   3.339
 2032SOL     OW 6994   3.211   1.728   6.404
 2032SOL    HW1 6995   3.234   1.700   6.498
 2032SOL    HW2 6996   3.294   1.732   6.349
 2033SOL     OW 6997   2.108   1.565   1.289
 2033SOL    HW1 6998   2.090   1.603   1.380
 2033SOL    HW2 6999   2.187   1.611   1.249
 2034SOL     OW 7000   0.086   4.213   6.108
 2034SOL    HW1 7001   0.155   4.162   6.159
 2034SOL    HW2 7002   0.035   4.272   6.171
 2035SOL     OW 7003   5.607   0.078   2.427
 2035SOL    HW1 7004   5.533   0.012   2.445
 2035SOL    HW2 7005   5.682   0.061   2.490
 2036SOL     OW 7006   0.891   3.826   2.388
 2036SOL    HW1 7007   0.840   3.833   2.474
 2036SOL    HW2 7008   0.882   3.733   2.352
 2037SOL     OW 7009   0.421   3.016   6.616
 2037SOL    HW1 7010   0.492   3.083   6.637
 2037SOL    HW2 7011   0.435   2.935   6.673
 2038SOL     OW 7012   2.043   1.274   0.416
 2038SOL    HW1 7013   2.129   1.234   0.450
 2038SOL    HW2 7014   2.049   1.286   0.317
 2039SOL     OW 7015   6.424   5.816   2.415
 2039SOL    HW1 7016   6.410   5.721   2.388
 2039SOL    HW2 7017   6.394   5.876   2.341
 2040SOL     OW 7018   2.335   3.153   6.949
 2040SOL    HW1 7019   2.350   3.073   7.007
 2040SOL    HW2 7020   2.416   3.169   6.892
 2041SOL     OW 7021   1.944   0.072   6.505
 2041SOL    HW1 7022   2.022   0.121   6.546
 2041SOL    HW2 7023   1.945   0.086   6.406
 2042SOL     OW 7024   4.986   1.048   5.416
 2042SOL    HW1 7025   4.923   0.972   5.430
 2042SOL    HW2 7026   4.942   1.133   5.445
 2043SOL     OW 7027   6.332   4.080   1.141
 2043SOL    HW1 7028   6.383   4.045   1.062
 2043SOL    HW2 7029   6.274   4.156   1.114
 2044SOL     OW 7030   5.005   0.612   0.775
 2044SOL    HW1 7031   4.912   0.645   0.761
 2044SOL    HW2 7032   5.061   0.636   0.696
 2045SOL     OW 7033   1.782   6.566   6.509
 2045SOL    HW1 7034   1.818   6.657   6.528
 2045SOL    HW2 7035   1.786   6.548   6.411
 2046SOL     OW 7036   1.092   2.460   5.090
 2046SOL    HW1 7037   1.063   2.476   4.996
 2046SOL    HW2 7038   1.183   2.420   5.090
 2047SOL     OW 7039   6.550   1.431   6.720
 2047SOL    HW1 7040   6.523   1.356   6.780
 2047SOL    HW2 7041   6.491   1.510   6.737
 2048SOL     OW 7042   1.175   1.564   4.395
 2048SOL    HW1 7043   1.076   1.555   4.386
 2048SOL    HW2 7044   1.209   1.630   4.328
 2049SOL     OW 7045   4.740   1.594   4.662
 2049SOL    HW1 7046   4.699   1.635   4.581
 2049SOL    HW2 7047   4.787   1.665   4.715
 2050SOL     OW 7048   0.654   1.283   3.854
 2050SOL    HW1 7049   0.581   1.337   3.812
 2050SOL    HW2 7050   0.660   1.305   3.951
 2051SOL     OW 7051   3.393   6.015   1.022
 2051SOL    HW1 7052   3.456   5.938   1.027
 2051SOL    HW2 7053   3.430   6.092   1.076
 2052SOL     OW 7054   1.574   4.117   0.056
 2052SOL    HW1 7055   1.600   4.214   0.059
 2052SOL    HW2 7056   1.572   4.081   0.149
 2053SOL     OW 7057   1.035   5.187   3.757
 2053SOL    HW1 7058   0.985   5.119   3.703
 2053SOL    HW2 7059   1.044   5.154   3.851
 2054SOL     OW 7060   3.438   3.223   3.388
 2054SOL    HW1 7061   3.451   3.171   3.472
 2054SOL    HW2 7062   3.356   3.190   3.342
 2055SOL     OW 7063   2.715   2.178   5.673
 2055SOL    HW1 7064   2.668   2.196   5.586
 2055SOL    HW2 7065   2.690   2.250   5.739
 2056SOL     OW 7066   4.331   4.721   1.062
 2056SOL    HW1 7067   4.248   4.671   1.038
 2056SOL    HW2 7068   4.307   4.804   1.113
 2057SOL     OW 7069   5.948   2.432   4.219
 2057SOL    HW1 7070   5.849   2.426   4.225
 2057SOL    HW2 7071   5.976   2.528   4.216
 2058SOL     OW 7072   0.594   5.912   3.412
 2058SOL    HW1 7073   0.544   5.826   3.410
 2058SOL    HW2 7074   0.552   5.977   3.348
 2059SOL     OW 7075   1.655   6.865   6.013
 2059SOL    HW1 7076   1.717   6.857   5.936
 2059SOL    HW2 7077   1.644   6.962   6.038
 2060SOL     OW 7078   1.111   3.555   6.825
 2060SOL    HW1 7079   1.162   3.579   6.743
 2060SOL    HW2 7080   1.123   3.458   6.845
 2061SOL     OW 7081   2.147   2.219   2.710
 2061SOL    HW1 7082   2.097   2.175   2.636
 2061SOL    HW2 7083   2.243   2.227   2.685
 2062SOL     OW 7084   6.518   5.326   5.161
 2062SOL    HW1 7085   6.490   5.241   5.205
 2062SOL    HW2 7086   6.533   5.309   5.063
 2063SOL     OW 7087   1.559   0.970   5.178
 2063SOL    HW1 7088   1.537   1.045   5.239
 2063SOL    HW2 7089   1.563   1.003   5.084
 2064SOL     OW 7090   0.339   3.258   3.554
 2064SOL    HW1 7091   0.415   3.210   3.599
 2064SOL    HW2 7092   0.307   3.203   3.477
 2065SOL     OW 7093   4.525   2.655   5.824
 2065SOL    HW1 7094   4.561   2.630   5.734
 2065SOL    HW2 7095   4.439   2.705   5.813
 2066SOL     OW 7096   6.367   3.045   4.998
 2066SOL    HW1 7097   6.310   3.051   4.917
 2066SOL    HW2 7098   6.459   3.081   4.978
 2067SOL     OW 7099   6.521   4.856   0.884
 2067SOL    HW1 7100   6.551   4.912   0.806
 2067SOL    HW2 7101   6.479   4.772   0.850
 2068SOL     OW 7102   3.651   0.831   4.172
 2068SOL    HW1 7103   3.728   0.885   4.137
 2068SOL    HW2 7104   3.681   0.778   4.251
 2069SOL     OW 7105   0.250   2.631   3.793
 2069SOL    HW1 7106   0.328   2.666   3.845
 2069SOL    HW2 7107   0.203   2.707   3.748
 2070SOL     OW 7108   0.531   4.363   2.176
 2070SOL    HW1 7109   0.559   4.428   2.247
 2070SOL    HW2 7110   0.594   4.369   2.099
 2071SOL     OW 7111   6.560   1.454   5.840
 2071SOL    HW1 7112   6.558   1.362   5.881
 2071SOL    HW2 7113   6.626   1.511   5.889
 2072SOL     OW 7114   4.054   4.622   5.579
 2072SOL    HW1 7115   4.021   4.593   5.669
 2072SOL    HW2 7116   4.086   4.543   5.528
 2073SOL     OW 7117   3.307   6.096   0.371
 2073SOL    HW1 7118   3.394   6.082   0.418
 2073SOL    HW2 7119   3.232   6.089   0.436
 2074SOL     OW 7120   1.243   3.875   5.323
 2074SOL    HW1 7121   1.315   3.933   5.360
 2074SOL    HW2 7122   1.162   3.880   5.381
 2075SOL     OW 7123   6.639   1.933   1.468
 2075SOL    HW1 7124   6.577   2.001   1.507
 2075SOL    HW2 7125   6.708   1.908   1.536
 2076SOL     OW 7126   5.135   6.758   4.482
 2076SOL    HW1 7127   5.085   6.816   4.547
 2076SOL    HW2 7128   5.158   6.671   4.525
 2077SOL     OW 7129   6.956   4.095   0.909
 2077SOL    HW1 7130   6.882   4.123   0.970
 2077SOL    HW2 7131   0.015   4.082   0.963
 2078SOL     OW 7132   1.552   3.399   5.819
 2078SOL    HW1 7133   1.625   3.345   5.860
 2078SOL    HW2 7134   1.469   3.391   5.875
 2079SOL     OW 7135   5.278   1.849   1.896
 2079SOL    HW1 7136   5.245   1.756   1.887
 2079SOL    HW2 7137   5.372   1.848   1.932
 2080SOL     OW 7138   2.160   3.180   5.585
 2080SOL    HW1 7139   2.146   3.084   5.609
 2080SOL    HW2 7140   2.258   3.197   5.575
 2081SOL     OW 7141   6.554   0.106   3.456
 2081SOL    HW1 7142   6.505   0.188   3.427
 2081SOL    HW2 7143   6.593   0.060   3.377
 2082SOL     OW 7144   0.106   6.215   2.512
 2082SOL    HW1 7145   0.063   6.300   2.481
 2082SOL    HW2 7146   0.074   6.140   2.455
 2083SOL     OW 7147   0.004   6.111   4.504
 2083SOL    HW1 7148   6.964   6.152   4.569
 2083SOL    HW2 7149   0.018   6.174   4.428
 2084SOL     OW 7150   0.186   2.642   2.046
 2084SOL    HW1 7151   0.226   2.681   2.129
 2084SOL    HW2 7152   0.194   2.542   2.049
 2085SOL     OW 7153   5.439   5.526   0.754
 2085SOL    HW1 7154   5.472   5.591   0.685
 2085SOL    HW2 7155   5.350   5.555   0.788
 2086SOL     OW 7156   4.391   0.117   6.827
 2086SOL    HW1 7157   4.365   0.129   6.922
 2086SOL    HW2 7158   4.308   0.113   6.770
 2087SOL     OW 7159   4.209   2.316   6.848
 2087SOL    HW1 7160   4.298   2.349   6.818
 2087SOL    HW2 7161   4.172   2.253   6.779
 2088SOL     OW 7162   0.082   5.866   5.073
 2088SOL    HW1 7163   0.073   5.771   5.041
 2088SOL    HW2 7164   0.157   5.871   5.139
 2089SOL     OW 7165   3.161   3.622   6.766
 2089SOL    HW1 7166   3.239   3.633   6.827
 2089SOL    HW2 7167   3.114   3.710   6.756
 2090SOL     OW 7168   4.468   3.458   5.292
 2090SOL    HW1 7169   4.556   3.502   5.276
 2090SOL    HW2 7170   4.482   3.363   5.321
 2091SOL     OW 7171   6.048   5.774   1.773
 2091SOL    HW1 7172   5.974   5.813   1.717
 2091SOL    HW2 7173   6.023   5.781   1.870
 2092SOL     OW 7174   4.651   3.807   1.285
 2092SOL    HW1 7175   4.627   3.811   1.187
 2092SOL    HW2 7176   4.669   3.712   1.311
 2093SOL     OW 7177   3.729   2.139   2.943
 2093SOL    HW1 7178   3.723   2.234   2.915
 2093SOL    HW2 7179   3.679   2.082   2.877
 2094SOL     OW 7180   5.471   2.580   6.267
 2094SOL    HW1 7181   5.430   2.622   6.186
 2094SOL    HW2 7182   5.406   2.518   6.310
 2095SOL     OW 7183   5.324   6.606   3.546
 2095SOL    HW1 7184   5.235   6.649   3.528
 2095SOL    HW2 7185   5.310   6.514   3.581
 2096SOL     OW 7186   4.623   6.788   2.466
 2096SOL    HW1 7187   4.672   6.704   2.491
 2096SOL    HW2 7188   4.568   6.819   2.543
 2097SOL     OW 7189   1.515   5.035   6.291
 2097SOL    HW1 7190   1.449   4.987   6.349
 2097SOL    HW2 7191   1.482   5.036   6.197
 2098SOL     OW 7192   3.233   6.169   3.201
 2098SOL    HW1 7193   3.321   6.200   3.237
 2098SOL    HW2 7194   3.159   6.218   3.247
 2099SOL     OW 7195   5.481   1.368   6.960
 2099SOL    HW1 7196   5.465   1.431   0.011
 2099SOL    HW2 7197   5.572   1.327   6.969
 2100SOL     OW 7198   5.583   0.529   1.278
 2100SOL    HW1 7199   5.602   0.625   1.297
 2100SOL    HW2 7200   5.491   0.521   1.239
 2101SOL     OW 7201   0.029   6.431   1.673
 2101SOL    HW1 7202   0.120   6.425   1.714
 2101SOL    HW2 7203   6.985   6.440   1.745
 2102SOL     OW 7204   3.535   3.352   0.612
 2102SOL    HW1 7205   3.447   3.345   0.657
 2102SOL    HW2 7206   3.536   3.433   0.552
 2103SOL     OW 7207   3.034   6.261   0.972
 2103SOL    HW1 7208   3.072   6.182   1.020
 2103SOL    HW2 7209   2.937   6.244   0.953
 2104SOL     OW 7210   1.356   5.266   2.712
 2104SOL    HW1 7211   1.407   5.316   2.783
 2104SOL    HW2 7212   1.280   5.217   2.754
 2105SOL     OW 7213   5.755   4.094   6.310
 2105SOL    HW1 7214   5.743   4.172   6.372
 2105SOL    HW2 7215   5.808   4.124   6.230
 2106SOL     OW 7216   5.123   3.757   1.626
 2106SOL    HW1 7217   5.104   3.659   1.632
 2106SOL    HW2 7218   5.060   3.800   1.561
 2107SOL     OW 7219   5.742   3.683   5.549
 2107SOL    HW1 7220   5.642   3.679   5.540
 2107SOL    HW2 7221   5.783   3.610   5.495
 2108SOL     OW 7222   5.888   0.226   5.734
 2108SOL    HW1 7223   5.834   0.279   5.799
 2108SOL    HW2 7224   5.843   0.227   5.645
 2109SOL     OW 7225   2.260   6.011   3.474
 2109SOL    HW1 7226   2.271   5.926   3.422
 2109SOL    HW2 7227   2.342   6.067   3.466
 2110SOL     OW 7228   4.598   0.510   6.713
 2110SOL    HW1 7229   4.663   0.453   6.763
 2110SOL    HW2 7230   4.584   0.472   6.622
 2111SOL     OW 7231   1.098   2.296   5.769
 2111SOL    HW1 7232   1.068   2.349   5.689
 2111SOL    HW2 7233   1.181   2.245   5.746
 2112SOL     OW 7234   0.263   1.192   0.277
 2112SOL    HW1 7235   0.214   1.266   0.323
 2112SOL    HW2 7236   0.301   1.226   0.191
 2113SOL     OW 7237   1.457   6.966   4.624
 2113SOL    HW1 7238   1.486   0.002   4.698
 2113SOL    HW2 7239   1.377   7.004   4.579
 2114SOL     OW 7240   1.945   2.309   6.439
 2114SOL    HW1 7241   2.001   2.335   6.517
 2114SOL    HW2 7242   1.976   2.221   6.403
 2115SOL     OW 7243   6.311   6.000   3.227
 2115SOL    HW1 7244   6.215   6.026   3.239
 2115SOL    HW2 7245   6.318   5.901   3.216
 2116SOL     OW 7246   0.577   2.579   6.560
 2116SOL    HW1 7247   0.659   2.546   6.607
 2116SOL    HW2 7248   0.548   2.666   6.601
 2117SOL     OW 7249   6.204   1.234   1.763
 2117SOL    HW1 7250   6.167   1.200   1.849
 2117SOL    HW2 7251   6.197   1.162   1.693
 2118SOL     OW 7252   6.421   2.514   2.113
 2118SOL    HW1 7253   6.333   2.522   2.159
 2118SOL    HW2 7254   6.460   2.423   2.132
 2119SOL     OW 7255   3.128   0.803   0.181
 2119SOL    HW1 7256   3.173   0.761   0.260
 2119SOL    HW2 7257   3.145   0.902   0.182
 2120SOL     OW 7258   5.721   1.543   0.645
 2120SOL    HW1 7259   5.787   1.615   0.622
 2120SOL    HW2 7260   5.747   1.501   0.732
 2121SOL     OW 7261   1.402   0.406   6.599
 2121SOL    HW1 7262   1.401   0.499   6.564
 2121SOL    HW2 7263   1.457   0.402   6.682
 2122SOL     OW 7264   6.043   1.066   4.563
 2122SOL    HW1 7265   6.132   1.099   4.595
 2122SOL    HW2 7266   6.040   0.966   4.567
 2123SOL     OW 7267   1.711   5.876   3.600
 2123SOL    HW1 7268   1.660   5.820   3.535
 2123SOL    HW2 7269   1.764   5.945   3.550
 2124SOL     OW 7270   3.748   3.300   5.947
 2124SOL    HW1 7271   3.648   3.302   5.951
 2124SOL    HW2 7272   3.783   3.391   5.926
 2125SOL     OW 7273   1.257   5.870   3.869
 2125SOL    HW1 7274   1.249   5.818   3.784
 2125SOL    HW2 7275   1.354   5.884   3.889
 2126SOL     OW 7276   3.577   4.389   6.764
 2126SOL    HW1 7277   3.591   4.318   6.833
 2126SOL    HW2 7278   3.492   4.371   6.715
 2127SOL     OW 7279   0.740   2.493   5.175
 2127SOL    HW1 7280   0.823   2.536   5.211
 2127SOL    HW2 7281   0.736   2.506   5.076
 2128SOL     OW 7282   5.326   2.826   1.517
 2128SOL    HW1 7283   5.342   2.865   1.607
 2128SOL    HW2 7284   5.406   2.771   1.490
 2129SOL     OW 7285   5.119   4.649   3.643
 2129SOL    HW1 7286   5.022   4.623   3.642
 2129SOL    HW2 7287   5.158   4.636   3.552
 2130SOL     OW 7288   2.443   1.069   2.968
 2130SOL    HW1 7289   2.443   1.056   2.868
 2130SOL    HW2 7290   2.349   1.075   3.001
 2131SOL     OW 7291   5.686   1.607   5.563
 2131SOL    HW1 7292   5.628   1.592   5.483
 2131SOL    HW2 7293   5.659   1.693   5.608
 2132SOL     OW 7294   2.710   2.549   0.207
 2132SOL    HW1 7295   2.685   2.614   0.279
 2132SOL    HW2 7296   2.762   2.597   0.136
 2133SOL     OW 7297   2.766   2.134   1.868
 2133SOL    HW1 7298   2.797   2.208   1.927
 2133SOL    HW2 7299   2.838   2.112   1.801
 2134SOL     OW 7300   1.030   6.629   4.916
 2134SOL    HW1 7301   0.946   6.681   4.934
 2134SOL    HW2 7302   1.041   6.616   4.817
 2135SOL     OW 7303   0.971   1.071   3.117
 2135SOL    HW1 7304   0.932   1.151   3.072
 2135SOL    HW2 7305   1.015   1.099   3.203
 2136SOL     OW 7306   0.708   4.215   3.717
 2136SOL    HW1 7307   0.763   4.244   3.795
 2136SOL    HW2 7308   0.729   4.120   3.695
 2137SOL     OW 7309   1.434   0.419   5.158
 2137SOL    HW1 7310   1.430   0.399   5.256
 2137SOL    HW2 7311   1.341   0.433   5.124
 2138SOL     OW 7312   0.648   2.492   0.634
 2138SOL    HW1 7313   0.651   2.469   0.731
 2138SOL    HW2 7314   0.704   2.427   0.582
 2139SOL     OW 7315   2.775   1.153   5.799
 2139SOL    HW1 7316   2.870   1.125   5.786
 2139SOL    HW2 7317   2.734   1.099   5.873
 2140SOL     OW 7318   2.447   5.532   2.955
 2140SOL    HW1 7319   2.360   5.508   2.913
 2140SOL    HW2 7320   2.520   5.478   2.914
 2141SOL     OW 7321   5.585   2.481   0.989
 2141SOL    HW1 7322   5.623   2.407   0.934
 2141SOL    HW2 7323   5.494   2.505   0.954
 2142SOL     OW 7324   2.026   2.189   3.194
 2142SOL    HW1 7325   2.115   2.143   3.201
 2142SOL    HW2 7326   2.036   2.271   3.138
 2143SOL     OW 7327   2.835   7.014   1.467
 2143SOL    HW1 7328   2.894   6.934   1.452
 2143SOL    HW2 7329   2.744   6.983   1.493
 2144SOL     OW 7330   0.464   1.005   3.176
 2144SOL    HW1 7331   0.366   1.003   3.198
 2144SOL    HW2 7332   0.488   1.096   3.141
 2145SOL     OW 7333   3.796   5.129   3.232
 2145SOL    HW1 7334   3.790   5.217   3.185
 2145SOL    HW2 7335   3.879   5.126   3.288
 2146SOL     OW 7336   3.918   2.982   3.064
 2146SOL    HW1 7337   3.867   2.948   3.143
 2146SOL    HW2 7338   3.864   2.969   2.981
 2147SOL     OW 7339   1.179   0.852   5.302
 2147SOL    HW1 7340   1.186   0.946   5.337
 2147SOL    HW2 7341   1.112   0.801   5.356
 2148SOL     OW 7342   5.045   3.265   2.732
 2148SOL    HW1 7343   5.129   3.319   2.721
 2148SOL    HW2 7344   4.966   3.325   2.728
 2149SOL     OW 7345   4.241   0.889   2.886
 2149SOL    HW1 7346   4.226   0.888   2.787
 2149SOL    HW2 7347   4.242   0.796   2.921
 2150SOL     OW 7348   3.079   2.198   3.280
 2150SOL    HW1 7349   3.041   2.141   3.353
 2150SOL    HW2 7350   3.175   2.173   3.266
 2151SOL     OW 7351   3.768   2.955   5.530
 2151SOL    HW1 7352   3.756   2.872   5.476
 2151SOL    HW2 7353   3.804   3.028   5.472
 2152SOL     OW 7354   6.106   6.147   1.728
 2152SOL    HW1 7355   6.144   6.079   1.791
 2152SOL    HW2 7356   6.010   6.163   1.749
 2153SOL     OW 7357   4.778   2.718   3.188
 2153SOL    HW1 7358   4.786   2.778   3.108
 2153SOL    HW2 7359   4.733   2.767   3.262
 2154SOL     OW 7360   3.908   6.303   5.164
 2154SOL    HW1 7361   4.000   6.270   5.141
 2154SOL    HW2 7362   3.914   6.364   5.243
 2155SOL     OW 7363   0.048   3.878   0.062
 2155SOL    HW1 7364   0.061   3.957   0.121
 2155SOL    HW2 7365   7.012   3.903   7.011
 2156SOL     OW 7366   1.967   0.336   2.057
 2156SOL    HW1 7367   1.937   0.409   1.995
 2156SOL    HW2 7368   2.051   0.365   2.103
 2157SOL     OW 7369   1.078   1.813   5.099
 2157SOL    HW1 7370   1.146   1.749   5.066
 2157SOL    HW2 7371   1.074   1.893   5.039
 2158SOL     OW 7372   3.080   6.574   1.773
 2158SOL    HW1 7373   3.119   6.599   1.684
 2158SOL    HW2 7374   3.060   6.656   1.825
 2159SOL     OW 7375   1.580   6.560   4.961
 2159SOL    HW1 7376   1.544   6.611   4.882
 2159SOL    HW2 7377   1.575   6.618   5.043
 2160SOL     OW 7378   3.077   3.841   1.144
 2160SOL    HW1 7379   3.009   3.914   1.150
 2160SOL    HW2 7380   3.034   3.759   1.105
 2161SOL     OW 7381   5.470   2.594   3.329
 2161SOL    HW1 7382   5.385   2.645   3.312
 2161SOL    HW2 7383   5.480   2.579   3.427
 2162SOL     OW 7384   0.964   0.434   6.604
 2162SOL    HW1 7385   1.038   0.480   6.654
 2162SOL    HW2 7386   0.916   0.371   6.666
 2163SOL     OW 7387   1.843   1.683   0.660
 2163SOL    HW1 7388   1.831   1.744   0.582
 2163SOL    HW2 7389   1.774   1.702   0.729
 2164SOL     OW 7390   1.045   1.179   0.172
 2164SOL    HW1 7391   1.070   1.100   0.228
 2164SOL    HW2 7392   1.017   1.255   0.231
 2165SOL     OW 7393   2.351   6.919   3.024
 2165SOL    HW1 7394   2.404   6.833   3.029
 2165SOL    HW2 7395   2.414   6.995   3.010
 2166SOL     OW 7396   7.020   2.829   6.340
 2166SOL    HW1 7397   0.005   2.927   6.357
 2166SOL    HW2 7398   0.079   2.794   6.298
 2167SOL     OW 7399   3.317   0.765   2.798
 2167SOL    HW1 7400   3.386   0.766   2.726
 2167SOL    HW2 7401   3.226   0.772   2.757
 2168SOL     OW 7402   5.706   4.887   4.980
 2168SOL    HW1 7403   5.725   4.851   4.888
 2168SOL    HW2 7404   5.787   4.933   5.015
 2169SOL     OW 7405   5.459   1.843   5.810
 2169SOL    HW1 7406   5.454   1.912   5.882
 2169SOL    HW2 7407   5.441   1.885   5.721
 2170SOL     OW 7408   4.091   4.786   4.720
 2170SOL    HW1 7409   4.091   4.849   4.642
 2170SOL    HW2 7410   4.000   4.747   4.732
 2171SOL     OW 7411   0.407   2.689   7.021
 2171SOL    HW1 7412   0.407   2.698   0.096
 2171SOL    HW2 7413   0.322   2.727   6.984
 2172SOL     OW 7414   3.148   0.897   1.042
 2172SOL    HW1 7415   3.122   0.946   1.126
 2172SOL    HW2 7416   3.247   0.888   1.038
 2173SOL     OW 7417   5.637   1.261   5.534
 2173SOL    HW1 7418   5.664   1.187   5.472
 2173SOL    HW2 7419   5.705   1.334   5.530
 2174SOL     OW 7420   0.125   5.200   4.761
 2174SOL    HW1 7421   0.225   5.202   4.773
 2174SOL    HW2 7422   0.089   5.113   4.795
 2175SOL     OW 7423   1.926   6.681   4.712
 2175SOL    HW1 7424   1.857   6.753   4.700
 2175SOL    HW2 7425   1.903   6.626   4.792
 2176SOL     OW 7426   1.656   2.676   3.195
 2176SOL    HW1 7427   1.579   2.660   3.133
 2176SOL    HW2 7428   1.725   2.605   3.180
 2177SOL     OW 7429   0.485   2.638   1.327
 2177SOL    HW1 7430   0.499   2.709   1.259
 2177SOL    HW2 7431   0.573   2.599   1.354
 2178SOL     OW 7432   0.408   4.763   0.200
 2178SOL    HW1 7433   0.379   4.804   0.113
 2178SOL    HW2 7434   0.346   4.792   0.273
 2179SOL     OW 7435   1.605   5.474   4.435
 2179SOL    HW1 7436   1.542   5.398   4.417
 2179SOL    HW2 7437   1.628   5.476   4.532
 2180SOL     OW 7438   3.500   2.866   2.780
 2180SOL    HW1 7439   3.427   2.855   2.848
 2180SOL    HW2 7440   3.502   2.786   2.720
 2181SOL     OW 7441   4.967   5.311   5.968
 2181SOL    HW1 7442   5.008   5.309   5.877
 2181SOL    HW2 7443   4.867   5.308   5.960
 2182SOL     OW 7444   6.407   3.054   6.318
 2182SOL    HW1 7445   6.311   3.081   6.313
 2182SOL    HW2 7446   6.423   3.001   6.402
 2183SOL     OW 7447   3.548   3.172   1.044
 2183SOL    HW1 7448   3.562   3.259   1.091
 2183SOL    HW2 7449   3.618   3.106   1.072
 2184SOL     OW 7450   3.848   2.435   6.303
 2184SOL    HW1 7451   3.842   2.336   6.301
 2184SOL    HW2 7452   3.944   2.463   6.315
 2185SOL     OW 7453   1.431   1.247   1.502
 2185SOL    HW1 7454   1.361   1.188   1.543
 2185SOL    HW2 7455   1.460   1.316   1.568
 2186SOL     OW 7456   0.481   6.106   3.226
 2186SOL    HW1 7457   0.556   6.169   3.204
 2186SOL    HW2 7458   0.400   6.158   3.252
 2187SOL     OW 7459   0.141   1.134   6.184
 2187SOL    HW1 7460   0.233   1.105   6.212
 2187SOL    HW2 7461   0.142   1.231   6.161
 2188SOL     OW 7462   5.734   0.430   3.071
 2188SOL    HW1 7463   5.664   0.406   3.138
 2188SOL    HW2 7464   5.800   0.493   3.112
 2189SOL     OW 7465   2.213   0.241   6.509
 2189SOL    HW1 7466   2.302   0.286   6.502
 2189SOL    HW2 7467   2.141   0.310   6.514
 2190SOL     OW 7468   5.072   1.996   2.003
 2190SOL    HW1 7469   5.004   1.937   1.960
 2190SOL    HW2 7470   5.163   1.973   1.968
 2191SOL     OW 7471   3.234   2.706   6.598
 2191SOL    HW1 7472   3.196   2.778   6.540
 2191SOL    HW2 7473   3.281   2.639   6.541
 2192SOL     OW 7474   5.001   5.809   4.692
 2192SOL    HW1 7475   4.960   5.719   4.680
 2192SOL    HW2 7476   5.022   5.848   4.602
 2193SOL     OW 7477   1.107   4.843   6.325
 2193SOL    HW1 7478   1.053   4.766   6.292
 2193SOL    HW2 7479   1.143   4.895   6.247
 2194SOL     OW 7480   2.700   0.506   1.830
 2194SOL    HW1 7481   2.652   0.436   1.883
 2194SOL    HW2 7482   2.723   0.583   1.890
 2195SOL     OW 7483   1.584   4.980   2.608
 2195SOL    HW1 7484   1.604   5.077   2.595
 2195SOL    HW2 7485   1.485   4.966   2.609
 2196SOL     OW 7486   3.317   2.526   6.389
 2196SOL    HW1 7487   3.303   2.540   6.291
 2196SOL    HW2 7488   3.393   2.463   6.404
 2197SOL     OW 7489   4.902   5.128   0.647
 2197SOL    HW1 7490   4.913   5.064   0.724
 2197SOL    HW2 7491   4.859   5.080   0.570
 2198SOL     OW 7492   6.351   3.963   0.217
 2198SOL    HW1 7493   6.395   3.878   0.189
 2198SOL    HW2 7494   6.277   3.943   0.281
 2199SOL     OW 7495   4.995   0.458   1.510
 2199SOL    HW1 7496   4.991   0.385   1.442
 2199SOL    HW2 7497   4.911   0.511   1.508
 2200SOL     OW 7498   3.043   0.853   4.881
 2200SOL    HW1 7499   3.079   0.761   4.893
 2200SOL    HW2 7500   2.999   0.860   4.791
 2201SOL     OW 7501   5.441   3.288   2.000
 2201SOL    HW1 7502   5.521   3.229   2.012
 2201SOL    HW2 7503   5.469   3.375   1.961
 2202SOL     OW 7504   4.476   6.058   3.716
 2202SOL    HW1 7505   4.406   6.129   3.711
 2202SOL    HW2 7506   4.533   6.061   3.634
 2203SOL     OW 7507   3.338   2.091   3.208
 2203SOL    HW1 7508   3.282   2.108   3.127
 2203SOL    HW2 7509   3.433   2.075   3.179
 2204SOL     OW 7510   3.340   2.740   0.355
 2204SOL    HW1 7511   3.414   2.759   0.290
 2204SOL    HW2 7512   3.361   2.657   0.407
 2205SOL     OW 7513   3.027   6.660   0.553
 2205SOL    HW1 7514   3.042   6.701   0.463
 2205SOL    HW2 7515   3.115   6.646   0.599
 2206SOL     OW 7516   2.222   3.078   6.718
 2206SOL    HW1 7517   2.245   3.087   6.815
 2206SOL    HW2 7518   2.282   3.138   6.664
 2207SOL     OW 7519   0.993   4.156   5.579
 2207SOL    HW1 7520   0.950   4.120   5.662
 2207SOL    HW2 7521   0.965   4.251   5.565
 2208SOL     OW 7522   0.736   4.136   1.987
 2208SOL    HW1 7523   0.653   4.090   2.017
 2208SOL    HW2 7524   0.810   4.070   1.979
 2209SOL     OW 7525   1.104   5.941   0.486
 2209SOL    HW1 7526   1.167   5.939   0.564
 2209SOL    HW2 7527   1.039   5.865   0.494
 2210SOL     OW 7528   0.536   5.967   4.191
 2210SOL    HW1 7529   0.452   5.961   4.137
 2210SOL    HW2 7530   0.568   5.875   4.213
 2211SOL     OW 7531   6.399   1.403   5.452
 2211SOL    HW1 7532   6.396   1.379   5.355
 2211SOL    HW2 7533   6.328   1.471   5.471
 2212SOL     OW 7534   1.378   0.193   6.008
 2212SOL    HW1 7535   1.349   0.212   6.101
 2212SOL    HW2 7536   1.478   0.191   6.004
 2213SOL     OW 7537   3.599   1.470   3.462
 2213SOL    HW1 7538   3.678   1.460   3.403
 2213SOL    HW2 7539   3.617   1.541   3.531
 2214SOL     OW 7540   4.064   0.109   4.333
 2214SOL    HW1 7541   4.055   0.040   4.261
 2214SOL    HW2 7542   4.159   0.137   4.342
 2215SOL     OW 7543   5.857   2.442   5.418
 2215SOL    HW1 7544   5.787   2.469   5.353
 2215SOL    HW2 7545   5.913   2.369   5.378
 2216SOL     OW 7546   2.039   0.054   1.609
 2216SOL    HW1 7547   2.078   0.127   1.553
 2216SOL    HW2 7548   2.040   0.081   1.705
 2217SOL     OW 7549   3.872   0.444   1.230
 2217SOL    HW1 7550   3.863   0.543   1.242
 2217SOL    HW2 7551   3.782   0.403   1.225
 2218SOL     OW 7552   0.984   5.641   1.065
 2218SOL    HW1 7553   0.958   5.734   1.040
 2218SOL    HW2 7554   0.933   5.575   1.009
 2219SOL     OW 7555   1.297   3.605   3.102
 2219SOL    HW1 7556   1.308   3.671   3.028
 2219SOL    HW2 7557   1.342   3.639   3.184
 2220SOL     OW 7558   0.127   1.226   6.851
 2220SOL    HW1 7559   0.042   1.207   6.900
 2220SOL    HW2 7560   0.118   1.194   6.756
 2221SOL     OW 7561   0.107   2.547   1.048
 2221SOL    HW1 7562   0.070   2.529   1.140
 2221SOL    HW2 7563   0.034   2.581   0.989
 2222SOL     OW 7564   5.192   6.653   2.629
 2222SOL    HW1 7565   5.145   6.625   2.545
 2222SOL    HW2 7566   5.141   6.619   2.709
 2223SOL     OW 7567   4.915   5.569   2.292
 2223SOL    HW1 7568   4.902   5.489   2.233
 2223SOL    HW2 7569   4.914   5.541   2.388
 2224SOL     OW 7570   1.534   5.001   1.195
 2224SOL    HW1 7571   1.442   4.970   1.173
 2224SOL    HW2 7572   1.536   5.038   1.288
 2225SOL     OW 7573   6.181   4.820   1.933
 2225SOL    HW1 7574   6.186   4.888   1.860
 2225SOL    HW2 7575   6.273   4.807   1.972
 2226SOL     OW 7576   4.460   4.074   1.170
 2226SOL    HW1 7577   4.481   4.041   1.262
 2226SOL    HW2 7578   4.482   4.003   1.103
 2227SOL     OW 7579   0.531   4.244   5.122
 2227SOL    HW1 7580   0.436   4.217   5.105
 2227SOL    HW2 7581   0.592   4.172   5.089
 2228SOL     OW 7582   2.798   4.793   5.516
 2228SOL    HW1 7583   2.892   4.758   5.511
 2228SOL    HW2 7584   2.783   4.835   5.606
 2229SOL     OW 7585   4.741   0.546   3.289
 2229SOL    HW1 7586   4.695   0.512   3.371
 2229SOL    HW2 7587   4.730   0.480   3.214
 2230SOL     OW 7588   1.227   6.032   0.216
 2230SOL    HW1 7589   1.305   5.976   0.185
 2230SOL    HW2 7590   1.187   5.991   0.298
 2231SOL     OW 7591   2.658   6.970   2.103
 2231SOL    HW1 7592   2.615   6.940   2.018
 2231SOL    HW2 7593   2.655   6.897   2.171
 2232SOL     OW 7594   6.554   3.170   3.008
 2232SOL    HW1 7595   6.647   3.196   3.034
 2232SOL    HW2 7596   6.509   3.125   3.086
 2233SOL     OW 7597   3.934   0.550   6.855
 2233SOL    HW1 7598   4.010   0.525   6.915
 2233SOL    HW2 7599   3.926   0.484   6.780
 2234SOL     OW 7600   3.333   1.652   0.745
 2234SOL    HW1 7601   3.405   1.582   0.744
 2234SOL    HW2 7602   3.287   1.654   0.656
 2235SOL     OW 7603   1.810   6.745   1.235
 2235SOL    HW1 7604   1.825   6.651   1.265
 2235SOL    HW2 7605   1.813   6.806   1.315
 2236SOL     OW 7606   6.674   4.159   0.629
 2236SOL    HW1 7607   6.668   4.133   0.533
 2236SOL    HW2 7608   6.582   4.170   0.667
 2237SOL     OW 7609   6.406   2.376   3.988
 2237SOL    HW1 7610   6.433   2.285   4.021
 2237SOL    HW2 7611   6.310   2.374   3.959
 2238SOL     OW 7612   0.936   6.027   2.272
 2238SOL    HW1 7613   0.938   5.927   2.273
 2238SOL    HW2 7614   0.926   6.059   2.178
 2239SOL     OW 7615   4.460   4.954   3.136
 2239SOL    HW1 7616   4.535   4.894   3.164
 2239SOL    HW2 7617   4.372   4.911   3.159
 2240SOL     OW 7618   5.654   3.819   2.572
 2240SOL    HW1 7619   5.691   3.854   2.486
 2240SOL    HW2 7620   5.721   3.834   2.645
 2241SOL     OW 7621   0.557   0.340   2.179
 2241SOL    HW1 7622   0.463   0.331   2.148
 2241SOL    HW2 7623   0.560   0.388   2.267
 2242SOL     OW 7624   5.257   2.393   2.512
 2242SOL    HW1 7625   5.169   2.430   2.482
 2242SOL    HW2 7626   5.326   2.466   2.510
 2243SOL     OW 7627   2.423   5.898   5.373
 2243SOL    HW1 7628   2.428   5.962   5.297
 2243SOL    HW2 7629   2.505   5.905   5.429
 2244SOL     OW 7630   2.783   0.513   5.225
 2244SOL    HW1 7631   2.790   0.612   5.221
 2244SOL    HW2 7632   2.694   0.484   5.190
 2245SOL     OW 7633   1.492   1.891   1.498
 2245SOL    HW1 7634   1.491   1.811   1.439
 2245SOL    HW2 7635   1.431   1.876   1.576
 2246SOL     OW 7636   1.608   3.626   4.807
 2246SOL    HW1 7637   1.515   3.651   4.834
 2246SOL    HW2 7638   1.668   3.705   4.817
 2247SOL     OW 7639   1.792   1.884   5.994
 2247SOL    HW1 7640   1.721   1.815   5.986
 2247SOL    HW2 7641   1.793   1.922   6.086
 2248SOL     OW 7642   5.184   3.478   5.118
 2248SOL    HW1 7643   5.283   3.468   5.125
 2248SOL    HW2 7644   5.162   3.559   5.064
 2249SOL     OW 7645   4.625   5.330   4.495
 2249SOL    HW1 7646   4.713   5.303   4.456
 2249SOL    HW2 7647   4.555   5.326   4.424
 2250SOL     OW 7648   5.962   4.718   0.124
 2250SOL    HW1 7649   5.900   4.730   0.047
 2250SOL    HW2 7650   5.914   4.674   0.199
 2251SOL     OW 7651   6.335   1.017   6.668
 2251SOL    HW1 7652   6.251   0.965   6.654
 2251SOL    HW2 7653   6.369   1.049   6.579
 2252SOL     OW 7654   3.866   1.912   5.841
 2252SOL    HW1 7655   3.957   1.946   5.864
 2252SOL    HW2 7656   3.824   1.975   5.775
 2253SOL     OW 7657   2.032   2.996   6.482
 2253SOL    HW1 7658   2.065   3.044   6.563
 2253SOL    HW2 7659   2.105   2.994   6.413
 2254SOL     OW 7660   2.247   3.559   6.573
 2254SOL    HW1 7661   2.297   3.572   6.487
 2254SOL    HW2 7662   2.157   3.601   6.566
 2255SOL     OW 7663   5.924   2.669   1.698
 2255SOL    HW1 7664   5.963   2.589   1.652
 2255SOL    HW2 7665   5.991   2.707   1.761
 2256SOL     OW 7666   4.282   4.807   1.778
 2256SOL    HW1 7667   4.189   4.838   1.797
 2256SOL    HW2 7668   4.278   4.718   1.732
 2257SOL     OW 7669   2.242   4.458   4.126
 2257SOL    HW1 7670   2.164   4.423   4.075
 2257SOL    HW2 7671   2.324   4.454   4.068
 2258SOL     OW 7672   1.638   5.503   4.048
 2258SOL    HW1 7673   1.550   5.498   4.000
 2258SOL    HW2 7674   1.703   5.554   3.992
 2259SOL     OW 7675   5.758   2.746   6.702
 2259SOL    HW1 7676   5.702   2.667   6.724
 2259SOL    HW2 7677   5.785   2.742   6.605
 2260SOL     OW 7678   5.640   5.377   0.846
 2260SOL    HW1 7679   5.642   5.357   0.944
 2260SOL    HW2 7680   5.554   5.422   0.822
 2261SOL     OW 7681   4.385   6.076   6.170
 2261SOL    HW1 7682   4.351   5.985   6.196
 2261SOL    HW2 7683   4.345   6.103   6.083
 2262SOL     OW 7684   4.040   1.852   2.996
 2262SOL    HW1 7685   3.995   1.935   3.029
 2262SOL    HW2 7686   4.048   1.856   2.896
 2263SOL     OW 7687   0.180   5.306   6.312
 2263SOL    HW1 7688   0.226   5.247   6.378
 2263SOL    HW2 7689   0.213   5.400   6.322
 2264SOL     OW 7690   3.135   4.011   3.944
 2264SOL    HW1 7691   3.155   4.031   3.848
 2264SOL    HW2 7692   3.052   4.059   3.972
 2265SOL     OW 7693   0.131   0.744   1.686
 2265SOL    HW1 7694   0.176   0.819   1.639
 2265SOL    HW2 7695   0.110   0.671   1.621
 2266SOL     OW 7696   6.015   6.617   0.910
 2266SOL    HW1 7697   6.059   6.528   0.923
 2266SOL    HW2 7698   5.964   6.641   0.993
 2267SOL     OW 7699   5.395   1.920   5.570
 2267SOL    HW1 7700   5.433   2.011   5.554
 2267SOL    HW2 7701   5.375   1.876   5.482
 2268SOL     OW 7702   6.169   5.561   0.227
 2268SOL    HW1 7703   6.254   5.529   0.268
 2268SOL    HW2 7704   6.091   5.518   0.274
 2269SOL     OW 7705   0.059   5.374   5.186
 2269SOL    HW1 7706   7.011   5.424   5.140
 2269SOL    HW2 7707   0.035   5.277   5.191
 2270SOL     OW 7708   4.186   3.510   1.762
 2270SOL    HW1 7709   4.178   3.429   1.820
 2270SOL    HW2 7710   4.271   3.506   1.709
 2271SOL     OW 7711   5.584   4.421   2.832
 2271SOL    HW1 7712   5.610   4.454   2.923
 2271SOL    HW2 7713   5.486   4.404   2.830
 2272SOL     OW 7714   5.288   1.993   6.242
 2272SOL    HW1 7715   5.269   1.911   6.295
 2272SOL    HW2 7716   5.262   2.074   6.294
 2273SOL     OW 7717   1.581   1.694   3.485
 2273SOL    HW1 7718   1.562   1.596   3.490
 2273SOL    HW2 7719   1.655   1.711   3.421
 2274SOL     OW 7720   1.746   3.761   3.614
 2274SOL    HW1 7721   1.789   3.785   3.701
 2274SOL    HW2 7722   1.812   3.773   3.540
 2275SOL     OW 7723   5.028   6.408   3.447
 2275SOL    HW1 7724   4.988   6.407   3.538
 2275SOL    HW2 7725   4.994   6.329   3.395
 2276SOL     OW 7726   4.849   5.097   1.180
 2276SOL    HW1 7727   4.846   4.997   1.191
 2276SOL    HW2 7728   4.813   5.141   1.262
 2277SOL     OW 7729   3.131   3.829   0.412
 2277SOL    HW1 7730   3.113   3.751   0.352
 2277SOL    HW2 7731   3.064   3.901   0.394
 2278SOL     OW 7732   5.738   6.330   1.020
 2278SOL    HW1 7733   5.835   6.308   1.024
 2278SOL    HW2 7734   5.724   6.414   0.968
 2279SOL     OW 7735   5.748   4.185   4.601
 2279SOL    HW1 7736   5.837   4.206   4.640
 2279SOL    HW2 7737   5.714   4.099   4.639
 2280SOL     OW 7738   5.684   6.779   6.132
 2280SOL    HW1 7739   5.641   6.756   6.045
 2280SOL    HW2 7740   5.744   6.857   6.120
 2281SOL     OW 7741   3.446   3.092   0.823
 2281SOL    HW1 7742   3.411   3.181   0.795
 2281SOL    HW2 7743   3.486   3.098   0.914
 2282SOL     OW 7744   3.743   5.307   3.050
 2282SOL    HW1 7745   3.706   5.304   2.957
 2282SOL    HW2 7746   3.668   5.322   3.114
 2283SOL     OW 7747   0.055   3.805   2.940
 2283SOL    HW1 7748   0.137   3.813   2.883
 2283SOL    HW2 7749   0.035   3.893   2.983
 2284SOL     OW 7750   2.285   2.751   1.973
 2284SOL    HW1 7751   2.290   2.799   1.886
 2284SOL    HW2 7752   2.235   2.807   2.040
 2285SOL     OW 7753   2.333   4.447   0.254
 2285SOL    HW1 7754   2.294   4.366   0.299
 2285SOL    HW2 7755   2.412   4.479   0.307
 2286SOL     OW 7756   6.033   6.609   4.444
 2286SOL    HW1 7757   6.081   6.679   4.497
 2286SOL    HW2 7758   6.032   6.523   4.495
 2287SOL     OW 7759   2.125   3.033   1.868
 2287SOL    HW1 7760   2.061   2.981   1.926
 2287SOL    HW2 7761   2.201   2.974   1.841
 2288SOL     OW 7762   0.679   6.399   4.083
 2288SOL    HW1 7763   0.753   6.460   4.110
 2288SOL    HW2 7764   0.717   6.310   4.056
 2289SOL     OW 7765   4.638   2.576   1.324
 2289SOL    HW1 7766   4.665   2.662   1.369
 2289SOL    HW2 7767   4.641   2.501   1.391
 2290SOL     OW 7768   3.508   3.418   3.015
 2290SOL    HW1 7769   3.453   3.466   2.947
 2290SOL    HW2 7770   3.579   3.479   3.049
 2291SOL     OW 7771   2.231   2.387   6.983
 2291SOL    HW1 7772   2.134   2.379   7.006
 2291SOL    HW2 7773   2.284   2.398   0.042
 2292SOL     OW 7774   4.428   2.156   2.638
 2292SOL    HW1 7775   4.372   2.085   2.594
 2292SOL    HW2 7776   4.525   2.137   2.621
 2293SOL     OW 7777   6.404   1.746   0.029
 2293SOL    HW1 7778   6.336   1.819   0.026
 2293SOL    HW2 7779   6.418   1.709   6.962
 2294SOL     OW 7780   0.279   1.813   5.723
 2294SOL    HW1 7781   0.333   1.738   5.761
 2294SOL    HW2 7782   0.182   1.786   5.721
 2295SOL     OW 7783   6.102   6.364   1.019
 2295SOL    HW1 7784   6.188   6.403   1.051
 2295SOL    HW2 7785   6.088   6.274   1.062
 2296SOL     OW 7786   2.915   5.594   4.404
 2296SOL    HW1 7787   2.964   5.552   4.480
 2296SOL    HW2 7788   2.865   5.674   4.436
 2297SOL     OW 7789   4.133   4.437   5.360
 2297SOL    HW1 7790   4.194   4.400   5.290
 2297SOL    HW2 7791   4.055   4.376   5.372
 2298SOL     OW 7792   4.124   3.426   4.488
 2298SOL    HW1 7793   4.124   3.408   4.390
 2298SOL    HW2 7794   4.194   3.370   4.532
 2299SOL     OW 7795   5.475   3.657   4.841
 2299SOL    HW1 7796   5.433   3.653   4.751
 2299SOL    HW2 7797   5.410   3.695   4.907
 2300SOL     OW 7798   4.490   6.371   2.260
 2300SOL    HW1 7799   4.468   6.465   2.233
 2300SOL    HW2 7800   4.405   6.320   2.273
 2301SOL     OW 7801   3.978   3.139   4.411
 2301SOL    HW1 7802   4.040   3.215   4.395
 2301SOL    HW2 7803   3.986   3.108   4.505
 2302SOL     OW 7804   4.240   2.242   0.578
 2302SOL    HW1 7805   4.273   2.311   0.514
 2302SOL    HW2 7806   4.147   2.216   0.555
 2303SOL     OW 7807   3.820   2.137   0.162
 2303SOL    HW1 7808   3.737   2.101   0.120
 2303SOL    HW2 7809   3.891   2.145   0.092
 2304SOL     OW 7810   5.334   5.986   2.147
 2304SOL    HW1 7811   5.341   6.032   2.236
 2304SOL    HW2 7812   5.359   5.889   2.158
 2305SOL     OW 7813   2.145   0.965   5.134
 2305SOL    HW1 7814   2.141   1.035   5.205
 2305SOL    HW2 7815   2.181   1.004   5.049
 2306SOL     OW 7816   1.932   5.000   4.049
 2306SOL    HW1 7817   2.020   4.957   4.028
 2306SOL    HW2 7818   1.920   5.081   3.993
 2307SOL     OW 7819   6.894   3.375   6.162
 2307SOL    HW1 7820   6.985   3.334   6.164
 2307SOL    HW2 7821   6.900   3.470   6.190
 2308SOL     OW 7822   2.038   4.785   1.727
 2308SOL    HW1 7823   2.041   4.870   1.674
 2308SOL    HW2 7824   2.112   4.785   1.794
 2309SOL     OW 7825   2.268   6.570   5.624
 2309SOL    HW1 7826   2.175   6.533   5.627
 2309SOL    HW2 7827   2.289   6.615   5.711
 2310SOL     OW 7828   4.910   6.756   1.222
 2310SOL    HW1 7829   4.936   6.697   1.145
 2310SOL    HW2 7830   4.812   6.749   1.237
 2311SOL     OW 7831   2.980   5.851   1.551
 2311SOL    HW1 7832   3.062   5.906   1.568
 2311SOL    HW2 7833   2.913   5.868   1.623
 2312SOL     OW 7834   3.176   4.847   2.779
 2312SOL    HW1 7835   3.086   4.822   2.745
 2312SOL    HW2 7836   3.170   4.872   2.876
 2313SOL     OW 7837   4.419   5.818   1.508
 2313SOL    HW1 7838   4.369   5.734   1.487
 2313SOL    HW2 7839   4.363   5.897   1.481
 2314SOL     OW 7840   2.052   5.518   4.250
 2314SOL    HW1 7841   2.034   5.571   4.168
 2314SOL    HW2 7842   1.966   5.489   4.291
 2315SOL     OW 7843   4.305   2.991   6.530
 2315SOL    HW1 7844   4.227   2.984   6.467
 2315SOL    HW2 7845   4.390   2.991   6.477
 2316SOL     OW 7846   5.691   3.441   2.529
 2316SOL    HW1 7847   5.657   3.348   2.541
 2316SOL    HW2 7848   5.790   3.439   2.517
 2317SOL     OW 7849   1.067   4.692   4.090
 2317SOL    HW1 7850   1.052   4.750   4.010
 2317SOL    HW2 7851   0.980   4.678   4.138
 2318SOL     OW 7852   6.900   1.549   3.538
 2318SOL    HW1 7853   6.968   1.481   3.565
 2318SOL    HW2 7854   6.918   1.635   3.585
 2319SOL     OW 7855   0.879   4.024   4.061
 2319SOL    HW1 7856   0.928   3.944   4.026
 2319SOL    HW2 7857   0.943   4.101   4.068
 2320SOL     OW 7858   6.453   4.215   4.793
 2320SOL    HW1 7859   6.482   4.130   4.748
 2320SOL    HW2 7860   6.449   4.288   4.725
 2321SOL     OW 7861   2.757   6.031   5.502
 2321SOL    HW1 7862   2.734   5.955   5.562
 2321SOL    HW2 7863   2.853   6.056   5.515
 2322SOL     OW 7864   2.740   0.402   6.066
 2322SOL    HW1 7865   2.743   0.450   6.154
 2322SOL    HW2 7866   2.726   0.304   6.081
 2323SOL     OW 7867   5.161   4.816   2.214
 2323SOL    HW1 7868   5.222   4.787   2.140
 2323SOL    HW2 7869   5.207   4.885   2.269
 2324SOL     OW 7870   6.494   5.071   3.600
 2324SOL    HW1 7871   6.461   5.074   3.694
 2324SOL    HW2 7872   6.487   4.977   3.565
 2325SOL     OW 7873   6.670   3.144   0.765
 2325SOL    HW1 7874   6.638   3.122   0.857
 2325SOL    HW2 7875   6.768   3.162   0.767
 2326SOL     OW 7876   1.818   5.163   0.003
 2326SOL    HW1 7877   1.825   5.252   6.983
 2326SOL    HW2 7878   1.878   5.161   0.083
 2327SOL     OW 7879   5.498   2.725   5.218
 2327SOL    HW1 7880   5.493   2.813   5.170
 2327SOL    HW2 7881   5.427   2.664   5.184
 2328SOL     OW 7882   5.083   6.693   3.443
 2328SOL    HW1 7883   5.047   6.732   3.358
 2328SOL    HW2 7884   5.044   6.602   3.457
 2329SOL     OW 7885   7.016   5.979   3.535
 2329SOL    HW1 7886   0.079   6.024   3.517
 2329SOL    HW2 7887   6.942   6.040   3.509
 2330SOL     OW 7888   0.537   3.714   2.386
 2330SOL    HW1 7889   0.571   3.628   2.346
 2330SOL    HW2 7890   0.589   3.735   2.469
 2331SOL     OW 7891   1.202   4.678   5.617
 2331SOL    HW1 7892   1.149   4.607   5.570
 2331SOL    HW2 7893   1.189   4.765   5.569
 2332SOL     OW 7894   5.733   3.036   4.717
 2332SOL    HW1 7895   5.703   3.065   4.626
 2332SOL    HW2 7896   5.713   2.939   4.730
 2333SOL     OW 7897   1.131   5.477   4.324
 2333SOL    HW1 7898   1.081   5.540   4.384
 2333SOL    HW2 7899   1.207   5.525   4.282
 2334SOL     OW 7900   2.672   0.289   0.522
 2334SOL    HW1 7901   2.605   0.346   0.475
 2334SOL    HW2 7902   2.661   0.193   0.493
 2335SOL     OW 7903   5.028   0.186   3.971
 2335SOL    HW1 7904   5.122   0.205   3.943
 2335SOL    HW2 7905   4.975   0.271   3.970
 2336SOL     OW 7906   4.603   1.358   6.371
 2336SOL    HW1 7907   4.671   1.370   6.298
 2336SOL    HW2 7908   4.543   1.437   6.374
 2337SOL     OW 7909   5.587   0.395   2.788
 2337SOL    HW1 7910   5.603   0.436   2.878
 2337SOL    HW2 7911   5.633   0.450   2.718
 2338SOL     OW 7912   1.218   6.853   6.255
 2338SOL    HW1 7913   1.181   6.943   6.279
 2338SOL    HW2 7914   1.298   6.834   6.313
 2339SOL     OW 7915   3.681   4.454   0.278
 2339SOL    HW1 7916   3.746   4.444   0.203
 2339SOL    HW2 7917   3.642   4.365   0.300
 2340SOL     OW 7918   3.457   5.025   4.899
 2340SOL    HW1 7919   3.493   5.050   4.990
 2340SOL    HW2 7920   3.361   5.002   4.907
 2341SOL     OW 7921   5.987   5.035   0.341
 2341SOL    HW1 7922   5.898   5.039   0.297
 2341SOL    HW2 7923   5.976   5.054   0.439
 2342SOL     OW 7924   6.494   0.208   5.139
 2342SOL    HW1 7925   6.588   0.178   5.151
 2342SOL    HW2 7926   6.433   0.129   5.143
 2343SOL     OW 7927   1.118   6.591   0.352
 2343SOL    HW1 7928   1.216   6.575   0.359
 2343SOL    HW2 7929   1.070   6.538   0.422
 2344SOL     OW 7930   1.804   1.661   2.590
 2344SOL    HW1 7931   1.868   1.584   2.586
 2344SOL    HW2 7932   1.853   1.743   2.620
 2345SOL     OW 7933   2.315   1.637   3.869
 2345SOL    HW1 7934   2.238   1.586   3.908
 2345SOL    HW2 7935   2.387   1.646   3.938
 2346SOL     OW 7936   4.780   3.366   5.832
 2346SOL    HW1 7937   4.766   3.415   5.918
 2346SOL    HW2 7938   4.713   3.396   5.765
 2347SOL     OW 7939   1.224   3.002   1.113
 2347SOL    HW1 7940   1.307   2.975   1.064
 2347SOL    HW2 7941   1.146   3.000   1.051
 2348SOL     OW 7942   2.699   6.602   2.320
 2348SOL    HW1 7943   2.653   6.535   2.378
 2348SOL    HW2 7944   2.712   6.687   2.372
 2349SOL     OW 7945   4.768   5.716   6.092
 2349SOL    HW1 7946   4.860   5.676   6.092
 2349SOL    HW2 7947   4.716   5.679   6.015
 2350SOL     OW 7948   2.470   6.533   5.462
 2350SOL    HW1 7949   2.440   6.452   5.412
 2350SOL    HW2 7950   2.404   6.554   5.534
 2351SOL     OW 7951   2.486   5.433   4.125
 2351SOL    HW1 7952   2.514   5.504   4.189
 2351SOL    HW2 7953   2.406   5.462   4.074
 2352SOL     OW 7954   0.183   3.249   2.188
 2352SOL    HW1 7955   0.142   3.174   2.241
 2352SOL    HW2 7956   0.154   3.337   2.227
 2353SOL     OW 7957   2.521   4.135   6.243
 2353SOL    HW1 7958   2.584   4.057   6.240
 2353SOL    HW2 7959   2.469   4.139   6.158
 2354SOL     OW 7960   3.860   2.798   0.924
 2354SOL    HW1 7961   3.814   2.783   0.836
 2354SOL    HW2 7962   3.799   2.771   0.998
 2355SOL     OW 7963   0.660   6.833   1.036
 2355SOL    HW1 7964   0.619   6.830   0.945
 2355SOL    HW2 7965   0.634   6.751   1.086
 2356SOL     OW 7966   2.871   5.164   3.287
 2356SOL    HW1 7967   2.851   5.262   3.294
 2356SOL    HW2 7968   2.936   5.149   3.212
 2357SOL     OW 7969   6.741   4.395   1.086
 2357SOL    HW1 7970   6.740   4.455   1.006
 2357SOL    HW2 7971   6.651   4.395   1.129
 2358SOL     OW 7972   4.052   1.275   5.738
 2358SOL    HW1 7973   4.009   1.362   5.762
 2358SOL    HW2 7974   4.076   1.274   5.641
 2359SOL     OW 7975   1.442   1.552   5.477
 2359SOL    HW1 7976   1.411   1.474   5.532
 2359SOL    HW2 7977   1.453   1.523   5.382
 2360SOL     OW 7978   4.320   4.526   0.515
 2360SOL    HW1 7979   4.340   4.623   0.529
 2360SOL    HW2 7980   4.406   4.476   0.509
 2361SOL     OW 7981   4.035   5.851   1.873
 2361SOL    HW1 7982   3.963   5.909   1.834
 2361SOL    HW2 7983   4.080   5.898   1.948
 2362SOL     OW 7984   3.829   6.107   3.791
 2362SOL    HW1 7985   3.914   6.059   3.812
 2362SOL    HW2 7986   3.776   6.120   3.875
 2363SOL     OW 7987   2.913   4.166   0.916
 2363SOL    HW1 7988   2.919   4.261   0.883
 2363SOL    HW2 7989   2.946   4.104   0.846
 2364SOL     OW 7990   4.431   1.651   2.363
 2364SOL    HW1 7991   4.512   1.678   2.310
 2364SOL    HW2 7992   4.348   1.674   2.311
 2365SOL     OW 7993   4.843   3.256   3.419
 2365SOL    HW1 7994   4.872   3.209   3.502
 2365SOL    HW2 7995   4.762   3.211   3.381
 2366SOL     OW 7996   2.598   4.638   5.201
 2366SOL    HW1 7997   2.575   4.560   5.259
 2366SOL    HW2 7998   2.687   4.622   5.158
 2367SOL     OW 7999   6.398   4.755   6.104
 2367SOL    HW1 8000   6.314   4.767   6.157
 2367SOL    HW2 8001   6.468   4.713   6.162
 2368SOL     OW 8002   5.300   6.712   3.963
 2368SOL    HW1 8003   5.311   6.623   4.005
 2368SOL    HW2 8004   5.252   6.774   4.025
 2369SOL     OW 8005   3.070   1.792   4.623
 2369SOL    HW1 8006   3.066   1.830   4.715
 2369SOL    HW2 8007   3.147   1.728   4.616
 2370SOL     OW 8008   5.461   2.672   1.181
 2370SOL    HW1 8009   5.476   2.573   1.178
 2370SOL    HW2 8010   5.484   2.705   1.273
 2371SOL     OW 8011   0.731   6.992   2.908
 2371SOL    HW1 8012   0.783   6.925   2.960
 2371SOL    HW2 8013   0.636   6.963   2.901
 2372SOL     OW 8014   6.369   1.074   5.818
 2372SOL    HW1 8015   6.460   1.056   5.856
 2372SOL    HW2 8016   6.378   1.132   5.737
 2373SOL     OW 8017   6.041   5.879   6.713
 2373SOL    HW1 8018   6.099   5.960   6.726
 2373SOL    HW2 8019   5.955   5.907   6.670
 2374SOL     OW 8020   5.838   6.161   1.922
 2374SOL    HW1 8021   5.904   6.194   1.989
 2374SOL    HW2 8022   5.749   6.203   1.941
 2375SOL     OW 8023   0.775   0.294   4.425
 2375SOL    HW1 8024   0.795   0.197   4.439
 2375SOL    HW2 8025   0.858   0.347   4.441
 2376SOL     OW 8026   6.143   1.397   3.280
 2376SOL    HW1 8027   6.217   1.448   3.324
 2376SOL    HW2 8028   6.162   1.390   3.182
 2377SOL     OW 8029   4.375   4.990   5.369
 2377SOL    HW1 8030   4.306   5.056   5.400
 2377SOL    HW2 8031   4.366   4.906   5.422
 2378SOL     OW 8032   6.951   1.047   0.487
 2378SOL    HW1 8033   6.953   1.141   0.451
 2378SOL    HW2 8034   6.856   1.014   0.489
 2379SOL     OW 8035   6.684   4.745   1.080
 2379SOL    HW1 8036   6.756   4.701   1.026
 2379SOL    HW2 8037   6.612   4.777   1.018
 2380SOL     OW 8038   4.857   4.827   5.093
 2380SOL    HW1 8039   4.828   4.740   5.054
 2380SOL    HW2 8040   4.940   4.813   5.147
 2381SOL     OW 8041   2.178   4.724   5.043
 2381SOL    HW1 8042   2.130   4.641   5.015
 2381SOL    HW2 8043   2.271   4.723   5.005
 2382SOL     OW 8044   0.728   6.236   2.619
 2382SOL    HW1 8045   0.787   6.261   2.543
 2382SOL    HW2 8046   0.674   6.155   2.595
 2383SOL     OW 8047   5.666   5.575   5.504
 2383SOL    HW1 8048   5.703   5.486   5.478
 2383SOL    HW2 8049   5.572   5.566   5.534
 2384SOL     OW 8050   0.803   1.875   2.170
 2384SOL    HW1 8051   0.883   1.932   2.151
 2384SOL    HW2 8052   0.810   1.789   2.119
 2385SOL     OW 8053   0.521   2.338   1.117
 2385SOL    HW1 8054   0.573   2.334   1.032
 2385SOL    HW2 8055   0.560   2.407   1.178
 2386SOL     OW 8056   4.938   6.318   3.797
 2386SOL    HW1 8057   5.038   6.319   3.796
 2386SOL    HW2 8058   4.905   6.225   3.811
 2387SOL     OW 8059   1.526   1.889   4.148
 2387SOL    HW1 8060   1.463   1.966   4.157
 2387SOL    HW2 8061   1.508   1.822   4.220
 2388SOL     OW 8062   7.014   2.051   5.486
 2388SOL    HW1 8063   7.004   2.014   5.579
 2388SOL    HW2 8064   6.973   1.987   5.421
 2389SOL     OW 8065   5.212   4.562   4.493
 2389SOL    HW1 8066   5.116   4.547   4.467
 2389SOL    HW2 8067   5.227   4.659   4.508
 2390SOL     OW 8068   4.421   4.112   5.790
 2390SOL    HW1 8069   4.425   4.137   5.693
 2390SOL    HW2 8070   4.513   4.093   5.823
 2391SOL     OW 8071   3.453   4.212   6.249
 2391SOL    HW1 8072   3.405   4.127   6.226
 2391SOL    HW2 8073   3.425   4.284   6.185
 2392SOL     OW 8074   3.933   5.136   5.430
 2392SOL    HW1 8075   3.877   5.057   5.406
 2392SOL    HW2 8076   3.887   5.220   5.402
 2393SOL     OW 8077   3.432   5.070   1.760
 2393SOL    HW1 8078   3.508   5.114   1.809
 2393SOL    HW2 8079   3.359   5.049   1.825
 2394SOL     OW 8080   1.161   2.530   3.763
 2394SOL    HW1 8081   1.194   2.521   3.856
 2394SOL    HW2 8082   1.235   2.565   3.705
 2395SOL     OW 8083   0.095   2.096   4.566
 2395SOL    HW1 8084   0.013   2.142   4.532
 2395SOL    HW2 8085   0.152   2.068   4.488
 2396SOL     OW 8086   6.726   1.095   5.002
 2396SOL    HW1 8087   6.746   1.123   5.095
 2396SOL    HW2 8088   6.809   1.102   4.946
 2397SOL     OW 8089   0.548   4.726   5.934
 2397SOL    HW1 8090   0.487   4.803   5.915
 2397SOL    HW2 8091   0.606   4.747   6.013
 2398SOL     OW 8092   3.455   6.040   3.565
 2398SOL    HW1 8093   3.385   5.991   3.514
 2398SOL    HW2 8094   3.441   6.026   3.663
 2399SOL     OW 8095   3.012   2.140   4.072
 2399SOL    HW1 8096   2.963   2.053   4.079
 2399SOL    HW2 8097   2.947   2.215   4.066
 2400SOL     OW 8098   0.642   4.352   0.851
 2400SOL    HW1 8099   0.573   4.281   0.830
 2400SOL    HW2 8100   0.596   4.439   0.865
 2401SOL     OW 8101   2.891   6.997   5.942
 2401SOL    HW1 8102   2.971   6.940   5.957
 2401SOL    HW2 8103   2.848   6.973   5.855
 2402SOL     OW 8104   1.437   4.292   2.796
 2402SOL    HW1 8105   1.511   4.233   2.763
 2402SOL    HW2 8106   1.401   4.345   2.719
 2403SOL     OW 8107   3.845   4.010   3.157
 2403SOL    HW1 8108   3.846   4.047   3.064
 2403SOL    HW2 8109   3.853   4.085   3.223
 2404SOL     OW 8110   6.358   1.915   0.625
 2404SOL    HW1 8111   6.415   1.843   0.585
 2404SOL    HW2 8112   6.282   1.873   0.674
 2405SOL     OW 8113   1.920   3.276   0.855
 2405SOL    HW1 8114   1.861   3.198   0.835
 2405SOL    HW2 8115   1.995   3.278   0.789
 2406SOL     OW 8116   2.304   6.376   4.648
 2406SOL    HW1 8117   2.255   6.417   4.726
 2406SOL    HW2 8118   2.398   6.355   4.675
 2407SOL     OW 8119   3.437   1.269   3.600
 2407SOL    HW1 8120   3.478   1.325   3.528
 2407SOL    HW2 8121   3.338   1.268   3.590
 2408SOL     OW 8122   3.225   5.548   4.964
 2408SOL    HW1 8123   3.225   5.648   4.957
 2408SOL    HW2 8124   3.180   5.521   5.049
 2409SOL     OW 8125   1.714   3.100   1.605
 2409SOL    HW1 8126   1.700   3.063   1.697
 2409SOL    HW2 8127   1.648   3.173   1.588
 2410SOL     OW 8128   1.024   3.607   5.122
 2410SOL    HW1 8129   0.949   3.657   5.167
 2410SOL    HW2 8130   1.046   3.526   5.176
 2411SOL     OW 8131   2.953   4.046   0.417
 2411SOL    HW1 8132   2.976   4.143   0.412
 2411SOL    HW2 8133   2.863   4.030   0.375
 2412SOL     OW 8134   4.026   1.683   0.030
 2412SOL    HW1 8135   4.119   1.658   0.057
 2412SOL    HW2 8136   4.010   1.780   0.049
 2413SOL     OW 8137   6.664   3.061   0.148
 2413SOL    HW1 8138   6.638   2.997   0.076
 2413SOL    HW2 8139   6.739   3.021   0.202
 2414SOL     OW 8140   6.352   2.496   4.357
 2414SOL    HW1 8141   6.304   2.428   4.302
 2414SOL    HW2 8142   6.412   2.450   4.423
 2415SOL     OW 8143   2.404   5.569   0.952
 2415SOL    HW1 8144   2.330   5.508   0.924
 2415SOL    HW2 8145   2.380   5.611   1.040
 2416SOL     OW 8146   6.706   3.502   2.476
 2416SOL    HW1 8147   6.650   3.460   2.547
 2416SOL    HW2 8148   6.738   3.432   2.412
 2417SOL     OW 8149   3.164   2.967   1.418
 2417SOL    HW1 8150   3.068   2.996   1.420
 2417SOL    HW2 8151   3.222   3.046   1.397
 2418SOL     OW 8152   4.675   3.721   5.820
 2418SOL    HW1 8153   4.649   3.655   5.891
 2418SOL    HW2 8154   4.610   3.717   5.744
 2419SOL     OW 8155   1.579   6.442   4.449
 2419SOL    HW1 8156   1.671   6.425   4.486
 2419SOL    HW2 8157   1.577   6.530   4.403
 2420SOL     OW 8158   1.470   4.470   2.528
 2420SOL    HW1 8159   1.507   4.551   2.481
 2420SOL    HW2 8160   1.540   4.398   2.530
 2421SOL     OW 8161   2.645   6.328   4.403
 2421SOL    HW1 8162   2.710   6.276   4.347
 2421SOL    HW2 8163   2.564   6.271   4.422
 2422SOL     OW 8164   4.415   6.215   6.895
 2422SOL    HW1 8165   4.427   6.158   6.814
 2422SOL    HW2 8166   4.443   6.164   6.977
 2423SOL     OW 8167   2.422   4.853   2.689
 2423SOL    HW1 8168   2.395   4.940   2.730
 2423SOL    HW2 8169   2.347   4.787   2.697
 2424SOL     OW 8170   5.684   1.285   5.918
 2424SOL    HW1 8171   5.631   1.222   5.862
 2424SOL    HW2 8172   5.736   1.347   5.860
 2425SOL     OW 8173   5.265   5.559   5.223
 2425SOL    HW1 8174   5.185   5.618   5.215
 2425SOL    HW2 8175   5.281   5.537   5.319
 2426SOL     OW 8176   2.050   4.141   6.258
 2426SOL    HW1 8177   1.991   4.164   6.336
 2426SOL    HW2 8178   2.034   4.046   6.232
 2427SOL     OW 8179   5.145   0.823   0.213
 2427SOL    HW1 8180   5.078   0.855   0.146
 2427SOL    HW2 8181   5.122   0.859   0.303
 2428SOL     OW 8182   0.179   0.842   3.695
 2428SOL    HW1 8183   0.104   0.877   3.639
 2428SOL    HW2 8184   0.265   0.850   3.645
 2429SOL     OW 8185   5.285   5.388   1.623
 2429SOL    HW1 8186   5.192   5.352   1.623
 2429SOL    HW2 8187   5.300   5.441   1.540
 2430SOL     OW 8188   6.144   2.036   6.406
 2430SOL    HW1 8189   6.127   2.134   6.393
 2430SOL    HW2 8190   6.132   2.013   6.503
 2431SOL     OW 8191   6.835   2.278   1.608
 2431SOL    HW1 8192   6.759   2.225   1.645
 2431SOL    HW2 8193   6.835   2.370   1.646
 2432SOL     OW 8194   3.593   5.319   2.804
 2432SOL    HW1 8195   3.624   5.227   2.830
 2432SOL    HW2 8196   3.615   5.335   2.708
 2433SOL     OW 8197   6.078   4.510   6.420
 2433SOL    HW1 8198   6.177   4.507   6.405
 2433SOL    HW2 8199   6.059   4.518   6.518
 2434SOL     OW 8200   4.713   1.559   3.175
 2434SOL    HW1 8201   4.703   1.524   3.082
 2434SOL    HW2 8202   4.794   1.618   3.180
 2435SOL     OW 8203   5.754   6.687   6.735
 2435SOL    HW1 8204   5.827   6.741   6.691
 2435SOL    HW2 8205   5.793   6.603   6.773
 2436SOL     OW 8206   2.170   1.776   2.003
 2436SOL    HW1 8207   2.222   1.861   2.013
 2436SOL    HW2 8208   2.147   1.740   2.093
 2437SOL     OW 8209   0.034   4.544   3.093
 2437SOL    HW1 8210   0.100   4.482   3.052
 2437SOL    HW2 8211   0.056   4.557   3.190
 2438SOL     OW 8212   3.318   1.698   5.071
 2438SOL    HW1 8213   3.243   1.637   5.044
 2438SOL    HW2 8214   3.366   1.729   4.990
 2439SOL     OW 8215   0.712   5.983   0.934
 2439SOL    HW1 8216   0.790   6.018   0.986
 2439SOL    HW2 8217   0.714   6.021   0.841
 2440SOL     OW 8218   5.113   1.030   5.166
 2440SOL    HW1 8219   5.092   1.124   5.140
 2440SOL    HW2 8220   5.094   1.016   5.263
 2441SOL     OW 8221   5.911   0.280   0.010
 2441SOL    HW1 8222   5.963   0.230   6.965
 2441SOL    HW2 8223   5.974   0.330   0.069
 2442SOL     OW 8224   5.112   3.244   2.083
 2442SOL    HW1 8225   5.115   3.219   1.987
 2442SOL    HW2 8226   5.201   3.227   2.125
 2443SOL     OW 8227   1.290   2.018   0.807
 2443SOL    HW1 8228   1.300   2.062   0.896
 2443SOL    HW2 8229   1.214   1.953   0.811
 2444SOL     OW 8230   4.021   5.735   1.405
 2444SOL    HW1 8231   4.061   5.825   1.421
 2444SOL    HW2 8232   3.935   5.728   1.455
 2445SOL     OW 8233   6.932   2.659   0.897
 2445SOL    HW1 8234   6.883   2.611   0.825
 2445SOL    HW2 8235   6.942   2.756   0.872
 2446SOL     OW 8236   1.847   4.502   1.109
 2446SOL    HW1 8237   1.907   4.551   1.174
 2446SOL    HW2 8238   1.809   4.421   1.153
 2447SOL     OW 8239   3.136   0.206   0.744
 2447SOL    HW1 8240   3.056   0.257   0.712
 2447SOL    HW2 8241   3.110   0.150   0.823
 2448SOL     OW 8242   6.076   1.507   3.681
 2448SOL    HW1 8243   6.122   1.570   3.743
 2448SOL    HW2 8244   6.018   1.445   3.733
 2449SOL     OW 8245   1.786   4.345   1.843
 2449SOL    HW1 8246   1.698   4.381   1.811
 2449SOL    HW2 8247   1.788   4.342   1.943
 2450SOL     OW 8248   1.453   6.193   6.029
 2450SOL    HW1 8249   1.497   6.281   6.046
 2450SOL    HW2 8250   1.502   6.145   5.956
 2451SOL     OW 8251   0.550   0.118   4.779
 2451SOL    HW1 8252   0.566   0.160   4.690
 2451SOL    HW2 8253   0.506   0.184   4.839
 2452SOL     OW 8254   2.997   1.867   4.198
 2452SOL    HW1 8255   3.020   1.909   4.286
 2452SOL    HW2 8256   3.025   1.771   4.200
 2453SOL     OW 8257   1.173   1.458   6.931
 2453SOL    HW1 8258   1.150   1.515   6.852
 2453SOL    HW2 8259   1.168   1.512   7.014
 2454SOL     OW 8260   3.533   5.805   1.094
 2454SOL    HW1 8261   3.545   5.734   1.163
 2454SOL    HW2 8262   3.526   5.763   1.003
 2455SOL     OW 8263   4.087   1.294   0.173
 2455SOL    HW1 8264   4.144   1.262   0.097
 2455SOL    HW2 8265   4.145   1.332   0.244
 2456SOL     OW 8266   0.914   4.641   6.831
 2456SOL    HW1 8267   0.981   4.582   6.875
 2456SOL    HW2 8268   0.879   4.707   6.898
 2457SOL     OW 8269   5.600   1.983   5.290
 2457SOL    HW1 8270   5.567   2.051   5.224
 2457SOL    HW2 8271   5.524   1.926   5.321
 2458SOL     OW 8272   1.335   6.867   1.940
 2458SOL    HW1 8273   1.431   6.866   1.913
 2458SOL    HW2 8274   1.279   6.895   1.861
 2459SOL     OW 8275   2.499   5.989   1.124
 2459SOL    HW1 8276   2.579   5.933   1.102
 2459SOL    HW2 8277   2.508   6.078   1.079
 2460SOL     OW 8278   1.567   0.659   6.111
 2460SOL    HW1 8279   1.590   0.741   6.059
 2460SOL    HW2 8280   1.469   0.639   6.100
 2461SOL     OW 8281   3.647   1.309   4.189
 2461SOL    HW1 8282   3.706   1.241   4.232
 2461SOL    HW2 8283   3.572   1.262   4.141
 2462SOL     OW 8284   0.170   4.914   1.106
 2462SOL    HW1 8285   0.096   4.980   1.095
 2462SOL    HW2 8286   0.234   4.947   1.176
 2463SOL     OW 8287   6.927   1.352   6.339
 2463SOL    HW1 8288   6.970   1.278   6.390
 2463SOL    HW2 8289   6.882   1.315   6.257
 2464SOL     OW 8290   0.743   1.615   3.407
 2464SOL    HW1 8291   0.818   1.680   3.417
 2464SOL    HW2 8292   0.692   1.609   3.493
 2465SOL     OW 8293   1.014   4.898   5.708
 2465SOL    HW1 8294   1.059   4.926   5.623
 2465SOL    HW2 8295   0.926   4.945   5.716
 2466SOL     OW 8296   1.196   2.473   1.984
 2466SOL    HW1 8297   1.293   2.495   1.970
 2466SOL    HW2 8298   1.143   2.505   1.905
 2467SOL     OW 8299   4.748   1.663   5.939
 2467SOL    HW1 8300   4.787   1.750   5.969
 2467SOL    HW2 8301   4.790   1.588   5.989
 2468SOL     OW 8302   3.599   6.804   5.781
 2468SOL    HW1 8303   3.605   6.873   5.853
 2468SOL    HW2 8304   3.609   6.848   5.692
 2469SOL     OW 8305   3.407   2.781   5.370
 2469SOL    HW1 8306   3.410   2.766   5.468
 2469SOL    HW2 8307   3.488   2.832   5.341
 2470SOL     OW 8308   3.509   4.991   0.144
 2470SOL    HW1 8309   3.444   5.041   0.202
 2470SOL    HW2 8310   3.526   4.901   0.184
 2471SOL     OW 8311   4.362   6.262   1.347
 2471SOL    HW1 8312   4.458   6.236   1.354
 2471SOL    HW2 8313   4.347   6.350   1.392
 2472SOL     OW 8314   4.641   1.692   4.420
 2472SOL    HW1 8315   4.671   1.787   4.415
 2472SOL    HW2 8316   4.578   1.673   4.344
 2473SOL     OW 8317   0.210   4.731   4.892
 2473SOL    HW1 8318   0.168   4.652   4.936
 2473SOL    HW2 8319   0.275   4.699   4.822
 2474SOL     OW 8320   0.627   5.580   1.626
 2474SOL    HW1 8321   0.686   5.540   1.696
 2474SOL    HW2 8322   0.673   5.657   1.584
 2475SOL     OW 8323   5.057   0.307   0.782
 2475SOL    HW1 8324   5.043   0.384   0.720
 2475SOL    HW2 8325   5.154   0.288   0.791
 2476SOL     OW 8326   6.038   0.401   0.594
 2476SOL    HW1 8327   5.972   0.340   0.549
 2476SOL    HW2 8328   6.094   0.348   0.658
 2477SOL     OW 8329   3.506   0.618   3.162
 2477SOL    HW1 8330   3.478   0.544   3.224
 2477SOL    HW2 8331   3.427   0.675   3.141
 2478SOL     OW 8332   4.276   1.924   3.164
 2478SOL    HW1 8333   4.331   1.842   3.174
 2478SOL    HW2 8334   4.214   1.913   3.086
 2479SOL     OW 8335   0.690   3.186   0.682
 2479SOL    HW1 8336   0.729   3.278   0.685
 2479SOL    HW2 8337   0.718   3.141   0.598
 2480SOL     OW 8338   3.220   2.388   1.103
 2480SOL    HW1 8339   3.316   2.391   1.129
 2480SOL    HW2 8340   3.209   2.426   1.011
 2481SOL     OW 8341   3.311   0.746   1.575
 2481SOL    HW1 8342   3.324   0.759   1.674
 2481SOL    HW2 8343   3.252   0.819   1.540
 2482SOL     OW 8344   5.469   3.607   6.879
 2482SOL    HW1 8345   5.459   3.571   6.972
 2482SOL    HW2 8346   5.534   3.682   6.879
 2483SOL     OW 8347   0.842   2.343   0.415
 2483SOL    HW1 8348   0.924   2.395   0.392
 2483SOL    HW2 8349   0.867   2.246   0.426
 2484SOL     OW 8350   5.021   1.451   2.718
 2484SOL    HW1 8351   4.944   1.390   2.734
 2484SOL    HW2 8352   5.024   1.521   2.789
 2485SOL     OW 8353   4.862   2.427   6.266
 2485SOL    HW1 8354   4.949   2.394   6.227
 2485SOL    HW2 8355   4.810   2.474   6.195
 2486SOL     OW 8356   0.245   4.192   5.857
 2486SOL    HW1 8357   0.233   4.197   5.956
 2486SOL    HW2 8358   0.160   4.160   5.815
 2487SOL     OW 8359   4.887   6.232   0.606
 2487SOL    HW1 8360   4.790   6.208   0.611
 2487SOL    HW2 8361   4.943   6.153   0.630
 2488SOL     OW 8362   6.530   4.493   2.173
 2488SOL    HW1 8363   6.624   4.466   2.151
 2488SOL    HW2 8364   6.490   4.425   2.234
 2489SOL     OW 8365   0.225   6.128   4.138
 2489SOL    HW1 8366   0.126   6.143   4.131
 2489SOL    HW2 8367   0.246   6.032   4.121
 2490SOL     OW 8368   1.842   6.067   2.319
 2490SOL    HW1 8369   1.755   6.103   2.352
 2490SOL    HW2 8370   1.850   5.970   2.342
 2491SOL     OW 8371   4.186   4.556   1.635
 2491SOL    HW1 8372   4.111   4.535   1.572
 2491SOL    HW2 8373   4.251   4.481   1.635
 2492SOL     OW 8374   5.069   3.302   0.725
 2492SOL    HW1 8375   5.076   3.326   0.628
 2492SOL    HW2 8376   4.981   3.257   0.742
 2493SOL     OW 8377   6.526   6.523   1.342
 2493SOL    HW1 8378   6.523   6.599   1.407
 2493SOL    HW2 8379   6.435   6.506   1.305
 2494SOL     OW 8380   5.996   2.424   1.606
 2494SOL    HW1 8381   6.082   2.377   1.625
 2494SOL    HW2 8382   5.919   2.363   1.625
 2495SOL     OW 8383   5.355   5.744   3.401
 2495SOL    HW1 8384   5.381   5.754   3.497
 2495SOL    HW2 8385   5.258   5.722   3.394
 2496SOL     OW 8386   0.197   3.946   6.786
 2496SOL    HW1 8387   0.174   4.036   6.821
 2496SOL    HW2 8388   0.159   3.935   6.694
 2497SOL     OW 8389   0.127   0.559   1.236
 2497SOL    HW1 8390   0.057   0.630   1.237
 2497SOL    HW2 8391   0.179   0.565   1.150
 2498SOL     OW 8392   2.877   2.992   5.895
 2498SOL    HW1 8393   2.955   3.054   5.889
 2498SOL    HW2 8394   2.876   2.948   5.985
 2499SOL     OW 8395   6.135   3.118   1.313
 2499SOL    HW1 8396   6.198   3.121   1.391
 2499SOL    HW2 8397   6.139   3.028   1.271
 2500SOL     OW 8398   3.367   3.712   6.110
 2500SOL    HW1 8399   3.302   3.644   6.144
 2500SOL    HW2 8400   3.418   3.675   6.033
 2501SOL     OW 8401   5.697   5.846   6.851
 2501SOL    HW1 8402   5.733   5.887   6.935
 2501SOL    HW2 8403   5.692   5.746   6.862
 2502SOL     OW 8404   2.331   6.052   4.982
 2502SOL    HW1 8405   2.391   5.973   4.996
 2502SOL    HW2 8406   2.246   6.039   5.034
 2503SOL     OW 8407   2.969   6.564   5.801
 2503SOL    HW1 8408   2.990   6.508   5.721
 2503SOL    HW2 8409   2.872   6.591   5.798
 2504SOL     OW 8410   3.169   5.444   2.905
 2504SOL    HW1 8411   3.116   5.373   2.859
 2504SOL    HW2 8412   3.108   5.503   2.957
 2505SOL     OW 8413   0.404   5.902   3.058
 2505SOL    HW1 8414   0.417   5.945   3.147
 2505SOL    HW2 8415   0.443   5.961   2.986
 2506SOL     OW 8416   6.098   3.772   6.229
 2506SOL    HW1 8417   6.139   3.850   6.277
 2506SOL    HW2 8418   6.033   3.806   6.161
 2507SOL     OW 8419   6.891   3.256   0.104
 2507SOL    HW1 8420   6.909   3.341   0.053
 2507SOL    HW2 8421   6.811   3.210   0.066
 2508SOL     OW 8422   2.886   2.233   5.077
 2508SOL    HW1 8423   2.980   2.242   5.109
 2508SOL    HW2 8424   2.824   2.270   5.146
 2509SOL     OW 8425   6.662   4.126   0.093
 2509SOL    HW1 8426   6.571   4.130   0.052
 2509SOL    HW2 8427   6.715   4.051   0.051
 2510SOL     OW 8428   3.892   4.167   1.609
 2510SOL    HW1 8429   3.941   4.084   1.584
 2510SOL    HW2 8430   3.793   4.151   1.600
 2511SOL     OW 8431   2.350   1.110   4.976
 2511SOL    HW1 8432   2.325   1.207   4.970
 2511SOL    HW2 8433   2.374   1.087   5.070
 2512SOL     OW 8434   3.730   4.491   5.304
 2512SOL    HW1 8435   3.806   4.553   5.283
 2512SOL    HW2 8436   3.746   4.403   5.261
 2513SOL     OW 8437   2.328   6.258   5.779
 2513SOL    HW1 8438   2.268   6.265   5.858
 2513SOL    HW2 8439   2.354   6.163   5.765
 2514SOL     OW 8440   0.892   3.481   4.187
 2514SOL    HW1 8441   0.814   3.507   4.132
 2514SOL    HW2 8442   0.885   3.384   4.211
 2515SOL     OW 8443   2.135   0.244   1.400
 2515SOL    HW1 8444   2.065   0.217   1.334
 2515SOL    HW2 8445   2.225   0.246   1.354
 2516SOL     OW 8446   4.962   1.393   3.301
 2516SOL    HW1 8447   4.931   1.411   3.208
 2516SOL    HW2 8448   4.978   1.479   3.349
 2517SOL     OW 8449   1.977   0.487   5.622
 2517SOL    HW1 8450   2.055   0.518   5.677
 2517SOL    HW2 8451   1.893   0.525   5.658
 2518SOL     OW 8452   2.132   5.717   1.101
 2518SOL    HW1 8453   2.186   5.763   1.171
 2518SOL    HW2 8454   2.131   5.619   1.118
 2519SOL     OW 8455   3.444   0.927   1.323
 2519SOL    HW1 8456   3.418   0.878   1.407
 2519SOL    HW2 8457   3.483   1.015   1.347
 2520SOL     OW 8458   3.308   1.712   0.198
 2520SOL    HW1 8459   3.380   1.773   0.232
 2520SOL    HW2 8460   3.348   1.625   0.170
 2521SOL     OW 8461   4.036   1.944   5.199
 2521SOL    HW1 8462   3.994   1.908   5.283
 2521SOL    HW2 8463   4.131   1.913   5.194
 2522SOL     OW 8464   1.227   1.511   5.112
 2522SOL    HW1 8465   1.128   1.511   5.123
 2522SOL    HW2 8466   1.254   1.586   5.052
 2523SOL     OW 8467   1.765   4.284   1.251
 2523SOL    HW1 8468   1.668   4.268   1.265
 2523SOL    HW2 8469   1.797   4.230   1.173
 2524SOL     OW 8470   0.140   6.848   4.500
 2524SOL    HW1 8471   0.085   6.791   4.439
 2524SOL    HW2 8472   0.080   6.903   4.559
 2525SOL     OW 8473   1.437   2.990   4.809
 2525SOL    HW1 8474   1.338   2.995   4.824
 2525SOL    HW2 8475   1.482   3.063   4.861
 2526SOL     OW 8476   1.765   4.797   6.924
 2526SOL    HW1 8477   1.777   4.730   6.851
 2526SOL    HW2 8478   1.722   4.879   6.887
 2527SOL     OW 8479   5.674   6.064   5.686
 2527SOL    HW1 8480   5.624   6.150   5.675
 2527SOL    HW2 8481   5.609   5.989   5.701
 2528SOL     OW 8482   5.249   3.935   5.466
 2528SOL    HW1 8483   5.204   4.024   5.456
 2528SOL    HW2 8484   5.310   3.937   5.545
 2529SOL     OW 8485   0.781   0.645   6.416
 2529SOL    HW1 8486   0.826   0.567   6.459
 2529SOL    HW2 8487   0.803   0.646   6.318
 2530SOL     OW 8488   2.242   5.926   5.744
 2530SOL    HW1 8489   2.204   5.908   5.653
 2530SOL    HW2 8490   2.341   5.941   5.736
 2531SOL     OW 8491   5.307   5.666   5.816
 2531SOL    HW1 8492   5.284   5.642   5.911
 2531SOL    HW2 8493   5.234   5.721   5.776
 2532SOL     OW 8494   0.448   6.126   1.053
 2532SOL    HW1 8495   0.415   6.124   0.959
 2532SOL    HW2 8496   0.490   6.039   1.076
 2533SOL     OW 8497   4.652   1.168   3.517
 2533SOL    HW1 8498   4.555   1.153   3.498
 2533SOL    HW2 8499   4.669   1.156   3.615
 2534SOL     OW 8500   4.923   1.620   1.885
 2534SOL    HW1 8501   4.872   1.537   1.908
 2534SOL    HW2 8502   5.021   1.602   1.894
 2535SOL     OW 8503   3.257   2.716   7.011
 2535SOL    HW1 8504   3.212   2.681   0.068
 2535SOL    HW2 8505   3.293   2.639   6.958
 2536SOL     OW 8506   1.373   0.861   5.899
 2536SOL    HW1 8507   1.303   0.792   5.919
 2536SOL    HW2 8508   1.330   0.951   5.895
 2537SOL     OW 8509   3.400   6.893   6.444
 2537SOL    HW1 8510   3.448   6.890   6.357
 2537SOL    HW2 8511   3.420   6.810   6.496
 2538SOL     OW 8512   0.209   4.010   4.002
 2538SOL    HW1 8513   0.150   3.964   4.068
 2538SOL    HW2 8514   0.274   3.944   3.964
 2539SOL     OW 8515   5.844   0.739   3.597
 2539SOL    HW1 8516   5.764   0.741   3.536
 2539SOL    HW2 8517   5.907   0.812   3.571
 2540SOL     OW 8518   4.413   2.137   2.904
 2540SOL    HW1 8519   4.496   2.085   2.922
 2540SOL    HW2 8520   4.408   2.159   2.807
 2541SOL     OW 8521   2.542   0.052   5.673
 2541SOL    HW1 8522   2.468   0.067   5.607
 2541SOL    HW2 8523   2.578   0.140   5.704
 2542SOL     OW 8524   2.991   4.193   6.750
 2542SOL    HW1 8525   2.936   4.249   6.688
 2542SOL    HW2 8526   2.932   4.138   6.808
 2543SOL     OW 8527   0.978   1.141   3.996
 2543SOL    HW1 8528   0.994   1.049   3.961
 2543SOL    HW2 8529   0.976   1.206   3.920
 2544SOL     OW 8530   0.494   5.815   0.870
 2544SOL    HW1 8531   0.571   5.871   0.904
 2544SOL    HW2 8532   0.519   5.774   0.783
 2545SOL     OW 8533   1.445   0.003   2.339
 2545SOL    HW1 8534   1.396   7.019   2.426
 2545SOL    HW2 8535   1.518   0.069   2.349
 2546SOL     OW 8536   6.592   1.682   0.757
 2546SOL    HW1 8537   6.527   1.682   0.680
 2546SOL    HW2 8538   6.664   1.615   0.739
 2547SOL     OW 8539   0.449   3.562   6.785
 2547SOL    HW1 8540   0.429   3.605   6.873
 2547SOL    HW2 8541   0.478   3.631   6.720
 2548SOL     OW 8542   6.960   6.774   4.299
 2548SOL    HW1 8543   6.891   6.834   4.339
 2548SOL    HW2 8544   6.979   6.802   4.205
 2549SOL     OW 8545   0.963   0.621   1.521
 2549SOL    HW1 8546   1.033   0.679   1.561
 2549SOL    HW2 8547   0.977   0.615   1.422
 2550SOL     OW 8548   6.242   6.604   0.399
 2550SOL    HW1 8549   6.334   6.625   0.431
 2550SOL    HW2 8550   6.241   6.607   0.299
 2551SOL     OW 8551   3.268   4.730   0.615
 2551SOL    HW1 8552   3.355   4.703   0.656
 2551SOL    HW2 8553   3.281   4.811   0.558
 2552SOL     OW 8554   2.726   5.288   5.026
 2552SOL    HW1 8555   2.705   5.197   5.061
 2552SOL    HW2 8556   2.745   5.283   4.928
 2553SOL     OW 8557   3.838   3.570   5.931
 2553SOL    HW1 8558   3.895   3.650   5.914
 2553SOL    HW2 8559   3.771   3.561   5.857
 2554SOL     OW 8560   2.087   1.059   0.194
 2554SOL    HW1 8561   2.061   1.150   0.161
 2554SOL    HW2 8562   2.026   1.031   0.268
 2555SOL     OW 8563   5.373   2.686   4.382
 2555SOL    HW1 8564   5.339   2.597   4.412
 2555SOL    HW2 8565   5.332   2.709   4.293
 2556SOL     OW 8566   3.867   5.993   0.254
 2556SOL    HW1 8567   3.892   5.953   0.166
 2556SOL    HW2 8568   3.881   5.926   0.327
 2557SOL     OW 8569   1.893   3.404   6.629
 2557SOL    HW1 8570   1.940   3.365   6.550
 2557SOL    HW2 8571   1.809   3.353   6.647
 2558SOL     OW 8572   5.280   1.113   5.441
 2558SOL    HW1 8573   5.239   1.138   5.529
 2558SOL    HW2 8574   5.331   1.190   5.404
 2559SOL     OW 8575   1.256   4.062   5.751
 2559SOL    HW1 8576   1.323   4.037   5.821
 2559SOL    HW2 8577   1.191   3.987   5.740
 2560SOL     OW 8578   0.119   2.771   5.845
 2560SOL    HW1 8579   0.137   2.713   5.925
 2560SOL    HW2 8580   0.203   2.818   5.817
 2561SOL     OW 8581   2.893   5.008   5.016
 2561SOL    HW1 8582   2.794   5.000   5.023
 2561SOL    HW2 8583   2.936   4.958   5.092
 2562SOL     OW 8584   2.482   4.401   1.195
 2562SOL    HW1 8585   2.489   4.303   1.213
 2562SOL    HW2 8586   2.573   4.441   1.187
 2563SOL     OW 8587   2.839   1.073   0.535
 2563SOL    HW1 8588   2.935   1.047   0.526
 2563SOL    HW2 8589   2.831   1.172   0.540
 2564SOL     OW 8590   1.330   5.218   0.792
 2564SOL    HW1 8591   1.394   5.280   0.749
 2564SOL    HW2 8592   1.352   5.124   0.768
 2565SOL     OW 8593   0.791   0.731   0.495
 2565SOL    HW1 8594   0.816   0.702   0.403
 2565SOL    HW2 8595   0.704   0.779   0.492
 2566SOL     OW 8596   2.471   6.580   1.365
 2566SOL    HW1 8597   2.394   6.548   1.420
 2566SOL    HW2 8598   2.471   6.532   1.277
 2567SOL     OW 8599   1.277   0.170   0.692
 2567SOL    HW1 8600   1.315   0.253   0.650
 2567SOL    HW2 8601   1.216   0.197   0.767
 2568SOL     OW 8602   4.552   2.717   6.982
 2568SOL    HW1 8603   4.629   2.680   0.010
 2568SOL    HW2 8604   4.470   2.663   7.000
 2569SOL     OW 8605   3.494   1.174   3.243
 2569SOL    HW1 8606   3.499   1.144   3.148
 2569SOL    HW2 8607   3.423   1.243   3.253
 2570SOL     OW 8608   5.819   1.030   5.743
 2570SOL    HW1 8609   5.869   1.111   5.712
 2570SOL    HW2 8610   5.724   1.036   5.713
 2571SOL     OW 8611   1.292   5.007   3.929
 2571SOL    HW1 8612   1.326   5.086   3.878
 2571SOL    HW2 8613   1.233   4.952   3.870
 2572SOL     OW 8614   2.875   4.773   2.746
 2572SOL    HW1 8615   2.886   4.782   2.845
 2572SOL    HW2 8616   2.826   4.853   2.710
 2573SOL     OW 8617   0.811   1.749   0.692
 2573SOL    HW1 8618   0.728   1.784   0.735
 2573SOL    HW2 8619   0.794   1.657   0.658
 2574SOL     OW 8620   5.376   3.199   0.789
 2574SOL    HW1 8621   5.371   3.111   0.835
 2574SOL    HW2 8622   5.439   3.192   0.711
 2575SOL     OW 8623   6.143   5.848   0.025
 2575SOL    HW1 8624   6.054   5.810   0.004
 2575SOL    HW2 8625   6.149   5.866   0.123
 2576SOL     OW 8626   4.513   6.232   4.741
 2576SOL    HW1 8627   4.491   6.149   4.690
 2576SOL    HW2 8628   4.442   6.300   4.726
 2577SOL     OW 8629   2.666   5.018   2.286
 2577SOL    HW1 8630   2.691   5.016   2.383
 2577SOL    HW2 8631   2.708   5.098   2.242
 2578SOL     OW 8632   4.069   1.217   3.871
 2578SOL    HW1 8633   4.069   1.208   3.971
 2578SOL    HW2 8634   4.017   1.299   3.845
 2579SOL     OW 8635   0.342   6.284   3.921
 2579SOL    HW1 8636   0.323   6.219   3.995
 2579SOL    HW2 8637   0.322   6.377   3.951
 2580SOL     OW 8638   2.250   4.664   0.102
 2580SOL    HW1 8639   2.281   4.597   0.169
 2580SOL    HW2 8640   2.185   4.621   0.039
 2581SOL     OW 8641   2.638   6.037   6.554
 2581SOL    HW1 8642   2.661   6.106   6.623
 2581SOL    HW2 8643   2.574   6.077   6.488
 2582SOL     OW 8644   0.017   4.002   1.174
 2582SOL    HW1 8645   7.020   3.904   1.178
 2582SOL    HW2 8646   6.993   4.051   1.246
 2583SOL     OW 8647   0.295   0.317   0.737
 2583SOL    HW1 8648   0.327   0.411   0.741
 2583SOL    HW2 8649   0.196   0.316   0.724
 2584SOL     OW 8650   4.044   5.101   5.684
 2584SOL    HW1 8651   3.965   5.103   5.744
 2584SOL    HW2 8652   4.013   5.107   5.589
 2585SOL     OW 8653   3.157   4.997   6.959
 2585SOL    HW1 8654   3.237   5.057   6.954
 2585SOL    HW2 8655   3.128   4.987   0.029
 2586SOL     OW 8656   2.752   1.425   5.828
 2586SOL    HW1 8657   2.750   1.333   5.790
 2586SOL    HW2 8658   2.835   1.437   5.883
 2587SOL     OW 8659   0.820   1.213   2.944
 2587SOL    HW1 8660   0.856   1.281   2.880
 2587SOL    HW2 8661   0.731   1.244   2.980
 2588SOL     OW 8662   4.047   2.220   5.555
 2588SOL    HW1 8663   4.119   2.215   5.485
 2588SOL    HW2 8664   4.078   2.173   5.638
 2589SOL     OW 8665   0.916   6.372   6.767
 2589SOL    HW1 8666   0.831   6.366   6.819
 2589SOL    HW2 8667   0.993   6.343   6.824
 2590SOL     OW 8668   3.082   5.007   0.517
 2590SOL    HW1 8669   3.047   5.074   0.452
 2590SOL    HW2 8670   3.062   4.915   0.485
 2591SOL     OW 8671   6.372   5.567   3.609
 2591SOL    HW1 8672   6.315   5.645   3.634
 2591SOL    HW2 8673   6.464   5.580   3.645
 2592SOL     OW 8674   2.418   4.063   6.734
 2592SOL    HW1 8675   2.463   4.138   6.685
 2592SOL    HW2 8676   2.480   4.028   6.804
 2593SOL     OW 8677   3.224   5.768   1.092
 2593SOL    HW1 8678   3.227   5.673   1.062
 2593SOL    HW2 8679   3.312   5.794   1.131
 2594SOL     OW 8680   2.478   4.327   5.834
 2594SOL    HW1 8681   2.558   4.356   5.782
 2594SOL    HW2 8682   2.398   4.323   5.773
 2595SOL     OW 8683   0.896   1.406   4.250
 2595SOL    HW1 8684   0.928   1.443   4.338
 2595SOL    HW2 8685   0.882   1.307   4.259
 2596SOL     OW 8686   1.701   2.983   1.383
 2596SOL    HW1 8687   1.759   3.035   1.320
 2596SOL    HW2 8688   1.709   3.020   1.475
 2597SOL     OW 8689   0.552   5.153   6.060
 2597SOL    HW1 8690   0.484   5.091   6.021
 2597SOL    HW2 8691   0.616   5.100   6.117
 2598SOL     OW 8692   5.956   1.604   1.858
 2598SOL    HW1 8693   6.044   1.649   1.843
 2598SOL    HW2 8694   5.947   1.526   1.796
 2599SOL     OW 8695   2.593   6.098   1.749
 2599SOL    HW1 8696   2.636   6.109   1.838
 2599SOL    HW2 8697   2.505   6.145   1.747
 2600SOL     OW 8698   6.444   3.797   4.837
 2600SOL    HW1 8699   6.503   3.735   4.784
 2600SOL    HW2 8700   6.483   3.810   4.928
 2601SOL     OW 8701   1.506   1.505   2.095
 2601SOL    HW1 8702   1.422   1.501   2.150
 2601SOL    HW2 8703   1.484   1.539   2.004
 2602SOL     OW 8704   1.904   4.659   4.138
 2602SOL    HW1 8705   1.997   4.692   4.158
 2602SOL    HW2 8706   1.842   4.737   4.130
 2603SOL     OW 8707   2.866   1.026   2.146
 2603SOL    HW1 8708   2.881   1.024   2.245
 2603SOL    HW2 8709   2.919   0.954   2.102
 2604SOL     OW 8710   5.328   1.672   1.562
 2604SOL    HW1 8711   5.262   1.635   1.496
 2604SOL    HW2 8712   5.288   1.671   1.653
 2605SOL     OW 8713   1.273   3.691   2.096
 2605SOL    HW1 8714   1.249   3.609   2.150
 2605SOL    HW2 8715   1.202   3.708   2.028
 2606SOL     OW 8716   5.421   4.606   1.582
 2606SOL    HW1 8717   5.324   4.589   1.602
 2606SOL    HW2 8718   5.445   4.560   1.496
 2607SOL     OW 8719   1.644   2.653   1.029
 2607SOL    HW1 8720   1.601   2.618   1.113
 2607SOL    HW2 8721   1.596   2.615   0.950
 2608SOL     OW 8722   2.103   6.351   6.599
 2608SOL    HW1 8723   2.040   6.362   6.676
 2608SOL    HW2 8724   2.112   6.253   6.578
 2609SOL     OW 8725   0.669   1.212   1.033
 2609SOL    HW1 8726   0.602   1.191   0.962
 2609SOL    HW2 8727   0.625   1.263   1.107
 2610SOL     OW 8728   0.950   5.084   4.464
 2610SOL    HW1 8729   0.909   5.165   4.506
 2610SOL    HW2 8730   0.900   5.003   4.493
 2611SOL     OW 8731   4.661   6.347   7.020
 2611SOL    HW1 8732   4.681   6.249   7.024
 2611SOL    HW2 8733   4.647   6.383   0.087
 2612SOL     OW 8734   5.216   0.413   4.430
 2612SOL    HW1 8735   5.154   0.424   4.508
 2612SOL    HW2 8736   5.193   0.480   4.360
 2613SOL     OW 8737   0.815   5.855   6.565
 2613SOL    HW1 8738   0.793   5.941   6.612
 2613SOL    HW2 8739   0.758   5.845   6.484
 2614SOL     OW 8740   5.996   1.166   5.955
 2614SOL    HW1 8741   6.020   1.197   5.863
 2614SOL    HW2 8742   5.902   1.132   5.956
 2615SOL     OW 8743   1.127   3.663   1.076
 2615SOL    HW1 8744   1.150   3.750   1.030
 2615SOL    HW2 8745   1.039   3.630   1.042
 2616SOL     OW 8746   1.362   0.775   5.116
 2616SOL    HW1 8747   1.442   0.826   5.146
 2616SOL    HW2 8748   1.290   0.782   5.185
 2617SOL     OW 8749   5.531   0.314   0.435
 2617SOL    HW1 8750   5.560   0.259   0.357
 2617SOL    HW2 8751   5.577   0.283   0.517
 2618SOL     OW 8752   1.611   5.837   6.068
 2618SOL    HW1 8753   1.647   5.895   5.995
 2618SOL    HW2 8754   1.536   5.782   6.033
 2619SOL     OW 8755   4.375   1.872   1.876
 2619SOL    HW1 8756   4.438   1.942   1.911
 2619SOL    HW2 8757   4.301   1.916   1.825
 2620SOL     OW 8758   6.470   5.983   1.719
 2620SOL    HW1 8759   6.462   5.895   1.673
 2620SOL    HW2 8760   6.464   6.057   1.652
 2621SOL     OW 8761   0.585   5.770   2.824
 2621SOL    HW1 8762   0.655   5.832   2.862
 2621SOL    HW2 8763   0.627   5.711   2.755
 2622SOL     OW 8764   2.854   3.476   6.182
 2622SOL    HW1 8765   2.896   3.544   6.242
 2622SOL    HW2 8766   2.790   3.420   6.234
 2623SOL     OW 8767   0.498   6.886   4.259
 2623SOL    HW1 8768   0.550   6.912   4.178
 2623SOL    HW2 8769   0.459   6.795   4.247
 2624SOL     OW 8770   6.532   2.174   4.296
 2624SOL    HW1 8771   6.530   2.244   4.367
 2624SOL    HW2 8772   6.620   2.177   4.248
 2625SOL     OW 8773   1.676   5.387   5.626
 2625SOL    HW1 8774   1.611   5.351   5.693
 2625SOL    HW2 8775   1.769   5.361   5.652
 2626SOL     OW 8776   6.473   6.435   5.300
 2626SOL    HW1 8777   6.449   6.475   5.211
 2626SOL    HW2 8778   6.565   6.397   5.295
 2627SOL     OW 8779   1.146   6.911   5.760
 2627SOL    HW1 8780   1.109   7.000   5.788
 2627SOL    HW2 8781   1.178   6.861   5.840
 2628SOL     OW 8782   1.578   3.792   3.006
 2628SOL    HW1 8783   1.500   3.763   2.950
 2628SOL    HW2 8784   1.647   3.720   3.008
 2629SOL     OW 8785   3.207   4.036   3.145
 2629SOL    HW1 8786   3.171   3.947   3.117
 2629SOL    HW2 8787   3.227   4.091   3.064
 2630SOL     OW 8788   4.047   1.528   3.186
 2630SOL    HW1 8789   4.136   1.564   3.162
 2630SOL    HW2 8790   4.010   1.476   3.109
 2631SOL     OW 8791   5.690   0.516   6.925
 2631SOL    HW1 8792   5.766   0.540   6.985
 2631SOL    HW2 8793   5.648   0.431   6.956
 2632SOL     OW 8794   5.634   4.791   2.142
 2632SOL    HW1 8795   5.707   4.725   2.161
 2632SOL    HW2 8796   5.676   4.877   2.112
 2633SOL     OW 8797   6.879   2.750   5.117
 2633SOL    HW1 8798   6.936   2.703   5.184
 2633SOL    HW2 8799   6.858   2.688   5.042
 2634SOL     OW 8800   6.379   7.016   4.839
 2634SOL    HW1 8801   6.404   6.919   4.844
 2634SOL    HW2 8802   6.357   0.025   4.931
 2635SOL     OW 8803   5.064   5.359   3.870
 2635SOL    HW1 8804   5.030   5.289   3.807
 2635SOL    HW2 8805   5.164   5.361   3.867
 2636SOL     OW 8806   3.928   0.327   5.804
 2636SOL    HW1 8807   3.970   0.355   5.718
 2636SOL    HW2 8808   3.987   0.353   5.880
 2637SOL     OW 8809   1.312   1.544   2.735
 2637SOL    HW1 8810   1.241   1.591   2.683
 2637SOL    HW2 8811   1.285   1.539   2.831
 2638SOL     OW 8812   1.015   0.414   4.470
 2638SOL    HW1 8813   1.060   0.484   4.415
 2638SOL    HW2 8814   1.077   0.382   4.541
 2639SOL     OW 8815   4.690   4.965   4.435
 2639SOL    HW1 8816   4.743   5.046   4.411
 2639SOL    HW2 8817   4.595   4.977   4.406
 2640SOL     OW 8818   0.976   6.809   4.402
 2640SOL    HW1 8819   0.910   6.749   4.356
 2640SOL    HW2 8820   0.986   6.781   4.497
 2641SOL     OW 8821   5.027   2.471   0.039
 2641SOL    HW1 8822   4.945   2.511   7.023
 2641SOL    HW2 8823   5.091   2.544   0.063
 2642SOL     OW 8824   0.229   1.535   3.837
 2642SOL    HW1 8825   0.177   1.506   3.918
 2642SOL    HW2 8826   0.244   1.634   3.840
 2643SOL     OW 8827   1.085   4.107   3.464
 2643SOL    HW1 8828   1.169   4.158   3.483
 2643SOL    HW2 8829   1.042   4.143   3.382
 2644SOL     OW 8830   5.148   5.623   4.847
 2644SOL    HW1 8831   5.123   5.529   4.824
 2644SOL    HW2 8832   5.066   5.681   4.846
 2645SOL     OW 8833   4.410   5.067   3.544
 2645SOL    HW1 8834   4.469   5.117   3.480
 2645SOL    HW2 8835   4.449   5.072   3.636
 2646SOL     OW 8836   0.448   3.544   5.871
 2646SOL    HW1 8837   0.466   3.471   5.937
 2646SOL    HW2 8838   0.531   3.563   5.818
 2647SOL     OW 8839   5.065   6.892   1.805
 2647SOL    HW1 8840   5.020   6.811   1.842
 2647SOL    HW2 8841   5.129   6.864   1.733
 2648SOL     OW 8842   0.318   0.249   4.135
 2648SOL    HW1 8843   0.318   0.348   4.150
 2648SOL    HW2 8844   0.337   0.230   4.039
 2649SOL     OW 8845   4.945   2.540   1.913
 2649SOL    HW1 8846   4.925   2.638   1.908
 2649SOL    HW2 8847   4.997   2.521   1.996
 2650SOL     OW 8848   3.447   6.020   5.211
 2650SOL    HW1 8849   3.367   6.074   5.184
 2650SOL    HW2 8850   3.528   6.053   5.161
 2651SOL     OW 8851   4.306   1.847   5.199
 2651SOL    HW1 8852   4.374   1.780   5.169
 2651SOL    HW2 8853   4.353   1.932   5.225
 2652SOL     OW 8854   5.130   3.307   5.417
 2652SOL    HW1 8855   5.061   3.363   5.464
 2652SOL    HW2 8856   5.115   3.211   5.438
 2653SOL     OW 8857   3.417   6.421   6.625
 2653SOL    HW1 8858   3.466   6.507   6.642
 2653SOL    HW2 8859   3.402   6.374   6.711
 2654SOL     OW 8860   5.292   0.618   0.288
 2654SOL    HW1 8861   5.245   0.704   0.269
 2654SOL    HW2 8862   5.295   0.562   0.205
 2655SOL     OW 8863   5.176   6.363   2.796
 2655SOL    HW1 8864   5.087   6.408   2.803
 2655SOL    HW2 8865   5.174   6.278   2.848
 2656SOL     OW 8866   3.528   5.479   3.641
 2656SOL    HW1 8867   3.608   5.489   3.583
 2656SOL    HW2 8868   3.520   5.558   3.702
 2657SOL     OW 8869   2.415   3.477   0.297
 2657SOL    HW1 8870   2.386   3.385   0.323
 2657SOL    HW2 8871   2.340   3.525   0.253
 2658SOL     OW 8872   4.221   4.497   6.088
 2658SOL    HW1 8873   4.211   4.422   6.022
 2658SOL    HW2 8874   4.318   4.512   6.107
 2659SOL     OW 8875   5.904   2.289   4.663
 2659SOL    HW1 8876   5.864   2.233   4.736
 2659SOL    HW2 8877   5.927   2.230   4.585
 2660SOL     OW 8878   1.228   1.879   1.316
 2660SOL    HW1 8879   1.320   1.842   1.298
 2660SOL    HW2 8880   1.186   1.829   1.391
 2661SOL     OW 8881   1.485   0.633   1.299
 2661SOL    HW1 8882   1.428   0.713   1.282
 2661SOL    HW2 8883   1.579   0.652   1.270
 2662SOL     OW 8884   3.067   0.924   2.874
 2662SOL    HW1 8885   3.133   0.988   2.915
 2662SOL    HW2 8886   3.036   0.861   2.945
 2663SOL     OW 8887   3.948   6.795   6.423
 2663SOL    HW1 8888   4.013   6.739   6.372
 2663SOL    HW2 8889   3.855   6.772   6.394
 2664SOL     OW 8890   3.998   2.744   5.882
 2664SOL    HW1 8891   3.922   2.690   5.847
 2664SOL    HW2 8892   3.963   2.822   5.935
 2665SOL     OW 8893   2.219   4.003   5.377
 2665SOL    HW1 8894   2.275   4.015   5.295
 2665SOL    HW2 8895   2.275   4.017   5.458
 2666SOL     OW 8896   2.178   4.080   2.161
 2666SOL    HW1 8897   2.238   4.005   2.131
 2666SOL    HW2 8898   2.099   4.085   2.100
 2667SOL     OW 8899   5.682   3.839   3.965
 2667SOL    HW1 8900   5.639   3.749   3.975
 2667SOL    HW2 8901   5.758   3.847   4.030
 2668SOL     OW 8902   5.772   1.411   4.477
 2668SOL    HW1 8903   5.683   1.428   4.519
 2668SOL    HW2 8904   5.777   1.458   4.389
 2669SOL     OW 8905   2.268   0.529   0.391
 2669SOL    HW1 8906   2.227   0.619   0.378
 2669SOL    HW2 8907   2.198   0.458   0.386
 2670SOL     OW 8908   0.012   1.262   5.666
 2670SOL    HW1 8909   0.039   1.350   5.626
 2670SOL    HW2 8910   0.055   1.252   5.756
 2671SOL     OW 8911   4.193   5.323   5.991
 2671SOL    HW1 8912   4.277   5.346   5.942
 2671SOL    HW2 8913   4.178   5.390   6.065
 2672SOL     OW 8914   4.210   0.695   1.898
 2672SOL    HW1 8915   4.115   0.722   1.880
 2672SOL    HW2 8916   4.251   0.761   1.961
 2673SOL     OW 8917   5.022   0.148   2.471
 2673SOL    HW1 8918   4.954   0.075   2.477
 2673SOL    HW2 8919   4.979   0.232   2.440
 2674SOL     OW 8920   1.021   5.513   3.025
 2674SOL    HW1 8921   1.038   5.421   2.990
 2674SOL    HW2 8922   0.979   5.507   3.115
 2675SOL     OW 8923   6.232   0.012   4.039
 2675SOL    HW1 8924   6.262   0.066   3.960
 2675SOL    HW2 8925   6.224   6.941   4.012
 2676SOL     OW 8926   3.354   3.835   2.904
 2676SOL    HW1 8927   3.345   3.818   3.002
 2676SOL    HW2 8928   3.321   3.928   2.883
 2677SOL     OW 8929   2.117   5.016   1.569
 2677SOL    HW1 8930   2.190   4.994   1.504
 2677SOL    HW2 8931   2.155   5.016   1.662
 2678SOL     OW 8932   5.602   2.512   2.628
 2678SOL    HW1 8933   5.522   2.545   2.678
 2678SOL    HW2 8934   5.602   2.412   2.629
 2679SOL     OW 8935   2.241   5.090   3.382
 2679SOL    HW1 8936   2.313   5.158   3.390
 2679SOL    HW2 8937   2.151   5.135   3.381
 2680SOL     OW 8938   1.397   2.032   6.759
 2680SOL    HW1 8939   1.413   2.110   6.819
 2680SOL    HW2 8940   1.468   2.029   6.688
 2681SOL     OW 8941   1.569   2.656   5.269
 2681SOL    HW1 8942   1.531   2.563   5.275
 2681SOL    HW2 8943   1.660   2.651   5.229
 2682SOL     OW 8944   4.945   4.021   1.662
 2682SOL    HW1 8945   5.025   4.016   1.721
 2682SOL    HW2 8946   4.871   4.069   1.710
 2683SOL     OW 8947   1.975   4.208   2.568
 2683SOL    HW1 8948   1.935   4.128   2.612
 2683SOL    HW2 8949   2.061   4.182   2.524
 2684SOL     OW 8950   5.525   6.097   2.004
 2684SOL    HW1 8951   5.455   6.038   2.046
 2684SOL    HW2 8952   5.552   6.059   1.916
 2685SOL     OW 8953   0.472   5.688   4.982
 2685SOL    HW1 8954   0.516   5.709   4.894
 2685SOL    HW2 8955   0.412   5.763   5.008
 2686SOL     OW 8956   1.347   1.372   4.518
 2686SOL    HW1 8957   1.319   1.290   4.468
 2686SOL    HW2 8958   1.292   1.450   4.486
 2687SOL     OW 8959   4.079   1.490   2.178
 2687SOL    HW1 8960   3.983   1.508   2.201
 2687SOL    HW2 8961   4.093   1.507   2.080
 2688SOL     OW 8962   3.365   3.092   6.001
 2688SOL    HW1 8963   3.304   3.096   6.081
 2688SOL    HW2 8964   3.441   3.031   6.020
 2689SOL     OW 8965   0.744   4.266   3.045
 2689SOL    HW1 8966   0.746   4.264   2.945
 2689SOL    HW2 8967   0.828   4.307   3.079
 2690SOL     OW 8968   3.237   1.526   6.002
 2690SOL    HW1 8969   3.300   1.525   5.924
 2690SOL    HW2 8970   3.243   1.615   6.048
 2691SOL     OW 8971   0.287   4.588   3.779
 2691SOL    HW1 8972   0.240   4.550   3.859
 2691SOL    HW2 8973   0.384   4.596   3.799
 2692SOL     OW 8974   2.900   5.671   2.694
 2692SOL    HW1 8975   2.846   5.704   2.771
 2692SOL    HW2 8976   2.944   5.748   2.648
 2693SOL     OW 8977   1.582   5.810   3.837
 2693SOL    HW1 8978   1.620   5.842   3.750
 2693SOL    HW2 8979   1.551   5.889   3.890
 2694SOL     OW 8980   3.060   6.691   4.344
 2694SOL    HW1 8981   3.142   6.731   4.304
 2694SOL    HW2 8982   3.080   6.598   4.376
 2695SOL     OW 8983   6.519   6.029   3.057
 2695SOL    HW1 8984   6.609   6.033   3.101
 2695SOL    HW2 8985   6.448   6.031   3.127
 2696SOL     OW 8986   4.821   4.338   5.628
 2696SOL    HW1 8987   4.740   4.369   5.677
 2696SOL    HW2 8988   4.902   4.351   5.686
 2697SOL     OW 8989   3.884   2.357   0.622
 2697SOL    HW1 8990   3.868   2.287   0.691
 2697SOL    HW2 8991   3.813   2.427   0.627
 2698SOL     OW 8992   1.597   4.463   6.248
 2698SOL    HW1 8993   1.673   4.499   6.302
 2698SOL    HW2 8994   1.564   4.534   6.186
 2699SOL     OW 8995   3.590   5.813   1.995
 2699SOL    HW1 8996   3.496   5.803   2.026
 2699SOL    HW2 8997   3.637   5.725   1.998
 2700SOL     OW 8998   2.628   1.999   1.607
 2700SOL    HW1 8999   2.725   2.002   1.630
 2700SOL    HW2 9000   2.575   2.042   1.680
 2701SOL     OW 9001   5.078   2.808   4.666
 2701SOL    HW1 9002   5.045   2.793   4.573
 2701SOL    HW2 9003   5.067   2.904   4.690
 2702SOL     OW 9004   2.512   1.975   4.625
 2702SOL    HW1 9005   2.504   2.075   4.614
 2702SOL    HW2 9006   2.608   1.951   4.639
 2703SOL     OW 9007   1.234   6.674   2.379
 2703SOL    HW1 9008   1.313   6.695   2.321
 2703SOL    HW2 9009   1.151   6.712   2.339
 2704SOL     OW 9010   6.146   6.363   3.226
 2704SOL    HW1 9011   6.087   6.443   3.233
 2704SOL    HW2 9012   6.131   6.317   3.139
 2705SOL     OW 9013   0.348   0.603   4.685
 2705SOL    HW1 9014   0.351   0.703   4.684
 2705SOL    HW2 9015   0.279   0.573   4.750
 2706SOL     OW 9016   6.693   4.369   4.066
 2706SOL    HW1 9017   6.610   4.356   4.120
 2706SOL    HW2 9018   6.773   4.354   4.124
 2707SOL     OW 9019   4.014   0.321   2.974
 2707SOL    HW1 9020   3.987   0.404   3.024
 2707SOL    HW2 9021   4.104   0.336   2.932
 2708SOL     OW 9022   5.243   2.749   6.920
 2708SOL    HW1 9023   5.336   2.786   6.923
 2708SOL    HW2 9024   5.180   2.813   6.964
 2709SOL     OW 9025   5.518   0.485   4.962
 2709SOL    HW1 9026   5.553   0.578   4.967
 2709SOL    HW2 9027   5.418   0.487   4.974
 2710SOL     OW 9028   1.340   2.979   4.050
 2710SOL    HW1 9029   1.379   2.912   4.114
 2710SOL    HW2 9030   1.414   3.020   3.997
 2711SOL     OW 9031   3.614   2.068   3.200
 2711SOL    HW1 9032   3.678   2.071   3.276
 2711SOL    HW2 9033   3.662   2.090   3.115
 2712SOL     OW 9034   3.958   5.385   2.677
 2712SOL    HW1 9035   4.039   5.378   2.620
 2712SOL    HW2 9036   3.924   5.293   2.697
 2713SOL     OW 9037   3.952   4.729   6.473
 2713SOL    HW1 9038   3.949   4.668   6.553
 2713SOL    HW2 9039   4.032   4.707   6.418
 2714SOL     OW 9040   3.200   4.114   0.225
 2714SOL    HW1 9041   3.240   4.092   0.314
 2714SOL    HW2 9042   3.168   4.209   0.226
 2715SOL     OW 9043   4.780   1.172   1.180
 2715SOL    HW1 9044   4.765   1.089   1.126
 2715SOL    HW2 9045   4.732   1.164   1.268
 2716SOL     OW 9046   4.047   1.847   2.721
 2716SOL    HW1 9047   3.996   1.802   2.648
 2716SOL    HW2 9048   4.028   1.945   2.720
 2717SOL     OW 9049   0.883   1.176   2.525
 2717SOL    HW1 9050   0.948   1.245   2.492
 2717SOL    HW2 9051   0.932   1.109   2.581
 2718SOL     OW 9052   0.275   0.234   5.998
 2718SOL    HW1 9053   0.279   0.188   6.087
 2718SOL    HW2 9054   0.334   0.187   5.933
 2719SOL     OW 9055   1.742   3.864   1.844
 2719SOL    HW1 9056   1.649   3.837   1.869
 2719SOL    HW2 9057   1.776   3.931   1.909
 2720SOL     OW 9058   1.122   6.811   5.200
 2720SOL    HW1 9059   1.122   6.832   5.297
 2720SOL    HW2 9060   1.054   6.868   5.153
 2721SOL     OW 9061   2.876   5.477   1.762
 2721SOL    HW1 9062   2.777   5.482   1.747
 2721SOL    HW2 9063   2.916   5.413   1.696
 2722SOL     OW 9064   4.224   5.312   6.690
 2722SOL    HW1 9065   4.278   5.229   6.673
 2722SOL    HW2 9066   4.230   5.372   6.610
 2723SOL     OW 9067   3.289   6.591   0.620
 2723SOL    HW1 9068   3.331   6.577   0.709
 2723SOL    HW2 9069   3.257   6.503   0.584
 2724SOL     OW 9070   0.972   5.877   0.898
 2724SOL    HW1 9071   1.026   5.942   0.951
 2724SOL    HW2 9072   0.875   5.899   0.907
 2725SOL     OW 9073   5.669   3.468   4.789
 2725SOL    HW1 9074   5.613   3.549   4.805
 2725SOL    HW2 9075   5.637   3.393   4.846
 2726SOL     OW 9076   0.539   1.853   1.230
 2726SOL    HW1 9077   0.498   1.943   1.242
 2726SOL    HW2 9078   0.552   1.835   1.132
 2727SOL     OW 9079   2.250   4.113   4.558
 2727SOL    HW1 9080   2.325   4.123   4.493
 2727SOL    HW2 9081   2.210   4.022   4.550
 2728SOL     OW 9082   5.483   5.332   6.601
 2728SOL    HW1 9083   5.498   5.428   6.626
 2728SOL    HW2 9084   5.522   5.315   6.510
 2729SOL     OW 9085   5.281   5.908   6.002
 2729SOL    HW1 9086   5.375   5.880   5.983
 2729SOL    HW2 9087   5.234   5.932   5.917
 2730SOL     OW 9088   0.549   5.952   2.086
 2730SOL    HW1 9089   0.588   6.043   2.099
 2730SOL    HW2 9090   0.501   5.947   1.998
 2731SOL     OW 9091   3.129   3.064   3.491
 2731SOL    HW1 9092   3.151   3.032   3.583
 2731SOL    HW2 9093   3.076   3.149   3.496
 2732SOL     OW 9094   5.364   1.283   1.629
 2732SOL    HW1 9095   5.421   1.218   1.681
 2732SOL    HW2 9096   5.422   1.351   1.585
 2733SOL     OW 9097   0.449   0.460   5.967
 2733SOL    HW1 9098   0.388   0.386   5.994
 2733SOL    HW2 9099   0.508   0.429   5.892
 2734SOL     OW 9100   3.311   5.792   1.830
 2734SOL    HW1 9101   3.308   5.695   1.803
 2734SOL    HW2 9102   3.292   5.799   1.928
 2735SOL     OW 9103   1.015   2.066   1.273
 2735SOL    HW1 9104   0.950   2.012   1.219
 2735SOL    HW2 9105   1.099   2.013   1.286
 2736SOL     OW 9106   4.556   5.738   3.274
 2736SOL    HW1 9107   4.473   5.782   3.241
 2736SOL    HW2 9108   4.542   5.640   3.280
 2737SOL     OW 9109   2.652   1.900   6.523
 2737SOL    HW1 9110   2.731   1.942   6.568
 2737SOL    HW2 9111   2.638   1.941   6.433
 2738SOL     OW 9112   5.679   0.137   1.436
 2738SOL    HW1 9113   5.719   0.068   1.495
 2738SOL    HW2 9114   5.626   0.202   1.492
 2739SOL     OW 9115   0.592   5.594   2.192
 2739SOL    HW1 9116   0.656   5.662   2.229
 2739SOL    HW2 9117   0.498   5.627   2.205
 2740SOL     OW 9118   6.702   6.204   2.861
 2740SOL    HW1 9119   6.672   6.141   2.932
 2740SOL    HW2 9120   6.802   6.214   2.866
 2741SOL     OW 9121   1.205   2.543   4.194
 2741SOL    HW1 9122   1.120   2.589   4.167
 2741SOL    HW2 9123   1.183   2.460   4.245
 2742SOL     OW 9124   3.287   4.732   1.774
 2742SOL    HW1 9125   3.384   4.713   1.790
 2742SOL    HW2 9126   3.255   4.799   1.842
 2743SOL     OW 9127   6.156   4.398   2.270
 2743SOL    HW1 9128   6.133   4.454   2.190
 2743SOL    HW2 9129   6.171   4.303   2.241
 2744SOL     OW 9130   3.595   3.781   2.779
 2744SOL    HW1 9131   3.507   3.793   2.827
 2744SOL    HW2 9132   3.669   3.810   2.838
 2745SOL     OW 9133   7.021   1.011   5.498
 2745SOL    HW1 9134   0.013   1.102   5.536
 2745SOL    HW2 9135   6.927   1.005   5.466
 2746SOL     OW 9136   1.255   0.839   3.417
 2746SOL    HW1 9137   1.285   0.873   3.328
 2746SOL    HW2 9138   1.232   0.742   3.409
 2747SOL     OW 9139   3.772   5.937   1.069
 2747SOL    HW1 9140   3.692   5.878   1.069
 2747SOL    HW2 9141   3.754   6.018   1.013
 2748SOL     OW 9142   4.623   6.788   1.239
 2748SOL    HW1 9143   4.599   6.863   1.177
 2748SOL    HW2 9144   4.570   6.707   1.214
 2749SOL     OW 9145   2.183   3.274   0.672
 2749SOL    HW1 9146   2.262   3.230   0.629
 2749SOL    HW2 9147   2.186   3.373   0.652
 2750SOL     OW 9148   2.213   5.464   2.430
 2750SOL    HW1 9149   2.302   5.489   2.470
 2750SOL    HW2 9150   2.143   5.467   2.501
 2751SOL     OW 9151   1.236   2.840   1.403
 2751SOL    HW1 9152   1.326   2.851   1.360
 2751SOL    HW2 9153   1.178   2.917   1.377
 2752SOL     OW 9154   4.076   4.573   5.854
 2752SOL    HW1 9155   4.127   4.566   5.939
 2752SOL    HW2 9156   4.036   4.484   5.831
 2753SOL     OW 9157   6.171   6.322   5.066
 2753SOL    HW1 9158   6.155   6.300   5.162
 2753SOL    HW2 9159   6.105   6.275   5.009
 2754SOL     OW 9160   0.290   6.229   6.203
 2754SOL    HW1 9161   0.308   6.324   6.178
 2754SOL    HW2 9162   0.365   6.195   6.260
 2755SOL     OW 9163   2.897   6.532   3.530
 2755SOL    HW1 9164   2.956   6.586   3.470
 2755SOL    HW2 9165   2.824   6.491   3.476
 2756SOL     OW 9166   5.240   6.500   0.374
 2756SOL    HW1 9167   5.180   6.424   0.350
 2756SOL    HW2 9168   5.248   6.562   0.296
 2757SOL     OW 9169   0.509   4.732   1.557
 2757SOL    HW1 9170   0.465   4.757   1.643
 2757SOL    HW2 9171   0.530   4.814   1.504
 2758SOL     OW 9172   5.218   0.842   5.931
 2758SOL    HW1 9173   5.200   0.747   5.906
 2758SOL    HW2 9174   5.174   0.863   6.018
 2759SOL     OW 9175   5.700   6.414   4.027
 2759SOL    HW1 9176   5.728   6.342   3.964
 2759SOL    HW2 9177   5.601   6.412   4.037
 2760SOL     OW 9178   2.014   5.083   2.071
 2760SOL    HW1 9179   1.997   5.177   2.097
 2760SOL    HW2 9180   1.948   5.023   2.116
 2761SOL     OW 9181   1.442   5.679   3.418
 2761SOL    HW1 9182   1.499   5.756   3.389
 2761SOL    HW2 9183   1.386   5.649   3.341
 2762SOL     OW 9184   1.383   6.495   5.454
 2762SOL    HW1 9185   1.364   6.517   5.359
 2762SOL    HW2 9186   1.357   6.572   5.512
 2763SOL     OW 9187   5.844   2.474   3.867
 2763SOL    HW1 9188   5.864   2.533   3.789
 2763SOL    HW2 9189   5.847   2.378   3.838
 2764SOL     OW 9190   5.752   0.153   0.940
 2764SOL    HW1 9191   5.702   0.145   1.026
 2764SOL    HW2 9192   5.792   0.244   0.932
 2765SOL     OW 9193   5.726   1.384   1.936
 2765SOL    HW1 9194   5.654   1.453   1.943
 2765SOL    HW2 9195   5.772   1.392   1.848
 2766SOL     OW 9196   5.544   1.470   1.243
 2766SOL    HW1 9197   5.635   1.488   1.204
 2766SOL    HW2 9198   5.477   1.530   1.200
 2767SOL     OW 9199   5.947   3.967   6.078
 2767SOL    HW1 9200   5.940   4.002   5.985
 2767SOL    HW2 9201   5.871   3.906   6.097
 2768SOL     OW 9202   4.866   1.431   6.721
 2768SOL    HW1 9203   4.961   1.435   6.689
 2768SOL    HW2 9204   4.819   1.356   6.674
 2769SOL     OW 9205   6.724   3.955   2.543
 2769SOL    HW1 9206   6.675   4.002   2.616
 2769SOL    HW2 9207   6.759   3.868   2.577
 2770SOL     OW 9208   1.458   5.146   1.956
 2770SOL    HW1 9209   1.423   5.053   1.951
 2770SOL    HW2 9210   1.387   5.208   1.989
 2771SOL     OW 9211   5.430   2.227   1.089
 2771SOL    HW1 9212   5.480   2.142   1.069
 2771SOL    HW2 9213   5.482   2.304   1.053
 2772SOL     OW 9214   4.417   2.731   0.393
 2772SOL    HW1 9215   4.385   2.638   0.371
 2772SOL    HW2 9216   4.499   2.725   0.451
 2773SOL     OW 9217   4.542   3.979   6.206
 2773SOL    HW1 9218   4.519   4.041   6.281
 2773SOL    HW2 9219   4.626   4.010   6.161
 2774SOL     OW 9220   5.914   3.007   2.056
 2774SOL    HW1 9221   5.963   3.063   2.123
 2774SOL    HW2 9222   5.955   3.022   1.965
 2775SOL     OW 9223   6.973   5.490   1.351
 2775SOL    HW1 9224   0.030   5.444   1.385
 2775SOL    HW2 9225   6.939   5.552   1.421
 2776SOL     OW 9226   3.871   6.302   5.852
 2776SOL    HW1 9227   3.846   6.348   5.937
 2776SOL    HW2 9228   3.970   6.288   5.849
 2777SOL     OW 9229   3.234   1.416   2.420
 2777SOL    HW1 9230   3.201   1.474   2.346
 2777SOL    HW2 9231   3.332   1.433   2.435
 2778SOL     OW 9232   2.378   2.001   5.776
 2778SOL    HW1 9233   2.311   2.074   5.787
 2778SOL    HW2 9234   2.429   1.990   5.862
 2779SOL     OW 9235   5.289   0.078   0.013
 2779SOL    HW1 9236   5.292   0.141   0.091
 2779SOL    HW2 9237   5.223   0.112   6.971
 2780SOL     OW 9238   4.536   5.295   6.440
 2780SOL    HW1 9239   4.618   5.241   6.461
 2780SOL    HW2 9240   4.562   5.374   6.385
 2781SOL     OW 9241   6.064   4.585   1.630
 2781SOL    HW1 9242   6.065   4.645   1.710
 2781SOL    HW2 9243   6.146   4.528   1.630
 2782SOL     OW 9244   3.128   2.452   6.696
 2782SOL    HW1 9245   3.094   2.387   6.628
 2782SOL    HW2 9246   3.108   2.545   6.665
 2783SOL     OW 9247   6.623   4.492   5.482
 2783SOL    HW1 9248   6.529   4.524   5.497
 2783SOL    HW2 9249   6.639   4.481   5.384
 2784SOL     OW 9250   1.805   2.730   1.358
 2784SOL    HW1 9251   1.749   2.678   1.422
 2784SOL    HW2 9252   1.801   2.827   1.381
 2785SOL     OW 9253   6.516   0.969   0.132
 2785SOL    HW1 9254   6.418   0.971   0.151
 2785SOL    HW2 9255   6.563   0.918   0.204
 2786SOL     OW 9256   4.135   6.242   0.702
 2786SOL    HW1 9257   4.160   6.309   0.632
 2786SOL    HW2 9258   4.087   6.165   0.658
 2787SOL     OW 9259   2.006   3.144   6.185
 2787SOL    HW1 9260   2.028   3.219   6.122
 2787SOL    HW2 9261   1.965   3.068   6.134
 2788SOL     OW 9262   2.710   4.227   0.336
 2788SOL    HW1 9263   2.791   4.281   0.362
 2788SOL    HW2 9264   2.647   4.224   0.413
 2789SOL     OW 9265   1.172   1.687   3.650
 2789SOL    HW1 9266   1.161   1.589   3.636
 2789SOL    HW2 9267   1.266   1.713   3.631
 2790SOL     OW 9268   3.396   5.046   3.121
 2790SOL    HW1 9269   3.414   5.032   3.219
 2790SOL    HW2 9270   3.381   5.143   3.103
 2791SOL     OW 9271   1.579   4.053   5.174
 2791SOL    HW1 9272   1.646   4.118   5.208
 2791SOL    HW2 9273   1.602   3.961   5.205
 2792SOL     OW 9274   1.262   1.031   4.942
 2792SOL    HW1 9275   1.213   1.088   5.007
 2792SOL    HW2 9276   1.334   1.086   4.898
 2793SOL     OW 9277   5.411   1.446   2.377
 2793SOL    HW1 9278   5.498   1.402   2.400
 2793SOL    HW2 9279   5.423   1.545   2.379
 2794SOL     OW 9280   0.382   1.992   6.962
 2794SOL    HW1 9281   0.378   2.066   6.895
 2794SOL    HW2 9282   0.452   2.012   0.006
 2795SOL     OW 9283   3.122   3.964   1.389
 2795SOL    HW1 9284   3.118   3.897   1.316
 2795SOL    HW2 9285   3.041   4.023   1.385
 2796SOL     OW 9286   6.131   3.742   2.748
 2796SOL    HW1 9287   6.046   3.740   2.801
 2796SOL    HW2 9288   6.199   3.795   2.798
 2797SOL     OW 9289   5.073   5.335   4.747
 2797SOL    HW1 9290   5.008   5.292   4.810
 2797SOL    HW2 9291   5.147   5.270   4.728
 2798SOL     OW 9292   0.988   3.900   3.621
 2798SOL    HW1 9293   0.889   3.914   3.629
 2798SOL    HW2 9294   1.026   3.968   3.559
 2799SOL     OW 9295   0.234   5.597   6.380
 2799SOL    HW1 9296   0.143   5.619   6.417
 2799SOL    HW2 9297   0.240   5.629   6.286
 2800SOL     OW 9298   4.209   4.898   0.010
 2800SOL    HW1 9299   4.213   4.804   7.001
 2800SOL    HW2 9300   4.171   4.957   6.965
 2801SOL     OW 9301   4.893   5.289   2.225
 2801SOL    HW1 9302   4.940   5.274   2.138
 2801SOL    HW2 9303   4.886   5.203   2.274
 2802SOL     OW 9304   3.720   1.581   5.654
 2802SOL    HW1 9305   3.681   1.490   5.672
 2802SOL    HW2 9306   3.650   1.639   5.612
 2803SOL     OW 9307   2.525   6.426   6.270
 2803SOL    HW1 9308   2.601   6.441   6.333
 2803SOL    HW2 9309   2.560   6.428   6.176
 2804SOL     OW 9310   6.761   4.676   3.434
 2804SOL    HW1 9311   6.673   4.693   3.389
 2804SOL    HW2 9312   6.793   4.760   3.476
 2805SOL     OW 9313   5.273   3.228   1.244
 2805SOL    HW1 9314   5.251   3.131   1.233
 2805SOL    HW2 9315   5.222   3.265   1.322
 2806SOL     OW 9316   6.266   5.240   3.150
 2806SOL    HW1 9317   6.205   5.286   3.085
 2806SOL    HW2 9318   6.310   5.162   3.105
 2807SOL     OW 9319   4.642   4.639   3.525
 2807SOL    HW1 9320   4.626   4.644   3.427
 2807SOL    HW2 9321   4.557   4.618   3.573
 2808SOL     OW 9322   5.511   1.574   3.228
 2808SOL    HW1 9323   5.580   1.634   3.269
 2808SOL    HW2 9324   5.516   1.484   3.272
 2809SOL     OW 9325   6.173   2.432   1.306
 2809SOL    HW1 9326   6.217   2.508   1.257
 2809SOL    HW2 9327   6.129   2.371   1.241
 2810SOL     OW 9328   2.816   6.786   5.575
 2810SOL    HW1 9329   2.762   6.748   5.650
 2810SOL    HW2 9330   2.834   6.714   5.508
 2811SOL     OW 9331   0.486   0.816   2.816
 2811SOL    HW1 9332   0.469   0.736   2.757
 2811SOL    HW2 9333   0.563   0.868   2.780
 2812SOL     OW 9334   5.045   3.630   2.757
 2812SOL    HW1 9335   5.118   3.665   2.698
 2812SOL    HW2 9336   5.085   3.601   2.844
 2813SOL     OW 9337   5.967   6.890   5.318
 2813SOL    HW1 9338   5.923   6.837   5.391
 2813SOL    HW2 9339   5.900   6.952   5.277
 2814SOL     OW 9340   4.218   4.256   5.902
 2814SOL    HW1 9341   4.135   4.278   5.852
 2814SOL    HW2 9342   4.286   4.218   5.840
 2815SOL     OW 9343   6.512   1.303   4.340
 2815SOL    HW1 9344   6.560   1.220   4.367
 2815SOL    HW2 9345   6.425   1.309   4.389
 2816SOL     OW 9346   5.843   6.825   3.586
 2816SOL    HW1 9347   5.747   6.837   3.561
 2816SOL    HW2 9348   5.860   6.862   3.677
 2817SOL     OW 9349   1.416   1.111   1.267
 2817SOL    HW1 9350   1.496   1.057   1.244
 2817SOL    HW2 9351   1.432   1.158   1.354
 2818SOL     OW 9352   6.956   4.929   6.264
 2818SOL    HW1 9353   6.868   4.975   6.276
 2818SOL    HW2 9354   7.015   4.986   6.207
 2819SOL     OW 9355   0.138   2.471   0.293
 2819SOL    HW1 9356   0.043   2.449   0.270
 2819SOL    HW2 9357   0.199   2.400   0.259
 2820SOL     OW 9358   0.136   2.253   2.605
 2820SOL    HW1 9359   0.230   2.277   2.580
 2820SOL    HW2 9360   0.116   2.287   2.697
 2821SOL     OW 9361   2.270   4.304   5.673
 2821SOL    HW1 9362   2.199   4.296   5.743
 2821SOL    HW2 9363   2.230   4.291   5.582
 2822SOL     OW 9364   4.765   2.611   0.114
 2822SOL    HW1 9365   4.727   2.547   0.181
 2822SOL    HW2 9366   4.802   2.691   0.162
 2823SOL     OW 9367   2.524   6.575   2.670
 2823SOL    HW1 9368   2.483   6.657   2.631
 2823SOL    HW2 9369   2.561   6.518   2.597
 2824SOL     OW 9370   2.532   1.378   5.284
 2824SOL    HW1 9371   2.441   1.418   5.285
 2824SOL    HW2 9372   2.596   1.439   5.332
 2825SOL     OW 9373   6.809   6.764   1.021
 2825SOL    HW1 9374   6.796   6.676   1.068
 2825SOL    HW2 9375   6.849   6.830   1.085
 2826SOL     OW 9376   5.356   1.837   5.305
 2826SOL    HW1 9377   5.256   1.841   5.309
 2826SOL    HW2 9378   5.386   1.743   5.319
 2827SOL     OW 9379   6.263   1.450   4.806
 2827SOL    HW1 9380   6.241   1.477   4.899
 2827SOL    HW2 9381   6.317   1.521   4.762
 2828SOL     OW 9382   3.909   1.007   6.185
 2828SOL    HW1 9383   3.930   1.069   6.111
 2828SOL    HW2 9384   3.831   0.949   6.159
 2829SOL     OW 9385   3.641   5.468   6.474
 2829SOL    HW1 9386   3.586   5.386   6.490
 2829SOL    HW2 9387   3.623   5.503   6.383
 2830SOL     OW 9388   5.640   3.498   6.240
 2830SOL    HW1 9389   5.619   3.511   6.143
 2830SOL    HW2 9390   5.631   3.586   6.288
 2831SOL     OW 9391   5.567   6.503   4.327
 2831SOL    HW1 9392   5.638   6.475   4.392
 2831SOL    HW2 9393   5.479   6.468   4.358
 2832SOL     OW 9394   0.148   1.493   1.232
 2832SOL    HW1 9395   0.069   1.510   1.174
 2832SOL    HW2 9396   0.192   1.408   1.203
 2833SOL     OW 9397   5.911   2.101   2.063
 2833SOL    HW1 9398   5.986   2.143   2.115
 2833SOL    HW2 9399   5.837   2.166   2.052
 2834SOL     OW 9400   3.229   1.481   6.682
 2834SOL    HW1 9401   3.145   1.440   6.647
 2834SOL    HW2 9402   3.308   1.436   6.642
 2835SOL     OW 9403   0.441   6.889   1.821
 2835SOL    HW1 9404   0.393   6.950   1.884
 2835SOL    HW2 9405   0.537   6.917   1.816
 2836SOL     OW 9406   6.969   6.919   1.683
 2836SOL    HW1 9407   7.001   7.012   1.666
 2836SOL    HW2 9408   6.960   6.871   1.596
 2837SOL     OW 9409   5.465   3.209   3.213
 2837SOL    HW1 9410   5.438   3.194   3.308
 2837SOL    HW2 9411   5.431   3.298   3.182
 2838SOL     OW 9412   2.603   4.726   1.941
 2838SOL    HW1 9413   2.598   4.781   1.858
 2838SOL    HW2 9414   2.697   4.697   1.957
 2839SOL     OW 9415   5.995   1.380   2.082
 2839SOL    HW1 9416   5.937   1.415   2.010
 2839SOL    HW2 9417   6.088   1.413   2.070
 2840SOL     OW 9418   0.258   1.489   4.651
 2840SOL    HW1 9419   0.272   1.585   4.677
 2840SOL    HW2 9420   0.305   1.471   4.565
 2841SOL     OW 9421   0.771   6.273   0.404
 2841SOL    HW1 9422   0.713   6.250   0.326
 2841SOL    HW2 9423   0.713   6.283   0.486
 2842SOL     OW 9424   6.997   3.430   3.876
 2842SOL    HW1 9425   7.001   3.351   3.937
 2842SOL    HW2 9426   0.009   3.404   3.786
 2843SOL     OW 9427   3.395   1.526   4.202
 2843SOL    HW1 9428   3.399   1.426   4.209
 2843SOL    HW2 9429   3.460   1.556   4.132
 2844SOL     OW 9430   1.215   4.106   0.367
 2844SOL    HW1 9431   1.142   4.053   0.323
 2844SOL    HW2 9432   1.220   4.197   0.324
 2845SOL     OW 9433   0.698   3.906   0.228
 2845SOL    HW1 9434   0.723   3.817   0.265
 2845SOL    HW2 9435   0.736   3.917   0.137
 2846SOL     OW 9436   5.067   1.723   6.744
 2846SOL    HW1 9437   4.975   1.751   6.770
 2846SOL    HW2 9438   5.117   1.801   6.706
 2847SOL     OW 9439   5.935   3.810   3.817
 2847SOL    HW1 9440   6.007   3.835   3.882
 2847SOL    HW2 9441   5.846   3.827   3.858
 2848SOL     OW 9442   0.293   4.433   5.425
 2848SOL    HW1 9443   0.250   4.523   5.413
 2848SOL    HW2 9444   0.302   4.413   5.523
 2849SOL     OW 9445   3.459   1.165   0.651
 2849SOL    HW1 9446   3.451   1.179   0.552
 2849SOL    HW2 9447   3.535   1.103   0.670
 2850SOL     OW 9448   3.203   0.254   1.385
 2850SOL    HW1 9449   3.298   0.222   1.384
 2850SOL    HW2 9450   3.200   0.349   1.355
 2851SOL     OW 9451   1.361   4.865   5.233
 2851SOL    HW1 9452   1.301   4.785   5.236
 2851SOL    HW2 9453   1.362   4.910   5.322
 2852SOL     OW 9454   5.897   3.442   6.659
 2852SOL    HW1 9455   5.956   3.513   6.698
 2852SOL    HW2 9456   5.942   3.353   6.666
 2853SOL     OW 9457   3.079   2.765   0.839
 2853SOL    HW1 9458   2.993   2.713   0.844
 2853SOL    HW2 9459   3.143   2.729   0.907
 2854SOL     OW 9460   2.551   0.979   4.210
 2854SOL    HW1 9461   2.488   1.017   4.277
 2854SOL    HW2 9462   2.518   0.890   4.179
 2855SOL     OW 9463   2.189   0.482   5.850
 2855SOL    HW1 9464   2.211   0.575   5.821
 2855SOL    HW2 9465   2.147   0.484   5.940
 2856SOL     OW 9466   2.428   2.567   5.631
 2856SOL    HW1 9467   2.490   2.557   5.553
 2856SOL    HW2 9468   2.481   2.587   5.714
 2857SOL     OW 9469   2.830   1.549   1.535
 2857SOL    HW1 9470   2.758   1.490   1.498
 2857SOL    HW2 9471   2.790   1.613   1.601
 2858SOL     OW 9472   6.640   2.687   2.220
 2858SOL    HW1 9473   6.568   2.624   2.191
 2858SOL    HW2 9474   6.619   2.722   2.311
 2859SOL     OW 9475   4.874   0.954   0.915
 2859SOL    HW1 9476   4.903   0.895   0.991
 2859SOL    HW2 9477   4.946   0.958   0.846
 2860SOL     OW 9478   3.949   1.730   1.805
 2860SOL    HW1 9479   3.950   1.782   1.890
 2860SOL    HW2 9480   3.860   1.739   1.761
 2861SOL     OW 9481   4.591   5.357   5.778
 2861SOL    HW1 9482   4.595   5.395   5.870
 2861SOL    HW2 9483   4.501   5.316   5.763
 2862SOL     OW 9484   5.756   2.075   3.934
 2862SOL    HW1 9485   5.836   2.121   3.972
 2862SOL    HW2 9486   5.751   1.982   3.970
 2863SOL     OW 9487   6.529   2.124   0.213
 2863SOL    HW1 9488   6.557   2.103   0.306
 2863SOL    HW2 9489   6.606   2.111   0.151
 2864SOL     OW 9490   3.806   0.687   0.999
 2864SOL    HW1 9491   3.757   0.665   1.083
 2864SOL    HW2 9492   3.820   0.604   0.945
 2865SOL     OW 9493   4.484   4.266   5.269
 2865SOL    HW1 9494   4.397   4.306   5.242
 2865SOL    HW2 9495   4.553   4.285   5.199
 2866SOL     OW 9496   6.589   6.311   6.793
 2866SOL    HW1 9497   6.631   6.378   6.731
 2866SOL    HW2 9498   6.648   6.231   6.799
 2867SOL     OW 9499   5.990   4.273   2.426
 2867SOL    HW1 9500   6.020   4.201   2.489
 2867SOL    HW2 9501   6.069   4.311   2.378
 2868SOL     OW 9502   0.331   3.800   5.463
 2868SOL    HW1 9503   0.267   3.876   5.473
 2868SOL    HW2 9504   0.337   3.751   5.550
 2869SOL     OW 9505   6.426   0.574   2.494
 2869SOL    HW1 9506   6.353   0.507   2.487
 2869SOL    HW2 9507   6.410   0.633   2.573
 2870SOL     OW 9508   6.576   2.064   3.531
 2870SOL    HW1 9509   6.561   1.969   3.506
 2870SOL    HW2 9510   6.492   2.103   3.567
 2871SOL     OW 9511   1.972   2.022   6.435
 2871SOL    HW1 9512   1.988   2.051   6.529
 2871SOL    HW2 9513   2.004   1.928   6.424
 2872SOL     OW 9514   2.754   1.600   3.761
 2872SOL    HW1 9515   2.818   1.524   3.765
 2872SOL    HW2 9516   2.788   1.676   3.817
 2873SOL     OW 9517   0.367   5.567   2.675
 2873SOL    HW1 9518   0.459   5.591   2.642
 2873SOL    HW2 9519   0.341   5.629   2.749
 2874SOL     OW 9520   5.163   3.953   2.256
 2874SOL    HW1 9521   5.131   3.863   2.284
 2874SOL    HW2 9522   5.156   3.962   2.157
 2875SOL     OW 9523   3.889   6.645   5.937
 2875SOL    HW1 9524   3.905   6.573   6.004
 2875SOL    HW2 9525   3.917   6.733   5.975
 2876SOL     OW 9526   0.926   0.839   1.726
 2876SOL    HW1 9527   0.858   0.907   1.699
 2876SOL    HW2 9528   0.881   0.751   1.740
 2877SOL     OW 9529   3.160   2.797   5.245
 2877SOL    HW1 9530   3.101   2.877   5.255
 2877SOL    HW2 9531   3.236   2.803   5.310
 2878SOL     OW 9532   2.434   4.684   4.967
 2878SOL    HW1 9533   2.462   4.648   5.057
 2878SOL    HW2 9534   2.433   4.609   4.900
 2879SOL     OW 9535   5.192   5.335   6.864
 2879SOL    HW1 9536   5.229   5.390   6.939
 2879SOL    HW2 9537   5.267   5.305   6.804
 2880SOL     OW 9538   6.899   6.050   0.568
 2880SOL    HW1 9539   6.966   6.030   0.497
 2880SOL    HW2 9540   6.945   6.093   0.645
 2881SOL     OW 9541   6.385   6.052   0.939
 2881SOL    HW1 9542   6.434   5.998   0.870
 2881SOL    HW2 9543   6.363   5.994   1.017
 2882SOL     OW 9544   0.484   3.330   2.517
 2882SOL    HW1 9545   0.401   3.294   2.560
 2882SOL    HW2 9546   0.562   3.274   2.544
 2883SOL     OW 9547   3.378   6.799   3.738
 2883SOL    HW1 9548   3.344   6.841   3.655
 2883SOL    HW2 9549   3.478   6.806   3.741
 2884SOL     OW 9550   0.687   6.931   3.549
 2884SOL    HW1 9551   0.679   6.848   3.494
 2884SOL    HW2 9552   0.625   7.001   3.513
 2885SOL     OW 9553   0.335   2.354   3.108
 2885SOL    HW1 9554   0.275   2.334   3.030
 2885SOL    HW2 9555   0.406   2.284   3.114
 2886SOL     OW 9556   2.053   2.837   6.988
 2886SOL    HW1 9557   1.968   2.786   6.977
 2886SOL    HW2 9558   2.101   2.843   6.900
 2887SOL     OW 9559   2.623   0.152   5.238
 2887SOL    HW1 9560   2.707   0.126   5.190
 2887SOL    HW2 9561   2.572   0.069   5.263
 2888SOL     OW 9562   6.862   4.595   6.624
 2888SOL    HW1 9563   6.782   4.575   6.680
 2888SOL    HW2 9564   6.859   4.690   6.593
 2889SOL     OW 9565   1.870   0.724   1.546
 2889SOL    HW1 9566   1.916   0.697   1.462
 2889SOL    HW2 9567   1.791   0.663   1.561
 2890SOL     OW 9568   3.385   0.598   1.163
 2890SOL    HW1 9569   3.428   0.537   1.098
 2890SOL    HW2 9570   3.286   0.582   1.165
 2891SOL     OW 9571   2.122   4.683   3.603
 2891SOL    HW1 9572   2.137   4.667   3.700
 2891SOL    HW2 9573   2.205   4.724   3.563
 2892SOL     OW 9574   3.800   3.903   6.704
 2892SOL    HW1 9575   3.858   3.965   6.756
 2892SOL    HW2 9576   3.788   3.818   6.755
 2893SOL     OW 9577   2.041   6.704   5.988
 2893SOL    HW1 9578   2.018   6.676   6.081
 2893SOL    HW2 9579   1.978   6.662   5.924
 2894SOL     OW 9580   2.643   2.761   6.785
 2894SOL    HW1 9581   2.729   2.737   6.829
 2894SOL    HW2 9582   2.572   2.695   6.811
 2895SOL     OW 9583   3.859   3.156   6.721
 2895SOL    HW1 9584   3.905   3.068   6.720
 2895SOL    HW2 9585   3.793   3.160   6.796
 2896SOL     OW 9586   2.691   5.271   0.263
 2896SOL    HW1 9587   2.671   5.183   0.219
 2896SOL    HW2 9588   2.621   5.292   0.331
 2897SOL     OW 9589   2.089   6.690   3.853
 2897SOL    HW1 9590   2.176   6.726   3.887
 2897SOL    HW2 9591   2.070   6.728   3.762
 2898SOL     OW 9592   4.220   5.312   2.618
 2898SOL    HW1 9593   4.169   5.227   2.630
 2898SOL    HW2 9594   4.269   5.333   2.702
 2899SOL     OW 9595   6.805   0.464   6.328
 2899SOL    HW1 9596   6.715   0.488   6.365
 2899SOL    HW2 9597   6.876   0.509   6.381
 2900SOL     OW 9598   1.161   4.845   5.919
 2900SOL    HW1 9599   1.257   4.856   5.893
 2900SOL    HW2 9600   1.103   4.849   5.838
 2901SOL     OW 9601   2.430   0.825   2.272
 2901SOL    HW1 9602   2.417   0.908   2.326
 2901SOL    HW2 9603   2.454   0.849   2.179
 2902SOL     OW 9604   5.186   6.054   0.455
 2902SOL    HW1 9605   5.109   6.065   0.392
 2902SOL    HW2 9606   5.152   6.043   0.548
 2903SOL     OW 9607   3.202   0.793   2.340
 2903SOL    HW1 9608   3.152   0.806   2.426
 2903SOL    HW2 9609   3.267   0.718   2.350
 2904SOL     OW 9610   2.420   3.327   5.353
 2904SOL    HW1 9611   2.464   3.241   5.378
 2904SOL    HW2 9612   2.337   3.308   5.300
 2905SOL     OW 9613   1.262   0.944   2.498
 2905SOL    HW1 9614   1.321   0.976   2.572
 2905SOL    HW2 9615   1.244   1.019   2.435
 2906SOL     OW 9616   5.052   5.260   2.009
 2906SOL    HW1 9617   5.058   5.255   1.909
 2906SOL    HW2 9618   5.144   5.272   2.046
 2907SOL     OW 9619   0.204   1.557   5.020
 2907SOL    HW1 9620   0.294   1.540   4.981
 2907SOL    HW2 9621   0.190   1.656   5.028
 2908SOL     OW 9622   3.931   6.655   4.491
 2908SOL    HW1 9623   3.872   6.575   4.479
 2908SOL    HW2 9624   3.920   6.691   4.583
 2909SOL     OW 9625   0.573   5.058   4.636
 2909SOL    HW1 9626   0.590   4.962   4.654
 2909SOL    HW2 9627   0.632   5.114   4.694
 2910SOL     OW 9628   2.974   6.668   5.340
 2910SOL    HW1 9629   2.927   6.587   5.376
 2910SOL    HW2 9630   3.072   6.660   5.358
 2911SOL     OW 9631   2.591   5.233   3.154
 2911SOL    HW1 9632   2.642   5.191   3.230
 2911SOL    HW2 9633   2.577   5.165   3.082
 2912SOL     OW 9634   2.822   5.641   0.140
 2912SOL    HW1 9635   2.841   5.694   0.222
 2912SOL    HW2 9636   2.886   5.565   0.133
 2913SOL     OW 9637   1.502   3.411   2.059
 2913SOL    HW1 9638   1.435   3.459   2.001
 2913SOL    HW2 9639   1.585   3.466   2.065
 2914SOL     OW 9640   5.409   4.468   5.732
 2914SOL    HW1 9641   5.453   4.556   5.715
 2914SOL    HW2 9642   5.474   4.408   5.779
 2915SOL     OW 9643   4.122   1.224   4.148
 2915SOL    HW1 9644   4.191   1.160   4.183
 2915SOL    HW2 9645   4.137   1.314   4.188
 2916SOL     OW 9646   6.298   4.382   5.418
 2916SOL    HW1 9647   6.279   4.362   5.514
 2916SOL    HW2 9648   6.321   4.297   5.370
 2917SOL     OW 9649   4.086   0.062   0.764
 2917SOL    HW1 9650   4.033   0.017   0.835
 2917SOL    HW2 9651   4.031   0.135   0.722
 2918SOL     OW 9652   0.298   3.760   3.282
 2918SOL    HW1 9653   0.360   3.751   3.360
 2918SOL    HW2 9654   0.349   3.748   3.197
 2919SOL     OW 9655   6.366   6.879   6.948
 2919SOL    HW1 9656   6.346   6.821   6.869
 2919SOL    HW2 9657   6.376   6.973   6.918
 2920SOL     OW 9658   3.745   2.058   2.568
 2920SOL    HW1 9659   3.744   2.097   2.476
 2920SOL    HW2 9660   3.817   2.102   2.622
 2921SOL     OW 9661   0.115   1.203   2.340
 2921SOL    HW1 9662   0.017   1.217   2.322
 2921SOL    HW2 9663   0.141   1.256   2.421
 2922SOL     OW 9664   5.272   6.700   5.837
 2922SOL    HW1 9665   5.196   6.646   5.872
 2922SOL    HW2 9666   5.239   6.767   5.771
 2923SOL     OW 9667   6.874   5.198   2.527
 2923SOL    HW1 9668   6.911   5.184   2.618
 2923SOL    HW2 9669   6.774   5.202   2.531
 2924SOL     OW 9670   0.928   1.417   5.749
 2924SOL    HW1 9671   1.003   1.381   5.693
 2924SOL    HW2 9672   0.902   1.507   5.716
 2925SOL     OW 9673   5.662   2.429   2.199
 2925SOL    HW1 9674   5.688   2.511   2.147
 2925SOL    HW2 9675   5.670   2.349   2.140
 2926SOL     OW 9676   0.236   1.742   4.769
 2926SOL    HW1 9677   0.224   1.780   4.860
 2926SOL    HW2 9678   0.159   1.768   4.711
 2927SOL     OW 9679   1.161   2.570   2.291
 2927SOL    HW1 9680   1.164   2.505   2.216
 2927SOL    HW2 9681   1.227   2.544   2.361
 2928SOL     OW 9682   6.969   0.598   6.768
 2928SOL    HW1 9683   0.032   0.635   6.799
 2928SOL    HW2 9684   6.899   0.619   6.836
 2929SOL     OW 9685   0.312   0.606   6.187
 2929SOL    HW1 9686   0.355   0.557   6.112
 2929SOL    HW2 9687   0.294   0.543   6.263
 2930SOL     OW 9688   5.032   0.494   4.695
 2930SOL    HW1 9689   4.993   0.405   4.673
 2930SOL    HW2 9690   4.959   0.560   4.709
 2931SOL     OW 9691   4.701   6.134   6.407
 2931SOL    HW1 9692   4.742   6.042   6.409
 2931SOL    HW2 9693   4.690   6.163   6.312
 2932SOL     OW 9694   1.352   4.338   1.968
 2932SOL    HW1 9695   1.440   4.383   1.984
 2932SOL    HW2 9696   1.281   4.407   1.957
 2933SOL     OW 9697   5.410   2.628   3.975
 2933SOL    HW1 9698   5.316   2.613   3.942
 2933SOL    HW2 9699   5.409   2.638   4.075
 2934SOL     OW 9700   3.718   6.913   0.263
 2934SOL    HW1 9701   3.641   6.977   0.262
 2934SOL    HW2 9702   3.721   6.862   0.176
 2935SOL     OW 9703   6.516   3.363   1.066
 2935SOL    HW1 9704   6.612   3.388   1.074
 2935SOL    HW2 9705   6.483   3.328   1.154
 2936SOL     OW 9706   4.864   5.822   0.606
 2936SOL    HW1 9707   4.913   5.772   0.534
 2936SOL    HW2 9708   4.771   5.840   0.576
 2937SOL     OW 9709   3.300   5.386   1.231
 2937SOL    HW1 9710   3.275   5.441   1.311
 2937SOL    HW2 9711   3.250   5.300   1.233
 2938SOL     OW 9712   4.892   5.286   5.253
 2938SOL    HW1 9713   4.799   5.298   5.289
 2938SOL    HW2 9714   4.912   5.360   5.188
 2939SOL     OW 9715   5.781   6.877   4.948
 2939SOL    HW1 9716   5.847   6.896   4.874
 2939SOL    HW2 9717   5.736   6.789   4.931
 2940SOL     OW 9718   5.425   6.799   5.378
 2940SOL    HW1 9719   5.385   6.779   5.288
 2940SOL    HW2 9720   5.370   6.869   5.424
 2941SOL     OW 9721   1.557   2.153   5.079
 2941SOL    HW1 9722   1.562   2.230   5.143
 2941SOL    HW2 9723   1.487   2.089   5.109
 2942SOL     OW 9724   3.182   0.382   2.480
 2942SOL    HW1 9725   3.168   0.368   2.383
 2942SOL    HW2 9726   3.133   0.312   2.532
 2943SOL     OW 9727   5.824   2.924   2.651
 2943SOL    HW1 9728   5.898   2.884   2.597
 2943SOL    HW2 9729   5.745   2.938   2.592
 2944SOL     OW 9730   3.018   5.024   5.680
 2944SOL    HW1 9731   2.997   5.047   5.775
 2944SOL    HW2 9732   3.019   4.925   5.669
 2945SOL     OW 9733   4.048   3.208   3.156
 2945SOL    HW1 9734   4.002   3.125   3.123
 2945SOL    HW2 9735   4.002   3.289   3.118
 2946SOL     OW 9736   6.632   6.206   5.666
 2946SOL    HW1 9737   6.669   6.292   5.631
 2946SOL    HW2 9738   6.552   6.225   5.723
 2947SOL     OW 9739   6.675   3.984   6.400
 2947SOL    HW1 9740   6.633   3.929   6.328
 2947SOL    HW2 9741   6.609   4.001   6.472
 2948SOL     OW 9742   6.791   3.430   5.559
 2948SOL    HW1 9743   6.700   3.464   5.582
 2948SOL    HW2 9744   6.803   3.433   5.459
 2949SOL     OW 9745   1.568   6.547   1.133
 2949SOL    HW1 9746   1.603   6.468   1.183
 2949SOL    HW2 9747   1.471   6.558   1.152
 2950SOL     OW 9748   5.857   3.482   4.298
 2950SOL    HW1 9749   5.862   3.489   4.198
 2950SOL    HW2 9750   5.813   3.564   4.335
 2951SOL     OW 9751   0.094   2.234   0.125
 2951SOL    HW1 9752   0.059   2.183   0.046
 2951SOL    HW2 9753   0.191   2.251   0.113
 2952SOL     OW 9754   0.968   4.706   2.793
 2952SOL    HW1 9755   0.886   4.754   2.825
 2952SOL    HW2 9756   1.049   4.749   2.834
 2953SOL     OW 9757   4.837   2.356   2.327
 2953SOL    HW1 9758   4.871   2.282   2.269
 2953SOL    HW2 9759   4.746   2.384   2.297
 2954SOL     OW 9760   0.594   6.358   1.908
 2954SOL    HW1 9761   0.652   6.433   1.875
 2954SOL    HW2 9762   0.587   6.288   1.837
 2955SOL     OW 9763   0.554   3.381   0.443
 2955SOL    HW1 9764   0.523   3.475   0.453
 2955SOL    HW2 9765   0.643   3.380   0.396
 2956SOL     OW 9766   0.250   5.730   2.888
 2956SOL    HW1 9767   0.251   5.643   2.938
 2956SOL    HW2 9768   0.299   5.799   2.941
 2957SOL     OW 9769   0.630   3.991   0.986
 2957SOL    HW1 9770   0.677   4.079   0.993
 2957SOL    HW2 9771   0.581   3.973   1.071
 2958SOL     OW 9772   1.530   4.656   6.051
 2958SOL    HW1 9773   1.606   4.715   6.079
 2958SOL    HW2 9774   1.539   4.635   5.953
 2959SOL     OW 9775   5.476   4.612   6.086
 2959SOL    HW1 9776   5.564   4.570   6.062
 2959SOL    HW2 9777   5.402   4.564   6.038
 2960SOL     OW 9778   2.900   1.539   0.358
 2960SOL    HW1 9779   2.848   1.524   0.441
 2960SOL    HW2 9780   2.955   1.622   0.367
 2961SOL     OW 9781   5.743   3.793   4.903
 2961SOL    HW1 9782   5.662   3.735   4.892
 2961SOL    HW2 9783   5.722   3.868   4.965
 2962SOL     OW 9784   4.512   1.562   3.612
 2962SOL    HW1 9785   4.448   1.546   3.687
 2962SOL    HW2 9786   4.596   1.509   3.627
 2963SOL     OW 9787   2.070   1.745   6.124
 2963SOL    HW1 9788   2.162   1.742   6.084
 2963SOL    HW2 9789   2.003   1.748   6.050
 2964SOL     OW 9790   1.597   6.861   1.829
 2964SOL    HW1 9791   1.629   6.955   1.814
 2964SOL    HW2 9792   1.657   6.797   1.782
 2965SOL     OW 9793   0.552   0.768   4.957
 2965SOL    HW1 9794   0.637   0.809   4.924
 2965SOL    HW2 9795   0.474   0.815   4.915
 2966SOL     OW 9796   5.242   4.330   3.593
 2966SOL    HW1 9797   5.311   4.387   3.638
 2966SOL    HW2 9798   5.239   4.240   3.638
 2967SOL     OW 9799   5.969   2.428   3.344
 2967SOL    HW1 9800   5.978   2.522   3.311
 2967SOL    HW2 9801   5.923   2.428   3.433
 2968SOL     OW 9802   1.121   4.102   5.157
 2968SOL    HW1 9803   1.176   4.042   5.215
 2968SOL    HW2 9804   1.181   4.167   5.111
 2969SOL     OW 9805   5.553   1.977   4.748
 2969SOL    HW1 9806   5.487   1.949   4.818
 2969SOL    HW2 9807   5.644   1.985   4.789
 2970SOL     OW 9808   1.199   4.646   6.610
 2970SOL    HW1 9809   1.163   4.588   6.683
 2970SOL    HW2 9810   1.240   4.589   6.539
 2971SOL     OW 9811   5.868   3.101   3.999
 2971SOL    HW1 9812   5.955   3.060   3.971
 2971SOL    HW2 9813   5.794   3.064   3.942
 2972SOL     OW 9814   6.366   3.613   6.631
 2972SOL    HW1 9815   6.317   3.653   6.553
 2972SOL    HW2 9816   6.422   3.537   6.600
 2973SOL     OW 9817   5.373   0.844   4.076
 2973SOL    HW1 9818   5.339   0.927   4.119
 2973SOL    HW2 9819   5.425   0.791   4.143
 2974SOL     OW 9820   5.694   4.528   3.074
 2974SOL    HW1 9821   5.793   4.533   3.089
 2974SOL    HW2 9822   5.648   4.510   3.161
 2975SOL     OW 9823   0.830   1.757   5.309
 2975SOL    HW1 9824   0.896   1.815   5.261
 2975SOL    HW2 9825   0.759   1.728   5.245
 2976SOL     OW 9826   3.854   1.176   2.538
 2976SOL    HW1 9827   3.801   1.260   2.534
 2976SOL    HW2 9828   3.823   1.120   2.615
 2977SOL     OW 9829   2.909   0.011   4.342
 2977SOL    HW1 9830   3.004   7.019   4.370
 2977SOL    HW2 9831   2.858   0.047   4.420
 2978SOL     OW 9832   4.770   5.220   0.290
 2978SOL    HW1 9833   4.803   5.140   0.340
 2978SOL    HW2 9834   4.845   5.259   0.236
 2979SOL     OW 9835   3.014   0.081   3.552
 2979SOL    HW1 9836   3.004   0.098   3.454
 2979SOL    HW2 9837   3.042   0.165   3.598
 2980SOL     OW 9838   0.425   6.588   4.292
 2980SOL    HW1 9839   0.382   6.563   4.379
 2980SOL    HW2 9840   0.490   6.517   4.265
 2981SOL     OW 9841   1.524   1.002   5.624
 2981SOL    HW1 9842   1.495   0.924   5.679
 2981SOL    HW2 9843   1.621   0.994   5.604
 2982SOL     OW 9844   4.421   6.029   2.630
 2982SOL    HW1 9845   4.509   6.059   2.595
 2982SOL    HW2 9846   4.414   5.930   2.625
 2983SOL     OW 9847   0.393   0.704   4.301
 2983SOL    HW1 9848   0.451   0.623   4.291
 2983SOL    HW2 9849   0.372   0.717   4.398
 2984SOL     OW 9850   6.283   5.431   1.356
 2984SOL    HW1 9851   6.322   5.340   1.344
 2984SOL    HW2 9852   6.350   5.500   1.329
 2985SOL     OW 9853   0.437   1.997   4.533
 2985SOL    HW1 9854   0.366   1.993   4.463
 2985SOL    HW2 9855   0.410   2.062   4.604
 2986SOL     OW 9856   2.030   3.892   5.517
 2986SOL    HW1 9857   2.096   3.935   5.455
 2986SOL    HW2 9858   1.951   3.952   5.529
 2987SOL     OW 9859   4.750   1.278   4.462
 2987SOL    HW1 9860   4.696   1.202   4.424
 2987SOL    HW2 9861   4.696   1.362   4.457
 2988SOL     OW 9862   1.061   0.182   1.856
 2988SOL    HW1 9863   1.031   0.095   1.817
 2988SOL    HW2 9864   1.034   0.257   1.795
 2989SOL     OW 9865   6.684   4.735   1.350
 2989SOL    HW1 9866   6.593   4.707   1.380
 2989SOL    HW2 9867   6.683   4.754   1.252
 2990SOL     OW 9868   3.490   0.742   2.574
 2990SOL    HW1 9869   3.546   0.677   2.626
 2990SOL    HW2 9870   3.430   0.692   2.512
 2991SOL     OW 9871   0.125   3.925   0.437
 2991SOL    HW1 9872   0.027   3.925   0.419
 2991SOL    HW2 9873   0.171   3.862   0.374
 2992SOL     OW 9874   3.353   5.423   6.276
 2992SOL    HW1 9875   3.365   5.324   6.270
 2992SOL    HW2 9876   3.389   5.465   6.193
 2993SOL     OW 9877   2.244   4.360   1.922
 2993SOL    HW1 9878   2.183   4.281   1.915
 2993SOL    HW2 9879   2.192   4.443   1.906
 2994SOL     OW 9880   5.020   0.447   6.964
 2994SOL    HW1 9881   5.090   0.507   6.925
 2994SOL    HW2 9882   4.971   0.496   0.011
 2995SOL     OW 9883   1.215   1.893   0.269
 2995SOL    HW1 9884   1.241   1.961   0.201
 2995SOL    HW2 9885   1.116   1.877   0.265
 2996SOL     OW 9886   2.643   5.401   5.591
 2996SOL    HW1 9887   2.649   5.492   5.551
 2996SOL    HW2 9888   2.574   5.347   5.543
 2997SOL     OW 9889   5.200   5.982   1.668
 2997SOL    HW1 9890   5.269   5.986   1.596
 2997SOL    HW2 9891   5.191   6.072   1.711
 2998SOL     OW 9892   5.218   6.023   3.941
 2998SOL    HW1 9893   5.317   6.039   3.948
 2998SOL    HW2 9894   5.190   5.956   4.010
 2999SOL     OW 9895   3.306   6.122   3.805
 2999SOL    HW1 9896   3.258   6.054   3.862
 2999SOL    HW2 9897   3.244   6.155   3.734
 3000SOL     OW 9898   1.684   3.841   5.340
 3000SOL    HW1 9899   1.613   3.772   5.355
 3000SOL    HW2 9900   1.744   3.812   5.265
 3001SOL     OW 9901   4.858   0.620   5.848
 3001SOL    HW1 9902   4.811   0.597   5.762
 3001SOL    HW2 9903   4.822   0.707   5.882
 3002SOL     OW 9904   4.555   0.365   5.183
 3002SOL    HW1 9905   4.465   0.365   5.226
 3002SOL    HW2 9906   4.548   0.401   5.090
 3003SOL     OW 9907   2.523   6.476   5.753
 3003SOL    HW1 9908   2.423   6.484   5.763
 3003SOL    HW2 9909   2.545   6.395   5.698
 3004SOL     OW 9910   6.042   3.879   3.596
 3004SOL    HW1 9911   5.997   3.860   3.683
 3004SOL    HW2 9912   6.001   3.822   3.524
 3005SOL     OW 9913   3.536   2.959   1.612
 3005SOL    HW1 9914   3.560   2.898   1.688
 3005SOL    HW2 9915   3.609   2.956   1.543
 3006SOL     OW 9916   5.619   1.266   1.009
 3006SOL    HW1 9917   5.663   1.306   0.929
 3006SOL    HW2 9918   5.688   1.234   1.073
 3007SOL     OW 9919   5.673   5.070   2.469
 3007SOL    HW1 9920   5.747   5.002   2.471
 3007SOL    HW2 9921   5.591   5.028   2.430
 3008SOL     OW 9922   3.371   6.997   5.931
 3008SOL    HW1 9923   3.316   0.021   5.863
 3008SOL    HW2 9924   3.322   6.915   5.961
 3009SOL     OW 9925   0.820   0.489   2.544
 3009SOL    HW1 9926   0.731   0.465   2.582
 3009SOL    HW2 9927   0.860   0.563   2.598
 3010SOL     OW 9928   4.329   5.887   3.219
 3010SOL    HW1 9929   4.246   5.863   3.270
 3010SOL    HW2 9930   4.312   5.969   3.164
 3011SOL     OW 9931   6.012   1.010   6.644
 3011SOL    HW1 9932   5.940   1.069   6.680
 3011SOL    HW2 9933   6.072   1.062   6.584
 3012SOL     OW 9934   6.965   3.595   4.089
 3012SOL    HW1 9935   6.875   3.634   4.106
 3012SOL    HW2 9936   6.964   3.547   4.001
 3013SOL     OW 9937   6.128   6.009   2.243
 3013SOL    HW1 9938   6.191   5.939   2.210
 3013SOL    HW2 9939   6.034   5.980   2.227
 3014SOL     OW 9940   5.534   1.677   3.940
 3014SOL    HW1 9941   5.479   1.756   3.914
 3014SOL    HW2 9942   5.604   1.705   4.006
 3015SOL     OW 9943   2.222   2.333   0.863
 3015SOL    HW1 9944   2.195   2.254   0.809
 3015SOL    HW2 9945   2.236   2.412   0.803
 3016SOL     OW 9946   3.542   5.810   4.144
 3016SOL    HW1 9947   3.546   5.746   4.067
 3016SOL    HW2 9948   3.447   5.825   4.170
 3017SOL     OW 9949   0.821   5.547   1.306
 3017SOL    HW1 9950   0.815   5.447   1.316
 3017SOL    HW2 9951   0.882   5.570   1.230
 3018SOL     OW 9952   4.202   0.330   6.684
 3018SOL    HW1 9953   4.268   0.401   6.662
 3018SOL    HW2 9954   4.141   0.315   6.606
 3019SOL     OW 9955   3.462   6.260   1.165
 3019SOL    HW1 9956   3.527   6.286   1.094
 3019SOL    HW2 9957   3.376   6.309   1.151
 3020SOL     OW 9958   3.154   3.456   1.937
 3020SOL    HW1 9959   3.067   3.492   1.904
 3020SOL    HW2 9960   3.182   3.378   1.880
 3021SOL     OW 9961   1.825   2.141   6.795
 3021SOL    HW1 9962   1.912   2.111   6.755
 3021SOL    HW2 9963   1.818   2.240   6.790
 3022SOL     OW 9964   3.618   6.078   2.919
 3022SOL    HW1 9965   3.697   6.020   2.936
 3022SOL    HW2 9966   3.638   6.172   2.948
 3023SOL     OW 9967   3.691   5.899   3.588
 3023SOL    HW1 9968   3.785   5.919   3.614
 3023SOL    HW2 9969   3.635   5.981   3.601
 3024SOL     OW 9970   3.208   0.827   6.718
 3024SOL    HW1 9971   3.218   0.783   6.807
 3024SOL    HW2 9972   3.111   0.838   6.697
 3025SOL     OW 9973   2.850   3.201   0.649
 3025SOL    HW1 9974   2.874   3.175   0.742
 3025SOL    HW2 9975   2.754   3.180   0.632
 3026SOL     OW 9976   1.295   3.482   0.974
 3026SOL    HW1 9977   1.217   3.468   1.036
 3026SOL    HW2 9978   1.330   3.575   0.985
 3027SOL     OW 9979   3.812   1.156   2.208
 3027SOL    HW1 9980   3.724   1.127   2.171
 3027SOL    HW2 9981   3.810   1.152   2.308
 3028SOL     OW 9982   1.541   4.905   0.105
 3028SOL    HW1 9983   1.556   4.810   0.132
 3028SOL    HW2 9984   1.567   4.917   0.009
 3029SOL     OW 9985   6.075   4.914   5.256
 3029SOL    HW1 9986   6.075   4.816   5.236
 3029SOL    HW2 9987   5.985   4.941   5.291
 3030SOL     OW 9988   0.788   0.782   5.643
 3030SOL    HW1 9989   0.720   0.824   5.583
 3030SOL    HW2 9990   0.746   0.759   5.731
 3031SOL     OW 9991   0.771   3.336   0.245
 3031SOL    HW1 9992   0.759   3.350   0.146
 3031SOL    HW2 9993   0.828   3.256   0.260
 3032SOL     OW 9994   4.966   0.337   6.519
 3032SOL    HW1 9995   5.048   0.312   6.572
 3032SOL    HW2 9996   4.942   0.262   6.458
 3033SOL     OW 9997   0.798   3.653   0.005
 3033SOL    HW1 9998   0.793   3.573   6.970
 3033SOL    HW2 9999   0.751   3.730   6.986
 3034SOL     OW10000   2.491   6.282   3.816
 3034SOL    HW110001   2.449   6.361   3.862
 3034SOL    HW210002   2.560   6.242   3.877
 3035SOL     OW10003   6.761   1.501   0.400
 3035SOL    HW110004   6.766   1.585   0.345
 3035SOL    HW210005   6.665   1.472   0.406
 3036SOL     OW10006   1.518   3.729   0.000
 3036SOL    HW110007   1.580   3.652   7.013
 3036SOL    HW210008   1.425   3.696   0.015
 3037SOL     OW10009   6.321   5.794   4.540
 3037SOL    HW110010   6.243   5.732   4.546
 3037SOL    HW210011   6.320   5.839   4.450
 3038SOL     OW10012   5.616   0.185   6.346
 3038SOL    HW110013   5.588   0.143   6.260
 3038SOL    HW210014   5.535   0.205   6.401
 3039SOL     OW10015   6.741   4.891   2.463
 3039SOL    HW110016   6.687   4.840   2.395
 3039SOL    HW210017   6.821   4.837   2.489
 3040SOL     OW10018   3.585   3.830   6.266
 3040SOL    HW110019   3.508   3.792   6.213
 3040SOL    HW210020   3.556   3.844   6.360
 3041SOL     OW10021   1.903   2.692   5.716
 3041SOL    HW110022   1.826   2.753   5.735
 3041SOL    HW210023   1.871   2.616   5.659
 3042SOL     OW10024   5.152   0.359   2.048
 3042SOL    HW110025   5.068   0.364   1.994
 3042SOL    HW210026   5.192   0.450   2.056
 3043SOL     OW10027   0.701   5.330   0.496
 3043SOL    HW110028   0.607   5.317   0.529
 3043SOL    HW210029   0.701   5.392   0.418
 3044SOL     OW10030   3.350   4.456   5.610
 3044SOL    HW110031   3.385   4.380   5.665
 3044SOL    HW210032   3.412   4.471   5.532
 3045SOL     OW10033   5.128   1.113   2.648
 3045SOL    HW110034   5.201   1.161   2.599
 3045SOL    HW210035   5.071   1.180   2.696
 3046SOL     OW10036   1.494   3.616   5.391
 3046SOL    HW110037   1.447   3.539   5.433
 3046SOL    HW210038   1.443   3.647   5.310
 3047SOL     OW10039   5.849   4.842   1.718
 3047SOL    HW110040   5.828   4.763   1.776
 3047SOL    HW210041   5.828   4.926   1.767
 3048SOL     OW10042   3.976   3.527   1.582
 3048SOL    HW110043   4.010   3.462   1.513
 3048SOL    HW210044   4.049   3.548   1.647
 3049SOL     OW10045   0.882   0.116   1.633
 3049SOL    HW110046   0.932   0.148   1.553
 3049SOL    HW210047   0.839   0.194   1.679
 3050SOL     OW10048   3.089   6.294   4.180
 3050SOL    HW110049   3.003   6.287   4.230
 3050SOL    HW210050   3.155   6.347   4.234
 3051SOL     OW10051   2.755   5.064   6.786
 3051SOL    HW110052   2.676   5.096   6.734
 3051SOL    HW210053   2.827   5.033   6.723
 3052SOL     OW10054   3.649   0.857   2.852
 3052SOL    HW110055   3.650   0.759   2.830
 3052SOL    HW210056   3.631   0.909   2.769
 3053SOL     OW10057   6.063   0.810   0.262
 3053SOL    HW110058   5.978   0.862   0.265
 3053SOL    HW210059   6.048   0.719   0.300
 3054SOL     OW10060   0.117   3.343   0.149
 3054SOL    HW110061   0.169   3.327   0.233
 3054SOL    HW210062   0.028   3.299   0.156
 3055SOL     OW10063   5.546   6.976   3.575
 3055SOL    HW110064   5.575   0.039   3.615
 3055SOL    HW210065   5.514   6.915   3.647
 3056SOL     OW10066   6.642   0.061   0.048
 3056SOL    HW110067   6.648   6.986   0.051
 3056SOL    HW210068   6.567   0.091   0.108
 3057SOL     OW10069   5.247   4.992   2.406
 3057SOL    HW110070   5.267   4.940   2.489
 3057SOL    HW210071   5.332   5.018   2.361
 3058SOL     OW10072   6.380   5.877   1.203
 3058SOL    HW110073   6.413   5.825   1.124
 3058SOL    HW210074   6.455   5.893   1.267
 3059SOL     OW10075   0.910   2.843   5.086
 3059SOL    HW110076   0.840   2.841   5.015
 3059SOL    HW210077   0.991   2.890   5.051
 3060SOL     OW10078   0.494   0.112   0.595
 3060SOL    HW110079   0.579   0.163   0.610
 3060SOL    HW210080   0.420   0.154   0.647
 3061SOL     OW10081   7.007   0.990   4.750
 3061SOL    HW110082   7.025   1.026   4.658
 3061SOL    HW210083   0.002   1.060   4.818
 3062SOL     OW10084   2.574   6.500   1.948
 3062SOL    HW110085   2.650   6.468   2.004
 3062SOL    HW210086   2.607   6.520   1.855
 3063SOL     OW10087   2.116   4.603   2.084
 3063SOL    HW110088   2.123   4.631   2.180
 3063SOL    HW210089   2.207   4.591   2.046
 3064SOL     OW10090   6.247   3.707   3.851
 3064SOL    HW110091   6.179   3.640   3.822
 3064SOL    HW210092   6.201   3.784   3.896
 3065SOL     OW10093   1.832   0.705   6.487
 3065SOL    HW110094   1.800   0.663   6.572
 3065SOL    HW210095   1.809   0.647   6.410
 3066SOL     OW10096   6.065   4.186   0.768
 3066SOL    HW110097   6.050   4.157   0.674
 3066SOL    HW210098   6.087   4.105   0.824
 3067SOL     OW10099   3.785   1.033   4.593
 3067SOL    HW110100   3.687   1.054   4.603
 3067SOL    HW210101   3.800   0.935   4.607
 3068SOL     OW10102   5.830   6.122   0.806
 3068SOL    HW110103   5.759   6.190   0.827
 3068SOL    HW210104   5.848   6.067   0.888
 3069SOL     OW10105   0.595   5.244   1.891
 3069SOL    HW110106   0.537   5.293   1.826
 3069SOL    HW210107   0.657   5.309   1.935
 3070SOL     OW10108   2.235   1.431   2.924
 3070SOL    HW110109   2.144   1.474   2.925
 3070SOL    HW210110   2.253   1.394   2.833
 3071SOL     OW10111   5.874   0.215   3.529
 3071SOL    HW110112   5.932   0.260   3.461
 3071SOL    HW210113   5.931   0.171   3.598
 3072SOL     OW10114   0.784   6.549   1.911
 3072SOL    HW110115   0.806   6.569   1.815
 3072SOL    HW210116   0.788   6.634   1.964
 3073SOL     OW10117   0.841   3.286   5.074
 3073SOL    HW110118   0.929   3.307   5.118
 3073SOL    HW210119   0.851   3.204   5.019
 3074SOL     OW10120   4.809   3.175   0.699
 3074SOL    HW110121   4.731   3.120   0.729
 3074SOL    HW210122   4.866   3.121   0.638
 3075SOL     OW10123   1.616   6.584   1.565
 3075SOL    HW110124   1.540   6.619   1.511
 3075SOL    HW210125   1.678   6.658   1.589
 3076SOL     OW10126   6.563   0.615   4.892
 3076SOL    HW110127   6.594   0.572   4.977
 3076SOL    HW210128   6.529   0.707   4.912
 3077SOL     OW10129   5.818   4.730   3.937
 3077SOL    HW110130   5.723   4.697   3.945
 3077SOL    HW210131   5.878   4.653   3.915
 3078SOL     OW10132   2.069   3.705   2.123
 3078SOL    HW110133   2.020   3.696   2.209
 3078SOL    HW210134   2.115   3.619   2.101
 3079SOL     OW10135   1.030   2.852   4.769
 3079SOL    HW110136   1.038   2.766   4.820
 3079SOL    HW210137   1.018   2.832   4.672
 3080SOL     OW10138   6.419   5.202   1.329
 3080SOL    HW110139   6.421   5.145   1.248
 3080SOL    HW210140   6.512   5.226   1.357
 3081SOL     OW10141   0.469   4.493   6.092
 3081SOL    HW110142   0.374   4.520   6.108
 3081SOL    HW210143   0.500   4.529   6.005
 3082SOL     OW10144   3.573   0.075   2.934
 3082SOL    HW110145   3.656   0.086   2.988
 3082SOL    HW210146   3.587   0.004   2.865
 3083SOL     OW10147   3.495   0.459   2.174
 3083SOL    HW110148   3.555   0.440   2.251
 3083SOL    HW210149   3.547   0.453   2.088
 3084SOL     OW10150   4.523   4.824   3.951
 3084SOL    HW110151   4.515   4.734   3.908
 3084SOL    HW210152   4.546   4.813   4.048
 3085SOL     OW10153   6.859   5.150   3.159
 3085SOL    HW110154   6.881   5.054   3.142
 3085SOL    HW210155   6.908   5.181   3.241
 3086SOL     OW10156   4.506   0.844   2.153
 3086SOL    HW110157   4.531   0.884   2.241
 3086SOL    HW210158   4.409   0.819   2.154
 3087SOL     OW10159   6.190   4.116   3.207
 3087SOL    HW110160   6.174   4.028   3.164
 3087SOL    HW210161   6.170   4.110   3.305
 3088SOL     OW10162   2.507   5.185   5.472
 3088SOL    HW110163   2.598   5.145   5.467
 3088SOL    HW210164   2.444   5.120   5.516
 3089SOL     OW10165   1.288   2.526   7.009
 3089SOL    HW110166   1.345   2.483   0.054
 3089SOL    HW210167   1.284   2.467   6.928
 3090SOL     OW10168   1.769   1.897   1.494
 3090SOL    HW110169   1.809   1.966   1.554
 3090SOL    HW210170   1.670   1.903   1.498
 3091SOL     OW10171   3.369   0.228   0.341
 3091SOL    HW110172   3.314   0.154   0.302
 3091SOL    HW210173   3.317   0.273   0.414
 3092SOL     OW10174   5.470   6.786   0.151
 3092SOL    HW110175   5.565   6.816   0.165
 3092SOL    HW210176   5.438   6.819   0.062
 3093SOL     OW10177   5.918   5.476   5.831
 3093SOL    HW110178   5.930   5.574   5.849
 3093SOL    HW210179   5.820   5.457   5.821
 3094SOL     OW10180   2.915   5.603   5.175
 3094SOL    HW110181   2.999   5.639   5.218
 3094SOL    HW210182   2.924   5.504   5.163
 3095SOL     OW10183   2.469   4.424   4.410
 3095SOL    HW110184   2.522   4.464   4.335
 3095SOL    HW210185   2.423   4.341   4.379
 3096SOL     OW10186   6.278   0.074   4.586
 3096SOL    HW110187   6.307   0.059   4.681
 3096SOL    HW210188   6.343   0.135   4.541
 3097SOL     OW10189   0.663   2.768   0.662
 3097SOL    HW110190   0.691   2.796   0.753
 3097SOL    HW210191   0.669   2.668   0.654
 3098SOL     OW10192   2.536   3.946   0.774
 3098SOL    HW110193   2.598   3.901   0.710
 3098SOL    HW210194   2.588   3.987   0.848
 3099SOL     OW10195   6.936   5.920   4.794
 3099SOL    HW110196   6.905   5.890   4.703
 3099SOL    HW210197   0.009   5.902   4.804
 3100SOL     OW10198   6.765   6.702   5.043
 3100SOL    HW110199   6.832   6.673   5.112
 3100SOL    HW210200   6.813   6.735   4.962
 3101SOL     OW10201   4.456   5.920   5.585
 3101SOL    HW110202   4.434   6.006   5.630
 3101SOL    HW210203   4.393   5.904   5.510
 3102SOL     OW10204   1.375   4.574   1.206
 3102SOL    HW110205   1.301   4.589   1.140
 3102SOL    HW210206   1.407   4.479   1.199
 3103SOL     OW10207   3.161   2.338   0.829
 3103SOL    HW110208   3.179   2.311   0.735
 3103SOL    HW210209   3.072   2.303   0.858
 3104SOL     OW10210   5.443   6.437   4.083
 3104SOL    HW110211   5.495   6.465   4.164
 3104SOL    HW210212   5.351   6.409   4.111
 3105SOL     OW10213   5.527   6.004   3.290
 3105SOL    HW110214   5.550   6.092   3.250
 3105SOL    HW210215   5.436   6.008   3.330
 3106SOL     OW10216   6.691   2.646   2.621
 3106SOL    HW110217   6.666   2.558   2.663
 3106SOL    HW210218   6.784   2.640   2.585
 3107SOL     OW10219   3.125   0.629   3.820
 3107SOL    HW110220   3.220   0.612   3.796
 3107SOL    HW210221   3.087   0.699   3.758
 3108SOL     OW10222   2.251   0.579   4.555
 3108SOL    HW110223   2.219   0.485   4.557
 3108SOL    HW210224   2.280   0.607   4.647
 3109SOL     OW10225   5.108   6.220   2.579
 3109SOL    HW110226   5.154   6.281   2.644
 3109SOL    HW210227   5.173   6.187   2.512
 3110SOL     OW10228   0.218   3.134   3.332
 3110SOL    HW110229   0.124   3.115   3.361
 3110SOL    HW210230   0.220   3.147   3.233
 3111SOL     OW10231   5.963   5.430   3.966
 3111SOL    HW110232   5.958   5.528   3.984
 3111SOL    HW210233   5.990   5.416   3.871
 3112SOL     OW10234   4.311   2.890   6.042
 3112SOL    HW110235   4.257   2.969   6.014
 3112SOL    HW210236   4.408   2.910   6.030
 3113SOL     OW10237   2.563   6.561   4.012
 3113SOL    HW110238   2.523   6.522   4.095
 3113SOL    HW210239   2.662   6.545   4.011
 3114SOL     OW10240   5.334   4.129   6.611
 3114SOL    HW110241   5.291   4.126   6.701
 3114SOL    HW210242   5.273   4.086   6.544
 3115SOL     OW10243   3.584   3.931   0.746
 3115SOL    HW110244   3.587   3.835   0.717
 3115SOL    HW210245   3.492   3.966   0.735
 3116SOL     OW10246   6.441   2.628   6.047
 3116SOL    HW110247   6.510   2.556   6.056
 3116SOL    HW210248   6.486   2.715   6.026
 3117SOL     OW10249   4.265   3.460   5.472
 3117SOL    HW110250   4.336   3.449   5.403
 3117SOL    HW210251   4.274   3.388   5.541
 3118SOL     OW10252   6.199   4.766   6.861
 3118SOL    HW110253   6.286   4.795   6.822
 3118SOL    HW210254   6.150   4.845   6.896
 3119SOL     OW10255   1.889   4.431   5.352
 3119SOL    HW110256   1.891   4.517   5.300
 3119SOL    HW210257   1.814   4.435   5.419
 3120SOL     OW10258   1.885   5.639   4.615
 3120SOL    HW110259   1.845   5.551   4.639
 3120SOL    HW210260   1.847   5.710   4.675
 3121SOL     OW10261   0.387   1.776   2.273
 3121SOL    HW110262   0.341   1.854   2.231
 3121SOL    HW210263   0.405   1.707   2.203
 3122SOL     OW10264   3.160   5.508   6.446
 3122SOL    HW110265   3.243   5.477   6.399
 3122SOL    HW210266   3.163   5.478   6.542
 3123SOL     OW10267   3.458   6.560   3.837
 3123SOL    HW110268   3.413   6.649   3.823
 3123SOL    HW210269   3.393   6.497   3.880
 3124SOL     OW10270   4.882   0.743   5.103
 3124SOL    HW110271   4.966   0.755   5.050
 3124SOL    HW210272   4.897   0.673   5.173
 3125SOL     OW10273   6.378   1.784   5.340
 3125SOL    HW110274   6.300   1.722   5.351
 3125SOL    HW210275   6.423   1.797   5.429
 3126SOL     OW10276   5.130   4.628   6.214
 3126SOL    HW110277   5.159   4.717   6.179
 3126SOL    HW210278   5.037   4.608   6.184
 3127SOL     OW10279   1.551   1.215   3.697
 3127SOL    HW110280   1.630   1.169   3.657
 3127SOL    HW210281   1.581   1.271   3.774
 3128SOL     OW10282   1.958   0.948   0.395
 3128SOL    HW110283   1.922   0.924   0.485
 3128SOL    HW210284   2.033   0.886   0.371
 3129SOL     OW10285   0.236   4.294   5.175
 3129SOL    HW110286   0.152   4.241   5.187
 3129SOL    HW210287   0.268   4.327   5.264
 3130SOL     OW10288   2.417   4.430   2.700
 3130SOL    HW110289   2.493   4.494   2.687
 3130SOL    HW210290   2.423   4.357   2.632
 3131SOL     OW10291   0.869   3.375   2.790
 3131SOL    HW110292   0.901   3.353   2.698
 3131SOL    HW210293   0.886   3.298   2.851
 3132SOL     OW10294   5.129   5.875   5.598
 3132SOL    HW110295   5.106   5.802   5.534
 3132SOL    HW210296   5.164   5.954   5.547
 3133SOL     OW10297   2.168   1.860   3.905
 3133SOL    HW110298   2.228   1.924   3.954
 3133SOL    HW210299   2.223   1.783   3.872
 3134SOL     OW10300   4.678   3.298   1.393
 3134SOL    HW110301   4.693   3.247   1.478
 3134SOL    HW210302   4.593   3.268   1.350
 3135SOL     OW10303   4.127   1.959   4.088
 3135SOL    HW110304   4.090   2.048   4.113
 3135SOL    HW210305   4.058   1.907   4.038
 3136SOL     OW10306   5.605   5.845   5.986
 3136SOL    HW110307   5.627   5.755   5.950
 3136SOL    HW210308   5.668   5.867   6.060
 3137SOL     OW10309   5.081   1.952   4.072
 3137SOL    HW110310   5.101   1.973   3.976
 3137SOL    HW210311   5.081   1.853   4.085
 3138SOL     OW10312   6.037   1.724   4.569
 3138SOL    HW110313   6.122   1.685   4.532
 3138SOL    HW210314   5.975   1.649   4.592
 3139SOL     OW10315   4.878   6.178   5.542
 3139SOL    HW110316   4.820   6.247   5.584
 3139SOL    HW210317   4.954   6.156   5.602
 3140SOL     OW10318   6.770   6.441   6.624
 3140SOL    HW110319   6.823   6.440   6.540
 3140SOL    HW210320   6.700   6.512   6.619
 3141SOL     OW10321   0.558   6.462   0.066
 3141SOL    HW110322   0.650   6.486   0.035
 3141SOL    HW210323   0.527   6.530   0.132
 3142SOL     OW10324   4.804   6.146   6.881
 3142SOL    HW110325   4.780   6.078   6.950
 3142SOL    HW210326   4.901   6.136   6.857
 3143SOL     OW10327   0.093   2.020   6.476
 3143SOL    HW110328   0.137   2.014   6.566
 3143SOL    HW210329   0.123   2.102   6.429
 3144SOL     OW10330   1.898   4.004   0.179
 3144SOL    HW110331   1.953   3.958   0.249
 3144SOL    HW210332   1.803   3.975   0.188
 3145SOL     OW10333   2.875   5.835   3.028
 3145SOL    HW110334   2.870   5.737   3.047
 3145SOL    HW210335   2.940   5.852   2.955
 3146SOL     OW10336   1.224   6.916   3.241
 3146SOL    HW110337   1.131   6.885   3.219
 3146SOL    HW210338   1.220   6.989   3.309
 3147SOL     OW10339   4.613   4.465   1.071
 3147SOL    HW110340   4.630   4.498   1.164
 3147SOL    HW210341   4.573   4.539   1.016
 3148SOL     OW10342   3.950   5.517   3.791
 3148SOL    HW110343   3.974   5.546   3.884
 3148SOL    HW210344   3.879   5.447   3.796
 3149SOL     OW10345   3.158   0.452   5.394
 3149SOL    HW110346   3.097   0.383   5.356
 3149SOL    HW210347   3.143   0.460   5.492
 3150SOL     OW10348   5.163   0.222   4.974
 3150SOL    HW110349   5.223   0.211   5.053
 3150SOL    HW210350   5.218   0.234   4.891
 3151SOL     OW10351   4.794   1.426   6.189
 3151SOL    HW110352   4.870   1.483   6.220
 3151SOL    HW210353   4.820   1.330   6.199
 3152SOL     OW10354   0.534   5.028   1.640
 3152SOL    HW110355   0.448   4.993   1.677
 3152SOL    HW210356   0.525   5.125   1.619
 3153SOL     OW10357   6.293   3.665   2.076
 3153SOL    HW110358   6.201   3.669   2.037
 3153SOL    HW210359   6.336   3.755   2.068
 3154SOL     OW10360   6.254   2.483   6.176
 3154SOL    HW110361   6.316   2.538   6.119
 3154SOL    HW210362   6.226   2.402   6.125
 3155SOL     OW10363   6.425   5.043   1.111
 3155SOL    HW110364   6.495   4.990   1.063
 3155SOL    HW210365   6.352   5.069   1.047
 3156SOL     OW10366   3.708   3.914   3.485
 3156SOL    HW110367   3.672   4.007   3.477
 3156SOL    HW210368   3.774   3.910   3.560
 3157SOL     OW10369   2.130   3.657   4.733
 3157SOL    HW110370   2.221   3.616   4.740
 3157SOL    HW210371   2.063   3.595   4.773
 3158SOL     OW10372   4.683   6.495   1.869
 3158SOL    HW110373   4.611   6.457   1.811
 3158SOL    HW210374   4.729   6.422   1.919
 3159SOL     OW10375   4.808   5.517   6.460
 3159SOL    HW110376   4.829   5.554   6.551
 3159SOL    HW210377   4.893   5.503   6.410
 3160SOL     OW10378   5.138   3.730   6.201
 3160SOL    HW110379   5.091   3.642   6.191
 3160SOL    HW210380   5.172   3.739   6.295
 3161SOL     OW10381   1.784   0.588   2.604
 3161SOL    HW110382   1.812   0.548   2.691
 3161SOL    HW210383   1.863   0.590   2.542
 3162SOL     OW10384   0.500   5.673   6.767
 3162SOL    HW110385   0.533   5.647   6.677
 3162SOL    HW210386   0.463   5.766   6.765
 3163SOL     OW10387   3.553   2.859   6.958
 3163SOL    HW110388   3.605   2.789   6.909
 3163SOL    HW210389   3.550   2.836   0.031
 3164SOL     OW10390   5.279   4.012   0.730
 3164SOL    HW110391   5.221   4.033   0.651
 3164SOL    HW210392   5.367   3.977   0.699
 3165SOL     OW10393   0.715   0.220   1.992
 3165SOL    HW110394   0.640   0.233   2.056
 3165SOL    HW210395   0.801   0.248   2.035
 3166SOL     OW10396   4.409   3.170   5.912
 3166SOL    HW110397   4.508   3.155   5.907
 3166SOL    HW210398   4.378   3.165   6.007
 3167SOL     OW10399   0.416   4.537   1.371
 3167SOL    HW110400   0.428   4.612   1.436
 3167SOL    HW210401   0.362   4.568   1.293
 3168SOL     OW10402   5.582   2.593   0.686
 3168SOL    HW110403   5.632   2.645   0.756
 3168SOL    HW210404   5.521   2.655   0.636
 3169SOL     OW10405   1.041   2.434   5.546
 3169SOL    HW110406   1.098   2.500   5.497
 3169SOL    HW210407   0.998   2.373   5.480
 3170SOL     OW10408   4.173   0.864   6.210
 3170SOL    HW110409   4.158   0.803   6.288
 3170SOL    HW210410   4.120   0.947   6.221
 3171SOL     OW10411   6.554   6.929   1.812
 3171SOL    HW110412   6.586   6.836   1.832
 3171SOL    HW210413   6.455   6.935   1.828
 3172SOL     OW10414   6.094   6.882   5.021
 3172SOL    HW110415   6.001   6.854   5.044
 3172SOL    HW210416   6.097   6.915   4.927
 3173SOL     OW10417   2.350   0.230   1.869
 3173SOL    HW110418   2.262   0.270   1.843
 3173SOL    HW210419   2.334   0.152   1.929
 3174SOL     OW10420   2.910   2.688   6.076
 3174SOL    HW110421   2.890   2.749   6.153
 3174SOL    HW210422   2.992   2.720   6.029
 3175SOL     OW10423   0.956   6.394   0.554
 3175SOL    HW110424   0.903   6.424   0.633
 3175SOL    HW210425   0.894   6.361   0.482
 3176SOL     OW10426   1.392   4.145   6.801
 3176SOL    HW110427   1.298   4.157   6.834
 3176SOL    HW210428   1.433   4.065   6.844
 3177SOL     OW10429   5.439   5.506   5.631
 3177SOL    HW110430   5.390   5.569   5.692
 3177SOL    HW210431   5.502   5.451   5.684
 3178SOL     OW10432   0.266   4.477   2.189
 3178SOL    HW110433   0.317   4.405   2.235
 3178SOL    HW210434   0.291   4.566   2.227
 3179SOL     OW10435   1.644   1.779   2.084
 3179SOL    HW110436   1.611   1.684   2.090
 3179SOL    HW210437   1.689   1.792   1.996
 3180SOL     OW10438   5.715   0.221   5.517
 3180SOL    HW110439   5.651   0.145   5.529
 3180SOL    HW210440   5.664   0.304   5.498
 3181SOL     OW10441   0.889   0.878   3.945
 3181SOL    HW110442   0.811   0.824   3.914
 3181SOL    HW210443   0.967   0.862   3.885
 3182SOL     OW10444   0.801   5.905   5.600
 3182SOL    HW110445   0.842   5.901   5.691
 3182SOL    HW210446   0.855   5.966   5.542
 3183SOL     OW10447   4.728   4.836   1.759
 3183SOL    HW110448   4.672   4.785   1.694
 3183SOL    HW210449   4.819   4.850   1.720
 3184SOL     OW10450   2.536   2.020   2.676
 3184SOL    HW110451   2.588   2.001   2.760
 3184SOL    HW210452   2.448   1.972   2.680
 3185SOL     OW10453   0.016   0.130   5.372
 3185SOL    HW110454   0.018   0.126   5.472
 3185SOL    HW210455   0.099   0.089   5.335
 3186SOL     OW10456   3.530   1.088   2.994
 3186SOL    HW110457   3.571   0.997   2.982
 3186SOL    HW210458   3.532   1.137   2.907
 3187SOL     OW10459   3.540   4.705   0.283
 3187SOL    HW110460   3.446   4.708   0.315
 3187SOL    HW210461   3.573   4.610   0.286
 3188SOL     OW10462   3.922   5.719   3.621
 3188SOL    HW110463   3.981   5.664   3.680
 3188SOL    HW210464   3.857   5.658   3.574
 3189SOL     OW10465   1.474   0.335   3.412
 3189SOL    HW110466   1.476   0.295   3.504
 3189SOL    HW210467   1.401   0.403   3.407
 3190SOL     OW10468   1.608   5.946   1.963
 3190SOL    HW110469   1.530   5.987   1.917
 3190SOL    HW210470   1.667   6.018   2.000
 3191SOL     OW10471   3.935   0.312   0.612
 3191SOL    HW110472   3.839   0.281   0.614
 3191SOL    HW210473   3.955   0.353   0.523
 3192SOL     OW10474   0.372   2.735   2.247
 3192SOL    HW110475   0.459   2.760   2.205
 3192SOL    HW210476   0.336   2.812   2.299
 3193SOL     OW10477   4.266   2.335   5.939
 3193SOL    HW110478   4.336   2.316   6.009
 3193SOL    HW210479   4.219   2.420   5.962
 3194SOL     OW10480   1.349   3.332   5.986
 3194SOL    HW110481   1.296   3.408   6.024
 3194SOL    HW210482   1.343   3.253   6.048
 3195SOL     OW10483   1.000   2.973   3.691
 3195SOL    HW110484   0.949   2.999   3.774
 3195SOL    HW210485   1.070   2.906   3.715
 3196SOL     OW10486   0.015   0.023   4.903
 3196SOL    HW110487   0.015   0.076   4.988
 3196SOL    HW210488   0.061   0.076   4.831
 3197SOL     OW10489   1.303   4.525   4.013
 3197SOL    HW110490   1.220   4.575   4.037
 3197SOL    HW210491   1.285   4.464   3.937
 3198SOL     OW10492   0.483   2.192   6.236
 3198SOL    HW110493   0.546   2.155   6.167
 3198SOL    HW210494   0.526   2.269   6.282
 3199SOL     OW10495   4.684   1.737   2.201
 3199SOL    HW110496   4.751   1.663   2.187
 3199SOL    HW210497   4.603   1.719   2.146
 3200SOL     OW10498   6.373   2.399   0.231
 3200SOL    HW110499   6.393   2.302   0.216
 3200SOL    HW210500   6.381   2.448   0.145
 3201SOL     OW10501   5.110   3.984   3.953
 3201SOL    HW110502   5.051   3.968   3.874
 3201SOL    HW210503   5.062   4.039   4.021
 3202SOL     OW10504   1.766   4.315   2.103
 3202SOL    HW110505   1.675   4.340   2.138
 3202SOL    HW210506   1.831   4.310   2.179
 3203SOL     OW10507   6.709   0.724   1.129
 3203SOL    HW110508   6.749   0.779   1.055
 3203SOL    HW210509   6.641   0.661   1.090
 3204SOL     OW10510   6.740   5.731   1.825
 3204SOL    HW110511   6.669   5.705   1.760
 3204SOL    HW210512   6.824   5.680   1.806
 3205SOL     OW10513   0.692   4.007   5.014
 3205SOL    HW110514   0.629   3.931   4.997
 3205SOL    HW210515   0.729   4.039   4.927
 3206SOL     OW10516   1.233   6.780   5.978
 3206SOL    HW110517   1.203   6.685   5.982
 3206SOL    HW210518   1.246   6.815   6.071
 3207SOL     OW10519   0.741   0.988   4.821
 3207SOL    HW110520   0.832   0.990   4.779
 3207SOL    HW210521   0.678   0.941   4.759
 3208SOL     OW10522   4.882   5.746   5.033
 3208SOL    HW110523   4.907   5.762   5.128
 3208SOL    HW210524   4.832   5.826   4.998
 3209SOL     OW10525   2.390   0.537   4.051
 3209SOL    HW110526   2.475   0.571   4.091
 3209SOL    HW210527   2.346   0.474   4.116
 3210SOL     OW10528   6.344   4.455   2.728
 3210SOL    HW110529   6.375   4.482   2.637
 3210SOL    HW210530   6.374   4.522   2.795
 3211SOL     OW10531   2.009   4.488   1.812
 3211SOL    HW110532   1.989   4.574   1.764
 3211SOL    HW210533   1.924   4.439   1.828
 3212SOL     OW10534   5.282   2.314   6.712
 3212SOL    HW110535   5.262   2.305   6.810
 3212SOL    HW210536   5.380   2.324   6.699
 3213SOL     OW10537   5.852   5.774   2.452
 3213SOL    HW110538   5.803   5.812   2.531
 3213SOL    HW210539   5.867   5.847   2.385
 3214SOL     OW10540   3.849   5.552   6.645
 3214SOL    HW110541   3.779   5.518   6.582
 3214SOL    HW210542   3.805   5.588   6.728
 3215SOL     OW10543   5.879   2.314   6.254
 3215SOL    HW110544   5.966   2.322   6.303
 3215SOL    HW210545   5.810   2.371   6.299
 3216SOL     OW10546   5.495   6.825   2.967
 3216SOL    HW110547   5.560   6.854   3.037
 3216SOL    HW210548   5.531   6.744   2.920
 3217SOL     OW10549   6.749   4.272   2.382
 3217SOL    HW110550   6.830   4.291   2.326
 3217SOL    HW210551   6.680   4.225   2.327
 3218SOL     OW10552   3.821   0.885   3.685
 3218SOL    HW110553   3.758   0.959   3.660
 3218SOL    HW210554   3.807   0.808   3.623
 3219SOL     OW10555   0.435   0.715   3.253
 3219SOL    HW110556   0.398   0.647   3.190
 3219SOL    HW210557   0.500   0.773   3.204
 3220SOL     OW10558   0.168   4.520   5.059
 3220SOL    HW110559   0.078   4.531   5.101
 3220SOL    HW210560   0.210   4.435   5.092
 3221SOL     OW10561   2.931   6.878   3.692
 3221SOL    HW110562   2.964   6.965   3.656
 3221SOL    HW210563   3.008   6.814   3.698
 3222SOL     OW10564   5.985   2.601   2.955
 3222SOL    HW110565   5.945   2.640   2.872
 3222SOL    HW210566   5.912   2.587   3.023
 3223SOL     OW10567   2.190   5.009   6.135
 3223SOL    HW110568   2.229   4.948   6.066
 3223SOL    HW210569   2.159   4.956   6.214
 3224SOL     OW10570   4.394   4.797   0.776
 3224SOL    HW110571   4.305   4.755   0.794
 3224SOL    HW210572   4.380   4.892   0.746
 3225SOL     OW10573   2.274   3.572   0.578
 3225SOL    HW110574   2.358   3.568   0.524
 3225SOL    HW210575   2.274   3.656   0.633
 3226SOL     OW10576   1.336   0.664   3.676
 3226SOL    HW110577   1.338   0.609   3.759
 3226SOL    HW210578   1.428   0.672   3.639
 3227SOL     OW10579   3.298   1.013   5.620
 3227SOL    HW110580   3.282   1.098   5.670
 3227SOL    HW210581   3.340   1.034   5.531
 3228SOL     OW10582   5.705   3.923   4.677
 3228SOL    HW110583   5.734   3.876   4.761
 3228SOL    HW210584   5.611   3.898   4.655
 3229SOL     OW10585   4.302   1.430   5.218
 3229SOL    HW110586   4.332   1.419   5.313
 3229SOL    HW210587   4.205   1.455   5.217
 3230SOL     OW10588   1.062   0.439   3.737
 3230SOL    HW110589   1.062   0.494   3.654
 3230SOL    HW210590   0.982   0.461   3.792
 3231SOL     OW10591   5.988   6.243   0.569
 3231SOL    HW110592   5.907   6.186   0.554
 3231SOL    HW210593   5.998   6.308   0.494
 3232SOL     OW10594   2.833   4.758   4.599
 3232SOL    HW110595   2.863   4.679   4.653
 3232SOL    HW210596   2.734   4.753   4.585
 3233SOL     OW10597   0.332   4.078   1.699
 3233SOL    HW110598   0.328   4.014   1.621
 3233SOL    HW210599   0.404   4.048   1.762
 3234SOL     OW10600   0.319   1.845   6.317
 3234SOL    HW110601   0.379   1.896   6.378
 3234SOL    HW210602   0.227   1.842   6.356
 3235SOL     OW10603   5.300   6.996   2.895
 3235SOL    HW110604   5.361   6.920   2.873
 3235SOL    HW210605   5.277   0.021   2.812
 3236SOL     OW10606   0.635   3.095   2.279
 3236SOL    HW110607   0.706   3.146   2.229
 3236SOL    HW210608   0.548   3.103   2.230
 3237SOL     OW10609   3.031   0.141   4.689
 3237SOL    HW110610   3.087   0.179   4.616
 3237SOL    HW210611   2.935   0.141   4.661
 3238SOL     OW10612   0.231   5.955   6.139
 3238SOL    HW110613   0.178   6.039   6.134
 3238SOL    HW210614   0.274   5.937   6.051
 3239SOL     OW10615   6.267   0.077   5.089
 3239SOL    HW110616   6.216   0.156   5.123
 3239SOL    HW210617   6.203   0.003   5.067
 3240SOL     OW10618   1.611   0.411   4.880
 3240SOL    HW110619   1.542   0.461   4.827
 3240SOL    HW210620   1.613   0.446   4.973
 3241SOL     OW10621   4.593   0.806   3.600
 3241SOL    HW110622   4.650   0.764   3.529
 3241SOL    HW210623   4.645   0.877   3.646
 3242SOL     OW10624   3.955   6.503   0.101
 3242SOL    HW110625   3.866   6.507   0.146
 3242SOL    HW210626   4.019   6.451   0.157
 3243SOL     OW10627   4.189   5.067   0.894
 3243SOL    HW110628   4.095   5.102   0.892
 3243SOL    HW210629   4.230   5.078   0.803
 3244SOL     OW10630   3.082   6.282   6.778
 3244SOL    HW110631   3.080   6.186   6.806
 3244SOL    HW210632   3.170   6.302   6.735
 3245SOL     OW10633   3.439   2.214   6.837
 3245SOL    HW110634   3.492   2.169   6.908
 3245SOL    HW210635   3.492   2.214   6.751
 3246SOL     OW10636   5.653   6.068   2.917
 3246SOL    HW110637   5.730   6.075   2.854
 3246SOL    HW210638   5.668   6.130   2.994
 3247SOL     OW10639   0.763   2.608   4.018
 3247SOL    HW110640   0.770   2.585   3.921
 3247SOL    HW210641   0.752   2.524   4.071
 3248SOL     OW10642   6.410   3.376   1.598
 3248SOL    HW110643   6.508   3.394   1.606
 3248SOL    HW210644   6.361   3.429   1.667
 3249SOL     OW10645   2.324   4.794   5.353
 3249SOL    HW110646   2.274   4.808   5.439
 3249SOL    HW210647   2.418   4.829   5.363
 3250SOL     OW10648   5.009   6.739   2.200
 3250SOL    HW110649   4.933   6.723   2.137
 3250SOL    HW210650   5.015   6.836   2.222
 3251SOL     OW10651   3.753   1.730   3.000
 3251SOL    HW110652   3.751   1.788   2.918
 3251SOL    HW210653   3.835   1.751   3.053
 3252SOL     OW10654   2.848   1.305   2.350
 3252SOL    HW110655   2.851   1.208   2.326
 3252SOL    HW210656   2.880   1.360   2.273
 3253SOL     OW10657   5.449   2.927   0.830
 3253SOL    HW110658   5.515   2.930   0.904
 3253SOL    HW210659   5.388   2.849   0.843
 3254SOL     OW10660   4.920   4.111   3.100
 3254SOL    HW110661   4.983   4.138   3.173
 3254SOL    HW210662   4.948   4.154   3.014
 3255SOL     OW10663   4.647   5.618   0.214
 3255SOL    HW110664   4.578   5.558   0.173
 3255SOL    HW210665   4.702   5.660   0.142
 3256SOL     OW10666   5.426   6.514   5.266
 3256SOL    HW110667   5.468   6.430   5.231
 3256SOL    HW210668   5.497   6.578   5.293
 3257SOL     OW10669   1.863   2.784   1.109
 3257SOL    HW110670   1.778   2.745   1.074
 3257SOL    HW210671   1.876   2.754   1.204
 3258SOL     OW10672   5.459   6.544   2.068
 3258SOL    HW110673   5.464   6.625   2.126
 3258SOL    HW210674   5.364   6.511   2.065
 3259SOL     OW10675   4.207   0.074   4.024
 3259SOL    HW110676   4.277   0.040   4.087
 3259SOL    HW210677   4.236   0.162   3.987
 3260SOL     OW10678   1.993   2.261   0.011
 3260SOL    HW110679   1.895   2.283   0.013
 3260SOL    HW210680   2.005   2.163   0.024
 3261SOL     OW10681   4.453   0.023   1.084
 3261SOL    HW110682   4.406   6.992   1.016
 3261SOL    HW210683   4.386   0.078   1.134
 3262SOL     OW10684   3.870   1.808   3.428
 3262SOL    HW110685   3.906   1.816   3.521
 3262SOL    HW210686   3.840   1.898   3.396
 3263SOL     OW10687   3.976   6.708   1.220
 3263SOL    HW110688   4.075   6.711   1.236
 3263SOL    HW210689   3.930   6.763   1.290
 3264SOL     OW10690   5.531   4.892   0.044
 3264SOL    HW110691   5.457   4.957   0.059
 3264SOL    HW210692   5.497   4.799   0.062
 3265SOL     OW10693   5.071   0.874   6.169
 3265SOL    HW110694   5.086   0.962   6.216
 3265SOL    HW210695   4.979   0.841   6.190
 3266SOL     OW10696   1.151   1.127   6.192
 3266SOL    HW110697   1.205   1.125   6.277
 3266SOL    HW210698   1.082   1.199   6.199
 3267SOL     OW10699   2.906   2.151   0.834
 3267SOL    HW110700   2.950   2.086   0.772
 3267SOL    HW210701   2.873   2.103   0.915
 3268SOL     OW10702   1.126   4.374   6.211
 3268SOL    HW110703   1.151   4.431   6.133
 3268SOL    HW210704   1.063   4.424   6.270
 3269SOL     OW10705   4.111   4.048   1.291
 3269SOL    HW110706   4.073   4.064   1.200
 3269SOL    HW210707   4.194   4.103   1.303
 3270SOL     OW10708   0.603   6.325   4.402
 3270SOL    HW110709   0.686   6.325   4.346
 3270SOL    HW210710   0.609   6.398   4.470
 3271SOL     OW10711   5.900   1.838   1.261
 3271SOL    HW110712   5.919   1.935   1.271
 3271SOL    HW210713   5.867   1.819   1.169
 3272SOL     OW10714   4.625   0.136   0.521
 3272SOL    HW110715   4.659   0.220   0.561
 3272SOL    HW210716   4.598   0.072   0.593
 3273SOL     OW10717   0.184   6.451   2.276
 3273SOL    HW110718   0.155   6.543   2.300
 3273SOL    HW210719   0.104   6.395   2.253
 3274SOL     OW10720   3.072   2.087   5.812
 3274SOL    HW110721   3.063   2.161   5.745
 3274SOL    HW210722   2.981   2.061   5.844
 3275SOL     OW10723   2.559   0.660   6.616
 3275SOL    HW110724   2.640   0.643   6.560
 3275SOL    HW210725   2.528   0.754   6.602
 3276SOL     OW10726   3.372   6.651   0.362
 3276SOL    HW110727   3.448   6.587   0.374
 3276SOL    HW210728   3.366   6.710   0.443
 3277SOL     OW10729   0.416   6.292   4.784
 3277SOL    HW110730   0.407   6.216   4.720
 3277SOL    HW210731   0.480   6.267   4.857
 3278SOL     OW10732   0.929   0.625   5.944
 3278SOL    HW110733   0.855   0.650   6.007
 3278SOL    HW210734   0.982   0.550   5.982
 3279SOL     OW10735   1.164   6.826   0.862
 3279SOL    HW110736   1.078   6.863   0.896
 3279SOL    HW210737   1.151   6.730   0.835
 3280SOL     OW10738   2.173   4.714   6.189
 3280SOL    HW110739   2.177   4.654   6.269
 3280SOL    HW210740   2.115   4.672   6.119
 3281SOL     OW10741   2.102   5.846   0.844
 3281SOL    HW110742   2.145   5.805   0.764
 3281SOL    HW210743   2.148   5.813   0.927
 3282SOL     OW10744   2.566   5.567   3.365
 3282SOL    HW110745   2.643   5.511   3.398
 3282SOL    HW210746   2.494   5.507   3.330
 3283SOL     OW10747   2.121   0.832   3.550
 3283SOL    HW110748   2.148   0.927   3.565
 3283SOL    HW210749   2.187   0.787   3.489
 3284SOL     OW10750   0.124   4.711   6.814
 3284SOL    HW110751   0.196   4.646   6.836
 3284SOL    HW210752   0.037   4.679   6.852
 3285SOL     OW10753   1.056   1.463   4.043
 3285SOL    HW110754   0.990   1.430   4.110
 3285SOL    HW210755   1.148   1.462   4.082
 3286SOL     OW10756   3.469   3.473   4.828
 3286SOL    HW110757   3.549   3.520   4.865
 3286SOL    HW210758   3.390   3.536   4.830
 3287SOL     OW10759   1.354   5.355   1.084
 3287SOL    HW110760   1.333   5.311   0.997
 3287SOL    HW210761   1.321   5.450   1.083
 3288SOL     OW10762   6.913   6.081   6.526
 3288SOL    HW110763   6.974   6.146   6.481
 3288SOL    HW210764   6.889   6.008   6.462
 3289SOL     OW10765   1.403   6.205   4.731
 3289SOL    HW110766   1.448   6.235   4.815
 3289SOL    HW210767   1.443   6.118   4.702
 3290SOL     OW10768   6.554   5.010   1.681
 3290SOL    HW110769   6.650   4.991   1.659
 3290SOL    HW210770   6.530   4.967   1.768
 3291SOL     OW10771   1.760   6.513   0.453
 3291SOL    HW110772   1.771   6.595   0.396
 3291SOL    HW210773   1.797   6.434   0.405
 3292SOL     OW10774   0.470   6.180   5.759
 3292SOL    HW110775   0.447   6.274   5.786
 3292SOL    HW210776   0.561   6.157   5.793
 3293SOL     OW10777   0.195   1.112   2.652
 3293SOL    HW110778   0.259   1.115   2.729
 3293SOL    HW210779   0.177   1.205   2.621
 3294SOL     OW10780   0.133   0.699   6.949
 3294SOL    HW110781   0.226   0.692   6.987
 3294SOL    HW210782   0.069   0.721   7.022
 3295SOL     OW10783   1.776   2.776   6.935
 3295SOL    HW110784   1.695   2.782   6.993
 3295SOL    HW210785   1.776   2.852   6.870
 3296SOL     OW10786   1.668   6.909   2.731
 3296SOL    HW110787   1.602   6.872   2.797
 3296SOL    HW210788   1.757   6.920   2.775
 3297SOL     OW10789   3.044   2.575   6.350
 3297SOL    HW110790   3.139   2.545   6.345
 3297SOL    HW210791   3.041   2.675   6.355
 3298SOL     OW10792   6.300   3.283   3.034
 3298SOL    HW110793   6.390   3.311   3.001
 3298SOL    HW210794   6.310   3.229   3.118
 3299SOL     OW10795   1.961   6.808   5.367
 3299SOL    HW110796   1.938   6.816   5.464
 3299SOL    HW210797   2.053   6.771   5.357
 3300SOL     OW10798   6.434   6.706   4.624
 3300SOL    HW110799   6.481   6.731   4.709
 3300SOL    HW210800   6.453   6.775   4.554
 3301SOL     OW10801   0.741   3.805   3.160
 3301SOL    HW110802   0.720   3.724   3.105
 3301SOL    HW210803   0.836   3.800   3.191
 3302SOL     OW10804   1.205   4.371   3.767
 3302SOL    HW110805   1.170   4.303   3.833
 3302SOL    HW210806   1.128   4.409   3.715
 3303SOL     OW10807   4.047   3.800   3.128
 3303SOL    HW110808   4.074   3.782   3.222
 3303SOL    HW210809   3.988   3.881   3.125
 3304SOL     OW10810   6.969   6.545   4.426
 3304SOL    HW110811   6.968   6.565   4.524
 3304SOL    HW210812   6.978   6.630   4.375
 3305SOL     OW10813   1.812   0.900   2.122
 3305SOL    HW110814   1.864   0.882   2.205
 3305SOL    HW210815   1.846   0.983   2.078
 3306SOL     OW10816   1.330   4.208   3.448
 3306SOL    HW110817   1.375   4.276   3.506
 3306SOL    HW210818   1.355   4.224   3.353
 3307SOL     OW10819   0.072   5.847   6.552
 3307SOL    HW110820   0.105   5.789   6.626
 3307SOL    HW210821   0.017   5.922   6.590
 3308SOL     OW10822   4.604   6.232   0.650
 3308SOL    HW110823   4.568   6.223   0.557
 3308SOL    HW210824   4.548   6.297   0.701
 3309SOL     OW10825   0.122   5.065   3.372
 3309SOL    HW110826   0.073   5.004   3.310
 3309SOL    HW210827   0.076   5.153   3.375
 3310SOL     OW10828   0.816   5.531   1.823
 3310SOL    HW110829   0.794   5.499   1.915
 3310SOL    HW210830   0.861   5.620   1.829
 3311SOL     OW10831   4.425   6.410   0.766
 3311SOL    HW110832   4.506   6.449   0.811
 3311SOL    HW210833   4.377   6.482   0.716
 3312SOL     OW10834   3.517   3.864   6.946
 3312SOL    HW110835   3.426   3.905   6.938
 3312SOL    HW210836   3.546   3.864   0.016
 3313SOL     OW10837   6.650   5.808   3.746
 3313SOL    HW110838   6.672   5.842   3.654
 3313SOL    HW210839   6.692   5.868   3.814
 3314SOL     OW10840   1.468   3.412   5.077
 3314SOL    HW110841   1.436   3.506   5.091
 3314SOL    HW210842   1.546   3.394   5.137
 3315SOL     OW10843   0.510   1.878   3.512
 3315SOL    HW110844   0.537   1.805   3.575
 3315SOL    HW210845   0.411   1.889   3.515
 3316SOL     OW10846   4.830   1.816   6.912
 3316SOL    HW110847   4.781   1.746   6.860
 3316SOL    HW210848   4.773   1.898   6.919
 3317SOL     OW10849   4.089   2.649   0.830
 3317SOL    HW110850   4.112   2.662   0.733
 3317SOL    HW210851   4.014   2.710   0.855
 3318SOL     OW10852   2.154   5.389   5.656
 3318SOL    HW110853   2.184   5.312   5.712
 3318SOL    HW210854   2.233   5.441   5.625
 3319SOL     OW10855   0.695   5.600   5.097
 3319SOL    HW110856   0.720   5.507   5.071
 3319SOL    HW210857   0.596   5.612   5.085
 3320SOL     OW10858   6.984   0.723   6.070
 3320SOL    HW110859   0.035   0.658   6.076
 3320SOL    HW210860   7.009   0.798   6.009
 3321SOL     OW10861   3.701   3.735   3.194
 3321SOL    HW110862   3.727   3.773   3.283
 3321SOL    HW210863   3.743   3.789   3.121
 3322SOL     OW10864   4.197   1.634   0.533
 3322SOL    HW110865   4.243   1.695   0.598
 3322SOL    HW210866   4.116   1.679   0.496
 3323SOL     OW10867   2.302   5.180   0.195
 3323SOL    HW110868   2.318   5.081   0.203
 3323SOL    HW210869   2.303   5.206   0.098
 3324SOL     OW10870   0.679   2.302   0.874
 3324SOL    HW110871   0.707   2.259   0.789
 3324SOL    HW210872   0.756   2.303   0.938
 3325SOL     OW10873   1.229   3.033   0.716
 3325SOL    HW110874   1.270   3.103   0.774
 3325SOL    HW210875   1.169   2.976   0.772
 3326SOL     OW10876   5.964   1.591   1.386
 3326SOL    HW110877   5.928   1.683   1.373
 3326SOL    HW210878   6.042   1.594   1.448
 3327SOL     OW10879   3.168   6.339   2.551
 3327SOL    HW110880   3.083   6.319   2.502
 3327SOL    HW210881   3.199   6.431   2.527
 3328SOL     OW10882   4.711   1.191   2.345
 3328SOL    HW110883   4.741   1.286   2.361
 3328SOL    HW210884   4.776   1.146   2.284
 3329SOL     OW10885   5.134   0.219   5.402
 3329SOL    HW110886   5.096   0.296   5.453
 3329SOL    HW210887   5.079   0.137   5.420
 3330SOL     OW10888   6.567   5.481   3.017
 3330SOL    HW110889   6.496   5.525   3.072
 3330SOL    HW210890   6.605   5.404   3.067
 3331SOL     OW10891   2.066   3.406   2.861
 3331SOL    HW110892   2.092   3.322   2.908
 3331SOL    HW210893   2.096   3.401   2.765
 3332SOL     OW10894   4.044   5.390   1.103
 3332SOL    HW110895   4.077   5.484   1.112
 3332SOL    HW210896   4.112   5.328   1.143
 3333SOL     OW10897   3.486   3.273   1.720
 3333SOL    HW110898   3.471   3.241   1.627
 3333SOL    HW210899   3.467   3.372   1.724
 3334SOL     OW10900   1.784   2.819   2.197
 3334SOL    HW110901   1.717   2.749   2.171
 3334SOL    HW210902   1.793   2.820   2.297
 3335SOL     OW10903   3.935   4.686   5.250
 3335SOL    HW110904   3.977   4.745   5.181
 3335SOL    HW210905   3.996   4.679   5.329
 3336SOL     OW10906   4.875   6.043   3.861
 3336SOL    HW110907   4.787   6.072   3.899
 3336SOL    HW210908   4.859   5.987   3.779
 3337SOL     OW10909   3.703   3.612   3.508
 3337SOL    HW110910   3.628   3.578   3.451
 3337SOL    HW210911   3.788   3.567   3.482
 3338SOL     OW10912   2.814   1.933   1.384
 3338SOL    HW110913   2.782   2.027   1.376
 3338SOL    HW210914   2.752   1.871   1.336
 3339SOL     OW10915   1.849   7.020   5.814
 3339SOL    HW110916   1.859   0.088   5.780
 3339SOL    HW210917   1.936   6.989   5.854
 3340SOL     OW10918   4.185   0.782   4.210
 3340SOL    HW110919   4.181   0.828   4.122
 3340SOL    HW210920   4.222   0.690   4.198
 3341SOL     OW10921   1.449   4.448   3.004
 3341SOL    HW110922   1.482   4.538   2.976
 3341SOL    HW210923   1.462   4.383   2.929
 3342SOL     OW10924   0.321   0.620   2.693
 3342SOL    HW110925   0.285   0.551   2.755
 3342SOL    HW210926   0.295   0.597   2.599
 3343SOL     OW10927   4.886   5.146   6.240
 3343SOL    HW110928   4.897   5.052   6.206
 3343SOL    HW210929   4.883   5.209   6.163
 3344SOL     OW10930   0.651   2.997   2.954
 3344SOL    HW110931   0.651   3.090   2.990
 3344SOL    HW210932   0.743   2.959   2.962
 3345SOL     OW10933   6.726   4.541   0.173
 3345SOL    HW110934   6.659   4.567   0.103
 3345SOL    HW210935   6.799   4.487   0.131
 3346SOL     OW10936   1.818   1.216   6.986
 3346SOL    HW110937   1.856   1.177   6.902
 3346SOL    HW210938   1.776   1.144   0.016
 3347SOL     OW10939   0.114   3.527   6.614
 3347SOL    HW110940   0.155   3.494   6.529
 3347SOL    HW210941   0.025   3.568   6.594
 3348SOL     OW10942   3.858   3.810   6.187
 3348SOL    HW110943   3.866   3.769   6.278
 3348SOL    HW210944   3.765   3.843   6.174
 3349SOL     OW10945   2.189   4.671   3.882
 3349SOL    HW110946   2.166   4.582   3.922
 3349SOL    HW210947   2.164   4.744   3.947
 3350SOL     OW10948   0.543   4.424   5.311
 3350SOL    HW110949   0.565   4.351   5.246
 3350SOL    HW210950   0.465   4.396   5.367
 3351SOL     OW10951   5.236   0.771   1.291
 3351SOL    HW110952   5.326   0.807   1.266
 3351SOL    HW210953   5.245   0.706   1.366
 3352SOL     OW10954   5.732   2.201   6.476
 3352SOL    HW110955   5.654   2.145   6.446
 3352SOL    HW210956   5.788   2.224   6.397
 3353SOL     OW10957   2.986   0.191   1.544
 3353SOL    HW110958   3.056   0.218   1.478
 3353SOL    HW210959   2.927   0.121   1.503
 3354SOL     OW10960   3.341   3.859   6.465
 3354SOL    HW110961   3.402   3.904   6.531
 3354SOL    HW210962   3.290   3.928   6.413
 3355SOL     OW10963   2.154   0.770   4.938
 3355SOL    HW110964   2.142   0.817   5.025
 3355SOL    HW210965   2.076   0.788   4.879
 3356SOL     OW10966   1.857   6.824   5.630
 3356SOL    HW110967   1.860   6.904   5.690
 3356SOL    HW210968   1.849   6.741   5.686
 3357SOL     OW10969   2.731   3.324   1.659
 3357SOL    HW110970   2.802   3.313   1.728
 3357SOL    HW210971   2.769   3.375   1.581
 3358SOL     OW10972   7.013   1.093   1.696
 3358SOL    HW110973   6.991   1.016   1.755
 3358SOL    HW210974   7.021   1.062   1.602
 3359SOL     OW10975   6.415   6.330   4.066
 3359SOL    HW110976   6.502   6.281   4.072
 3359SOL    HW210977   6.421   6.401   3.996
 3360SOL     OW10978   0.461   3.739   5.087
 3360SOL    HW110979   0.439   3.794   5.007
 3360SOL    HW210980   0.493   3.799   5.161
 3361SOL     OW10981   6.941   1.084   4.430
 3361SOL    HW110982   6.848   1.047   4.426
 3361SOL    HW210983   6.985   1.073   4.340
 3362SOL     OW10984   3.560   1.341   3.818
 3362SOL    HW110985   3.526   1.331   3.724
 3362SOL    HW210986   3.545   1.257   3.869
 3363SOL     OW10987   6.133   3.431   0.132
 3363SOL    HW110988   6.141   3.528   0.156
 3363SOL    HW210989   6.053   3.392   0.178
 3364SOL     OW10990   2.166   3.611   3.641
 3364SOL    HW110991   2.126   3.539   3.697
 3364SOL    HW210992   2.257   3.635   3.677
 3365SOL     OW10993   2.183   3.977   3.977
 3365SOL    HW110994   2.268   3.971   4.029
 3365SOL    HW210995   2.129   3.894   3.991
 3366SOL     OW10996   5.879   3.938   4.170
 3366SOL    HW110997   5.906   4.030   4.143
 3366SOL    HW210998   5.858   3.937   4.268
 3367SOL     OW10999   3.906   3.287   4.032
 3367SOL    HW111000   3.840   3.363   4.036
 3367SOL    HW211001   3.863   3.208   3.988
 3368SOL     OW11002   1.318   6.040   1.328
 3368SOL    HW111003   1.227   6.035   1.369
 3368SOL    HW211004   1.339   5.953   1.283
 3369SOL     OW11005   4.658   2.964   1.065
 3369SOL    HW111006   4.631   2.868   1.061
 3369SOL    HW211007   4.577   3.022   1.058
 3370SOL     OW11008   0.542   6.119   2.885
 3370SOL    HW111009   0.517   6.089   2.792
 3370SOL    HW211010   0.558   6.218   2.885
 3371SOL     OW11011   1.568   2.738   3.488
 3371SOL    HW111012   1.644   2.796   3.518
 3371SOL    HW211013   1.585   2.707   3.395
 3372SOL     OW11014   6.346   4.206   1.810
 3372SOL    HW111015   6.395   4.185   1.895
 3372SOL    HW211016   6.320   4.120   1.765
 3373SOL     OW11017   6.996   2.640   1.337
 3373SOL    HW111018   6.906   2.649   1.293
 3373SOL    HW211019   6.983   2.610   1.432
 3374SOL     OW11020   0.255   0.538   4.123
 3374SOL    HW111021   0.210   0.579   4.044
 3374SOL    HW211022   0.308   0.607   4.172
 3375SOL     OW11023   6.339   5.287   5.907
 3375SOL    HW111024   6.267   5.310   5.841
 3375SOL    HW211025   6.345   5.187   5.915
 3376SOL     OW11026   2.788   3.898   5.328
 3376SOL    HW111027   2.784   3.976   5.265
 3376SOL    HW211028   2.695   3.871   5.353
 3377SOL     OW11029   6.155   4.394   3.220
 3377SOL    HW111030   6.220   4.431   3.286
 3377SOL    HW211031   6.185   4.303   3.190
 3378SOL     OW11032   1.154   6.231   1.035
 3378SOL    HW111033   1.221   6.215   1.107
 3378SOL    HW211034   1.187   6.193   0.949
 3379SOL     OW11035   6.745   4.490   3.650
 3379SOL    HW111036   6.771   4.546   3.572
 3379SOL    HW211037   6.700   4.407   3.618
 3380SOL     OW11038   3.665   4.709   6.355
 3380SOL    HW111039   3.617   4.683   6.439
 3380SOL    HW211040   3.735   4.640   6.334
 3381SOL     OW11041   1.646   3.687   0.468
 3381SOL    HW111042   1.672   3.740   0.388
 3381SOL    HW211043   1.632   3.592   0.442
 3382SOL     OW11044   0.114   2.868   1.265
 3382SOL    HW111045   0.070   2.784   1.295
 3382SOL    HW211046   0.197   2.884   1.318
 3383SOL     OW11047   5.254   5.528   0.045
 3383SOL    HW111048   5.301   5.616   0.040
 3383SOL    HW211049   5.303   5.468   0.108
 3384SOL     OW11050   2.693   4.353   6.939
 3384SOL    HW111051   2.613   4.393   6.983
 3384SOL    HW211052   2.767   4.420   6.937
 3385SOL     OW11053   0.234   2.420   4.340
 3385SOL    HW111054   0.159   2.484   4.356
 3385SOL    HW211055   0.236   2.352   4.413
 3386SOL     OW11056   0.247   4.585   5.777
 3386SOL    HW111057   0.287   4.672   5.750
 3386SOL    HW211058   0.182   4.600   5.851
 3387SOL     OW11059   6.457   0.366   3.414
 3387SOL    HW111060   6.406   0.394   3.333
 3387SOL    HW211061   6.540   0.422   3.422
 3388SOL     OW11062   6.771   3.307   1.128
 3388SOL    HW111063   6.853   3.314   1.071
 3388SOL    HW211064   6.793   3.338   1.221
 3389SOL     OW11065   6.153   5.881   0.334
 3389SOL    HW111066   6.162   5.783   0.352
 3389SOL    HW211067   6.194   5.932   0.410
 3390SOL     OW11068   4.006   6.732   5.681
 3390SOL    HW111069   3.965   6.822   5.695
 3390SOL    HW211070   3.994   6.677   5.764
 3391SOL     OW11071   5.709   3.253   4.376
 3391SOL    HW111072   5.755   3.338   4.350
 3391SOL    HW211073   5.649   3.270   4.454
 3392SOL     OW11074   4.434   6.278   5.421
 3392SOL    HW111075   4.425   6.223   5.504
 3392SOL    HW211076   4.515   6.336   5.428
 3393SOL     OW11077   4.970   5.697   1.013
 3393SOL    HW111078   5.000   5.645   0.933
 3393SOL    HW211079   4.913   5.773   0.983
 3394SOL     OW11080   2.890   5.267   1.590
 3394SOL    HW111081   2.846   5.294   1.504
 3394SOL    HW211082   2.898   5.168   1.594
 3395SOL     OW11083   2.676   7.000   3.716
 3395SOL    HW111084   2.590   6.953   3.729
 3395SOL    HW211085   2.743   6.938   3.675
 3396SOL     OW11086   4.793   1.925   4.435
 3396SOL    HW111087   4.889   1.906   4.454
 3396SOL    HW211088   4.751   1.967   4.515
 3397SOL     OW11089   1.854   6.254   0.427
 3397SOL    HW111090   1.784   6.221   0.363
 3397SOL    HW211091   1.860   6.192   0.504
 3398SOL     OW11092   6.873   2.327   3.866
 3398SOL    HW111093   6.842   2.383   3.790
 3398SOL    HW211094   6.973   2.326   3.869
 3399SOL     OW11095   6.329   5.833   2.150
 3399SOL    HW111096   6.412   5.828   2.094
 3399SOL    HW211097   6.270   5.755   2.130
 3400SOL     OW11098   5.124   1.765   6.054
 3400SOL    HW111099   5.224   1.767   6.052
 3400SOL    HW211100   5.093   1.705   6.128
 3401SOL     OW11101   6.949   3.210   5.554
 3401SOL    HW111102   6.926   3.301   5.519
 3401SOL    HW211103   6.865   3.162   5.581
 3402SOL     OW11104   6.320   3.416   1.317
 3402SOL    HW111105   6.227   3.418   1.281
 3402SOL    HW211106   6.329   3.339   1.381
 3403SOL     OW11107   4.830   6.633   6.834
 3403SOL    HW111108   4.793   6.705   6.777
 3403SOL    HW211109   4.806   6.651   6.930
 3404SOL     OW11110   5.214   4.308   5.052
 3404SOL    HW111111   5.212   4.217   5.010
 3404SOL    HW211112   5.121   4.334   5.079
 3405SOL     OW11113   5.031   5.658   6.027
 3405SOL    HW111114   5.021   5.683   5.931
 3405SOL    HW211115   5.113   5.601   6.039
 3406SOL     OW11116   2.548   4.919   1.779
 3406SOL    HW111117   2.557   5.010   1.818
 3406SOL    HW211118   2.525   4.926   1.682
 3407SOL     OW11119   1.229   3.580   0.200
 3407SOL    HW111120   1.162   3.614   0.134
 3407SOL    HW211121   1.235   3.480   0.195
 3408SOL     OW11122   4.887   1.835   3.679
 3408SOL    HW111123   4.898   1.916   3.621
 3408SOL    HW211124   4.970   1.779   3.674
 3409SOL     OW11125   4.236   0.324   0.645
 3409SOL    HW111126   4.232   0.423   0.659
 3409SOL    HW211127   4.150   0.292   0.605
 3410SOL     OW11128   5.440   0.583   2.993
 3410SOL    HW111129   5.382   0.538   2.925
 3410SOL    HW211130   5.476   0.668   2.955
 3411SOL     OW11131   6.208   2.448   0.428
 3411SOL    HW111132   6.229   2.364   0.477
 3411SOL    HW211133   6.262   2.452   0.343
 3412SOL     OW11134   5.866   3.191   1.386
 3412SOL    HW111135   5.962   3.167   1.373
 3412SOL    HW211136   5.853   3.227   1.478
 3413SOL     OW11137   0.345   3.102   6.184
 3413SOL    HW111138   0.424   3.118   6.126
 3413SOL    HW211139   0.373   3.048   6.264
 3414SOL     OW11140   3.208   4.241   0.842
 3414SOL    HW111141   3.277   4.309   0.819
 3414SOL    HW211142   3.200   4.232   0.941
 3415SOL     OW11143   2.037   2.203   6.001
 3415SOL    HW111144   1.948   2.233   5.968
 3415SOL    HW211145   2.036   2.104   6.015
 3416SOL     OW11146   6.264   0.357   6.615
 3416SOL    HW111147   6.215   0.443   6.600
 3416SOL    HW211148   6.330   0.343   6.541
 3417SOL     OW11149   6.372   6.920   3.097
 3417SOL    HW111150   6.279   6.903   3.129
 3417SOL    HW211151   6.376   6.905   2.998
 3418SOL     OW11152   4.875   4.682   0.966
 3418SOL    HW111153   4.955   4.643   0.920
 3418SOL    HW211154   4.794   4.671   0.908
 3419SOL     OW11155   2.529   6.007   5.743
 3419SOL    HW111156   2.589   5.927   5.747
 3419SOL    HW211157   2.519   6.046   5.835
 3420SOL     OW11158   4.338   2.399   2.728
 3420SOL    HW111159   4.390   2.335   2.672
 3420SOL    HW211160   4.384   2.412   2.816
 3421SOL     OW11161   6.544   2.258   3.165
 3421SOL    HW111162   6.524   2.283   3.259
 3421SOL    HW211163   6.505   2.168   3.145
 3422SOL     OW11164   2.528   6.751   0.939
 3422SOL    HW111165   2.592   6.746   1.015
 3422SOL    HW211166   2.554   6.825   0.877
 3423SOL     OW11167   1.261   4.586   6.083
 3423SOL    HW111168   1.199   4.637   6.024
 3423SOL    HW211169   1.355   4.617   6.068
 3424SOL     OW11170   4.409   0.628   1.712
 3424SOL    HW111171   4.477   0.581   1.767
 3424SOL    HW211172   4.340   0.669   1.772
 3425SOL     OW11173   5.607   3.456   0.532
 3425SOL    HW111174   5.525   3.430   0.584
 3425SOL    HW211175   5.668   3.510   0.590
 3426SOL     OW11176   5.486   2.827   6.999
 3426SOL    HW111177   5.546   2.884   6.942
 3426SOL    HW211178   5.539   2.756   0.019
 3427SOL     OW11179   1.628   2.422   0.615
 3427SOL    HW111180   1.627   2.340   0.558
 3427SOL    HW211181   1.596   2.400   0.707
 3428SOL     OW11182   4.818   6.453   5.730
 3428SOL    HW111183   4.754   6.408   5.793
 3428SOL    HW211184   4.892   6.495   5.783
 3429SOL     OW11185   6.204   0.298   0.809
 3429SOL    HW111186   6.298   0.266   0.805
 3429SOL    HW211187   6.150   0.237   0.867
 3430SOL     OW11188   2.054   4.570   5.550
 3430SOL    HW111189   2.037   4.639   5.479
 3430SOL    HW211190   2.075   4.483   5.507
 3431SOL     OW11191   1.400   5.191   3.179
 3431SOL    HW111192   1.350   5.165   3.262
 3431SOL    HW211193   1.409   5.291   3.176
 3432SOL     OW11194   1.396   3.988   0.635
 3432SOL    HW111195   1.469   3.960   0.697
 3432SOL    HW211196   1.312   3.939   0.659
 3433SOL     OW11197   2.420   1.727   6.780
 3433SOL    HW111198   2.435   1.801   6.846
 3433SOL    HW211199   2.506   1.677   6.766
 3434SOL     OW11200   2.920   2.467   1.107
 3434SOL    HW111201   2.826   2.436   1.120
 3434SOL    HW211202   2.980   2.417   1.171
 3435SOL     OW11203   1.932   0.993   1.286
 3435SOL    HW111204   2.019   0.944   1.286
 3435SOL    HW211205   1.913   1.027   1.378
 3436SOL     OW11206   3.209   6.533   6.433
 3436SOL    HW111207   3.294   6.526   6.486
 3436SOL    HW211208   3.210   6.618   6.380
 3437SOL     OW11209   1.164   0.263   6.553
 3437SOL    HW111210   1.087   0.327   6.559
 3437SOL    HW211211   1.246   0.305   6.591
 3438SOL     OW11212   1.345   3.956   1.412
 3438SOL    HW111213   1.406   3.896   1.361
 3438SOL    HW211214   1.262   3.905   1.438
 3439SOL     OW11215   2.734   5.200   2.105
 3439SOL    HW111216   2.747   5.296   2.080
 3439SOL    HW211217   2.660   5.161   2.051
 3440SOL     OW11218   3.861   3.740   4.792
 3440SOL    HW111219   3.930   3.808   4.769
 3440SOL    HW211220   3.770   3.779   4.783
 3441SOL     OW11221   5.202   4.879   6.118
 3441SOL    HW111222   5.196   4.920   6.209
 3441SOL    HW211223   5.266   4.931   6.062
 3442SOL     OW11224   3.321   3.129   1.183
 3442SOL    HW111225   3.405   3.154   1.134
 3442SOL    HW211226   3.258   3.085   1.119
 3443SOL     OW11227   1.365   6.180   2.396
 3443SOL    HW111228   1.286   6.240   2.408
 3443SOL    HW211229   1.420   6.212   2.319
 3444SOL     OW11230   6.404   3.876   6.788
 3444SOL    HW111231   6.333   3.922   6.842
 3444SOL    HW211232   6.377   3.782   6.769
 3445SOL     OW11233   5.984   4.270   3.582
 3445SOL    HW111234   5.963   4.356   3.535
 3445SOL    HW211235   6.018   4.204   3.515
 3446SOL     OW11236   4.999   0.799   1.125
 3446SOL    HW111237   5.042   0.770   1.210
 3446SOL    HW211238   5.057   0.774   1.047
 3447SOL     OW11239   5.524   1.009   6.842
 3447SOL    HW111240   5.574   0.935   6.797
 3447SOL    HW211241   5.501   1.080   6.775
 3448SOL     OW11242   1.686   6.128   5.144
 3448SOL    HW111243   1.752   6.187   5.191
 3448SOL    HW211244   1.608   6.184   5.114
 3449SOL     OW11245   6.934   4.394   5.930
 3449SOL    HW111246   6.993   4.323   5.967
 3449SOL    HW211247   6.931   4.387   5.831
 3450SOL     OW11248   2.301   6.646   1.733
 3450SOL    HW111249   2.399   6.644   1.712
 3450SOL    HW211250   2.256   6.567   1.693
 3451SOL     OW11251   2.054   1.198   1.538
 3451SOL    HW111252   2.000   1.117   1.559
 3451SOL    HW211253   2.003   1.258   1.477
 3452SOL     OW11254   4.661   0.793   4.686
 3452SOL    HW111255   4.708   0.781   4.599
 3452SOL    HW211256   4.568   0.757   4.680
 3453SOL     OW11257   4.722   6.183   6.104
 3453SOL    HW111258   4.711   6.109   6.038
 3453SOL    HW211259   4.815   6.184   6.139
 3454SOL     OW11260   0.614   2.907   1.409
 3454SOL    HW111261   0.554   2.967   1.463
 3454SOL    HW211262   0.597   2.922   1.312
 3455SOL     OW11263   0.592   3.068   5.281
 3455SOL    HW111264   0.634   3.159   5.278
 3455SOL    HW211265   0.499   3.075   5.317
 3456SOL     OW11266   5.196   4.623   2.944
 3456SOL    HW111267   5.130   4.666   2.882
 3456SOL    HW211268   5.284   4.671   2.937
 3457SOL     OW11269   3.868   4.843   5.810
 3457SOL    HW111270   3.807   4.818   5.885
 3457SOL    HW211271   3.904   4.761   5.767
 3458SOL     OW11272   4.132   1.102   2.525
 3458SOL    HW111273   4.039   1.133   2.546
 3458SOL    HW211274   4.198   1.172   2.555
 3459SOL     OW11275   4.855   6.395   2.945
 3459SOL    HW111276   4.855   6.295   2.935
 3459SOL    HW211277   4.763   6.430   2.926
 3460SOL     OW11278   4.175   1.659   5.009
 3460SOL    HW111279   4.180   1.707   5.097
 3460SOL    HW211280   4.252   1.595   5.002
 3461SOL     OW11281   6.020   5.616   5.169
 3461SOL    HW111282   6.012   5.677   5.248
 3461SOL    HW211283   6.116   5.590   5.157
 3462SOL     OW11284   1.851   3.916   6.457
 3462SOL    HW111285   1.896   3.836   6.496
 3462SOL    HW211286   1.885   3.999   6.502
 3463SOL     OW11287   5.785   3.954   1.202
 3463SOL    HW111288   5.743   4.034   1.159
 3463SOL    HW211289   5.878   3.942   1.166
 3464SOL     OW11290   0.218   4.880   6.097
 3464SOL    HW111291   0.294   4.855   6.157
 3464SOL    HW211292   0.165   4.954   6.139
 3465SOL     OW11293   1.618   0.929   0.807
 3465SOL    HW111294   1.684   0.956   0.877
 3465SOL    HW211295   1.544   0.877   0.848
 3466SOL     OW11296   6.659   3.873   5.844
 3466SOL    HW111297   6.582   3.910   5.897
 3466SOL    HW211298   6.684   3.783   5.880
 3467SOL     OW11299   2.113   2.012   6.993
 3467SOL    HW111300   2.074   1.919   6.990
 3467SOL    HW211301   2.208   2.009   6.962
 3468SOL     OW11302   3.559   6.896   4.041
 3468SOL    HW111303   3.616   6.977   4.025
 3468SOL    HW211304   3.466   6.915   4.009
 3469SOL     OW11305   5.260   2.407   2.875
 3469SOL    HW111306   5.239   2.478   2.942
 3469SOL    HW211307   5.202   2.419   2.795
 3470SOL     OW11308   6.987   5.100   1.110
 3470SOL    HW111309   6.935   5.104   1.196
 3470SOL    HW211310   6.956   5.172   1.048
 3471SOL     OW11311   4.099   6.387   4.868
 3471SOL    HW111312   4.115   6.339   4.954
 3471SOL    HW211313   4.000   6.393   4.852
 3472SOL     OW11314   3.497   1.402   5.103
 3472SOL    HW111315   3.532   1.490   5.136
 3472SOL    HW211316   3.414   1.378   5.153
 3473SOL     OW11317   5.455   0.885   5.833
 3473SOL    HW111318   5.363   0.881   5.874
 3473SOL    HW211319   5.463   0.969   5.779
 3474SOL     OW11320   4.711   5.427   0.882
 3474SOL    HW111321   4.748   5.422   0.790
 3474SOL    HW211322   4.620   5.467   0.880
 3475SOL     OW11323   1.500   5.879   4.740
 3475SOL    HW111324   1.555   5.878   4.824
 3475SOL    HW211325   1.536   5.948   4.678
 3476SOL     OW11326   4.944   1.136   4.273
 3476SOL    HW111327   4.947   1.234   4.295
 3476SOL    HW211328   4.911   1.085   4.352
 3477SOL     OW11329   4.079   6.245   1.868
 3477SOL    HW111330   4.070   6.291   1.780
 3477SOL    HW211331   4.174   6.218   1.882
 3478SOL     OW11332   4.198   4.365   0.326
 3478SOL    HW111333   4.182   4.427   0.249
 3478SOL    HW211334   4.245   4.415   0.399
 3479SOL     OW11335   1.133   0.587   2.075
 3479SOL    HW111336   1.198   0.514   2.098
 3479SOL    HW211337   1.052   0.579   2.134
 3480SOL     OW11338   1.250   1.194   3.011
 3480SOL    HW111339   1.180   1.240   3.066
 3480SOL    HW211340   1.275   1.251   2.933
 3481SOL     OW11341   2.026   6.514   0.119
 3481SOL    HW111342   2.056   6.582   0.186
 3481SOL    HW211343   2.010   6.558   0.031
 3482SOL     OW11344   0.414   2.354   0.375
 3482SOL    HW111345   0.510   2.368   0.349
 3482SOL    HW211346   0.368   2.443   0.382
 3483SOL     OW11347   2.909   6.753   1.366
 3483SOL    HW111348   3.004   6.742   1.338
 3483SOL    HW211349   2.874   6.666   1.400
 3484SOL     OW11350   3.539   3.776   3.651
 3484SOL    HW111351   3.623   3.774   3.595
 3484SOL    HW211352   3.473   3.838   3.609
 3485SOL     OW11353   1.005   2.556   4.835
 3485SOL    HW111354   0.906   2.547   4.839
 3485SOL    HW211355   1.039   2.517   4.749
 3486SOL     OW11356   4.424   1.688   2.075
 3486SOL    HW111357   4.340   1.682   2.129
 3486SOL    HW211358   4.408   1.749   1.997
 3487SOL     OW11359   6.619   0.366   0.237
 3487SOL    HW111360   6.716   0.389   0.226
 3487SOL    HW211361   6.579   0.349   0.147
 3488SOL     OW11362   5.692   3.384   4.009
 3488SOL    HW111363   5.717   3.441   3.930
 3488SOL    HW211364   5.750   3.303   4.010
 3489SOL     OW11365   3.031   0.044   0.952
 3489SOL    HW111366   2.950   7.010   0.954
 3489SOL    HW211367   3.063   0.059   1.045
 3490SOL     OW11368   4.389   3.713   0.306
 3490SOL    HW111369   4.471   3.658   0.314
 3490SOL    HW211370   4.319   3.663   0.254
 3491SOL     OW11371   0.623   3.109   4.702
 3491SOL    HW111372   0.638   3.186   4.639
 3491SOL    HW211373   0.574   3.036   4.655
 3492SOL     OW11374   6.355   4.813   6.468
 3492SOL    HW111375   6.279   4.787   6.409
 3492SOL    HW211376   6.436   4.832   6.413
 3493SOL     OW11377   6.779   4.559   0.483
 3493SOL    HW111378   6.808   4.491   0.550
 3493SOL    HW211379   6.693   4.530   0.441
 3494SOL     OW11380   3.321   0.344   0.593
 3494SOL    HW111381   3.259   0.403   0.541
 3494SOL    HW211382   3.269   0.288   0.657
 3495SOL     OW11383   5.095   4.826   0.550
 3495SOL    HW111384   5.166   4.766   0.513
 3495SOL    HW211385   5.095   4.820   0.650
 3496SOL     OW11386   1.980   3.534   1.246
 3496SOL    HW111387   2.001   3.468   1.174
 3496SOL    HW211388   2.056   3.538   1.311
 3497SOL     OW11389   4.519   0.184   3.354
 3497SOL    HW111390   4.473   0.226   3.276
 3497SOL    HW211391   4.552   0.093   3.329
 3498SOL     OW11392   2.375   1.352   1.897
 3498SOL    HW111393   2.376   1.452   1.902
 3498SOL    HW211394   2.317   1.323   1.821
 3499SOL     OW11395   6.651   3.369   3.836
 3499SOL    HW111396   6.631   3.352   3.740
 3499SOL    HW211397   6.658   3.468   3.851
 3500SOL     OW11398   6.671   3.468   0.541
 3500SOL    HW111399   6.713   3.456   0.631
 3500SOL    HW211400   6.703   3.396   0.480
 3501SOL     OW11401   1.188   4.770   4.372
 3501SOL    HW111402   1.270   4.780   4.317
 3501SOL    HW211403   1.211   4.778   4.469
 3502SOL     OW11404   0.684   3.222   1.622
 3502SOL    HW111405   0.683   3.259   1.715
 3502SOL    HW211406   0.743   3.141   1.621
 3503SOL     OW11407   4.926   6.341   4.262
 3503SOL    HW111408   4.870   6.280   4.317
 3503SOL    HW211409   4.868   6.396   4.202
 3504SOL     OW11410   2.012   3.463   1.860
 3504SOL    HW111411   2.089   3.477   1.922
 3504SOL    HW211412   2.022   3.373   1.816
 3505SOL     OW11413   5.345   5.238   4.772
 3505SOL    HW111414   5.347   5.138   4.785
 3505SOL    HW211415   5.310   5.281   4.855
 3506SOL     OW11416   4.988   5.577   2.672
 3506SOL    HW111417   4.932   5.597   2.752
 3506SOL    HW211418   5.027   5.485   2.680
 3507SOL     OW11419   1.082   0.424   6.113
 3507SOL    HW111420   1.074   0.432   6.213
 3507SOL    HW211421   1.041   0.337   6.084
 3508SOL     OW11422   5.993   2.739   6.889
 3508SOL    HW111423   5.931   2.728   6.811
 3508SOL    HW211424   5.961   2.682   6.965
 3509SOL     OW11425   6.536   6.546   0.681
 3509SOL    HW111426   6.590   6.491   0.744
 3509SOL    HW211427   6.439   6.527   0.694
 3510SOL     OW11428   1.838   3.253   2.186
 3510SOL    HW111429   1.927   3.223   2.152
 3510SOL    HW211430   1.777   3.268   2.108
 3511SOL     OW11431   0.619   1.498   5.569
 3511SOL    HW111432   0.659   1.585   5.541
 3511SOL    HW211433   0.526   1.491   5.533
 3512SOL     OW11434   2.889   3.442   0.872
 3512SOL    HW111435   2.920   3.352   0.842
 3512SOL    HW211436   2.866   3.498   0.792
 3513SOL     OW11437   6.104   4.689   1.058
 3513SOL    HW111438   6.131   4.718   1.150
 3513SOL    HW211439   6.012   4.723   1.039
 3514SOL     OW11440   0.849   6.019   1.559
 3514SOL    HW111441   0.859   6.107   1.605
 3514SOL    HW211442   0.778   5.965   1.604
 3515SOL     OW11443   2.784   6.152   3.865
 3515SOL    HW111444   2.844   6.231   3.855
 3515SOL    HW211445   2.822   6.074   3.815
 3516SOL     OW11446   3.026   1.219   0.867
 3516SOL    HW111447   2.944   1.231   0.923
 3516SOL    HW211448   3.071   1.307   0.854
 3517SOL     OW11449   1.255   0.872   6.176
 3517SOL    HW111450   1.229   0.965   6.152
 3517SOL    HW211451   1.184   0.832   6.234
 3518SOL     OW11452   4.283   2.790   5.776
 3518SOL    HW111453   4.269   2.800   5.874
 3518SOL    HW211454   4.195   2.796   5.729
 3519SOL     OW11455   1.880   6.261   0.091
 3519SOL    HW111456   1.951   6.326   0.117
 3519SOL    HW211457   1.892   6.176   0.143
 3520SOL     OW11458   4.212   5.644   0.719
 3520SOL    HW111459   4.244   5.617   0.809
 3520SOL    HW211460   4.273   5.715   0.681
 3521SOL     OW11461   5.913   2.452   0.508
 3521SOL    HW111462   5.992   2.460   0.446
 3521SOL    HW211463   5.887   2.356   0.515
 3522SOL     OW11464   3.167   4.996   2.541
 3522SOL    HW111465   3.259   5.012   2.505
 3522SOL    HW211466   3.173   4.947   2.627
 3523SOL     OW11467   2.350   4.785   5.980
 3523SOL    HW111468   2.278   4.767   6.047
 3523SOL    HW211469   2.327   4.740   5.893
 3524SOL     OW11470   2.315   0.254   1.003
 3524SOL    HW111471   2.376   0.250   0.924
 3524SOL    HW211472   2.244   0.184   0.994
 3525SOL     OW11473   1.127   2.951   2.937
 3525SOL    HW111474   1.172   2.991   2.856
 3525SOL    HW211475   1.181   2.875   2.971
 3526SOL     OW11476   2.442   1.031   2.678
 3526SOL    HW111477   2.519   1.017   2.616
 3526SOL    HW211478   2.370   0.965   2.657
 3527SOL     OW11479   4.913   2.839   5.812
 3527SOL    HW111480   4.915   2.750   5.767
 3527SOL    HW211481   4.851   2.900   5.764
 3528SOL     OW11482   6.885   0.163   4.632
 3528SOL    HW111483   6.939   0.183   4.551
 3528SOL    HW211484   6.913   0.222   4.707
 3529SOL     OW11485   3.578   6.390   6.101
 3529SOL    HW111486   3.589   6.303   6.149
 3529SOL    HW211487   3.502   6.441   6.141
 3530SOL     OW11488   1.878   5.912   3.187
 3530SOL    HW111489   1.872   5.823   3.142
 3530SOL    HW211490   1.900   5.982   3.118
 3531SOL     OW11491   4.597   3.952   6.901
 3531SOL    HW111492   4.693   3.927   6.884
 3531SOL    HW211493   4.573   3.929   6.995
 3532SOL     OW11494   1.823   0.220   6.920
 3532SOL    HW111495   1.745   0.194   6.977
 3532SOL    HW211496   1.907   0.217   6.973
 3533SOL     OW11497   1.667   1.280   2.903
 3533SOL    HW111498   1.655   1.352   2.835
 3533SOL    HW211499   1.747   1.299   2.960
 3534SOL     OW11500   5.295   1.024   4.284
 3534SOL    HW111501   5.299   1.108   4.229
 3534SOL    HW211502   5.265   1.047   4.377
 3535SOL     OW11503   4.573   5.701   6.573
 3535SOL    HW111504   4.670   5.724   6.564
 3535SOL    HW211505   4.529   5.713   6.484
 3536SOL     OW11506   1.001   4.376   3.038
 3536SOL    HW111507   1.074   4.308   3.039
 3536SOL    HW211508   1.036   4.463   3.073
 3537SOL     OW11509   2.418   4.678   0.653
 3537SOL    HW111510   2.481   4.733   0.708
 3537SOL    HW211511   2.379   4.605   0.710
 3538SOL     OW11512   2.809   0.744   4.745
 3538SOL    HW111513   2.775   0.669   4.688
 3538SOL    HW211514   2.881   0.793   4.697
 3539SOL     OW11515   5.476   5.637   6.224
 3539SOL    HW111516   5.481   5.674   6.317
 3539SOL    HW211517   5.568   5.612   6.193
 3540SOL     OW11518   3.015   3.688   6.416
 3540SOL    HW111519   2.959   3.771   6.422
 3540SOL    HW211520   3.072   3.692   6.334
 3541SOL     OW11521   2.609   2.895   1.419
 3541SOL    HW111522   2.585   2.977   1.471
 3541SOL    HW211523   2.555   2.817   1.452
 3542SOL     OW11524   5.402   2.067   5.991
 3542SOL    HW111525   5.340   2.138   5.956
 3542SOL    HW211526   5.372   2.040   6.083
 3543SOL     OW11527   0.547   2.511   3.431
 3543SOL    HW111528   0.479   2.443   3.457
 3543SOL    HW211529   0.617   2.468   3.373
 3544SOL     OW11530   2.708   4.382   6.149
 3544SOL    HW111531   2.619   4.409   6.112
 3544SOL    HW211532   2.696   4.345   6.241
 3545SOL     OW11533   3.478   6.340   1.434
 3545SOL    HW111534   3.558   6.291   1.470
 3545SOL    HW211535   3.460   6.310   1.340
 3546SOL     OW11536   0.486   4.339   3.285
 3546SOL    HW111537   0.462   4.322   3.381
 3546SOL    HW211538   0.406   4.376   3.237
 3547SOL     OW11539   1.086   4.474   5.455
 3547SOL    HW111540   1.012   4.431   5.404
 3547SOL    HW211541   1.159   4.407   5.471
 3548SOL     OW11542   5.714   0.612   5.249
 3548SOL    HW111543   5.730   0.552   5.328
 3548SOL    HW211544   5.766   0.577   5.170
 3549SOL     OW11545   2.717   6.714   0.269
 3549SOL    HW111546   2.682   6.622   0.288
 3549SOL    HW211547   2.652   6.782   0.303
 3550SOL     OW11548   5.646   0.819   5.423
 3550SOL    HW111549   5.665   0.752   5.352
 3550SOL    HW211550   5.547   0.825   5.438
 3551SOL     OW11551   4.206   1.967   4.377
 3551SOL    HW111552   4.133   2.032   4.397
 3551SOL    HW211553   4.253   1.993   4.293
 3552SOL     OW11554   0.437   6.674   2.756
 3552SOL    HW111555   0.442   6.631   2.846
 3552SOL    HW211556   0.472   6.611   2.687
 3553SOL     OW11557   5.004   5.757   6.950
 3553SOL    HW111558   5.072   5.828   6.963
 3553SOL    HW211559   5.043   5.668   6.973
 3554SOL     OW11560   5.584   2.915   1.105
 3554SOL    HW111561   5.533   2.833   1.131
 3554SOL    HW211562   5.598   2.973   1.185
 3555SOL     OW11563   2.787   1.982   5.025
 3555SOL    HW111564   2.843   1.899   5.020
 3555SOL    HW211565   2.845   2.060   5.051
 3556SOL     OW11566   5.475   1.173   5.739
 3556SOL    HW111567   5.531   1.205   5.662
 3556SOL    HW211568   5.378   1.183   5.716
 3557SOL     OW11569   6.545   0.966   0.802
 3557SOL    HW111570   6.484   0.897   0.841
 3557SOL    HW211571   6.534   1.052   0.852
 3558SOL     OW11572   3.536   6.529   2.045
 3558SOL    HW111573   3.619   6.584   2.054
 3558SOL    HW211574   3.530   6.466   2.123
 3559SOL     OW11575   4.876   6.209   5.274
 3559SOL    HW111576   4.854   6.303   5.250
 3559SOL    HW211577   4.876   6.198   5.373
 3560SOL     OW11578   2.165   5.146   4.418
 3560SOL    HW111579   2.106   5.066   4.427
 3560SOL    HW211580   2.138   5.199   4.338
 3561SOL     OW11581   4.856   3.865   5.446
 3561SOL    HW111582   4.820   3.773   5.428
 3561SOL    HW211583   4.802   3.932   5.395
 3562SOL     OW11584   1.810   1.453   5.958
 3562SOL    HW111585   1.733   1.472   6.019
 3562SOL    HW211586   1.810   1.518   5.883
 3563SOL     OW11587   6.356   2.794   5.128
 3563SOL    HW111588   6.399   2.877   5.092
 3563SOL    HW211589   6.264   2.785   5.091
 3564SOL     OW11590   6.057   4.136   2.033
 3564SOL    HW111591   6.135   4.129   2.096
 3564SOL    HW211592   6.014   4.047   2.024
 3565SOL     OW11593   3.880   6.014   2.997
 3565SOL    HW111594   3.950   6.081   3.022
 3565SOL    HW211595   3.925   5.928   2.972
 3566SOL     OW11596   1.210   0.394   5.532
 3566SOL    HW111597   1.253   0.335   5.600
 3566SOL    HW211598   1.162   0.469   5.578
 3567SOL     OW11599   0.211   3.810   6.220
 3567SOL    HW111600   0.256   3.845   6.302
 3567SOL    HW211601   0.280   3.785   6.152
 3568SOL     OW11602   6.344   3.653   5.799
 3568SOL    HW111603   6.357   3.742   5.843
 3568SOL    HW211604   6.275   3.662   5.727
 3569SOL     OW11605   1.759   1.285   5.196
 3569SOL    HW111606   1.725   1.335   5.116
 3569SOL    HW211607   1.697   1.210   5.219
 3570SOL     OW11608   6.566   1.778   3.519
 3570SOL    HW111609   6.536   1.727   3.600
 3570SOL    HW211610   6.569   1.716   3.440
 3571SOL     OW11611   6.403   6.391   5.751
 3571SOL    HW111612   6.388   6.379   5.652
 3571SOL    HW211613   6.319   6.426   5.793
 3572SOL     OW11614   5.871   5.312   4.496
 3572SOL    HW111615   5.816   5.382   4.451
 3572SOL    HW211616   5.886   5.235   4.433
 3573SOL     OW11617   1.299   2.680   2.875
 3573SOL    HW111618   1.351   2.729   2.805
 3573SOL    HW211619   1.219   2.637   2.834
 3574SOL     OW11620   6.957   3.641   0.745
 3574SOL    HW111621   6.945   3.701   0.824
 3574SOL    HW211622   6.915   3.681   0.664
 3575SOL     OW11623   6.064   4.886   2.155
 3575SOL    HW111624   6.107   4.855   2.070
 3575SOL    HW211625   6.120   4.958   2.195
 3576SOL     OW11626   0.456   1.620   5.811
 3576SOL    HW111627   0.388   1.555   5.776
 3576SOL    HW211628   0.546   1.597   5.775
 3577SOL     OW11629   1.507   3.104   0.096
 3577SOL    HW111630   1.481   3.164   0.172
 3577SOL    HW211631   1.467   3.014   0.111
 3578SOL     OW11632   3.551   5.267   0.706
 3578SOL    HW111633   3.647   5.296   0.713
 3578SOL    HW211634   3.543   5.172   0.737
 3579SOL     OW11635   6.738   4.325   4.562
 3579SOL    HW111636   6.777   4.239   4.596
 3579SOL    HW211637   6.810   4.377   4.515
 3580SOL     OW11638   6.435   2.058   2.401
 3580SOL    HW111639   6.356   2.036   2.345
 3580SOL    HW211640   6.500   1.982   2.399
 3581SOL     OW11641   0.061   0.150   2.708
 3581SOL    HW111642   7.008   0.211   2.702
 3581SOL    HW211643   0.082   0.113   2.618
 3582SOL     OW11644   1.317   0.183   6.294
 3582SOL    HW111645   1.405   0.230   6.295
 3582SOL    HW211646   1.251   0.234   6.349
 3583SOL     OW11647   1.061   5.443   0.460
 3583SOL    HW111648   1.066   5.438   0.360
 3583SOL    HW211649   1.129   5.507   0.494
 3584SOL     OW11650   5.117   5.840   6.624
 3584SOL    HW111651   5.202   5.889   6.604
 3584SOL    HW211652   5.123   5.747   6.588
 3585SOL     OW11653   3.252   4.954   4.433
 3585SOL    HW111654   3.330   4.998   4.388
 3585SOL    HW211655   3.172   4.958   4.372
 3586SOL     OW11656   0.279   2.991   5.855
 3586SOL    HW111657   0.200   3.051   5.843
 3586SOL    HW211658   0.356   3.027   5.801
 3587SOL     OW11659   4.430   6.746   6.595
 3587SOL    HW111660   4.395   6.758   6.688
 3587SOL    HW211661   4.447   6.835   6.553
 3588SOL     OW11662   1.204   1.826   6.066
 3588SOL    HW111663   1.237   1.846   5.974
 3588SOL    HW211664   1.236   1.736   6.095
 3589SOL     OW11665   3.019   0.884   5.355
 3589SOL    HW111666   3.033   0.967   5.303
 3589SOL    HW211667   3.007   0.907   5.452
 3590SOL     OW11668   2.001   5.379   6.469
 3590SOL    HW111669   1.923   5.372   6.531
 3590SOL    HW211670   2.084   5.395   6.521
 3591SOL     OW11671   4.871   2.405   5.756
 3591SOL    HW111672   4.917   2.317   5.743
 3591SOL    HW211673   4.862   2.424   5.854
 3592SOL     OW11674   4.844   3.140   2.468
 3592SOL    HW111675   4.793   3.226   2.478
 3592SOL    HW211676   4.876   3.131   2.374
 3593SOL     OW11677   1.494   6.356   4.003
 3593SOL    HW111678   1.569   6.357   3.937
 3593SOL    HW211679   1.414   6.401   3.964
 3594SOL     OW11680   2.977   1.379   4.120
 3594SOL    HW111681   2.883   1.405   4.143
 3594SOL    HW211682   2.979   1.336   4.029
 3595SOL     OW11683   2.937   6.191   6.248
 3595SOL    HW111684   2.929   6.093   6.264
 3595SOL    HW211685   2.859   6.222   6.194
 3596SOL     OW11686   6.519   1.949   2.828
 3596SOL    HW111687   6.453   1.889   2.784
 3596SOL    HW211688   6.511   2.041   2.790
 3597SOL     OW11689   3.508   5.749   3.736
 3597SOL    HW111690   3.539   5.741   3.831
 3597SOL    HW211691   3.574   5.801   3.683
 3598SOL     OW11692   1.176   6.841   6.651
 3598SOL    HW111693   1.144   6.856   6.744
 3598SOL    HW211694   1.263   6.791   6.653
 3599SOL     OW11695   0.509   1.758   4.775
 3599SOL    HW111696   0.547   1.718   4.692
 3599SOL    HW211697   0.410   1.771   4.765
 3600SOL     OW11698   5.996   2.019   0.513
 3600SOL    HW111699   6.072   2.083   0.503
 3600SOL    HW211700   5.915   2.055   0.467
 3601SOL     OW11701   6.978   3.935   6.201
 3601SOL    HW111702   6.956   3.981   6.287
 3601SOL    HW211703   0.041   3.888   6.211
 3602SOL     OW11704   1.974   0.784   6.880
 3602SOL    HW111705   1.876   0.804   6.874
 3602SOL    HW211706   1.988   0.704   6.939
 3603SOL     OW11707   4.129   4.725   3.700
 3603SOL    HW111708   4.165   4.744   3.609
 3603SOL    HW211709   4.029   4.722   3.696
 3604SOL     OW11710   0.582   2.541   3.089
 3604SOL    HW111711   0.536   2.623   3.123
 3604SOL    HW211712   0.517   2.465   3.085
 3605SOL     OW11713   5.479   3.278   6.326
 3605SOL    HW111714   5.516   3.260   6.417
 3605SOL    HW211715   5.539   3.342   6.278
 3606SOL     OW11716   0.823   4.370   5.316
 3606SOL    HW111717   0.838   4.275   5.288
 3606SOL    HW211718   0.728   4.381   5.346
 3607SOL     OW11719   5.116   6.997   0.348
 3607SOL    HW111720   5.147   0.029   0.424
 3607SOL    HW211721   5.143   0.014   0.261
 3608SOL     OW11722   0.458   2.258   2.197
 3608SOL    HW111723   0.395   2.329   2.166
 3608SOL    HW211724   0.547   2.299   2.216
 3609SOL     OW11725   6.736   0.677   4.534
 3609SOL    HW111726   6.689   0.594   4.565
 3609SOL    HW211727   6.733   0.746   4.607
 3610SOL     OW11728   1.437   6.509   5.779
 3610SOL    HW111729   1.452   6.607   5.773
 3610SOL    HW211730   1.338   6.490   5.778
 3611SOL     OW11731   3.812   5.219   5.808
 3611SOL    HW111732   3.726   5.168   5.809
 3611SOL    HW211733   3.799   5.305   5.759
 3612SOL     OW11734   1.381   6.958   0.694
 3612SOL    HW111735   1.357   0.029   0.684
 3612SOL    HW211736   1.311   6.911   0.747
 3613SOL     OW11737   5.799   5.214   6.688
 3613SOL    HW111738   5.893   5.239   6.663
 3613SOL    HW211739   5.742   5.210   6.605
 3614SOL     OW11740   4.008   3.106   3.427
 3614SOL    HW111741   4.076   3.105   3.353
 3614SOL    HW211742   3.923   3.146   3.394
 3615SOL     OW11743   5.966   6.019   5.970
 3615SOL    HW111744   5.880   6.001   6.018
 3615SOL    HW211745   6.023   6.079   6.027
 3616SOL     OW11746   6.880   2.092   5.019
 3616SOL    HW111747   6.877   2.178   5.069
 3616SOL    HW211748   6.965   2.087   4.966
 3617SOL     OW11749   6.922   1.569   6.510
 3617SOL    HW111750   6.881   1.557   6.600
 3617SOL    HW211751   6.919   1.483   6.459
 3618SOL     OW11752   2.049   2.068   6.679
 3618SOL    HW111753   2.091   2.157   6.699
 3618SOL    HW211754   2.119   1.997   6.682
 3619SOL     OW11755   5.653   2.322   4.253
 3619SOL    HW111756   5.633   2.337   4.156
 3619SOL    HW211757   5.579   2.268   4.294
 3620SOL     OW11758   5.837   0.188   4.694
 3620SOL    HW111759   5.834   0.187   4.594
 3620SOL    HW211760   5.749   0.219   4.730
 3621SOL     OW11761   2.333   3.546   5.699
 3621SOL    HW111762   2.419   3.540   5.750
 3621SOL    HW211763   2.299   3.640   5.702
 3622SOL     OW11764   1.187   2.213   2.078
 3622SOL    HW111765   1.270   2.174   2.118
 3622SOL    HW211766   1.210   2.299   2.031
 3623SOL     OW11767   5.327   4.804   3.319
 3623SOL    HW111768   5.251   4.813   3.255
 3623SOL    HW211769   5.339   4.889   3.369
 3624SOL     OW11770   2.570   6.804   3.163
 3624SOL    HW111771   2.519   6.735   3.214
 3624SOL    HW211772   2.596   6.879   3.224
 3625SOL     OW11773   6.179   3.403   5.091
 3625SOL    HW111774   6.215   3.310   5.083
 3625SOL    HW211775   6.085   3.405   5.058
 3626SOL     OW11776   1.976   3.941   5.173
 3626SOL    HW111777   2.041   3.890   5.229
 3626SOL    HW211778   1.987   3.915   5.077
 3627SOL     OW11779   3.230   3.670   3.648
 3627SOL    HW111780   3.281   3.729   3.585
 3627SOL    HW211781   3.247   3.700   3.742
 3628SOL     OW11782   2.077   5.702   2.337
 3628SOL    HW111783   2.084   5.675   2.241
 3628SOL    HW211784   2.142   5.648   2.391
 3629SOL     OW11785   6.003   1.581   4.994
 3629SOL    HW111786   6.097   1.570   5.026
 3629SOL    HW211787   5.942   1.591   5.073
 3630SOL     OW11788   6.384   1.942   4.344
 3630SOL    HW111789   6.436   1.884   4.406
 3630SOL    HW211790   6.443   2.015   4.309
 3631SOL     OW11791   2.778   0.458   4.910
 3631SOL    HW111792   2.698   0.444   4.967
 3631SOL    HW211793   2.784   0.554   4.883
 3632SOL     OW11794   5.093   0.975   0.452
 3632SOL    HW111795   5.073   1.000   0.547
 3632SOL    HW211796   5.191   0.987   0.435
 3633SOL     OW11797   2.567   2.656   5.871
 3633SOL    HW111798   2.598   2.747   5.847
 3633SOL    HW211799   2.569   2.644   5.970
 3634SOL     OW11800   2.068   6.049   5.077
 3634SOL    HW111801   2.048   6.043   5.175
 3634SOL    HW211802   2.006   5.989   5.027
 3635SOL     OW11803   2.708   1.723   6.060
 3635SOL    HW111804   2.637   1.658   6.031
 3635SOL    HW211805   2.750   1.692   6.145
 3636SOL     OW11806   0.531   5.355   5.871
 3636SOL    HW111807   0.619   5.349   5.825
 3636SOL    HW211808   0.532   5.296   5.952
 3637SOL     OW11809   5.527   0.890   1.539
 3637SOL    HW111810   5.448   0.945   1.567
 3637SOL    HW211811   5.558   0.834   1.616
 3638SOL     OW11812   0.107   4.602   4.198
 3638SOL    HW111813   0.074   4.583   4.291
 3638SOL    HW211814   0.205   4.622   4.201
 3639SOL     OW11815   2.193   4.746   0.975
 3639SOL    HW111816   2.228   4.660   1.011
 3639SOL    HW211817   2.094   4.739   0.962
 3640SOL     OW11818   3.551   5.498   1.629
 3640SOL    HW111819   3.466   5.521   1.676
 3640SOL    HW211820   3.534   5.424   1.564
 3641SOL     OW11821   3.275   0.956   5.176
 3641SOL    HW111822   3.190   0.929   5.132
 3641SOL    HW211823   3.351   0.904   5.137
 3642SOL     OW11824   4.896   0.720   4.246
 3642SOL    HW111825   4.995   0.706   4.247
 3642SOL    HW211826   4.851   0.642   4.203
 3643SOL     OW11827   2.221   5.336   5.015
 3643SOL    HW111828   2.121   5.331   5.015
 3643SOL    HW211829   2.258   5.271   5.080
 3644SOL     OW11830   6.730   1.926   1.023
 3644SOL    HW111831   6.776   1.872   1.094
 3644SOL    HW211832   6.767   1.902   0.933
 3645SOL     OW11833   4.482   1.784   3.452
 3645SOL    HW111834   4.508   1.702   3.504
 3645SOL    HW211835   4.414   1.759   3.383
 3646SOL     OW11836   0.375   4.921   5.875
 3646SOL    HW111837   0.306   4.895   5.943
 3646SOL    HW211838   0.350   5.008   5.834
 3647SOL     OW11839   1.506   2.753   0.780
 3647SOL    HW111840   1.481   2.674   0.724
 3647SOL    HW211841   1.503   2.836   0.723
 3648SOL     OW11842   3.359   5.500   2.221
 3648SOL    HW111843   3.399   5.466   2.307
 3648SOL    HW211844   3.432   5.518   2.156
 3649SOL     OW11845   4.420   3.596   0.929
 3649SOL    HW111846   4.408   3.525   0.998
 3649SOL    HW211847   4.330   3.625   0.895
 3650SOL     OW11848   0.129   6.072   1.199
 3650SOL    HW111849   0.107   5.986   1.152
 3650SOL    HW211850   0.189   6.127   1.141
 3651SOL     OW11851   0.337   5.902   2.421
 3651SOL    HW111852   0.241   5.874   2.427
 3651SOL    HW211853   0.342   5.999   2.397
 3652SOL     OW11854   4.954   6.151   3.329
 3652SOL    HW111855   4.885   6.079   3.322
 3652SOL    HW211856   5.030   6.130   3.268
 3653SOL     OW11857   6.406   1.649   3.046
 3653SOL    HW111858   6.326   1.641   2.986
 3653SOL    HW211859   6.460   1.565   3.043
 3654SOL     OW11860   1.600   6.430   0.690
 3654SOL    HW111861   1.661   6.472   0.624
 3654SOL    HW211862   1.654   6.390   0.765
 3655SOL     OW11863   1.788   0.254   4.627
 3655SOL    HW111864   1.761   0.210   4.713
 3655SOL    HW211865   1.738   0.340   4.616
 3656SOL     OW11866   2.071   2.572   2.086
 3656SOL    HW111867   2.146   2.635   2.066
 3656SOL    HW211868   2.108   2.489   2.128
 3657SOL     OW11869   3.835   5.657   1.016
 3657SOL    HW111870   3.883   5.652   0.929
 3657SOL    HW211871   3.855   5.743   1.061
 3658SOL     OW11872   0.994   5.803   5.371
 3658SOL    HW111873   1.015   5.707   5.354
 3658SOL    HW211874   1.055   5.861   5.317
 3659SOL     OW11875   2.855   4.807   0.215
 3659SOL    HW111876   2.890   4.771   0.301
 3659SOL    HW211877   2.760   4.777   0.202
 3660SOL     OW11878   4.832   6.011   1.840
 3660SOL    HW111879   4.918   5.964   1.859
 3660SOL    HW211880   4.766   5.945   1.802
 3661SOL     OW11881   5.025   1.373   0.673
 3661SOL    HW111882   4.936   1.329   0.684
 3661SOL    HW211883   5.011   1.469   0.646
 3662SOL     OW11884   3.576   0.080   5.351
 3662SOL    HW111885   3.613   0.023   5.278
 3662SOL    HW211886   3.481   0.104   5.329
 3663SOL     OW11887   1.571   1.991   0.378
 3663SOL    HW111888   1.492   1.931   0.387
 3663SOL    HW211889   1.595   2.028   0.467
 3664SOL     OW11890   5.275   1.654   0.802
 3664SOL    HW111891   5.199   1.594   0.825
 3664SOL    HW211892   5.282   1.726   0.871
 3665SOL     OW11893   0.314   0.102   5.315
 3665SOL    HW111894   0.381   0.117   5.243
 3665SOL    HW211895   0.347   0.143   5.400
 3666SOL     OW11896   1.773   4.034   4.028
 3666SOL    HW111897   1.818   4.091   4.096
 3666SOL    HW211898   1.726   4.092   3.961
 3667SOL     OW11899   6.697   1.042   6.687
 3667SOL    HW111900   6.642   1.092   6.621
 3667SOL    HW211901   6.794   1.060   6.671
 3668SOL     OW11902   1.388   6.851   2.884
 3668SOL    HW111903   1.420   6.803   2.965
 3668SOL    HW211904   1.424   6.945   2.885
 3669SOL     OW11905   6.138   1.933   4.103
 3669SOL    HW111906   6.214   1.998   4.098
 3669SOL    HW211907   6.175   1.840   4.113
 3670SOL     OW11908   2.529   5.573   6.393
 3670SOL    HW111909   2.436   5.538   6.404
 3670SOL    HW211910   2.555   5.625   6.474
 3671SOL     OW11911   0.554   0.381   3.299
 3671SOL    HW111912   0.522   0.302   3.247
 3671SOL    HW211913   0.520   0.465   3.257
 3672SOL     OW11914   6.283   1.981   0.100
 3672SOL    HW111915   6.284   2.071   0.055
 3672SOL    HW211916   6.343   1.984   0.180
 3673SOL     OW11917   4.532   1.216   6.889
 3673SOL    HW111918   4.603   1.268   6.842
 3673SOL    HW211919   4.442   1.241   6.853
 3674SOL     OW11920   0.458   6.767   6.879
 3674SOL    HW111921   0.452   6.750   6.977
 3674SOL    HW211922   0.447   6.681   6.829
 3675SOL     OW11923   1.647   2.412   5.481
 3675SOL    HW111924   1.726   2.472   5.471
 3675SOL    HW211925   1.678   2.318   5.491
 3676SOL     OW11926   3.664   4.913   4.175
 3676SOL    HW111927   3.587   4.850   4.177
 3676SOL    HW211928   3.689   4.940   4.268
 3677SOL     OW11929   6.661   6.333   3.126
 3677SOL    HW111930   6.664   6.332   3.026
 3677SOL    HW211931   6.690   6.423   3.159
 3678SOL     OW11932   1.460   2.219   3.841
 3678SOL    HW111933   1.427   2.310   3.868
 3678SOL    HW211934   1.559   2.214   3.855
 3679SOL     OW11935   0.477   1.018   2.174
 3679SOL    HW111936   0.405   0.999   2.240
 3679SOL    HW211937   0.562   0.975   2.204
 3680SOL     OW11938   6.163   3.070   3.632
 3680SOL    HW111939   6.178   3.168   3.622
 3680SOL    HW211940   6.090   3.040   3.570
 3681SOL     OW11941   0.821   6.857   5.806
 3681SOL    HW111942   0.769   6.892   5.728
 3681SOL    HW211943   0.917   6.843   5.778
 3682SOL     OW11944   6.846   1.904   5.309
 3682SOL    HW111945   6.763   1.855   5.335
 3682SOL    HW211946   6.843   1.927   5.212
 3683SOL     OW11947   6.062   6.384   4.622
 3683SOL    HW111948   6.023   6.336   4.700
 3683SOL    HW211949   6.060   6.325   4.541
 3684SOL     OW11950   1.766   3.328   1.900
 3684SOL    HW111951   1.766   3.229   1.889
 3684SOL    HW211952   1.858   3.364   1.884
 3685SOL     OW11953   6.150   6.337   6.231
 3685SOL    HW111954   6.153   6.347   6.330
 3685SOL    HW211955   6.176   6.244   6.205
 3686SOL     OW11956   6.511   4.952   1.944
 3686SOL    HW111957   6.588   4.937   2.007
 3686SOL    HW211958   6.432   4.984   1.997
 3687SOL     OW11959   2.416   0.063   6.764
 3687SOL    HW111960   2.495   0.048   6.824
 3687SOL    HW211961   2.444   0.053   6.669
 3688SOL     OW11962   1.076   3.733   0.029
 3688SOL    HW111963   1.088   3.660   6.987
 3688SOL    HW211964   0.979   3.752   0.041
 3689SOL     OW11965   2.285   1.467   5.257
 3689SOL    HW111966   2.286   1.551   5.310
 3689SOL    HW211967   2.234   1.397   5.307
 3690SOL     OW11968   5.779   0.423   5.885
 3690SOL    HW111969   5.763   0.520   5.871
 3690SOL    HW211970   5.782   0.403   5.983
 3691SOL     OW11971   2.853   4.013   6.893
 3691SOL    HW111972   2.764   4.000   6.937
 3691SOL    HW211973   2.926   3.983   6.954
 3692SOL     OW11974   1.013   6.306   5.039
 3692SOL    HW111975   0.931   6.360   5.059
 3692SOL    HW211976   0.986   6.210   5.025
 3693SOL     OW11977   2.916   2.282   3.595
 3693SOL    HW111978   2.950   2.285   3.689
 3693SOL    HW211979   2.979   2.333   3.535
 3694SOL     OW11980   1.083   6.401   3.451
 3694SOL    HW111981   1.006   6.339   3.439
 3694SOL    HW211982   1.154   6.379   3.384
 3695SOL     OW11983   1.663   1.899   2.493
 3695SOL    HW111984   1.674   1.976   2.556
 3695SOL    HW211985   1.682   1.813   2.541
 3696SOL     OW11986   4.646   6.451   5.488
 3696SOL    HW111987   4.705   6.491   5.418
 3696SOL    HW211988   4.692   6.454   5.577
 3697SOL     OW11989   6.783   6.852   3.602
 3697SOL    HW111990   6.832   6.769   3.576
 3697SOL    HW211991   6.707   6.830   3.662
 3698SOL     OW11992   3.179   0.257   5.942
 3698SOL    HW111993   3.270   0.269   5.904
 3698SOL    HW211994   3.115   0.317   5.896
 3699SOL     OW11995   6.463   3.788   2.590
 3699SOL    HW111996   6.510   3.839   2.662
 3699SOL    HW211997   6.514   3.796   2.504
 3700SOL     OW11998   6.093   0.195   4.186
 3700SOL    HW111999   6.012   0.222   4.133
 3700SOL    HW212000   6.150   0.134   4.130
 3701SOL     OW12001   0.182   0.865   4.088
 3701SOL    HW112002   0.119   0.789   4.104
 3701SOL    HW212003   0.135   0.952   4.102
 3702SOL     OW12004   3.625   0.334   1.270
 3702SOL    HW112005   3.585   0.336   1.179
 3702SOL    HW212006   3.585   0.260   1.323
 3703SOL     OW12007   4.124   4.718   6.261
 3703SOL    HW112008   4.136   4.677   6.170
 3703SOL    HW212009   4.095   4.813   6.250
 3704SOL     OW12010   2.694   1.058   2.600
 3704SOL    HW112011   2.762   1.028   2.533
 3704SOL    HW212012   2.731   1.046   2.692
 3705SOL     OW12013   5.043   0.365   3.621
 3705SOL    HW112014   5.125   0.421   3.611
 3705SOL    HW212015   5.068   0.270   3.638
 3706SOL     OW12016   1.870   3.346   4.182
 3706SOL    HW112017   1.858   3.277   4.111
 3706SOL    HW212018   1.892   3.301   4.269
 3707SOL     OW12019   4.992   2.203   5.885
 3707SOL    HW112020   5.053   2.248   5.950
 3707SOL    HW212021   5.042   2.130   5.838
 3708SOL     OW12022   6.076   0.745   6.820
 3708SOL    HW112023   6.032   0.834   6.830
 3708SOL    HW212024   6.097   0.728   6.724
 3709SOL     OW12025   3.800   0.915   5.789
 3709SOL    HW112026   3.706   0.891   5.816
 3709SOL    HW212027   3.798   0.978   5.712
 3710SOL     OW12028   6.335   5.295   0.380
 3710SOL    HW112029   6.281   5.345   0.448
 3710SOL    HW212030   6.275   5.232   0.330
 3711SOL     OW12031   0.306   6.313   2.071
 3711SOL    HW112032   0.405   6.300   2.071
 3711SOL    HW212033   0.278   6.360   2.154
 3712SOL     OW12034   0.516   6.496   6.444
 3712SOL    HW112035   0.608   6.532   6.427
 3712SOL    HW212036   0.465   6.490   6.358
 3713SOL     OW12037   2.790   5.966   5.069
 3713SOL    HW112038   2.693   5.958   5.049
 3713SOL    HW212039   2.836   5.881   5.043
 3714SOL     OW12040   4.385   7.014   4.482
 3714SOL    HW112041   4.343   6.929   4.453
 3714SOL    HW212042   4.424   7.003   4.574
 3715SOL     OW12043   5.086   4.933   4.191
 3715SOL    HW112044   5.129   5.019   4.217
 3715SOL    HW212045   5.042   4.892   4.271
 3716SOL     OW12046   6.707   0.290   4.475
 3716SOL    HW112047   6.775   0.243   4.531
 3716SOL    HW212048   6.675   0.371   4.524
 3717SOL     OW12049   6.211   5.661   0.513
 3717SOL    HW112050   6.184   5.565   0.515
 3717SOL    HW212051   6.143   5.716   0.561
 3718SOL     OW12052   1.041   6.464   0.106
 3718SOL    HW112053   1.053   6.511   0.194
 3718SOL    HW212054   1.092   6.378   0.107
 3719SOL     OW12055   4.848   4.935   0.423
 3719SOL    HW112056   4.826   4.855   0.365
 3719SOL    HW212057   4.947   4.940   0.437
 3720SOL     OW12058   6.883   1.643   6.208
 3720SOL    HW112059   6.891   1.577   6.283
 3720SOL    HW212060   6.898   1.735   6.243
 3721SOL     OW12061   5.844   4.586   0.358
 3721SOL    HW112062   5.824   4.654   0.429
 3721SOL    HW212063   5.845   4.495   0.399
 3722SOL     OW12064   0.080   5.793   2.465
 3722SOL    HW112065   0.054   5.699   2.486
 3722SOL    HW212066   0.001   5.843   2.431
 3723SOL     OW12067   5.353   6.766   1.787
 3723SOL    HW112068   5.391   6.838   1.728
 3723SOL    HW212069   5.421   6.694   1.799
 3724SOL     OW12070   0.891   5.446   0.684
 3724SOL    HW112071   0.963   5.451   0.614
 3724SOL    HW212072   0.819   5.384   0.654
 3725SOL     OW12073   6.738   6.085   6.765
 3725SOL    HW112074   6.801   6.061   6.839
 3725SOL    HW212075   6.788   6.091   6.679
 3726SOL     OW12076   5.531   3.753   2.137
 3726SOL    HW112077   5.570   3.699   2.211
 3726SOL    HW212078   5.551   3.850   2.151
 3727SOL     OW12079   1.438   2.896   5.260
 3727SOL    HW112080   1.507   2.965   5.237
 3727SOL    HW212081   1.477   2.805   5.252
 3728SOL     OW12082   2.151   3.304   0.042
 3728SOL    HW112083   2.205   3.231   7.024
 3728SOL    HW212084   2.099   3.353   6.997
 3729SOL     OW12085   1.021   2.081   3.639
 3729SOL    HW112086   1.064   2.159   3.684
 3729SOL    HW212087   1.011   2.005   3.704
 3730SOL     OW12088   2.839   0.801   6.908
 3730SOL    HW112089   2.851   0.739   6.985
 3730SOL    HW212090   2.889   0.886   6.924
 3731SOL     OW12091   4.369   0.849   0.721
 3731SOL    HW112092   4.467   0.846   0.738
 3731SOL    HW212093   4.350   0.914   0.647
 3732SOL     OW12094   1.937   3.475   5.591
 3732SOL    HW112095   1.937   3.537   5.512
 3732SOL    HW212096   1.859   3.412   5.582
 3733SOL     OW12097   2.526   3.907   1.345
 3733SOL    HW112098   2.433   3.940   1.357
 3733SOL    HW212099   2.578   3.923   1.429
 3734SOL     OW12100   4.351   1.292   2.577
 3734SOL    HW112101   4.398   1.258   2.658
 3734SOL    HW212102   4.407   1.362   2.532
 3735SOL     OW12103   2.107   2.581   2.770
 3735SOL    HW112104   2.152   2.574   2.681
 3735SOL    HW212105   2.086   2.677   2.789
 3736SOL     OW12106   6.497   2.669   0.964
 3736SOL    HW112107   6.472   2.753   0.917
 3736SOL    HW212108   6.558   2.615   0.905
 3737SOL     OW12109   5.146   0.217   2.992
 3737SOL    HW112110   5.178   0.292   2.934
 3737SOL    HW212111   5.210   0.141   2.986
 3738SOL     OW12112   6.085   6.141   3.773
 3738SOL    HW112113   6.071   6.205   3.848
 3738SOL    HW212114   6.032   6.171   3.693
 3739SOL     OW12115   1.172   3.845   2.418
 3739SOL    HW112116   1.194   3.912   2.489
 3739SOL    HW212117   1.073   3.836   2.409
 3740SOL     OW12118   5.118   1.469   6.647
 3740SOL    HW112119   5.090   1.561   6.673
 3740SOL    HW212120   5.153   1.420   6.727
 3741SOL     OW12121   4.920   3.011   1.045
 3741SOL    HW112122   4.821   3.005   1.054
 3741SOL    HW212123   4.955   3.086   1.101
 3742SOL     OW12124   3.747   2.134   6.163
 3742SOL    HW112125   3.742   2.034   6.173
 3742SOL    HW212126   3.727   2.158   6.068
 3743SOL     OW12127   6.907   5.100   0.168
 3743SOL    HW112128   6.867   5.020   0.212
 3743SOL    HW212129   6.920   5.083   0.071
 3744SOL     OW12130   6.866   4.967   3.889
 3744SOL    HW112131   6.957   4.968   3.929
 3744SOL    HW212132   6.849   4.879   3.845
 3745SOL     OW12133   3.626   5.604   2.518
 3745SOL    HW112134   3.560   5.679   2.522
 3745SOL    HW212135   3.705   5.627   2.575
 3746SOL     OW12136   4.556   2.188   1.641
 3746SOL    HW112137   4.586   2.092   1.646
 3746SOL    HW212138   4.519   2.216   1.729
 3747SOL     OW12139   3.299   0.045   6.917
 3747SOL    HW112140   3.262   0.088   6.835
 3747SOL    HW212141   3.286   6.971   6.913
 3748SOL     OW12142   5.989   0.680   1.226
 3748SOL    HW112143   6.016   0.584   1.233
 3748SOL    HW212144   5.916   0.689   1.158
 3749SOL     OW12145   1.587   6.783   4.436
 3749SOL    HW112146   1.581   6.841   4.355
 3749SOL    HW212147   1.533   6.824   4.510
 3750SOL     OW12148   0.236   3.682   0.383
 3750SOL    HW112149   0.163   3.662   0.318
 3750SOL    HW212150   0.216   3.637   0.470
 3751SOL     OW12151   0.221   4.396   2.944
 3751SOL    HW112152   0.316   4.388   2.914
 3751SOL    HW212153   0.187   4.306   2.971
 3752SOL     OW12154   6.407   1.167   5.557
 3752SOL    HW112155   6.409   1.113   5.473
 3752SOL    HW212156   6.388   1.263   5.536
 3753SOL     OW12157   6.468   0.987   3.689
 3753SOL    HW112158   6.384   1.034   3.719
 3753SOL    HW212159   6.515   1.043   3.622
 3754SOL     OW12160   1.831   1.614   1.614
 3754SOL    HW112161   1.820   1.647   1.520
 3754SOL    HW212162   1.838   1.691   1.676
 3755SOL     OW12163   2.770   5.063   4.440
 3755SOL    HW112164   2.770   4.982   4.498
 3755SOL    HW212165   2.684   5.067   4.389
 3756SOL     OW12166   2.645   6.424   7.018
 3756SOL    HW112167   2.647   6.329   0.023
 3756SOL    HW212168   2.568   6.471   0.037
 3757SOL     OW12169   6.316   4.581   1.428
 3757SOL    HW112170   6.310   4.507   1.495
 3757SOL    HW212171   6.392   4.641   1.451
 3758SOL     OW12172   1.977   0.107   3.170
 3758SOL    HW112173   2.027   0.128   3.086
 3758SOL    HW212174   1.881   0.090   3.148
 3759SOL     OW12175   5.224   0.758   4.342
 3759SOL    HW112176   5.299   0.707   4.299
 3759SOL    HW212177   5.237   0.855   4.327
 3760SOL     OW12178   0.087   0.584   3.419
 3760SOL    HW112179   0.129   0.496   3.443
 3760SOL    HW212180   0.087   0.593   3.319
 3761SOL     OW12181   5.490   1.188   3.944
 3761SOL    HW112182   5.531   1.131   3.872
 3761SOL    HW212183   5.553   1.195   4.021
 3762SOL     OW12184   0.951   3.838   2.780
 3762SOL    HW112185   1.002   3.906   2.832
 3762SOL    HW212186   0.991   3.748   2.796
 3763SOL     OW12187   6.996   4.440   0.369
 3763SOL    HW112188   6.902   4.461   0.397
 3763SOL    HW212189   7.006   4.341   0.357
 3764SOL     OW12190   2.120   0.084   2.885
 3764SOL    HW112191   2.114   0.097   2.786
 3764SOL    HW212192   2.163   0.164   2.926
 3765SOL     OW12193   6.004   1.856   2.091
 3765SOL    HW112194   6.012   1.795   2.012
 3765SOL    HW212195   5.958   1.940   2.063
 3766SOL     OW12196   1.510   4.207   3.193
 3766SOL    HW112197   1.574   4.166   3.258
 3766SOL    HW212198   1.555   4.219   3.104
 3767SOL     OW12199   2.676   5.057   6.412
 3767SOL    HW112200   2.617   5.039   6.333
 3767SOL    HW212201   2.619   5.082   6.490
 3768SOL     OW12202   1.625   0.220   5.110
 3768SOL    HW112203   1.715   0.246   5.076
 3768SOL    HW212204   1.571   0.302   5.127
 3769SOL     OW12205   4.920   6.167   4.559
 3769SOL    HW112206   4.954   6.074   4.543
 3769SOL    HW212207   4.939   6.194   4.653
 3770SOL     OW12208   0.683   0.924   0.283
 3770SOL    HW112209   0.644   0.835   0.261
 3770SOL    HW212210   0.638   0.995   0.229
 3771SOL     OW12211   0.709   4.849   0.242
 3771SOL    HW112212   0.642   4.829   0.314
 3771SOL    HW212213   0.707   4.947   0.221
 3772SOL     OW12214   1.484   5.641   0.696
 3772SOL    HW112215   1.504   5.654   0.794
 3772SOL    HW212216   1.467   5.730   0.654
 3773SOL     OW12217   5.852   3.377   5.879
 3773SOL    HW112218   5.848   3.342   5.973
 3773SOL    HW212219   5.784   3.329   5.823
 3774SOL     OW12220   5.357   5.987   1.440
 3774SOL    HW112221   5.406   5.903   1.463
 3774SOL    HW212222   5.312   5.977   1.352
 3775SOL     OW12223   4.270   4.807   3.469
 3775SOL    HW112224   4.328   4.888   3.465
 3775SOL    HW212225   4.262   4.768   3.377
 3776SOL     OW12226   3.325   2.469   6.900
 3776SOL    HW112227   3.357   2.374   6.892
 3776SOL    HW212228   3.276   2.495   6.817
 3777SOL     OW12229   3.040   6.104   4.505
 3777SOL    HW112230   2.991   6.078   4.421
 3777SOL    HW212231   3.039   6.204   4.514
 3778SOL     OW12232   3.008   5.346   5.125
 3778SOL    HW112233   3.088   5.297   5.160
 3778SOL    HW212234   2.955   5.286   5.066
 3779SOL     OW12235   0.149   5.195   7.022
 3779SOL    HW112236   0.063   5.150   6.996
 3779SOL    HW212237   0.160   5.191   0.096
 3780SOL     OW12238   6.644   3.677   1.012
 3780SOL    HW112239   6.671   3.686   1.107
 3780SOL    HW212240   6.550   3.646   1.006
 3781SOL     OW12241   2.337   6.368   5.243
 3781SOL    HW112242   2.415   6.311   5.219
 3781SOL    HW212243   2.311   6.423   5.164
 3782SOL     OW12244   5.023   5.947   1.420
 3782SOL    HW112245   5.092   5.923   1.489
 3782SOL    HW212246   5.008   5.868   1.360
 3783SOL     OW12247   5.798   4.972   5.359
 3783SOL    HW112248   5.760   4.971   5.267
 3783SOL    HW212249   5.838   5.062   5.378
 3784SOL     OW12250   5.489   2.545   3.620
 3784SOL    HW112251   5.579   2.586   3.634
 3784SOL    HW212252   5.494   2.447   3.642
 3785SOL     OW12253   1.141   3.911   4.389
 3785SOL    HW112254   1.046   3.884   4.373
 3785SOL    HW212255   1.195   3.830   4.411
 3786SOL     OW12256   2.497   2.562   4.429
 3786SOL    HW112257   2.594   2.540   4.413
 3786SOL    HW212258   2.469   2.526   4.518
 3787SOL     OW12259   4.539   6.962   3.030
 3787SOL    HW112260   4.558   6.976   2.933
 3787SOL    HW212261   4.487   0.015   3.065
 3788SOL     OW12262   0.266   2.670   5.345
 3788SOL    HW112263   0.286   2.707   5.436
 3788SOL    HW212264   0.352   2.657   5.295
 3789SOL     OW12265   1.808   2.901   2.764
 3789SOL    HW112266   1.775   2.995   2.756
 3789SOL    HW212267   1.858   2.891   2.851
 3790SOL     OW12268   0.302   6.925   0.793
 3790SOL    HW112269   0.380   6.979   0.824
 3790SOL    HW212270   0.223   6.985   0.780
 3791SOL     OW12271   5.637   1.240   6.215
 3791SOL    HW112272   5.677   1.264   6.126
 3791SOL    HW212273   5.596   1.149   6.209
 3792SOL     OW12274   0.701   0.547   3.756
 3792SOL    HW112275   0.694   0.634   3.707
 3792SOL    HW212276   0.767   0.556   3.831
 3793SOL     OW12277   5.777   5.976   0.106
 3793SOL    HW112278   5.867   6.018   0.101
 3793SOL    HW212279   5.748   5.970   0.201
 3794SOL     OW12280   2.055   4.199   0.083
 3794SOL    HW112281   2.118   4.162   0.015
 3794SOL    HW212282   1.999   4.125   0.121
 3795SOL     OW12283   2.926   5.610   1.429
 3795SOL    HW112284   2.949   5.702   1.462
 3795SOL    HW212285   2.977   5.542   1.482
 3796SOL     OW12286   3.911   2.504   6.664
 3796SOL    HW112287   3.830   2.482   6.611
 3796SOL    HW212288   3.968   2.569   6.613
 3797SOL     OW12289   0.682   4.661   3.180
 3797SOL    HW112290   0.723   4.639   3.091
 3797SOL    HW212291   0.700   4.757   3.201
 3798SOL     OW12292   2.263   6.549   3.042
 3798SOL    HW112293   2.215   6.465   3.021
 3798SOL    HW212294   2.239   6.619   2.975
 3799SOL     OW12295   0.148   2.259   2.940
 3799SOL    HW112296   0.066   2.314   2.952
 3799SOL    HW212297   0.122   2.165   2.914
 3800SOL     OW12298   6.000   1.923   2.820
 3800SOL    HW112299   5.920   1.974   2.788
 3800SOL    HW212300   6.039   1.970   2.900
 3801SOL     OW12301   5.451   0.009   2.020
 3801SOL    HW112302   5.409   0.036   1.933
 3801SOL    HW212303   5.429   0.078   2.090
 3802SOL     OW12304   6.258   1.932   2.249
 3802SOL    HW112305   6.342   1.909   2.199
 3802SOL    HW212306   6.182   1.877   2.215
 3803SOL     OW12307   2.928   3.652   4.490
 3803SOL    HW112308   2.933   3.579   4.422
 3803SOL    HW212309   2.858   3.718   4.463
 3804SOL     OW12310   3.587   6.732   4.622
 3804SOL    HW112311   3.612   6.733   4.719
 3804SOL    HW212312   3.609   6.821   4.581
 3805SOL     OW12313   2.301   2.911   0.066
 3805SOL    HW112314   2.210   2.871   0.055
 3805SOL    HW212315   2.317   2.931   0.163
 3806SOL     OW12316   3.581   4.203   6.952
 3806SOL    HW112317   3.551   4.228   0.019
 3806SOL    HW212318   3.639   4.121   6.957
 3807SOL     OW12319   1.570   4.616   4.085
 3807SOL    HW112320   1.473   4.603   4.064
 3807SOL    HW212321   1.598   4.709   4.064
 3808SOL     OW12322   4.390   6.921   5.865
 3808SOL    HW112323   4.328   6.858   5.913
 3808SOL    HW212324   4.437   6.978   5.933
 3809SOL     OW12325   5.178   2.213   1.611
 3809SOL    HW112326   5.152   2.193   1.516
 3809SOL    HW212327   5.096   2.217   1.668
 3810SOL     OW12328   6.802   2.300   2.249
 3810SOL    HW112329   6.853   2.237   2.308
 3810SOL    HW212330   6.848   2.307   2.161
 3811SOL     OW12331   6.428   5.297   4.823
 3811SOL    HW112332   6.419   5.392   4.793
 3811SOL    HW212333   6.525   5.275   4.834
 3812SOL     OW12334   3.789   6.409   6.909
 3812SOL    HW112335   3.753   6.322   6.940
 3812SOL    HW212336   3.868   6.434   6.966
 3813SOL     OW12337   6.565   3.771   0.308
 3813SOL    HW112338   6.479   3.810   0.343
 3813SOL    HW212339   6.596   3.698   0.369
 3814SOL     OW12340   6.834   0.303   4.248
 3814SOL    HW112341   6.765   0.300   4.321
 3814SOL    HW212342   6.837   0.395   4.210
 3815SOL     OW12343   4.730   3.316   0.175
 3815SOL    HW112344   4.827   3.342   0.175
 3815SOL    HW212345   4.711   3.255   0.098
 3816SOL     OW12346   1.366   5.888   6.506
 3816SOL    HW112347   1.350   5.789   6.512
 3816SOL    HW212348   1.354   5.918   6.411
 3817SOL     OW12349   5.316   3.492   2.334
 3817SOL    HW112350   5.390   3.457   2.278
 3817SOL    HW212351   5.351   3.518   2.424
 3818SOL     OW12352   0.326   0.730   1.983
 3818SOL    HW112353   0.260   0.656   1.974
 3818SOL    HW212354   0.375   0.721   2.070
 3819SOL     OW12355   6.134   5.070   3.901
 3819SOL    HW112356   6.073   5.094   3.977
 3819SOL    HW212357   6.082   5.027   3.828
 3820SOL     OW12358   5.471   0.311   4.297
 3820SOL    HW112359   5.413   0.361   4.361
 3820SOL    HW212360   5.548   0.269   4.347
 3821SOL     OW12361   0.698   0.158   6.913
 3821SOL    HW112362   0.623   0.109   6.868
 3821SOL    HW212363   0.706   0.125   7.007
 3822SOL     OW12364   3.529   1.209   0.094
 3822SOL    HW112365   3.613   1.167   0.129
 3822SOL    HW212366   3.486   1.149   0.027
 3823SOL     OW12367   4.920   4.525   6.054
 3823SOL    HW112368   5.009   4.496   6.021
 3823SOL    HW212369   4.874   4.579   5.984
 3824SOL     OW12370   1.675   3.357   0.454
 3824SOL    HW112371   1.726   3.271   0.448
 3824SOL    HW212372   1.733   3.427   0.496
 3825SOL     OW12373   1.671   3.639   6.331
 3825SOL    HW112374   1.733   3.639   6.253
 3825SOL    HW212375   1.724   3.631   6.416
 3826SOL     OW12376   5.489   4.060   2.595
 3826SOL    HW112377   5.513   4.148   2.553
 3826SOL    HW212378   5.514   3.986   2.532
 3827SOL     OW12379   1.216   1.090   1.556
 3827SOL    HW112380   1.205   1.060   1.651
 3827SOL    HW212381   1.184   1.018   1.494
 3828SOL     OW12382   3.820   4.103   4.789
 3828SOL    HW112383   3.887   4.030   4.776
 3828SOL    HW212384   3.808   4.152   4.702
 3829SOL     OW12385   0.112   4.499   2.559
 3829SOL    HW112386   0.063   4.414   2.543
 3829SOL    HW212387   0.163   4.525   2.477
 3830SOL     OW12388   0.397   0.866   4.701
 3830SOL    HW112389   0.471   0.872   4.634
 3830SOL    HW212390   0.346   0.951   4.703
 3831SOL     OW12391   4.744   1.804   3.359
 3831SOL    HW112392   4.646   1.817   3.374
 3831SOL    HW212393   4.790   1.793   3.448
 3832SOL     OW12394   0.962   0.519   2.278
 3832SOL    HW112395   0.924   0.498   2.368
 3832SOL    HW212396   0.979   0.434   2.228
 3833SOL     OW12397   1.086   0.033   6.454
 3833SOL    HW112398   1.124   0.111   6.504
 3833SOL    HW212399   1.090   6.976   6.511
 3834SOL     OW12400   4.946   3.779   1.424
 3834SOL    HW112401   5.027   3.792   1.367
 3834SOL    HW212402   4.884   3.714   1.379
 3835SOL     OW12403   3.716   6.187   5.495
 3835SOL    HW112404   3.811   6.156   5.501
 3835SOL    HW212405   3.655   6.108   5.499
 3836SOL     OW12406   0.320   5.073   6.436
 3836SOL    HW112407   0.249   5.030   6.492
 3836SOL    HW212408   0.367   5.003   6.382
 3837SOL     OW12409   4.024   4.894   4.984
 3837SOL    HW112410   4.051   4.988   4.962
 3837SOL    HW212411   4.067   4.831   4.920
 3838SOL     OW12412   2.028   1.080   3.361
 3838SOL    HW112413   2.008   0.987   3.330
 3838SOL    HW212414   1.987   1.145   3.297
 3839SOL     OW12415   4.366   0.167   3.116
 3839SOL    HW112416   4.287   0.152   3.175
 3839SOL    HW212417   4.339   0.224   3.038
 3840SOL     OW12418   2.529   0.687   0.430
 3840SOL    HW112419   2.470   0.767   0.440
 3840SOL    HW212420   2.478   0.604   0.453
 3841SOL     OW12421   6.074   4.880   4.084
 3841SOL    HW112422   6.136   4.922   4.018
 3841SOL    HW212423   6.012   4.817   4.037
 3842SOL     OW12424   2.419   2.712   5.059
 3842SOL    HW112425   2.446   2.712   5.155
 3842SOL    HW212426   2.376   2.800   5.036
 3843SOL     OW12427   5.053   2.999   0.486
 3843SOL    HW112428   5.099   2.972   0.570
 3843SOL    HW212429   5.120   3.005   0.412
 3844SOL     OW12430   1.298   5.219   0.105
 3844SOL    HW112431   1.299   5.126   0.144
 3844SOL    HW212432   1.391   5.257   0.109
 3845SOL     OW12433   2.210   6.493   0.615
 3845SOL    HW112434   2.117   6.469   0.641
 3845SOL    HW212435   2.219   6.592   0.607
 3846SOL     OW12436   0.991   3.240   4.301
 3846SOL    HW112437   1.044   3.158   4.281
 3846SOL    HW212438   1.010   3.270   4.394
 3847SOL     OW12439   6.254   1.477   5.094
 3847SOL    HW112440   6.286   1.382   5.092
 3847SOL    HW212441   6.324   1.535   5.136
 3848SOL     OW12442   4.887   3.514   2.582
 3848SOL    HW112443   4.870   3.581   2.509
 3848SOL    HW212444   4.930   3.559   2.660
 3849SOL     OW12445   0.368   5.872   5.907
 3849SOL    HW112446   0.355   5.940   5.835
 3849SOL    HW212447   0.466   5.859   5.923
 3850SOL     OW12448   2.919   2.054   1.625
 3850SOL    HW112449   2.921   1.999   1.542
 3850SOL    HW212450   2.965   2.141   1.609
 3851SOL     OW12451   0.073   5.463   3.515
 3851SOL    HW112452   0.143   5.461   3.587
 3851SOL    HW212453   0.020   5.547   3.522
 3852SOL     OW12454   2.798   6.707   4.312
 3852SOL    HW112455   2.897   6.715   4.328
 3852SOL    HW212456   2.755   6.796   4.327
 3853SOL     OW12457   2.103   1.470   3.892
 3853SOL    HW112458   2.083   1.472   3.990
 3853SOL    HW212459   2.132   1.378   3.866
 3854SOL     OW12460   1.872   2.515   2.640
 3854SOL    HW112461   1.964   2.536   2.673
 3854SOL    HW212462   1.874   2.501   2.541
 3855SOL     OW12463   4.601   6.403   0.273
 3855SOL    HW112464   4.617   6.501   0.280
 3855SOL    HW212465   4.663   6.354   0.334
 3856SOL     OW12466   6.870   2.177   5.979
 3856SOL    HW112467   6.957   2.191   6.027
 3856SOL    HW212468   6.885   2.118   5.899
 3857SOL     OW12469   2.421   0.296   5.997
 3857SOL    HW112470   2.403   0.206   6.037
 3857SOL    HW212471   2.337   0.350   5.998
 3858SOL     OW12472   3.453   1.657   5.286
 3858SOL    HW112473   3.533   1.717   5.277
 3858SOL    HW212474   3.398   1.662   5.202
 3859SOL     OW12475   5.448   0.280   0.996
 3859SOL    HW112476   5.522   0.232   1.043
 3859SOL    HW212477   5.391   0.326   1.063
 3860SOL     OW12478   2.011   0.671   4.418
 3860SOL    HW112479   2.093   0.678   4.474
 3860SOL    HW212480   2.019   0.594   4.355
 3861SOL     OW12481   4.423   5.267   2.402
 3861SOL    HW112482   4.404   5.182   2.353
 3861SOL    HW212483   4.372   5.267   2.488
 3862SOL     OW12484   0.230   0.050   4.296
 3862SOL    HW112485   0.291   0.113   4.247
 3862SOL    HW212486   0.280   6.993   4.321
 3863SOL     OW12487   4.288   0.684   6.937
 3863SOL    HW112488   4.245   0.594   6.933
 3863SOL    HW212489   4.385   0.674   6.958
 3864SOL     OW12490   2.387   0.642   5.042
 3864SOL    HW112491   2.392   0.644   5.142
 3864SOL    HW212492   2.298   0.676   5.012
 3865SOL     OW12493   4.938   0.867   0.012
 3865SOL    HW112494   4.977   0.837   6.951
 3865SOL    HW212495   4.860   0.809   0.036
 3866SOL     OW12496   3.368   2.153   0.158
 3866SOL    HW112497   3.275   2.132   0.129
 3866SOL    HW212498   3.366   2.229   0.223
 3867SOL     OW12499   1.335   4.539   3.224
 3867SOL    HW112500   1.401   4.511   3.294
 3867SOL    HW212501   1.361   4.497   3.137
 3868SOL     OW12502   3.772   0.548   6.433
 3868SOL    HW112503   3.755   0.468   6.489
 3868SOL    HW212504   3.697   0.560   6.368
 3869SOL     OW12505   6.699   3.718   3.689
 3869SOL    HW112506   6.681   3.699   3.785
 3869SOL    HW212507   6.779   3.777   3.680
 3870SOL     OW12508   6.559   0.186   2.912
 3870SOL    HW112509   6.486   0.224   2.855
 3870SOL    HW212510   6.594   0.103   2.870
 3871SOL     OW12511   3.134   6.165   3.591
 3871SOL    HW112512   3.136   6.211   3.502
 3871SOL    HW212513   3.058   6.101   3.594
 3872SOL     OW12514   3.312   3.315   4.150
 3872SOL    HW112515   3.235   3.253   4.166
 3872SOL    HW212516   3.298   3.363   4.063
 3873SOL     OW12517   5.256   3.620   0.393
 3873SOL    HW112518   5.209   3.646   0.477
 3873SOL    HW212519   5.319   3.545   0.413
 3874SOL     OW12520   4.456   7.013   0.366
 3874SOL    HW112521   4.506   0.059   0.417
 3874SOL    HW212522   4.407   6.954   0.431
 3875SOL     OW12523   1.997   2.965   4.391
 3875SOL    HW112524   2.067   2.978   4.460
 3875SOL    HW212525   1.980   3.050   4.342
 3876SOL     OW12526   3.679   6.190   0.147
 3876SOL    HW112527   3.703   6.168   0.052
 3876SOL    HW212528   3.727   6.128   0.209
 3877SOL     OW12529   6.757   2.220   0.625
 3877SOL    HW112530   6.681   2.284   0.614
 3877SOL    HW212531   6.826   2.261   0.684
 3878SOL     OW12532   5.051   0.093   4.366
 3878SOL    HW112533   5.003   0.168   4.321
 3878SOL    HW212534   5.082   0.027   4.297
 3879SOL     OW12535   5.350   5.051   0.209
 3879SOL    HW112536   5.375   5.015   0.299
 3879SOL    HW212537   5.413   5.124   0.184
 3880SOL     OW12538   5.159   3.905   4.725
 3880SOL    HW112539   5.249   3.910   4.681
 3880SOL    HW212540   5.127   3.810   4.724
 3881SOL     OW12541   1.342   3.213   0.899
 3881SOL    HW112542   1.319   3.310   0.895
 3881SOL    HW212543   1.349   3.184   0.995
 3882SOL     OW12544   1.376   1.189   0.167
 3882SOL    HW112545   1.278   1.207   0.179
 3882SOL    HW212546   1.428   1.272   0.186
 3883SOL     OW12547   4.757   0.510   2.725
 3883SOL    HW112548   4.851   0.531   2.753
 3883SOL    HW212549   4.757   0.477   2.631
 3884SOL     OW12550   0.655   6.301   3.144
 3884SOL    HW112551   0.678   6.350   3.060
 3884SOL    HW212552   0.636   6.367   3.217
 3885SOL     OW12553   5.748   6.585   3.304
 3885SOL    HW112554   5.836   6.626   3.328
 3885SOL    HW212555   5.696   6.649   3.248
 3886SOL     OW12556   4.549   5.691   5.783
 3886SOL    HW112557   4.542   5.779   5.736
 3886SOL    HW212558   4.562   5.618   5.715
 3887SOL     OW12559   0.713   6.670   0.265
 3887SOL    HW112560   0.785   6.719   0.313
 3887SOL    HW212561   0.746   6.639   0.176
 3888SOL     OW12562   5.673   6.344   4.542
 3888SOL    HW112563   5.585   6.298   4.527
 3888SOL    HW212564   5.688   6.355   4.641
 3889SOL     OW12565   6.374   2.392   6.645
 3889SOL    HW112566   6.355   2.490   6.651
 3889SOL    HW212567   6.289   2.342   6.627
 3890SOL     OW12568   5.511   4.544   4.233
 3890SOL    HW112569   5.543   4.458   4.273
 3890SOL    HW212570   5.451   4.591   4.299
 3891SOL     OW12571   4.850   3.835   3.368
 3891SOL    HW112572   4.840   3.921   3.317
 3891SOL    HW212573   4.775   3.826   3.433
 3892SOL     OW12574   0.475   3.138   1.250
 3892SOL    HW112575   0.450   3.213   1.188
 3892SOL    HW212576   0.418   3.143   1.332
 3893SOL     OW12577   4.283   3.484   1.363
 3893SOL    HW112578   4.340   3.482   1.445
 3893SOL    HW212579   4.258   3.578   1.342
 3894SOL     OW12580   5.355   0.725   6.634
 3894SOL    HW112581   5.446   0.741   6.597
 3894SOL    HW212582   5.360   0.709   6.732
 3895SOL     OW12583   1.887   0.264   4.990
 3895SOL    HW112584   1.967   0.322   5.005
 3895SOL    HW212585   1.837   0.295   4.909
 3896SOL     OW12586   0.486   1.032   6.527
 3896SOL    HW112587   0.439   0.944   6.526
 3896SOL    HW212588   0.510   1.056   6.621
 3897SOL     OW12589   4.256   5.670   2.406
 3897SOL    HW112590   4.200   5.588   2.392
 3897SOL    HW212591   4.333   5.668   2.343
 3898SOL     OW12592   3.583   2.775   0.211
 3898SOL    HW112593   3.643   2.854   0.223
 3898SOL    HW212594   3.633   2.692   0.236
 3899SOL     OW12595   4.730   6.860   6.077
 3899SOL    HW112596   4.674   6.785   6.041
 3899SOL    HW212597   4.821   6.855   6.036
 3900SOL     OW12598   5.409   2.876   3.883
 3900SOL    HW112599   5.440   2.787   3.917
 3900SOL    HW212600   5.425   2.881   3.784
 3901SOL     OW12601   3.472   0.967   6.355
 3901SOL    HW112602   3.492   0.894   6.291
 3901SOL    HW212603   3.552   1.026   6.365
 3902SOL     OW12604   5.979   3.335   1.933
 3902SOL    HW112605   6.074   3.318   1.959
 3902SOL    HW212606   5.952   3.272   1.860
 3903SOL     OW12607   3.707   6.466   0.201
 3903SOL    HW112608   3.732   6.371   0.183
 3903SOL    HW212609   3.663   6.472   0.291
 3904SOL     OW12610   1.659   0.184   6.657
 3904SOL    HW112611   1.636   0.231   6.742
 3904SOL    HW212612   1.744   0.132   6.669
 3905SOL     OW12613   6.773   6.644   5.890
 3905SOL    HW112614   6.766   6.743   5.881
 3905SOL    HW212615   6.848   6.621   5.951
 3906SOL     OW12616   5.779   6.963   5.724
 3906SOL    HW112617   5.816   0.029   5.740
 3906SOL    HW212618   5.839   6.894   5.764
 3907SOL     OW12619   6.219   0.940   4.001
 3907SOL    HW112620   6.317   0.952   4.018
 3907SOL    HW212621   6.167   0.973   4.080
 3908SOL     OW12622   0.877   2.674   6.936
 3908SOL    HW112623   0.840   2.627   6.856
 3908SOL    HW212624   0.906   2.766   6.910
 3909SOL     OW12625   5.492   6.168   4.408
 3909SOL    HW112626   5.461   6.134   4.319
 3909SOL    HW212627   5.553   6.101   4.450
 3910SOL     OW12628   3.754   4.087   2.571
 3910SOL    HW112629   3.720   4.153   2.504
 3910SOL    HW212630   3.801   4.013   2.522
 3911SOL     OW12631   5.942   1.533   5.402
 3911SOL    HW112632   5.913   1.609   5.343
 3911SOL    HW212633   5.883   1.530   5.483
 3912SOL     OW12634   5.839   0.708   4.767
 3912SOL    HW112635   5.773   0.783   4.762
 3912SOL    HW212636   5.823   0.645   4.691
 3913SOL     OW12637   2.386   6.930   6.525
 3913SOL    HW112638   2.411   0.002   6.512
 3913SOL    HW212639   2.291   6.917   6.499
 3914SOL     OW12640   2.772   0.761   1.464
 3914SOL    HW112641   2.801   0.728   1.554
 3914SOL    HW212642   2.680   0.799   1.470
 3915SOL     OW12643   5.332   6.239   1.123
 3915SOL    HW112644   5.250   6.270   1.074
 3915SOL    HW212645   5.367   6.314   1.179
 3916SOL     OW12646   1.184   6.869   3.674
 3916SOL    HW112647   1.092   6.894   3.704
 3916SOL    HW212648   1.179   6.792   3.610
 3917SOL     OW12649   0.230   6.416   6.582
 3917SOL    HW112650   0.248   6.502   6.630
 3917SOL    HW212651   0.310   6.357   6.590
 3918SOL     OW12652   5.447   5.760   1.549
 3918SOL    HW112653   5.436   5.707   1.465
 3918SOL    HW212654   5.483   5.700   1.621
 3919SOL     OW12655   4.779   6.710   0.057
 3919SOL    HW112656   4.816   6.779   0.119
 3919SOL    HW212657   4.701   6.748   0.007
 3920SOL     OW12658   2.852   3.567   0.636
 3920SOL    HW112659   2.820   3.662   0.631
 3920SOL    HW212660   2.928   3.554   0.573
 3921SOL     OW12661   0.027   3.619   1.124
 3921SOL    HW112662   0.098   3.636   1.055
 3921SOL    HW212663   6.972   3.675   1.103
 3922SOL     OW12664   7.011   4.136   1.801
 3922SOL    HW112665   0.027   4.060   1.853
 3922SOL    HW212666   0.058   4.186   1.753
 3923SOL     OW12667   6.616   0.849   0.348
 3923SOL    HW112668   6.692   0.785   0.338
 3923SOL    HW212669   6.626   0.899   0.434
 3924SOL     OW12670   5.327   5.342   3.873
 3924SOL    HW112671   5.340   5.276   3.947
 3924SOL    HW212672   5.375   5.427   3.896
 3925SOL     OW12673   1.738   4.830   1.415
 3925SOL    HW112674   1.687   4.793   1.337
 3925SOL    HW212675   1.689   4.808   1.499
 3926SOL     OW12676   5.363   4.713   2.503
 3926SOL    HW112677   5.288   4.738   2.564
 3926SOL    HW212678   5.331   4.643   2.439
 3927SOL     OW12679   6.626   2.813   5.208
 3927SOL    HW112680   6.538   2.806   5.162
 3927SOL    HW212681   6.699   2.818   5.140
 3928SOL     OW12682   3.528   5.830   6.850
 3928SOL    HW112683   3.452   5.772   6.820
 3928SOL    HW212684   3.540   5.905   6.784
 3929SOL     OW12685   0.223   0.391   4.562
 3929SOL    HW112686   0.204   0.406   4.465
 3929SOL    HW212687   0.261   0.474   4.602
 3930SOL     OW12688   3.045   2.218   4.507
 3930SOL    HW112689   3.068   2.310   4.475
 3930SOL    HW212690   3.103   2.194   4.585
 3931SOL     OW12691   1.478   2.153   1.384
 3931SOL    HW112692   1.419   2.180   1.460
 3931SOL    HW212693   1.513   2.061   1.400
 3932SOL     OW12694   1.465   4.382   3.631
 3932SOL    HW112695   1.542   4.334   3.672
 3932SOL    HW212696   1.389   4.385   3.696
 3933SOL     OW12697   1.871   6.822   6.566
 3933SOL    HW112698   1.836   6.834   6.658
 3933SOL    HW212699   1.892   6.911   6.525
 3934SOL     OW12700   6.549   0.606   0.048
 3934SOL    HW112701   6.537   0.511   0.019
 3934SOL    HW212702   6.469   0.659   0.019
 3935SOL     OW12703   3.280   6.802   6.907
 3935SOL    HW112704   3.261   6.795   7.005
 3935SOL    HW212705   3.359   6.746   6.883
 3936SOL     OW12706   6.588   5.185   5.604
 3936SOL    HW112707   6.639   5.153   5.683
 3936SOL    HW212708   6.510   5.124   5.587
 3937SOL     OW12709   0.280   1.329   2.963
 3937SOL    HW112710   0.325   1.258   2.909
 3937SOL    HW212711   0.200   1.363   2.914
 3938SOL     OW12712   0.521   2.139   3.098
 3938SOL    HW112713   0.576   2.122   3.016
 3938SOL    HW212714   0.525   2.059   3.158
 3939SOL     OW12715   1.927   3.046   3.427
 3939SOL    HW112716   1.865   3.105   3.479
 3939SOL    HW212717   1.986   2.996   3.489
 3940SOL     OW12718   4.993   4.306   1.267
 3940SOL    HW112719   5.086   4.340   1.279
 3940SOL    HW212720   4.990   4.208   1.289
 3941SOL     OW12721   5.655   3.194   5.120
 3941SOL    HW112722   5.740   3.163   5.163
 3941SOL    HW212723   5.618   3.271   5.173
 3942SOL     OW12724   0.494   6.522   6.707
 3942SOL    HW112725   0.483   6.514   6.608
 3942SOL    HW212726   0.539   6.440   6.742
 3943SOL     OW12727   0.025   2.681   3.419
 3943SOL    HW112728   0.116   2.710   3.448
 3943SOL    HW212729   0.004   2.719   3.329
 3944SOL     OW12730   4.781   2.810   4.678
 3944SOL    HW112731   4.854   2.773   4.620
 3944SOL    HW212732   4.711   2.741   4.693
 3945SOL     OW12733   0.267   1.740   6.912
 3945SOL    HW112734   0.309   1.821   6.954
 3945SOL    HW212735   0.267   1.750   6.812
 3946SOL     OW12736   5.397   4.261   4.750
 3946SOL    HW112737   5.390   4.275   4.651
 3946SOL    HW212738   5.451   4.334   4.790
 3947SOL     OW12739   5.305   6.186   6.973
 3947SOL    HW112740   5.404   6.178   6.984
 3947SOL    HW212741   5.278   6.282   6.983
 3948SOL     OW12742   0.320   4.842   2.864
 3948SOL    HW112743   0.258   4.767   2.841
 3948SOL    HW212744   0.304   4.919   2.802
 3949SOL     OW12745   5.433   6.626   3.284
 3949SOL    HW112746   5.415   6.610   3.381
 3949SOL    HW212747   5.431   6.724   3.265
 3950SOL     OW12748   1.707   4.601   0.597
 3950SOL    HW112749   1.806   4.601   0.606
 3950SOL    HW212750   1.679   4.668   0.528
 3951SOL     OW12751   4.733   0.541   1.439
 3951SOL    HW112752   4.694   0.464   1.490
 3951SOL    HW212753   4.689   0.626   1.467
 3952SOL     OW12754   0.098   2.444   1.844
 3952SOL    HW112755   0.153   2.521   1.810
 3952SOL    HW212756   0.059   2.395   1.766
 3953SOL     OW12757   4.063   4.623   1.383
 3953SOL    HW112758   4.054   4.543   1.323
 3953SOL    HW212759   4.147   4.672   1.359
 3954SOL     OW12760   4.208   4.838   5.554
 3954SOL    HW112761   4.132   4.777   5.579
 3954SOL    HW212762   4.213   4.913   5.619
 3955SOL     OW12763   3.053   0.424   6.152
 3955SOL    HW112764   2.990   0.381   6.217
 3955SOL    HW212765   3.086   0.354   6.088
 3956SOL     OW12766   1.582   1.010   2.468
 3956SOL    HW112767   1.652   0.946   2.500
 3956SOL    HW212768   1.526   1.039   2.546
 3957SOL     OW12769   4.441   6.989   4.203
 3957SOL    HW112770   4.426   7.015   4.298
 3957SOL    HW212771   4.514   6.921   4.198
 3958SOL     OW12772   5.483   1.517   4.290
 3958SOL    HW112773   5.491   1.616   4.297
 3958SOL    HW212774   5.557   1.481   4.232
 3959SOL     OW12775   5.088   6.288   0.249
 3959SOL    HW112776   4.999   6.314   0.286
 3959SOL    HW212777   5.091   6.189   0.235
 3960SOL     OW12778   5.184   1.034   6.397
 3960SOL    HW112779   5.208   0.945   6.436
 3960SOL    HW212780   5.202   1.106   6.464
 3961SOL     OW12781   4.845   1.251   2.731
 3961SOL    HW112782   4.813   1.171   2.680
 3961SOL    HW212783   4.807   1.248   2.824
 3962SOL     OW12784   2.327   5.206   6.313
 3962SOL    HW112785   2.242   5.162   6.284
 3962SOL    HW212786   2.334   5.296   6.269
 3963SOL     OW12787   4.632   5.397   2.227
 3963SOL    HW112788   4.729   5.374   2.232
 3963SOL    HW212789   4.582   5.349   2.298
 3964SOL     OW12790   4.750   4.890   3.551
 3964SOL    HW112791   4.713   4.931   3.634
 3964SOL    HW212792   4.714   4.798   3.540
 3965SOL     OW12793   4.874   3.154   4.436
 3965SOL    HW112794   4.854   3.121   4.529
 3965SOL    HW212795   4.969   3.131   4.413
 3966SOL     OW12796   3.977   6.135   6.303
 3966SOL    HW112797   3.910   6.078   6.257
 3966SOL    HW212798   3.961   6.133   6.402
 3967SOL     OW12799   2.139   3.872   1.925
 3967SOL    HW112800   2.151   3.818   1.842
 3967SOL    HW212801   2.090   3.819   1.993
 3968SOL     OW12802   4.080   0.901   0.827
 3968SOL    HW112803   4.017   0.903   0.904
 3968SOL    HW212804   4.172   0.880   0.860
 3969SOL     OW12805   1.521   5.286   2.301
 3969SOL    HW112806   1.579   5.285   2.382
 3969SOL    HW212807   1.570   5.246   2.224
 3970SOL     OW12808   4.774   5.935   3.278
 3970SOL    HW112809   4.793   5.852   3.226
 3970SOL    HW212810   4.712   5.913   3.354
 3971SOL     OW12811   3.181   5.298   4.232
 3971SOL    HW112812   3.237   5.291   4.314
 3971SOL    HW212813   3.090   5.260   4.250
 3972SOL     OW12814   1.643   3.874   0.229
 3972SOL    HW112815   1.562   3.915   0.272
 3972SOL    HW212816   1.622   3.850   0.134
 3973SOL     OW12817   1.350   5.636   0.241
 3973SOL    HW112818   1.267   5.661   0.191
 3973SOL    HW212819   1.325   5.607   0.334
 3974SOL     OW12820   2.082   6.948   5.914
 3974SOL    HW112821   2.180   6.955   5.899
 3974SOL    HW212822   2.059   6.855   5.943
 3975SOL     OW12823   5.023   1.516   5.983
 3975SOL    HW112824   5.078   1.440   6.017
 3975SOL    HW212825   5.075   1.601   5.992
 3976SOL     OW12826   1.925   6.040   2.936
 3976SOL    HW112827   1.966   6.131   2.927
 3976SOL    HW212828   1.919   5.997   2.846
 3977SOL     OW12829   2.012   2.631   6.382
 3977SOL    HW112830   1.975   2.663   6.469
 3977SOL    HW212831   1.951   2.660   6.308
 3978SOL     OW12832   5.500   5.417   3.467
 3978SOL    HW112833   5.579   5.420   3.528
 3978SOL    HW212834   5.516   5.478   3.389
 3979SOL     OW12835   3.939   0.691   6.584
 3979SOL    HW112836   3.866   0.635   6.543
 3979SOL    HW212837   3.940   0.676   6.683
 3980SOL     OW12838   5.708   7.024   6.552
 3980SOL    HW112839   5.715   0.047   6.639
 3980SOL    HW212840   5.652   0.052   6.488
 3981SOL     OW12841   4.245   6.108   0.215
 3981SOL    HW112842   4.242   6.066   0.306
 3981SOL    HW212843   4.214   6.042   0.147
 3982SOL     OW12844   2.172   6.272   3.349
 3982SOL    HW112845   2.167   6.333   3.428
 3982SOL    HW212846   2.193   6.179   3.380
 3983SOL     OW12847   4.932   5.046   3.847
 3983SOL    HW112848   4.939   5.115   3.774
 3983SOL    HW212849   5.021   5.005   3.864
 3984SOL     OW12850   6.691   0.913   1.567
 3984SOL    HW112851   6.707   0.934   1.663
 3984SOL    HW212852   6.653   0.993   1.521
 3985SOL     OW12853   2.918   5.298   6.834
 3985SOL    HW112854   2.835   5.353   6.846
 3985SOL    HW212855   2.894   5.201   6.841
 3986SOL     OW12856   5.204   1.676   2.599
 3986SOL    HW112857   5.296   1.698   2.629
 3986SOL    HW212858   5.143   1.753   2.618
 3987SOL     OW12859   3.409   5.035   4.216
 3987SOL    HW112860   3.490   5.090   4.195
 3987SOL    HW212861   3.329   5.074   4.170
 3988SOL     OW12862   3.351   5.213   6.889
 3988SOL    HW112863   3.442   5.204   6.929
 3988SOL    HW212864   3.291   5.262   6.952
 3989SOL     OW12865   0.074   2.351   6.738
 3989SOL    HW112866   0.057   2.438   6.784
 3989SOL    HW212867   0.158   2.357   6.685
 3990SOL     OW12868   4.600   2.634   2.422
 3990SOL    HW112869   4.518   2.683   2.453
 3990SOL    HW212870   4.677   2.698   2.415
 3991SOL     OW12871   0.165   1.538   1.502
 3991SOL    HW112872   0.164   1.506   1.407
 3991SOL    HW212873   0.235   1.609   1.512
 3992SOL     OW12874   2.996   1.791   0.385
 3992SOL    HW112875   2.928   1.770   0.456
 3992SOL    HW212876   2.954   1.847   0.314
 3993SOL     OW12877   1.426   2.819   2.708
 3993SOL    HW112878   1.355   2.857   2.648
 3993SOL    HW212879   1.470   2.893   2.759
 3994SOL     OW12880   2.712   0.466   6.347
 3994SOL    HW112881   2.778   0.391   6.350
 3994SOL    HW212882   2.741   0.539   6.410
 3995SOL     OW12883   2.238   3.938   6.145
 3995SOL    HW112884   2.248   3.950   6.046
 3995SOL    HW212885   2.208   4.024   6.186
 3996SOL     OW12886   0.207   6.800   4.908
 3996SOL    HW112887   0.144   6.874   4.885
 3996SOL    HW212888   0.301   6.835   4.909
 3997SOL     OW12889   5.769   2.132   3.278
 3997SOL    HW112890   5.700   2.201   3.299
 3997SOL    HW212891   5.860   2.175   3.277
 3998SOL     OW12892   3.418   0.960   4.273
 3998SOL    HW112893   3.510   0.935   4.242
 3998SOL    HW212894   3.393   0.903   4.351
 3999SOL     OW12895   5.814   1.803   3.931
 3999SOL    HW112896   5.800   1.779   3.835
 3999SOL    HW212897   5.876   1.738   3.973
 4000SOL     OW12898   2.804   6.497   4.170
 4000SOL    HW112899   2.863   6.524   4.094
 4000SOL    HW212900   2.791   6.574   4.233
 4001SOL     OW12901   2.786   1.510   4.436
 4001SOL    HW112902   2.878   1.500   4.473
 4001SOL    HW212903   2.722   1.527   4.510
 4002SOL     OW12904   3.390   3.485   1.442
 4002SOL    HW112905   3.350   3.570   1.478
 4002SOL    HW212906   3.489   3.496   1.436
 4003SOL     OW12907   3.102   0.237   4.164
 4003SOL    HW112908   3.110   0.226   4.065
 4003SOL    HW212909   3.135   0.154   4.209
 4004SOL     OW12910   6.270   2.227   4.492
 4004SOL    HW112911   6.270   2.129   4.512
 4004SOL    HW212912   6.239   2.241   4.398
 4005SOL     OW12913   4.699   5.254   6.063
 4005SOL    HW112914   4.629   5.325   6.074
 4005SOL    HW212915   4.663   5.167   6.097
 4006SOL     OW12916   4.014   4.918   1.717
 4006SOL    HW112917   3.937   4.941   1.776
 4006SOL    HW212918   4.058   5.003   1.687
 4007SOL     OW12919   0.030   2.991   0.047
 4007SOL    HW112920   0.083   3.071   0.018
 4007SOL    HW212921   6.983   3.019   0.110
 4008SOL     OW12922   2.726   2.290   4.847
 4008SOL    HW112923   2.787   2.275   4.925
 4008SOL    HW212924   2.655   2.355   4.874
 4009SOL     OW12925   4.154   3.190   1.658
 4009SOL    HW112926   4.114   3.234   1.578
 4009SOL    HW212927   4.091   3.120   1.693
 4010SOL     OW12928   2.576   3.208   1.388
 4010SOL    HW112929   2.580   3.265   1.306
 4010SOL    HW212930   2.645   3.239   1.453
 4011SOL     OW12931   1.021   2.003   2.047
 4011SOL    HW112932   1.090   2.074   2.056
 4011SOL    HW212933   0.946   2.037   1.990
 4012SOL     OW12934   6.537   4.246   2.564
 4012SOL    HW112935   6.623   4.278   2.524
 4012SOL    HW212936   6.555   4.202   2.652
 4013SOL     OW12937   3.868   2.111   4.884
 4013SOL    HW112938   3.885   2.167   4.804
 4013SOL    HW212939   3.937   2.131   4.954
 4014SOL     OW12940   6.174   6.619   2.320
 4014SOL    HW112941   6.075   6.613   2.333
 4014SOL    HW212942   6.199   6.581   2.231
 4015SOL     OW12943   4.808   4.149   6.379
 4015SOL    HW112944   4.778   4.231   6.330
 4015SOL    HW212945   4.897   4.120   6.344
 4016SOL     OW12946   2.490   6.057   6.019
 4016SOL    HW112947   2.397   6.065   6.056
 4016SOL    HW212948   2.529   5.969   6.048
 4017SOL     OW12949   6.634   5.590   0.426
 4017SOL    HW112950   6.574   5.670   0.432
 4017SOL    HW212951   6.729   5.620   0.420
 4018SOL     OW12952   4.620   5.977   2.280
 4018SOL    HW112953   4.703   5.924   2.260
 4018SOL    HW212954   4.629   6.019   2.370
 4019SOL     OW12955   5.026   4.232   2.845
 4019SOL    HW112956   5.105   4.277   2.801
 4019SOL    HW212957   4.945   4.242   2.787
 4020SOL     OW12958   4.589   2.754   5.042
 4020SOL    HW112959   4.522   2.790   5.106
 4020SOL    HW212960   4.577   2.656   5.031
 4021SOL     OW12961   3.490   5.221   6.435
 4021SOL    HW112962   3.431   5.206   6.514
 4021SOL    HW212963   3.551   5.142   6.424
 4022SOL     OW12964   4.715   1.995   0.203
 4022SOL    HW112965   4.623   1.970   0.172
 4022SOL    HW212966   4.758   1.916   0.247
 4023SOL     OW12967   6.503   2.335   5.085
 4023SOL    HW112968   6.562   2.359   5.162
 4023SOL    HW212969   6.534   2.249   5.044
 4024SOL     OW12970   4.020   5.348   4.294
 4024SOL    HW112971   4.065   5.351   4.205
 4024SOL    HW212972   3.964   5.430   4.306
 4025SOL     OW12973   0.443   3.753   3.504
 4025SOL    HW112974   0.447   3.848   3.476
 4025SOL    HW212975   0.530   3.728   3.547
 4026SOL     OW12976   4.799   6.931   3.811
 4026SOL    HW112977   4.847   6.925   3.898
 4026SOL    HW212978   4.865   6.947   3.737
 4027SOL     OW12979   3.673   4.426   1.520
 4027SOL    HW112980   3.753   4.386   1.473
 4027SOL    HW212981   3.613   4.469   1.453
 4028SOL     OW12982   1.887   1.919   3.818
 4028SOL    HW112983   1.856   1.843   3.760
 4028SOL    HW212984   1.987   1.916   3.825
 4029SOL     OW12985   1.912   4.118   5.574
 4029SOL    HW112986   1.955   4.151   5.658
 4029SOL    HW212987   1.927   4.185   5.501
 4030SOL     OW12988   1.093   1.956   5.314
 4030SOL    HW112989   1.102   1.909   5.226
 4030SOL    HW212990   1.148   1.909   5.382
 4031SOL     OW12991   3.907   5.608   4.341
 4031SOL    HW112992   3.847   5.688   4.341
 4031SOL    HW212993   3.964   5.610   4.423
 4032SOL     OW12994   5.196   0.097   3.627
 4032SOL    HW112995   5.233   0.073   3.717
 4032SOL    HW212996   5.263   0.153   3.577
 4033SOL     OW12997   3.089   3.204   4.478
 4033SOL    HW112998   3.061   3.209   4.574
 4033SOL    HW212999   3.150   3.126   4.465
 4034SOL     OW13000   6.915   1.770   3.692
 4034SOL    HW113001   6.908   1.737   3.786
 4034SOL    HW213002   6.833   1.822   3.668
 4035SOL     OW13003   0.626   4.138   0.071
 4035SOL    HW113004   0.687   4.169   0.144
 4035SOL    HW213005   0.536   4.179   0.083
 4036SOL     OW13006   6.305   6.666   2.682
 4036SOL    HW113007   6.321   6.750   2.735
 4036SOL    HW213008   6.206   6.652   2.673
 4037SOL     OW13009   1.133   3.291   6.879
 4037SOL    HW113010   1.053   3.265   6.934
 4037SOL    HW213011   1.209   3.229   6.899
 4038SOL     OW13012   4.785   4.942   2.986
 4038SOL    HW113013   4.736   4.990   3.059
 4038SOL    HW213014   4.862   4.998   2.955
 4039SOL     OW13015   5.183   6.434   0.022
 4039SOL    HW113016   5.186   6.371   0.100
 4039SOL    HW213017   5.167   6.527   0.055
 4040SOL     OW13018   3.223   6.589   1.530
 4040SOL    HW113019   3.217   6.499   1.487
 4040SOL    HW213020   3.313   6.628   1.513
 4041SOL     OW13021   1.232   6.373   3.680
 4041SOL    HW113022   1.162   6.363   3.609
 4041SOL    HW213023   1.243   6.285   3.727
 4042SOL     OW13024   5.810   5.113   1.800
 4042SOL    HW113025   5.759   5.128   1.715
 4042SOL    HW213026   5.863   5.194   1.822
 4043SOL     OW13027   5.969   2.158   1.380
 4043SOL    HW113028   6.010   2.238   1.423
 4043SOL    HW213029   5.870   2.164   1.386
 4044SOL     OW13030   5.864   0.041   3.233
 4044SOL    HW113031   5.891   0.042   3.329
 4044SOL    HW213032   5.789   0.105   3.219
 4045SOL     OW13033   2.271   5.853   6.384
 4045SOL    HW113034   2.303   5.944   6.410
 4045SOL    HW213035   2.259   5.848   6.285
 4046SOL     OW13036   0.921   3.075   1.578
 4046SOL    HW113037   0.952   3.001   1.638
 4046SOL    HW213038   0.980   3.081   1.498
 4047SOL     OW13039   2.673   3.690   1.735
 4047SOL    HW113040   2.609   3.615   1.722
 4047SOL    HW213041   2.632   3.775   1.702
 4048SOL     OW13042   4.828   0.386   0.931
 4048SOL    HW113043   4.916   0.371   0.887
 4048SOL    HW213044   4.841   0.408   1.027
 4049SOL     OW13045   5.320   6.850   4.795
 4049SOL    HW113046   5.390   6.915   4.826
 4049SOL    HW213047   5.348   6.812   4.707
 4050SOL     OW13048   1.966   6.903   0.573
 4050SOL    HW113049   1.901   6.838   0.533
 4050SOL    HW213050   2.059   6.876   0.551
 4051SOL     OW13051   3.627   4.083   1.595
 4051SOL    HW113052   3.572   4.000   1.603
 4051SOL    HW213053   3.585   4.145   1.529
 4052SOL     OW13054   0.470   0.458   0.272
 4052SOL    HW113055   0.548   0.431   0.216
 4052SOL    HW213056   0.501   0.516   0.347
 4053SOL     OW13057   3.899   4.924   3.689
 4053SOL    HW113058   3.991   4.953   3.664
 4053SOL    HW213059   3.884   4.940   3.786
 4054SOL     OW13060   3.620   2.433   0.958
 4054SOL    HW113061   3.632   2.423   0.859
 4054SOL    HW213062   3.702   2.399   1.005
 4055SOL     OW13063   3.972   1.547   5.767
 4055SOL    HW113064   3.889   1.589   5.731
 4055SOL    HW213065   3.984   1.573   5.863
 4056SOL     OW13066   3.577   3.602   0.504
 4056SOL    HW113067   3.527   3.686   0.482
 4056SOL    HW213068   3.629   3.615   0.589
 4057SOL     OW13069   4.738   2.797   6.747
 4057SOL    HW113070   4.815   2.752   6.703
 4057SOL    HW213071   4.719   2.753   6.835
 4058SOL     OW13072   1.958   0.992   5.924
 4058SOL    HW113073   1.938   0.951   6.013
 4058SOL    HW213074   2.042   1.046   5.931
 4059SOL     OW13075   1.007   1.676   4.721
 4059SOL    HW113076   1.100   1.706   4.703
 4059SOL    HW213077   1.008   1.603   4.790
 4060SOL     OW13078   4.019   4.933   4.500
 4060SOL    HW113079   4.027   4.997   4.425
 4060SOL    HW213080   3.931   4.944   4.546
 4061SOL     OW13081   3.273   3.000   1.702
 4061SOL    HW113082   3.221   3.000   1.617
 4061SOL    HW213083   3.371   2.998   1.682
 4062SOL     OW13084   2.688   0.602   3.336
 4062SOL    HW113085   2.724   0.580   3.427
 4062SOL    HW213086   2.748   0.563   3.266
 4063SOL     OW13087   2.916   5.033   6.563
 4063SOL    HW113088   2.990   5.089   6.525
 4063SOL    HW213089   2.837   5.036   6.501
 4064SOL     OW13090   6.656   1.139   3.557
 4064SOL    HW113091   6.647   1.238   3.567
 4064SOL    HW213092   6.734   1.107   3.610
 4065SOL     OW13093   6.438   6.227   0.584
 4065SOL    HW113094   6.533   6.252   0.604
 4065SOL    HW213095   6.421   6.237   0.486
 4066SOL     OW13096   6.087   4.114   1.411
 4066SOL    HW113097   6.162   4.083   1.470
 4066SOL    HW213098   6.003   4.065   1.435
 4067SOL     OW13099   6.159   1.140   2.016
 4067SOL    HW113100   6.077   1.192   2.040
 4067SOL    HW213101   6.227   1.150   2.089
 4068SOL     OW13102   6.245   0.377   3.700
 4068SOL    HW113103   6.225   0.460   3.650
 4068SOL    HW213104   6.219   0.389   3.796
 4069SOL     OW13105   5.892   5.214   0.974
 4069SOL    HW113106   5.954   5.190   1.049
 4069SOL    HW213107   5.848   5.131   0.940
 4070SOL     OW13108   1.494   3.527   2.862
 4070SOL    HW113109   1.414   3.573   2.902
 4070SOL    HW213110   1.527   3.457   2.925
 4071SOL     OW13111   1.476   6.921   4.178
 4071SOL    HW113112   1.382   6.925   4.212
 4071SOL    HW213113   1.480   6.859   4.099
 4072SOL     OW13114   1.530   0.147   4.829
 4072SOL    HW113115   1.557   0.081   4.899
 4072SOL    HW213116   1.567   0.237   4.852
 4073SOL     OW13117   2.315   5.879   6.840
 4073SOL    HW113118   2.254   5.856   6.916
 4073SOL    HW213119   2.378   5.804   6.824
 4074SOL     OW13120   1.619   3.960   0.825
 4074SOL    HW113121   1.699   4.020   0.822
 4074SOL    HW213122   1.647   3.868   0.851
 4075SOL     OW13123   4.938   1.587   3.518
 4075SOL    HW113124   5.012   1.619   3.579
 4075SOL    HW213125   4.874   1.532   3.570
 4076SOL     OW13126   1.908   3.602   4.169
 4076SOL    HW113127   1.890   3.504   4.177
 4076SOL    HW213128   1.830   3.653   4.205
 4077SOL     OW13129   3.759   1.400   0.470
 4077SOL    HW113130   3.813   1.394   0.386
 4077SOL    HW213131   3.665   1.371   0.452
 4078SOL     OW13132   6.318   3.944   1.716
 4078SOL    HW113133   6.236   3.904   1.674
 4078SOL    HW213134   6.395   3.881   1.706
 4079SOL     OW13135   0.617   0.773   3.936
 4079SOL    HW113136   0.641   0.818   4.022
 4079SOL    HW213137   0.528   0.729   3.945
 4080SOL     OW13138   2.843   3.113   1.492
 4080SOL    HW113139   2.842   3.065   1.404
 4080SOL    HW213140   2.812   3.207   1.479
 4081SOL     OW13141   2.392   2.254   5.915
 4081SOL    HW113142   2.491   2.262   5.914
 4081SOL    HW213143   2.359   2.259   6.010
 4082SOL     OW13144   0.927   2.615   4.341
 4082SOL    HW113145   0.832   2.607   4.311
 4082SOL    HW213146   0.948   2.710   4.362
 4083SOL     OW13147   5.947   5.242   2.831
 4083SOL    HW113148   5.943   5.234   2.731
 4083SOL    HW213149   5.858   5.219   2.870
 4084SOL     OW13150   5.030   0.675   3.729
 4084SOL    HW113151   4.993   0.743   3.665
 4084SOL    HW213152   4.957   0.647   3.792
 4085SOL     OW13153   3.619   5.048   2.849
 4085SOL    HW113154   3.560   4.976   2.812
 4085SOL    HW213155   3.651   5.021   2.940
 4086SOL     OW13156   5.617   5.568   5.933
 4086SOL    HW113157   5.622   5.477   5.892
 4086SOL    HW213158   5.679   5.573   6.011
 4087SOL     OW13159   2.930   6.902   2.740
 4087SOL    HW113160   2.844   6.953   2.734
 4087SOL    HW213161   3.003   6.962   2.771
 4088SOL     OW13162   0.705   1.790   5.541
 4088SOL    HW113163   0.748   1.793   5.451
 4088SOL    HW213164   0.622   1.846   5.541
 4089SOL     OW13165   0.377   0.217   3.869
 4089SOL    HW113166   0.402   0.305   3.829
 4089SOL    HW213167   0.296   0.180   3.824
 4090SOL     OW13168   3.003   1.276   6.279
 4090SOL    HW113169   3.098   1.275   6.248
 4090SOL    HW213170   2.966   1.183   6.276
 4091SOL     OW13171   2.456   5.696   2.314
 4091SOL    HW113172   2.463   5.602   2.348
 4091SOL    HW213173   2.501   5.703   2.225
 4092SOL     OW13174   5.552   3.063   4.013
 4092SOL    HW113175   5.601   3.009   4.081
 4092SOL    HW213176   5.516   3.003   3.942
 4093SOL     OW13177   4.082   5.193   2.954
 4093SOL    HW113178   4.060   5.097   2.936
 4093SOL    HW213179   4.006   5.236   3.002
 4094SOL     OW13180   6.548   5.306   6.524
 4094SOL    HW113181   6.538   5.209   6.544
 4094SOL    HW213182   6.459   5.350   6.522
 4095SOL     OW13183   0.737   4.807   6.985
 4095SOL    HW113184   0.684   4.810   0.045
 4095SOL    HW213185   0.687   4.856   6.913
 4096SOL     OW13186   1.526   1.031   6.973
 4096SOL    HW113187   1.527   1.101   6.901
 4096SOL    HW213188   1.484   1.070   0.031
 4097SOL     OW13189   0.010   4.770   5.245
 4097SOL    HW113190   6.994   4.694   5.195
 4097SOL    HW213191   0.006   4.853   5.190
 4098SOL     OW13192   2.478   4.560   3.331
 4098SOL    HW113193   2.517   4.549   3.422
 4098SOL    HW213194   2.444   4.472   3.298
 4099SOL     OW13195   4.322   4.577   5.703
 4099SOL    HW113196   4.381   4.638   5.755
 4099SOL    HW213197   4.237   4.561   5.753
 4100SOL     OW13198   1.507   6.738   3.982
 4100SOL    HW113199   1.581   6.756   3.917
 4100SOL    HW213200   1.543   6.686   4.059
 4101SOL     OW13201   6.039   6.385   0.354
 4101SOL    HW113202   6.065   6.353   0.263
 4101SOL    HW213203   6.108   6.449   0.388
 4102SOL     OW13204   1.142   0.949   0.266
 4102SOL    HW113205   1.234   0.913   0.252
 4102SOL    HW213206   1.106   0.916   0.353
 4103SOL     OW13207   1.249   6.536   2.866
 4103SOL    HW113208   1.267   6.585   2.781
 4103SOL    HW213209   1.321   6.555   2.932
 4104SOL     OW13210   1.120   5.949   4.463
 4104SOL    HW113211   1.138   5.998   4.548
 4104SOL    HW213212   1.130   6.011   4.385
 4105SOL     OW13213   4.665   1.384   1.066
 4105SOL    HW113214   4.570   1.351   1.068
 4105SOL    HW213215   4.725   1.316   1.109
 4106SOL     OW13216   0.601   1.936   3.275
 4106SOL    HW113217   0.690   1.981   3.277
 4106SOL    HW213218   0.572   1.915   3.368
 4107SOL     OW13219   0.565   6.259   6.839
 4107SOL    HW113220   0.635   6.272   6.909
 4107SOL    HW213221   0.499   6.190   6.870
 4108SOL     OW13222   6.539   5.889   4.271
 4108SOL    HW113223   6.473   5.955   4.307
 4108SOL    HW213224   6.490   5.809   4.237
 4109SOL     OW13225   6.663   6.722   2.854
 4109SOL    HW113226   6.719   6.755   2.930
 4109SOL    HW213227   6.623   6.633   2.878
 4110SOL     OW13228   4.776   3.762   0.481
 4110SOL    HW113229   4.807   3.748   0.575
 4110SOL    HW213230   4.756   3.673   0.439
 4111SOL     OW13231   6.487   3.830   4.098
 4111SOL    HW113232   6.560   3.783   4.147
 4111SOL    HW213233   6.413   3.766   4.079
 4112SOL     OW13234   4.801   6.497   5.278
 4112SOL    HW113235   4.866   6.572   5.271
 4112SOL    HW213236   4.738   6.499   5.200
 4113SOL     OW13237   4.438   5.029   4.890
 4113SOL    HW113238   4.385   5.012   4.973
 4113SOL    HW213239   4.386   4.999   4.811
 4114SOL     OW13240   0.045   2.150   2.063
 4114SOL    HW113241   0.075   2.083   1.996
 4114SOL    HW213242   0.002   2.227   2.017
 4115SOL     OW13243   3.980   5.912   4.041
 4115SOL    HW113244   3.968   5.813   4.036
 4115SOL    HW213245   3.890   5.957   4.039
 4116SOL     OW13246   5.610   2.935   3.583
 4116SOL    HW113247   5.565   3.019   3.554
 4116SOL    HW213248   5.663   2.897   3.507
 4117SOL     OW13249   1.434   2.268   3.026
 4117SOL    HW113250   1.393   2.200   2.965
 4117SOL    HW213251   1.456   2.351   2.974
 4118SOL     OW13252   0.275   5.592   6.092
 4118SOL    HW113253   0.268   5.685   6.056
 4118SOL    HW213254   0.248   5.527   6.021
 4119SOL     OW13255   1.382   1.082   3.416
 4119SOL    HW113256   1.450   1.076   3.343
 4119SOL    HW213257   1.355   0.990   3.444
 4120SOL     OW13258   1.504   1.184   6.745
 4120SOL    HW113259   1.439   1.139   6.684
 4120SOL    HW213260   1.461   1.265   6.785
 4121SOL     OW13261   6.356   6.608   1.807
 4121SOL    HW113262   6.362   6.521   1.760
 4121SOL    HW213263   6.448   6.645   1.820
 4122SOL     OW13264   6.389   4.444   3.387
 4122SOL    HW113265   6.457   4.432   3.315
 4122SOL    HW213266   6.404   4.375   3.459
 4123SOL     OW13267   4.176   5.249   1.964
 4123SOL    HW113268   4.226   5.324   2.007
 4123SOL    HW213269   4.183   5.167   2.019
 4124SOL     OW13270   6.494   5.815   0.433
 4124SOL    HW113271   6.509   5.875   0.355
 4124SOL    HW213272   6.397   5.817   0.459
 4125SOL     OW13273   5.734   1.776   1.822
 4125SOL    HW113274   5.750   1.828   1.738
 4125SOL    HW213275   5.811   1.716   1.840
 4126SOL     OW13276   1.573   2.962   2.041
 4126SOL    HW113277   1.614   2.900   2.108
 4126SOL    HW213278   1.514   3.027   2.089
 4127SOL     OW13279   3.855   1.416   3.894
 4127SOL    HW113280   3.758   1.391   3.889
 4127SOL    HW213281   3.875   1.486   3.826
 4128SOL     OW13282   0.502   2.895   0.485
 4128SOL    HW113283   0.564   2.842   0.542
 4128SOL    HW213284   0.548   2.980   0.457
 4129SOL     OW13285   2.075   2.379   1.079
 4129SOL    HW113286   2.131   2.349   1.001
 4129SOL    HW213287   1.999   2.435   1.045
 4130SOL     OW13288   5.734   2.697   0.902
 4130SOL    HW113289   5.672   2.656   0.969
 4130SOL    HW213290   5.788   2.768   0.945
 4131SOL     OW13291   4.673   0.267   2.830
 4131SOL    HW113292   4.697   0.354   2.787
 4131SOL    HW213293   4.756   0.223   2.866
 4132SOL     OW13294   6.796   4.701   3.807
 4132SOL    HW113295   6.741   4.683   3.888
 4132SOL    HW213296   6.785   4.625   3.742
 4133SOL     OW13297   5.755   0.011   2.643
 4133SOL    HW113298   5.726   0.059   2.726
 4133SOL    HW213299   5.846   6.996   2.659
 4134SOL     OW13300   1.716   3.559   1.247
 4134SOL    HW113301   1.689   3.512   1.163
 4134SOL    HW213302   1.815   3.554   1.258
 4135SOL     OW13303   0.131   1.383   2.568
 4135SOL    HW113304   0.114   1.394   2.666
 4135SOL    HW213305   0.175   1.466   2.533
 4136SOL     OW13306   1.407   4.673   2.117
 4136SOL    HW113307   1.327   4.721   2.081
 4136SOL    HW213308   1.491   4.719   2.088
 4137SOL     OW13309   1.634   2.378   0.058
 4137SOL    HW113310   1.592   2.454   0.107
 4137SOL    HW213311   1.712   2.412   0.005
 4138SOL     OW13312   4.791   6.902   0.606
 4138SOL    HW113313   4.692   6.906   0.619
 4138SOL    HW213314   4.836   6.963   0.671
 4139SOL     OW13315   2.127   3.161   2.953
 4139SOL    HW113316   2.203   3.135   3.012
 4139SOL    HW213317   2.041   3.134   2.996
 4140SOL     OW13318   2.615   1.924   5.639
 4140SOL    HW113319   2.659   2.014   5.646
 4140SOL    HW213320   2.523   1.929   5.678
 4141SOL     OW13321   4.599   0.133   6.422
 4141SOL    HW113322   4.618   0.145   6.519
 4141SOL    HW213323   4.649   0.054   6.387
 4142SOL     OW13324   6.792   4.575   3.135
 4142SOL    HW113325   6.886   4.564   3.103
 4142SOL    HW213326   6.789   4.567   3.235
 4143SOL     OW13327   5.489   3.172   0.547
 4143SOL    HW113328   5.448   3.082   0.531
 4143SOL    HW213329   5.541   3.200   0.466
 4144SOL     OW13330   6.122   1.830   0.773
 4144SOL    HW113331   6.132   1.739   0.812
 4144SOL    HW213332   6.040   1.833   0.715
 4145SOL     OW13333   0.183   6.748   1.721
 4145SOL    HW113334   0.104   6.803   1.748
 4145SOL    HW213335   0.267   6.797   1.744
 4146SOL     OW13336   4.748   6.359   3.231
 4146SOL    HW113337   4.799   6.419   3.170
 4146SOL    HW213338   4.806   6.284   3.261
 4147SOL     OW13339   5.084   4.392   5.451
 4147SOL    HW113340   5.094   4.338   5.368
 4147SOL    HW213341   5.118   4.339   5.529
 4148SOL     OW13342   2.295   1.374   6.304
 4148SOL    HW113343   2.209   1.353   6.351
 4148SOL    HW213344   2.280   1.368   6.205
 4149SOL     OW13345   2.288   2.581   6.789
 4149SOL    HW113346   2.207   2.639   6.781
 4149SOL    HW213347   2.287   2.534   6.877
 4150SOL     OW13348   5.944   2.167   5.777
 4150SOL    HW113349   5.862   2.122   5.742
 4150SOL    HW213350   5.946   2.158   5.877
 4151SOL     OW13351   2.170   6.545   4.264
 4151SOL    HW113352   2.157   6.557   4.362
 4151SOL    HW213353   2.268   6.532   4.245
 4152SOL     OW13354   2.613   5.244   1.251
 4152SOL    HW113355   2.593   5.225   1.155
 4152SOL    HW213356   2.649   5.162   1.295
 4153SOL     OW13357   6.826   4.919   1.667
 4153SOL    HW113358   6.835   4.850   1.739
 4153SOL    HW213359   6.905   4.913   1.605
 4154SOL     OW13360   1.006   6.122   3.671
 4154SOL    HW113361   0.926   6.179   3.689
 4154SOL    HW213362   1.013   6.105   3.573
 4155SOL     OW13363   0.625   1.738   1.003
 4155SOL    HW113364   0.617   1.792   0.920
 4155SOL    HW213365   0.711   1.687   1.003
 4156SOL     OW13366   6.938   5.549   5.338
 4156SOL    HW113367   6.889   5.495   5.405
 4156SOL    HW213368   7.009   5.493   5.295
 4157SOL     OW13369   6.868   6.091   2.001
 4157SOL    HW113370   6.886   6.003   2.044
 4157SOL    HW213371   6.908   6.092   1.909
 4158SOL     OW13372   1.493   2.903   2.330
 4158SOL    HW113373   1.513   2.841   2.406
 4158SOL    HW213374   1.408   2.875   2.285
 4159SOL     OW13375   3.204   1.732   3.393
 4159SOL    HW113376   3.276   1.734   3.462
 4159SOL    HW213377   3.121   1.694   3.433
 4160SOL     OW13378   6.578   6.513   7.007
 4160SOL    HW113379   6.668   6.537   0.016
 4160SOL    HW213380   6.585   6.435   6.945
 4161SOL     OW13381   3.387   2.612   1.343
 4161SOL    HW113382   3.296   2.603   1.382
 4161SOL    HW213383   3.419   2.523   1.312
 4162SOL     OW13384   5.177   5.606   2.150
 4162SOL    HW113385   5.089   5.583   2.192
 4162SOL    HW213386   5.183   5.562   2.061
 4163SOL     OW13387   3.792   6.576   1.073
 4163SOL    HW113388   3.808   6.603   0.978
 4163SOL    HW213389   3.856   6.626   1.132
 4164SOL     OW13390   6.599   0.461   4.679
 4164SOL    HW113391   6.593   0.519   4.760
 4164SOL    HW213392   6.604   0.365   4.707
 4165SOL     OW13393   4.690   1.091   5.293
 4165SOL    HW113394   4.725   1.142   5.215
 4165SOL    HW213395   4.612   1.035   5.264
 4166SOL     OW13396   5.914   0.882   1.696
 4166SOL    HW113397   5.857   0.963   1.682
 4166SOL    HW213398   5.967   0.864   1.614
 4167SOL     OW13399   4.118   5.452   5.003
 4167SOL    HW113400   4.062   5.468   4.922
 4167SOL    HW213401   4.081   5.503   5.081
 4168SOL     OW13402   5.044   4.207   6.607
 4168SOL    HW113403   4.981   4.240   6.677
 4168SOL    HW213404   4.994   4.193   6.521
 4169SOL     OW13405   4.919   3.783   4.838
 4169SOL    HW113406   4.866   3.865   4.820
 4169SOL    HW213407   4.868   3.724   4.901
 4170SOL     OW13408   6.674   3.685   4.282
 4170SOL    HW113409   6.694   3.680   4.379
 4170SOL    HW213410   6.624   3.603   4.253
 4171SOL     OW13411   0.371   3.299   1.028
 4171SOL    HW113412   0.410   3.390   1.043
 4171SOL    HW213413   0.397   3.265   0.937
 4172SOL     OW13414   2.878   4.777   0.684
 4172SOL    HW113415   2.845   4.871   0.690
 4172SOL    HW213416   2.820   4.717   0.739
 4173SOL     OW13417   4.845   2.917   4.996
 4173SOL    HW113418   4.764   2.861   5.015
 4173SOL    HW213419   4.882   2.893   4.906
 4174SOL     OW13420   4.323   0.458   4.811
 4174SOL    HW113421   4.274   0.438   4.896
 4174SOL    HW213422   4.264   0.439   4.733
 4175SOL     OW13423   1.546   4.580   6.705
 4175SOL    HW113424   1.541   4.629   6.618
 4175SOL    HW213425   1.492   4.627   6.774
 4176SOL     OW13426   5.449   6.984   6.171
 4176SOL    HW113427   5.519   6.963   6.103
 4176SOL    HW213428   5.360   6.988   6.127
 4177SOL     OW13429   4.680   4.348   3.416
 4177SOL    HW113430   4.684   4.415   3.342
 4177SOL    HW213431   4.737   4.269   3.392
 4178SOL     OW13432   4.185   5.087   2.183
 4178SOL    HW113433   4.262   5.060   2.241
 4178SOL    HW213434   4.124   5.008   2.171
 4179SOL     OW13435   5.102   3.111   4.697
 4179SOL    HW113436   5.007   3.142   4.695
 4179SOL    HW213437   5.155   3.162   4.628
 4180SOL     OW13438   5.108   3.797   0.212
 4180SOL    HW113439   5.148   3.731   0.276
 4180SOL    HW213440   5.063   3.748   0.137
 4181SOL     OW13441   4.764   0.532   5.603
 4181SOL    HW113442   4.712   0.446   5.596
 4181SOL    HW213443   4.711   0.606   5.561
 4182SOL     OW13444   6.596   6.622   3.962
 4182SOL    HW113445   6.586   6.644   4.059
 4182SOL    HW213446   6.521   6.564   3.933
 4183SOL     OW13447   3.502   1.832   1.487
 4183SOL    HW113448   3.433   1.778   1.438
 4183SOL    HW213449   3.472   1.928   1.492
 4184SOL     OW13450   3.071   5.389   3.513
 4184SOL    HW113451   3.150   5.409   3.455
 4184SOL    HW213452   3.102   5.372   3.606
 4185SOL     OW13453   6.815   3.709   2.615
 4185SOL    HW113454   6.824   3.685   2.712
 4185SOL    HW213455   6.775   3.632   2.565
 4186SOL     OW13456   1.644   6.181   0.269
 4186SOL    HW113457   1.564   6.210   0.321
 4186SOL    HW213458   1.642   6.222   0.178
 4187SOL     OW13459   1.596   3.437   0.006
 4187SOL    HW113460   1.537   3.428   0.086
 4187SOL    HW213461   1.690   3.413   0.031
 4188SOL     OW13462   4.751   0.044   6.989
 4188SOL    HW113463   4.798   0.095   0.036
 4188SOL    HW213464   4.813   0.029   6.912
 4189SOL     OW13465   5.069   5.300   2.589
 4189SOL    HW113466   4.976   5.268   2.607
 4189SOL    HW213467   5.130   5.221   2.581
 4190SOL     OW13468   0.131   6.741   0.924
 4190SOL    HW113469   0.052   6.734   0.862
 4190SOL    HW213470   0.211   6.774   0.873
 4191SOL     OW13471   4.470   4.606   6.122
 4191SOL    HW113472   4.504   4.672   6.189
 4191SOL    HW213473   4.534   4.529   6.116
 4192SOL     OW13474   1.010   2.886   1.765
 4192SOL    HW113475   0.943   2.812   1.776
 4192SOL    HW213476   1.092   2.865   1.818
 4193SOL     OW13477   6.509   0.663   0.620
 4193SOL    HW113478   6.450   0.613   0.682
 4193SOL    HW213479   6.521   0.611   0.535
 4194SOL     OW13480   4.690   0.899   4.993
 4194SOL    HW113481   4.760   0.856   5.050
 4194SOL    HW213482   4.619   0.832   4.970
 4195SOL     OW13483   4.502   5.540   1.306
 4195SOL    HW113484   4.406   5.551   1.330
 4195SOL    HW213485   4.547   5.482   1.373
 4196SOL     OW13486   6.883   2.003   3.074
 4196SOL    HW113487   6.895   2.073   3.145
 4196SOL    HW213488   6.973   1.965   3.050
 4197SOL     OW13489   3.710   6.725   6.324
 4197SOL    HW113490   3.663   6.737   6.237
 4197SOL    HW213491   3.690   6.633   6.360
 4198SOL     OW13492   6.362   0.824   2.092
 4198SOL    HW113493   6.429   0.770   2.042
 4198SOL    HW213494   6.291   0.763   2.128
 4199SOL     OW13495   0.954   3.836   5.931
 4199SOL    HW113496   1.009   3.842   5.848
 4199SOL    HW213497   0.954   3.924   5.978
 4200SOL     OW13498   4.801   0.885   4.411
 4200SOL    HW113499   4.829   0.823   4.338
 4200SOL    HW213500   4.859   0.871   4.492
 4201SOL     OW13501   5.635   0.172   3.210
 4201SOL    HW113502   5.549   0.135   3.175
 4201SOL    HW213503   5.617   0.229   3.290
 4202SOL     OW13504   4.316   5.391   0.530
 4202SOL    HW113505   4.299   5.357   0.622
 4202SOL    HW213506   4.411   5.420   0.522
 4203SOL     OW13507   5.977   5.294   0.063
 4203SOL    HW113508   5.893   5.308   0.011
 4203SOL    HW213509   6.055   5.328   0.010
 4204SOL     OW13510   3.111   3.441   5.864
 4204SOL    HW113511   3.145   3.497   5.940
 4204SOL    HW213512   3.137   3.346   5.879
 4205SOL     OW13513   3.416   5.756   5.251
 4205SOL    HW113514   3.390   5.853   5.242
 4205SOL    HW213515   3.484   5.734   5.181
 4206SOL     OW13516   1.802   2.115   4.705
 4206SOL    HW113517   1.753   2.195   4.740
 4206SOL    HW213518   1.787   2.107   4.607
 4207SOL     OW13519   1.447   2.983   1.797
 4207SOL    HW113520   1.362   3.022   1.762
 4207SOL    HW213521   1.445   2.982   1.897
 4208SOL     OW13522   1.953   3.464   5.116
 4208SOL    HW113523   2.014   3.540   5.137
 4208SOL    HW213524   1.926   3.468   5.020
 4209SOL     OW13525   6.947   6.119   2.774
 4209SOL    HW113526   6.990   6.030   2.788
 4209SOL    HW213527   6.911   6.125   2.681
 4210SOL     OW13528   4.207   3.616   5.147
 4210SOL    HW113529   4.299   3.583   5.169
 4210SOL    HW213530   4.145   3.538   5.140
 4211SOL     OW13531   3.939   2.350   5.331
 4211SOL    HW113532   3.969   2.293   5.408
 4211SOL    HW213533   4.015   2.408   5.301
 4212SOL     OW13534   0.249   1.520   3.156
 4212SOL    HW113535   0.278   1.439   3.105
 4212SOL    HW213536   0.328   1.560   3.202
 4213SOL     OW13537   3.321   0.484   2.817
 4213SOL    HW113538   3.262   0.564   2.817
 4213SOL    HW213539   3.396   0.498   2.881
 4214SOL     OW13540   0.650   4.809   4.338
 4214SOL    HW113541   0.721   4.791   4.269
 4214SOL    HW213542   0.694   4.827   4.426
 4215SOL     OW13543   5.030   6.004   5.176
 4215SOL    HW113544   5.023   6.026   5.079
 4215SOL    HW213545   4.960   6.053   5.227
 4216SOL     OW13546   2.336   6.735   2.544
 4216SOL    HW113547   2.302   6.800   2.612
 4216SOL    HW213548   2.260   6.678   2.512
 4217SOL     OW13549   1.526   0.345   2.068
 4217SOL    HW113550   1.608   0.294   2.095
 4217SOL    HW213551   1.465   0.285   2.016
 4218SOL     OW13552   3.012   1.220   1.974
 4218SOL    HW113553   2.990   1.153   2.044
 4218SOL    HW213554   2.967   1.307   1.996
 4219SOL     OW13555   3.788   6.318   4.092
 4219SOL    HW113556   3.862   6.348   4.032
 4219SOL    HW213557   3.826   6.293   4.181
 4220SOL     OW13558   4.679   1.891   1.632
 4220SOL    HW113559   4.689   1.947   1.550
 4220SOL    HW213560   4.716   1.800   1.614
 4221SOL     OW13561   6.883   5.351   6.189
 4221SOL    HW113562   6.958   5.416   6.205
 4221SOL    HW213563   6.797   5.392   6.218
 4222SOL     OW13564   4.924   2.098   3.601
 4222SOL    HW113565   4.897   2.135   3.513
 4222SOL    HW213566   4.938   2.173   3.666
 4223SOL     OW13567   4.253   3.816   1.722
 4223SOL    HW113568   4.260   3.719   1.745
 4223SOL    HW213569   4.344   3.855   1.711
 4224SOL     OW13570   4.993   3.867   4.405
 4224SOL    HW113571   4.947   3.841   4.320
 4224SOL    HW213572   5.029   3.786   4.450
 4225SOL     OW13573   0.682   2.812   4.866
 4225SOL    HW113574   0.614   2.859   4.923
 4225SOL    HW213575   0.650   2.811   4.771
 4226SOL     OW13576   1.144   5.346   4.760
 4226SOL    HW113577   1.119   5.250   4.768
 4226SOL    HW213578   1.231   5.354   4.710
 4227SOL     OW13579   5.507   5.264   1.751
 4227SOL    HW113580   5.422   5.306   1.720
 4227SOL    HW213581   5.571   5.259   1.675
 4228SOL     OW13582   0.868   5.851   4.403
 4228SOL    HW113583   0.832   5.809   4.487
 4228SOL    HW213584   0.964   5.875   4.417
 4229SOL     OW13585   5.775   4.864   5.904
 4229SOL    HW113586   5.765   4.894   5.809
 4229SOL    HW213587   5.743   4.769   5.912
 4230SOL     OW13588   1.294   0.704   2.324
 4230SOL    HW113589   1.305   0.802   2.340
 4230SOL    HW213590   1.272   0.688   2.228
 4231SOL     OW13591   5.172   1.311   5.037
 4231SOL    HW113592   5.135   1.320   5.130
 4231SOL    HW213593   5.269   1.289   5.042
 4232SOL     OW13594   2.163   5.273   4.186
 4232SOL    HW113595   2.262   5.284   4.174
 4232SOL    HW213596   2.125   5.356   4.227
 4233SOL     OW13597   5.688   6.231   3.822
 4233SOL    HW113598   5.657   6.317   3.781
 4233SOL    HW213599   5.705   6.164   3.749
 4234SOL     OW13600   1.890   5.401   6.022
 4234SOL    HW113601   1.917   5.457   6.101
 4234SOL    HW213602   1.805   5.352   6.044
 4235SOL     OW13603   6.985   4.653   6.192
 4235SOL    HW113604   6.915   4.644   6.122
 4235SOL    HW213605   6.992   4.749   6.220
 4236SOL     OW13606   0.256   5.117   1.771
 4236SOL    HW113607   0.210   5.069   1.846
 4236SOL    HW213608   0.253   5.061   1.689
 4237SOL     OW13609   0.022   4.126   3.602
 4237SOL    HW113610   0.037   4.195   3.531
 4237SOL    HW213611   0.037   4.167   3.692
 4238SOL     OW13612   1.976   1.079   2.966
 4238SOL    HW113613   1.911   1.026   3.020
 4238SOL    HW213614   1.954   1.177   2.973
 4239SOL     OW13615   3.801   1.076   2.832
 4239SOL    HW113616   3.780   0.984   2.863
 4239SOL    HW213617   3.898   1.097   2.850
 4240SOL     OW13618   0.837   5.246   1.181
 4240SOL    HW113619   0.881   5.160   1.156
 4240SOL    HW213620   0.828   5.304   1.100
 4241SOL     OW13621   6.739   1.908   6.875
 4241SOL    HW113622   6.654   1.862   6.852
 4241SOL    HW213623   6.805   1.898   6.800
 4242SOL     OW13624   2.177   2.165   4.469
 4242SOL    HW113625   2.147   2.074   4.496
 4242SOL    HW213626   2.168   2.228   4.546
 4243SOL     OW13627   5.251   1.088   3.280
 4243SOL    HW113628   5.307   1.032   3.340
 4243SOL    HW213629   5.183   1.030   3.235
 4244SOL     OW13630   3.650   3.742   2.512
 4244SOL    HW113631   3.624   3.775   2.603
 4244SOL    HW213632   3.725   3.797   2.477
 4245SOL     OW13633   6.700   2.813   5.483
 4245SOL    HW113634   6.787   2.810   5.532
 4245SOL    HW213635   6.717   2.805   5.385
 4246SOL     OW13636   0.266   3.809   2.739
 4246SOL    HW113637   0.365   3.799   2.742
 4246SOL    HW213638   0.242   3.896   2.697
 4247SOL     OW13639   6.865   6.341   5.115
 4247SOL    HW113640   6.808   6.366   5.037
 4247SOL    HW213641   6.913   6.256   5.096
 4248SOL     OW13642   1.429   2.502   5.961
 4248SOL    HW113643   1.389   2.568   5.897
 4248SOL    HW213644   1.528   2.517   5.966
 4249SOL     OW13645   5.946   2.906   5.508
 4249SOL    HW113646   5.998   2.860   5.436
 4249SOL    HW213647   6.008   2.933   5.582
 4250SOL     OW13648   6.400   5.096   3.855
 4250SOL    HW113649   6.300   5.092   3.852
 4250SOL    HW213650   6.432   5.055   3.940
 4251SOL     OW13651   6.044   3.907   0.307
 4251SOL    HW113652   6.022   4.003   0.322
 4251SOL    HW213653   5.977   3.866   0.244
 4252SOL     OW13654   6.760   5.824   5.030
 4252SOL    HW113655   6.695   5.888   5.072
 4252SOL    HW213656   6.823   5.875   4.971
 4253SOL     OW13657   4.679   0.780   1.741
 4253SOL    HW113658   4.592   0.828   1.739
 4253SOL    HW213659   4.680   0.714   1.816
 4254SOL     OW13660   1.450   3.636   1.345
 4254SOL    HW113661   1.372   3.638   1.282
 4254SOL    HW213662   1.535   3.650   1.294
 4255SOL     OW13663   6.203   2.724   4.405
 4255SOL    HW113664   6.263   2.644   4.394
 4255SOL    HW213665   6.152   2.716   4.491
 4256SOL     OW13666   1.693   6.732   0.970
 4256SOL    HW113667   1.756   6.768   1.038
 4256SOL    HW213668   1.631   6.667   1.013
 4257SOL     OW13669   3.653   1.817   5.231
 4257SOL    HW113670   3.641   1.917   5.231
 4257SOL    HW213671   3.713   1.791   5.307
 4258SOL     OW13672   5.970   6.448   1.888
 4258SOL    HW113673   6.011   6.371   1.937
 4258SOL    HW213674   6.035   6.524   1.885
 4259SOL     OW13675   2.684   1.650   6.833
 4259SOL    HW113676   2.737   1.573   6.799
 4259SOL    HW213677   2.743   1.731   6.839
 4260SOL     OW13678   4.107   5.972   3.660
 4260SOL    HW113679   4.039   5.898   3.663
 4260SOL    HW213680   4.136   5.994   3.753
 4261SOL     OW13681   2.387   6.310   2.068
 4261SOL    HW113682   2.442   6.374   2.014
 4261SOL    HW213683   2.292   6.312   2.035
 4262SOL     OW13684   2.050   5.212   6.718
 4262SOL    HW113685   1.997   5.131   6.693
 4262SOL    HW213686   1.992   5.277   6.766
 4263SOL     OW13687   2.335   5.590   5.119
 4263SOL    HW113688   2.287   5.523   5.063
 4263SOL    HW213689   2.434   5.571   5.116
 4264SOL     OW13690   0.216   1.579   0.175
 4264SOL    HW113691   0.197   1.521   0.095
 4264SOL    HW213692   0.315   1.590   0.185
 4265SOL     OW13693   6.758   2.101   0.041
 4265SOL    HW113694   6.765   2.009   0.002
 4265SOL    HW213695   6.754   2.168   6.992
 4266SOL     OW13696   2.418   5.628   0.467
 4266SOL    HW113697   2.393   5.557   0.402
 4266SOL    HW213698   2.444   5.586   0.554
 4267SOL     OW13699   2.211   3.717   5.165
 4267SOL    HW113700   2.250   3.809   5.158
 4267SOL    HW213701   2.272   3.659   5.218
 4268SOL     OW13702   1.822   0.440   0.176
 4268SOL    HW113703   1.806   0.501   0.254
 4268SOL    HW213704   1.737   0.428   0.125
 4269SOL     OW13705   3.025   3.090   0.224
 4269SOL    HW113706   3.014   3.065   0.320
 4269SOL    HW213707   3.110   3.049   0.188
 4270SOL     OW13708   3.771   2.963   4.873
 4270SOL    HW113709   3.827   2.885   4.903
 4270SOL    HW213710   3.674   2.942   4.887
 4271SOL     OW13711   0.473   6.636   5.545
 4271SOL    HW113712   0.569   6.631   5.572
 4271SOL    HW213713   0.464   6.618   5.447
 4272SOL     OW13714   6.647   4.759   5.559
 4272SOL    HW113715   6.658   4.660   5.568
 4272SOL    HW213716   6.580   4.778   5.487
 4273SOL     OW13717   4.811   6.904   5.123
 4273SOL    HW113718   4.854   6.816   5.146
 4273SOL    HW213719   4.728   6.887   5.070
 4274SOL     OW13720   1.514   6.997   3.515
 4274SOL    HW113721   1.435   6.976   3.458
 4274SOL    HW213722   1.495   0.053   3.570
 4275SOL     OW13723   0.029   0.918   5.185
 4275SOL    HW113724   7.017   0.872   5.104
 4275SOL    HW213725   0.027   1.017   5.171
 4276SOL     OW13726   2.276   4.979   3.116
 4276SOL    HW113727   2.230   4.890   3.109
 4276SOL    HW213728   2.280   5.007   3.211
 4277SOL     OW13729   6.610   5.544   3.748
 4277SOL    HW113730   6.694   5.491   3.761
 4277SOL    HW213731   6.633   5.642   3.747
 4278SOL     OW13732   6.578   6.231   4.953
 4278SOL    HW113733   6.599   6.325   4.926
 4278SOL    HW213734   6.498   6.232   5.013
 4279SOL     OW13735   3.245   6.554   5.782
 4279SOL    HW113736   3.266   6.463   5.817
 4279SOL    HW213737   3.152   6.580   5.808
 4280SOL     OW13738   6.627   2.022   5.072
 4280SOL    HW113739   6.725   2.024   5.051
 4280SOL    HW213740   6.598   1.926   5.081
 4281SOL     OW13741   1.659   4.976   5.432
 4281SOL    HW113742   1.645   4.949   5.336
 4281SOL    HW213743   1.749   5.017   5.442
 4282SOL     OW13744   2.688   2.805   0.706
 4282SOL    HW113745   2.634   2.788   0.789
 4282SOL    HW213746   2.671   2.733   0.640
 4283SOL     OW13747   2.045   7.002   3.955
 4283SOL    HW113748   1.986   0.028   4.019
 4283SOL    HW213749   2.039   6.904   3.976
 4284SOL     OW13750   5.611   0.729   2.431
 4284SOL    HW113751   5.629   0.642   2.476
 4284SOL    HW213752   5.578   0.712   2.338
 4285SOL     OW13753   0.410   6.858   5.740
 4285SOL    HW113754   0.399   6.801   5.659
 4285SOL    HW213755   0.338   6.836   5.806
 4286SOL     OW13756   4.559   5.756   6.855
 4286SOL    HW113757   4.599   5.665   6.846
 4286SOL    HW213758   4.517   5.782   6.768
 4287SOL     OW13759   5.514   6.995   4.933
 4287SOL    HW113760   5.529   0.065   4.960
 4287SOL    HW213761   5.603   6.948   4.930
 4288SOL     OW13762   0.745   6.850   3.977
 4288SOL    HW113763   0.811   6.870   3.905
 4288SOL    HW213764   0.668   6.798   3.938
 4289SOL     OW13765   5.421   2.365   1.680
 4289SOL    HW113766   5.324   2.339   1.682
 4289SOL    HW213767   5.471   2.311   1.748
 4290SOL     OW13768   2.046   0.092   1.881
 4290SOL    HW113769   2.114   0.055   1.945
 4290SOL    HW213770   1.994   0.164   1.925
 4291SOL     OW13771   5.368   2.950   0.563
 4291SOL    HW113772   5.407   2.936   0.654
 4291SOL    HW213773   5.331   2.864   0.529
 4292SOL     OW13774   6.267   4.040   5.794
 4292SOL    HW113775   6.337   4.011   5.860
 4292SOL    HW213776   6.304   4.035   5.702
 4293SOL     OW13777   6.813   3.764   6.539
 4293SOL    HW113778   6.833   3.666   6.538
 4293SOL    HW213779   6.770   3.789   6.452
 4294SOL     OW13780   3.709   2.705   6.262
 4294SOL    HW113781   3.723   2.614   6.301
 4294SOL    HW213782   3.650   2.759   6.322
 4295SOL     OW13783   3.293   0.288   5.056
 4295SOL    HW113784   3.268   0.213   4.993
 4295SOL    HW213785   3.221   0.357   5.055
 4296SOL     OW13786   2.751   1.548   0.835
 4296SOL    HW113787   2.752   1.449   0.823
 4296SOL    HW213788   2.663   1.576   0.874
 4297SOL     OW13789   5.001   6.865   4.715
 4297SOL    HW113790   4.929   6.916   4.763
 4297SOL    HW213791   5.088   6.879   4.761
 4298SOL     OW13792   1.997   5.903   1.269
 4298SOL    HW113793   2.093   5.923   1.289
 4298SOL    HW213794   1.991   5.832   1.199
 4299SOL     OW13795   0.913   3.195   5.946
 4299SOL    HW113796   0.907   3.243   6.033
 4299SOL    HW213797   0.878   3.102   5.957
 4300SOL     OW13798   2.958   1.063   6.933
 4300SOL    HW113799   3.033   1.064   6.867
 4300SOL    HW213800   2.911   1.151   6.931
 4301SOL     OW13801   2.014   1.568   0.161
 4301SOL    HW113802   1.958   1.627   0.220
 4301SOL    HW213803   2.038   1.618   0.078
 4302SOL     OW13804   1.222   6.036   6.667
 4302SOL    HW113805   1.259   5.976   6.596
 4302SOL    HW213806   1.122   6.036   6.663
 4303SOL     OW13807   6.450   4.133   3.104
 4303SOL    HW113808   6.492   4.224   3.111
 4303SOL    HW213809   6.360   4.135   3.146
 4304SOL     OW13810   3.535   3.717   4.025
 4304SOL    HW113811   3.540   3.679   3.933
 4304SOL    HW213812   3.493   3.807   4.022
 4305SOL     OW13813   6.553   1.123   3.046
 4305SOL    HW113814   6.549   1.091   3.140
 4305SOL    HW213815   6.560   1.223   3.045
 4306SOL     OW13816   0.453   4.068   6.104
 4306SOL    HW113817   0.493   4.143   6.052
 4306SOL    HW213818   0.474   3.981   6.060
 4307SOL     OW13819   4.561   4.391   5.708
 4307SOL    HW113820   4.517   4.480   5.700
 4307SOL    HW213821   4.522   4.328   5.640
 4308SOL     OW13822   5.173   6.100   5.400
 4308SOL    HW113823   5.134   6.129   5.313
 4308SOL    HW213824   5.188   6.179   5.459
 4309SOL     OW13825   1.558   0.724   0.519
 4309SOL    HW113826   1.555   0.824   0.512
 4309SOL    HW213827   1.469   0.690   0.548
 4310SOL     OW13828   1.934   2.650   3.604
 4310SOL    HW113829   1.888   2.732   3.638
 4310SOL    HW213830   1.881   2.569   3.628
 4311SOL     OW13831   1.216   6.153   3.852
 4311SOL    HW113832   1.250   6.063   3.878
 4311SOL    HW213833   1.133   6.142   3.798
 4312SOL     OW13834   1.793   6.222   1.765
 4312SOL    HW113835   1.708   6.193   1.721
 4312SOL    HW213836   1.788   6.203   1.863
 4313SOL     OW13837   5.763   0.909   1.217
 4313SOL    HW113838   5.758   1.008   1.223
 4313SOL    HW213839   5.670   0.871   1.223
 4314SOL     OW13840   4.955   2.831   2.993
 4314SOL    HW113841   4.920   2.889   2.919
 4314SOL    HW213842   4.929   2.736   2.976
 4315SOL     OW13843   2.577   0.346   2.012
 4315SOL    HW113844   2.611   0.277   2.077
 4315SOL    HW213845   2.513   0.303   1.948
 4316SOL     OW13846   5.125   6.906   1.171
 4316SOL    HW113847   5.180   6.838   1.122
 4316SOL    HW213848   5.028   6.883   1.161
 4317SOL     OW13849   3.918   1.510   4.972
 4317SOL    HW113850   3.864   1.592   4.958
 4317SOL    HW213851   4.012   1.536   4.995
 4318SOL     OW13852   1.273   4.180   3.958
 4318SOL    HW113853   1.364   4.214   3.981
 4318SOL    HW213854   1.280   4.120   3.878
 4319SOL     OW13855   2.732   3.294   6.711
 4319SOL    HW113856   2.710   3.288   6.809
 4319SOL    HW213857   2.648   3.308   6.659
 4320SOL     OW13858   1.350   6.663   2.662
 4320SOL    HW113859   1.369   6.673   2.564
 4320SOL    HW213860   1.414   6.720   2.714
 4321SOL     OW13861   6.071   0.884   4.896
 4321SOL    HW113862   6.059   0.811   4.963
 4321SOL    HW213863   6.047   0.850   4.805
 4322SOL     OW13864   6.961   1.006   6.600
 4322SOL    HW113865   6.932   0.942   6.529
 4322SOL    HW213866   0.013   1.060   6.566
 4323SOL     OW13867   5.780   2.668   2.192
 4323SOL    HW113868   5.796   2.610   2.272
 4323SOL    HW213869   5.863   2.721   2.173
 4324SOL     OW13870   5.794   3.927   6.532
 4324SOL    HW113871   5.796   3.988   6.453
 4324SOL    HW213872   5.854   3.849   6.516
 4325SOL     OW13873   2.376   0.760   0.125
 4325SOL    HW113874   2.308   0.814   0.076
 4325SOL    HW213875   2.463   0.809   0.126
 4326SOL     OW13876   6.733   3.644   5.156
 4326SOL    HW113877   6.804   3.684   5.214
 4326SOL    HW213878   6.661   3.712   5.140
 4327SOL     OW13879   5.261   5.663   2.484
 4327SOL    HW113880   5.235   5.696   2.575
 4327SOL    HW213881   5.339   5.715   2.451
 4328SOL     OW13882   4.610   4.841   6.187
 4328SOL    HW113883   4.559   4.899   6.251
 4328SOL    HW213884   4.654   4.898   6.119
 4329SOL     OW13885   3.506   2.036   5.652
 4329SOL    HW113886   3.474   2.103   5.584
 4329SOL    HW213887   3.447   2.040   5.733
 4330SOL     OW13888   2.744   0.651   6.000
 4330SOL    HW113889   2.841   0.656   5.977
 4330SOL    HW213890   2.715   0.555   6.001
 4331SOL     OW13891   5.360   3.338   0.338
 4331SOL    HW113892   5.368   3.345   0.437
 4331SOL    HW213893   5.397   3.250   0.308
 4332SOL     OW13894   5.059   3.472   2.220
 4332SOL    HW113895   5.123   3.471   2.297
 4332SOL    HW213896   5.067   3.387   2.170
 4333SOL     OW13897   5.605   1.664   4.942
 4333SOL    HW113898   5.527   1.667   5.004
 4333SOL    HW213899   5.662   1.745   4.955
 4334SOL     OW13900   3.135   2.078   1.913
 4334SOL    HW113901   3.082   2.138   1.853
 4334SOL    HW213902   3.104   2.091   2.007
 4335SOL     OW13903   2.914   3.692   4.140
 4335SOL    HW113904   2.818   3.681   4.165
 4335SOL    HW213905   2.956   3.762   4.198
 4336SOL     OW13906   1.797   5.993   5.550
 4336SOL    HW113907   1.718   5.984   5.490
 4336SOL    HW213908   1.781   5.941   5.634
 4337SOL     OW13909   0.675   5.109   0.187
 4337SOL    HW113910   0.747   5.158   0.235
 4337SOL    HW213911   0.586   5.142   0.217
 4338SOL     OW13912   6.211   6.066   4.905
 4338SOL    HW113913   6.192   6.004   4.981
 4338SOL    HW213914   6.147   6.048   4.830
 4339SOL     OW13915   6.592   2.547   4.901
 4339SOL    HW113916   6.570   2.631   4.950
 4339SOL    HW213917   6.609   2.473   4.966
 4340SOL     OW13918   6.429   3.262   2.254
 4340SOL    HW113919   6.440   3.240   2.351
 4340SOL    HW213920   6.465   3.353   2.236
 4341SOL     OW13921   1.493   3.747   1.924
 4341SOL    HW113922   1.440   3.722   2.004
 4341SOL    HW213923   1.432   3.758   1.845
 4342SOL     OW13924   0.673   2.945   3.406
 4342SOL    HW113925   0.585   2.947   3.358
 4342SOL    HW213926   0.745   2.979   3.345
 4343SOL     OW13927   3.429   0.901   0.261
 4343SOL    HW113928   3.357   0.944   0.206
 4343SOL    HW213929   3.460   0.966   0.331
 4344SOL     OW13930   1.962   4.791   3.369
 4344SOL    HW113931   2.031   4.774   3.439
 4344SOL    HW213932   1.956   4.889   3.350
 4345SOL     OW13933   1.859   2.994   5.374
 4345SOL    HW113934   1.855   2.924   5.303
 4345SOL    HW213935   1.861   3.084   5.331
 4346SOL     OW13936   2.430   3.063   1.578
 4346SOL    HW113937   2.441   3.115   1.493
 4346SOL    HW213938   2.483   3.107   1.651
 4347SOL     OW13939   6.737   0.230   1.737
 4347SOL    HW113940   6.806   0.244   1.807
 4347SOL    HW213941   6.742   0.136   1.703
 4348SOL     OW13942   0.854   3.574   1.824
 4348SOL    HW113943   0.906   3.553   1.741
 4348SOL    HW213944   0.805   3.661   1.811
 4349SOL     OW13945   0.457   1.451   3.692
 4349SOL    HW113946   0.451   1.395   3.609
 4349SOL    HW213947   0.367   1.455   3.736
 4350SOL     OW13948   5.096   2.240   4.779
 4350SOL    HW113949   5.192   2.211   4.775
 4350SOL    HW213950   5.078   2.304   4.705
 4351SOL     OW13951   2.692   6.133   2.256
 4351SOL    HW113952   2.610   6.113   2.309
 4351SOL    HW213953   2.743   6.049   2.241
 4352SOL     OW13954   0.600   2.061   2.061
 4352SOL    HW113955   0.650   1.986   2.103
 4352SOL    HW213956   0.555   2.115   2.131
 4353SOL     OW13957   2.128   5.961   0.433
 4353SOL    HW113958   2.082   6.002   0.512
 4353SOL    HW213959   2.195   5.893   0.464
 4354SOL     OW13960   2.084   0.234   0.004
 4354SOL    HW113961   2.144   0.157   7.007
 4354SOL    HW213962   2.135   0.319   7.016
 4355SOL     OW13963   3.979   0.887   1.454
 4355SOL    HW113964   3.927   0.968   1.482
 4355SOL    HW213965   4.062   0.916   1.407
 4356SOL     OW13966   4.745   4.008   1.443
 4356SOL    HW113967   4.742   3.914   1.408
 4356SOL    HW213968   4.830   4.022   1.493
 4357SOL     OW13969   6.242   0.943   0.113
 4357SOL    HW113970   6.179   0.887   0.166
 4357SOL    HW213971   6.191   1.014   0.064
 4358SOL     OW13972   0.172   5.798   1.489
 4358SOL    HW113973   0.166   5.894   1.516
 4358SOL    HW213974   0.260   5.781   1.444
 4359SOL     OW13975   1.056   2.462   4.559
 4359SOL    HW113976   1.019   2.544   4.515
 4359SOL    HW213977   1.003   2.382   4.529
 4360SOL     OW13978   0.535   3.965   2.001
 4360SOL    HW113979   0.461   3.909   1.963
 4360SOL    HW213980   0.516   3.985   2.097
 4361SOL     OW13981   4.377   2.550   1.735
 4361SOL    HW113982   4.291   2.583   1.697
 4361SOL    HW213983   4.453   2.593   1.687
 4362SOL     OW13984   6.566   3.604   5.633
 4362SOL    HW113985   6.612   3.693   5.630
 4362SOL    HW213986   6.481   3.611   5.686
 4363SOL     OW13987   5.260   2.591   5.383
 4363SOL    HW113988   5.192   2.568   5.313
 4363SOL    HW213989   5.294   2.506   5.424
 4364SOL     OW13990   3.105   4.119   5.024
 4364SOL    HW113991   3.082   4.209   5.061
 4364SOL    HW213992   3.181   4.080   5.076
 4365SOL     OW13993   4.091   2.187   2.444
 4365SOL    HW113994   4.186   2.205   2.470
 4365SOL    HW213995   4.068   2.238   2.362
 4366SOL     OW13996   6.415   6.865   1.414
 4366SOL    HW113997   6.493   6.863   1.477
 4366SOL    HW213998   6.343   6.806   1.450
 4367SOL     OW13999   0.935   5.586   5.677
 4367SOL    HW114000   0.844   5.626   5.684
 4367SOL    HW214001   0.999   5.656   5.645
 4368SOL     OW14002   5.124   4.812   1.858
 4368SOL    HW114003   5.123   4.713   1.876
 4368SOL    HW214004   5.213   4.849   1.884
 4369SOL     OW14005   4.710   4.411   2.243
 4369SOL    HW114006   4.660   4.369   2.167
 4369SOL    HW214007   4.689   4.508   2.247
 4370SOL     OW14008   5.577   4.298   3.600
 4370SOL    HW114009   5.642   4.373   3.592
 4370SOL    HW214010   5.497   4.317   3.543
 4371SOL     OW14011   6.063   0.559   1.674
 4371SOL    HW114012   6.076   0.636   1.736
 4371SOL    HW214013   6.061   0.592   1.579
 4372SOL     OW14014   4.722   1.225   2.970
 4372SOL    HW114015   4.687   1.229   3.064
 4372SOL    HW214016   4.645   1.212   2.907
 4373SOL     OW14017   6.919   2.696   6.588
 4373SOL    HW114018   7.001   2.649   6.621
 4373SOL    HW214019   6.945   2.765   6.520
 4374SOL     OW14020   1.521   2.362   2.216
 4374SOL    HW114021   1.527   2.306   2.134
 4374SOL    HW214022   1.560   2.314   2.294
 4375SOL     OW14023   2.456   6.532   4.278
 4375SOL    HW114024   2.505   6.466   4.335
 4375SOL    HW214025   2.474   6.625   4.310
 4376SOL     OW14026   6.621   0.301   2.581
 4376SOL    HW114027   6.636   0.301   2.482
 4376SOL    HW214028   6.550   0.367   2.604
 4377SOL     OW14029   5.913   3.545   6.947
 4377SOL    HW114030   6.001   3.509   6.914
 4377SOL    HW214031   5.848   3.470   6.958
 4378SOL     OW14032   2.186   0.484   3.751
 4378SOL    HW114033   2.121   0.509   3.680
 4378SOL    HW214034   2.142   0.423   3.817
 4379SOL     OW14035   2.735   1.335   5.110
 4379SOL    HW114036   2.766   1.249   5.152
 4379SOL    HW214037   2.651   1.365   5.155
 4380SOL     OW14038   1.331   1.496   1.474
 4380SOL    HW114039   1.298   1.484   1.568
 4380SOL    HW214040   1.393   1.422   1.450
 4381SOL     OW14041   1.092   5.560   5.329
 4381SOL    HW114042   1.177   5.525   5.290
 4381SOL    HW214043   1.044   5.487   5.378
 4382SOL     OW14044   0.119   3.293   5.027
 4382SOL    HW114045   0.212   3.306   5.061
 4382SOL    HW214046   0.070   3.229   5.087
 4383SOL     OW14047   5.447   2.775   5.873
 4383SOL    HW114048   5.354   2.813   5.872
 4383SOL    HW214049   5.447   2.686   5.829
 4384SOL     OW14050   0.120   0.061   3.332
 4384SOL    HW114051   0.104   7.003   3.277
 4384SOL    HW214052   0.068   0.055   3.417
 4385SOL     OW14053   5.213   1.856   4.797
 4385SOL    HW114054   5.145   1.906   4.745
 4385SOL    HW214055   5.273   1.806   4.734
 4386SOL     OW14056   1.529   4.084   6.054
 4386SOL    HW114057   1.513   4.024   5.976
 4386SOL    HW214058   1.552   4.176   6.021
 4387SOL     OW14059   6.825   2.881   0.668
 4387SOL    HW114060   6.892   2.910   0.736
 4387SOL    HW214061   6.740   2.930   0.681
 4388SOL     OW14062   4.936   1.948   6.217
 4388SOL    HW114063   5.029   1.974   6.192
 4388SOL    HW214064   4.916   1.980   6.309
 4389SOL     OW14065   0.167   3.567   1.848
 4389SOL    HW114066   0.188   3.469   1.852
 4389SOL    HW214067   0.194   3.603   1.758
 4390SOL     OW14068   5.666   0.153   0.636
 4390SOL    HW114069   5.655   0.161   0.735
 4390SOL    HW214070   5.638   0.062   0.607
 4391SOL     OW14071   2.001   5.527   6.239
 4391SOL    HW114072   1.921   5.586   6.250
 4391SOL    HW214073   2.013   5.471   6.320
 4392SOL     OW14074   1.503   1.601   4.284
 4392SOL    HW114075   1.588   1.548   4.281
 4392SOL    HW214076   1.426   1.542   4.261
 4393SOL     OW14077   5.876   6.935   1.510
 4393SOL    HW114078   5.904   6.851   1.556
 4393SOL    HW214079   5.905   6.933   1.415
 4394SOL     OW14080   1.407   0.108   1.258
 4394SOL    HW114081   1.455   0.092   1.343
 4394SOL    HW214082   1.473   0.121   1.184
 4395SOL     OW14083   2.436   6.686   2.166
 4395SOL    HW114084   2.476   6.647   2.083
 4395SOL    HW214085   2.485   6.651   2.246
 4396SOL     OW14086   1.303   0.566   3.284
 4396SOL    HW114087   1.332   0.553   3.189
 4396SOL    HW214088   1.215   0.520   3.298
 4397SOL     OW14089   2.661   2.470   3.847
 4397SOL    HW114090   2.667   2.503   3.752
 4397SOL    HW214091   2.617   2.539   3.904
 4398SOL     OW14092   2.133   3.679   6.170
 4398SOL    HW114093   2.177   3.767   6.155
 4398SOL    HW214094   2.201   3.614   6.205
 4399SOL     OW14095   2.325   6.391   2.346
 4399SOL    HW114096   2.316   6.373   2.248
 4399SOL    HW214097   2.255   6.456   2.375
 4400SOL     OW14098   1.913   6.505   4.221
 4400SOL    HW114099   2.011   6.491   4.215
 4400SOL    HW214100   1.885   6.508   4.317
 4401SOL     OW14101   3.476   6.327   5.521
 4401SOL    HW114102   3.563   6.283   5.500
 4401SOL    HW214103   3.402   6.275   5.478
 4402SOL     OW14104   1.483   0.719   2.889
 4402SOL    HW114105   1.403   0.771   2.858
 4402SOL    HW214106   1.455   0.625   2.910
 4403SOL     OW14107   0.898   4.888   1.467
 4403SOL    HW114108   0.932   4.846   1.551
 4403SOL    HW214109   0.891   4.987   1.479
 4404SOL     OW14110   1.175   5.934   6.179
 4404SOL    HW114111   1.261   5.976   6.208
 4404SOL    HW214112   1.098   5.988   6.213
 4405SOL     OW14113   2.862   4.813   3.538
 4405SOL    HW114114   2.852   4.713   3.532
 4405SOL    HW214115   2.921   4.835   3.616
 4406SOL     OW14116   6.195   3.461   2.343
 4406SOL    HW114117   6.211   3.539   2.404
 4406SOL    HW214118   6.278   3.442   2.291
 4407SOL     OW14119   6.972   6.321   2.184
 4407SOL    HW114120   7.003   6.228   2.162
 4407SOL    HW214121   6.938   6.366   2.102
 4408SOL     OW14122   4.164   6.865   0.084
 4408SOL    HW114123   4.085   6.870   0.022
 4408SOL    HW214124   4.140   6.906   0.172
 4409SOL     OW14125   3.898   0.844   2.601
 4409SOL    HW114126   3.865   0.749   2.600
 4409SOL    HW214127   3.995   0.844   2.623
 4410SOL     OW14128   0.347   5.778   1.120
 4410SOL    HW114129   0.248   5.793   1.118
 4410SOL    HW214130   0.379   5.753   1.028
 4411SOL     OW14131   3.282   4.617   5.811
 4411SOL    HW114132   3.289   4.572   5.722
 4411SOL    HW214133   3.260   4.550   5.881
 4412SOL     OW14134   4.145   6.663   3.553
 4412SOL    HW114135   4.200   6.621   3.482
 4412SOL    HW214136   4.161   6.762   3.555
 4413SOL     OW14137   3.399   0.132   4.530
 4413SOL    HW114138   3.306   0.161   4.510
 4413SOL    HW214139   3.462   0.208   4.516
 4414SOL     OW14140   4.935   4.979   2.128
 4414SOL    HW114141   5.015   4.921   2.115
 4414SOL    HW214142   4.899   5.006   2.038
 4415SOL     OW14143   3.307   4.049   1.752
 4415SOL    HW114144   3.384   4.079   1.808
 4415SOL    HW214145   3.330   3.964   1.705
 4416SOL     OW14146   4.039   1.737   4.414
 4416SOL    HW114147   3.958   1.747   4.356
 4416SOL    HW214148   4.097   1.818   4.405
 4417SOL     OW14149   0.274   3.729   3.937
 4417SOL    HW114150   0.357   3.674   3.948
 4417SOL    HW214151   0.199   3.687   3.988
 4418SOL     OW14152   6.512   0.541   1.037
 4418SOL    HW114153   6.432   0.514   1.091
 4418SOL    HW214154   6.586   0.474   1.051
 4419SOL     OW14155   6.411   5.787   5.784
 4419SOL    HW114156   6.368   5.877   5.769
 4419SOL    HW214157   6.430   5.776   5.881
 4420SOL     OW14158   3.627   2.099   1.085
 4420SOL    HW114159   3.539   2.144   1.067
 4420SOL    HW214160   3.664   2.131   1.172
 4421SOL     OW14161   1.345   2.853   4.423
 4421SOL    HW114162   1.351   2.805   4.335
 4421SOL    HW214163   1.260   2.904   4.428
 4422SOL     OW14164   0.367   4.807   6.966
 4422SOL    HW114165   0.434   4.823   6.894
 4422SOL    HW214166   0.278   4.788   6.924
 4423SOL     OW14167   5.806   4.204   5.862
 4423SOL    HW114168   5.808   4.224   5.960
 4423SOL    HW214169   5.865   4.126   5.843
 4424SOL     OW14170   4.668   6.075   4.184
 4424SOL    HW114171   4.638   6.118   4.098
 4424SOL    HW214172   4.706   5.985   4.164
 4425SOL     OW14173   1.838   5.551   1.463
 4425SOL    HW114174   1.843   5.461   1.420
 4425SOL    HW214175   1.842   5.540   1.562
 4426SOL     OW14176   0.910   0.048   4.339
 4426SOL    HW114177   0.944   6.980   4.352
 4426SOL    HW214178   0.861   0.053   4.252
 4427SOL     OW14179   3.494   6.259   3.212
 4427SOL    HW114180   3.566   6.271   3.142
 4427SOL    HW214181   3.534   6.272   3.303
 4428SOL     OW14182   5.748   0.991   4.068
 4428SOL    HW114183   5.843   0.980   4.097
 4428SOL    HW214184   5.690   0.934   4.126
 4429SOL     OW14185   2.512   6.072   3.421
 4429SOL    HW114186   2.571   6.134   3.473
 4429SOL    HW214187   2.546   5.978   3.431
 4430SOL     OW14188   4.981   4.799   4.427
 4430SOL    HW114189   4.883   4.781   4.427
 4430SOL    HW214190   5.016   4.796   4.520
 4431SOL     OW14191   3.375   0.604   3.732
 4431SOL    HW114192   3.410   0.662   3.805
 4431SOL    HW214193   3.419   0.515   3.736
 4432SOL     OW14194   1.514   3.395   6.358
 4432SOL    HW114195   1.557   3.484   6.351
 4432SOL    HW214196   1.420   3.406   6.390
 4433SOL     OW14197   1.068   1.167   4.693
 4433SOL    HW114198   1.025   1.083   4.727
 4433SOL    HW214199   1.140   1.144   4.628
 4434SOL     OW14200   6.779   1.592   1.287
 4434SOL    HW114201   6.689   1.633   1.296
 4434SOL    HW214202   6.841   1.630   1.356
 4435SOL     OW14203   2.694   3.481   0.271
 4435SOL    HW114204   2.751   3.413   0.225
 4435SOL    HW214205   2.602   3.443   0.285
 4436SOL     OW14206   4.759   1.844   1.334
 4436SOL    HW114207   4.784   1.916   1.269
 4436SOL    HW214208   4.767   1.755   1.290
 4437SOL     OW14209   6.921   3.725   2.352
 4437SOL    HW114210   6.954   3.652   2.292
 4437SOL    HW214211   6.933   3.698   2.447
 4438SOL     OW14212   4.565   6.739   5.750
 4438SOL    HW114213   4.526   6.679   5.680
 4438SOL    HW214214   4.503   6.815   5.768
 4439SOL     OW14215   2.197   6.910   3.241
 4439SOL    HW114216   2.126   6.980   3.250
 4439SOL    HW214217   2.253   6.930   3.161
 4440SOL     OW14218   2.021   5.196   0.840
 4440SOL    HW114219   1.929   5.201   0.800
 4440SOL    HW214220   2.084   5.154   0.774
 4441SOL     OW14221   0.856   1.469   0.075
 4441SOL    HW114222   0.785   1.478   0.006
 4441SOL    HW214223   0.927   1.406   0.043
 4442SOL     OW14224   1.817   4.557   6.378
 4442SOL    HW114225   1.799   4.654   6.394
 4442SOL    HW214226   1.876   4.521   6.450
 4443SOL     OW14227   0.757   5.205   6.977
 4443SOL    HW114228   0.715   5.159   0.030
 4443SOL    HW214229   0.684   5.242   6.918
 4444SOL     OW14230   5.163   3.733   0.629
 4444SOL    HW114231   5.212   3.808   0.674
 4444SOL    HW214232   5.075   3.719   0.673
 4445SOL     OW14233   0.363   5.933   6.776
 4445SOL    HW114234   0.275   5.887   6.786
 4445SOL    HW214235   0.380   5.991   6.856
 4446SOL     OW14236   5.075   1.065   0.719
 4446SOL    HW114237   5.070   1.164   0.713
 4446SOL    HW214238   5.165   1.038   0.756
 4447SOL     OW14239   5.773   4.713   5.240
 4447SOL    HW114240   5.735   4.775   5.309
 4447SOL    HW214241   5.706   4.700   5.167
 4448SOL     OW14242   2.806   6.485   2.093
 4448SOL    HW114243   2.762   6.526   2.173
 4448SOL    HW214244   2.905   6.480   2.109
 4449SOL     OW14245   3.657   0.775   6.561
 4449SOL    HW114246   3.696   0.837   6.629
 4449SOL    HW214247   3.731   0.728   6.513
 4450SOL     OW14248   3.406   0.463   0.197
 4450SOL    HW114249   3.332   0.452   0.131
 4450SOL    HW214250   3.401   0.390   0.265
 4451SOL     OW14251   4.842   4.507   3.647
 4451SOL    HW114252   4.771   4.553   3.593
 4451SOL    HW214253   4.803   4.473   3.732
 4452SOL     OW14254   5.156   6.404   4.099
 4452SOL    HW114255   5.101   6.362   4.171
 4452SOL    HW214256   5.116   6.492   4.073
 4453SOL     OW14257   0.110   3.495   1.350
 4453SOL    HW114258   0.075   3.529   1.263
 4453SOL    HW214259   0.034   3.462   1.406
 4454SOL     OW14260   1.265   2.117   0.096
 4454SOL    HW114261   1.179   2.137   0.049
 4454SOL    HW214262   1.341   2.127   0.031
 4455SOL     OW14263   6.586   5.861   4.607
 4455SOL    HW114264   6.575   5.873   4.706
 4455SOL    HW214265   6.497   5.837   4.567
 4456SOL     OW14266   1.743   6.764   3.832
 4456SOL    HW114267   1.798   6.740   3.913
 4456SOL    HW214268   1.783   6.843   3.787
 4457SOL     OW14269   1.522   2.059   4.804
 4457SOL    HW114270   1.525   2.123   4.881
 4457SOL    HW214271   1.577   1.979   4.825
 4458SOL     OW14272   1.998   3.802   1.508
 4458SOL    HW114273   1.987   3.781   1.605
 4458SOL    HW214274   1.942   3.882   1.485
 4459SOL     OW14275   1.609   2.641   4.317
 4459SOL    HW114276   1.685   2.702   4.337
 4459SOL    HW214277   1.634   2.579   4.242
 4460SOL     OW14278   0.154   3.551   4.268
 4460SOL    HW114279   0.147   3.629   4.331
 4460SOL    HW214280   0.077   3.552   4.205
 4461SOL     OW14281   2.747   1.248   1.481
 4461SOL    HW114282   2.750   1.160   1.528
 4461SOL    HW214283   2.812   1.247   1.405
 4462SOL     OW14284   6.377   3.917   1.999
 4462SOL    HW114285   6.328   3.966   1.928
 4462SOL    HW214286   6.475   3.933   1.989
 4463SOL     OW14287   5.843   1.926   1.566
 4463SOL    HW114288   5.938   1.912   1.541
 4463SOL    HW214289   5.791   1.954   1.485
 4464SOL     OW14290   0.227   5.558   0.452
 4464SOL    HW114291   0.326   5.563   0.466
 4464SOL    HW214292   0.180   5.576   0.539
 4465SOL     OW14293   2.497   5.933   0.421
 4465SOL    HW114294   2.454   5.842   0.416
 4465SOL    HW214295   2.556   5.938   0.501
 4466SOL     OW14296   1.766   2.213   3.884
 4466SOL    HW114297   1.778   2.117   3.859
 4466SOL    HW214298   1.823   2.234   3.963
 4467SOL     OW14299   3.327   5.808   2.956
 4467SOL    HW114300   3.359   5.727   2.907
 4467SOL    HW214301   3.310   5.784   3.052
 4468SOL     OW14302   1.375   3.171   2.031
 4468SOL    HW114303   1.282   3.207   2.036
 4468SOL    HW214304   1.440   3.244   2.049
 4469SOL     OW14305   2.545   0.112   1.706
 4469SOL    HW114306   2.473   0.165   1.751
 4469SOL    HW214307   2.631   0.164   1.707
 4470SOL     OW14308   1.571   0.238   2.356
 4470SOL    HW114309   1.569   0.196   2.446
 4470SOL    HW214310   1.605   0.332   2.364
 4471SOL     OW14311   2.246   1.821   6.363
 4471SOL    HW114312   2.180   1.812   6.289
 4471SOL    HW214313   2.329   1.769   6.340
 4472SOL     OW14314   1.671   3.140   1.040
 4472SOL    HW114315   1.708   3.119   0.949
 4472SOL    HW214316   1.601   3.211   1.031
 4473SOL     OW14317   0.157   3.172   4.165
 4473SOL    HW114318   0.112   3.184   4.253
 4473SOL    HW214319   0.222   3.246   4.151
 4474SOL     OW14320   3.196   0.638   1.940
 4474SOL    HW114321   3.269   0.704   1.922
 4474SOL    HW214322   3.231   0.545   1.927
 4475SOL     OW14323   0.928   3.944   2.035
 4475SOL    HW114324   0.923   3.847   2.057
 4475SOL    HW214325   1.010   3.983   2.076
 4476SOL     OW14326   5.612   1.487   3.770
 4476SOL    HW114327   5.541   1.448   3.711
 4476SOL    HW214328   5.569   1.540   3.843
 4477SOL     OW14329   2.623   0.291   5.808
 4477SOL    HW114330   2.578   0.287   5.897
 4477SOL    HW214331   2.683   0.371   5.805
 4478SOL     OW14332   1.578   0.304   0.087
 4478SOL    HW114333   1.540   0.302   7.020
 4478SOL    HW214334   1.504   0.294   0.154
 4479SOL     OW14335   0.880   2.889   0.531
 4479SOL    HW114336   0.805   2.851   0.584
 4479SOL    HW214337   0.905   2.825   0.458
 4480SOL     OW14338   6.689   5.903   4.043
 4480SOL    HW114339   6.760   5.834   4.026
 4480SOL    HW214340   6.636   5.877   4.124
 4481SOL     OW14341   2.849   4.969   6.172
 4481SOL    HW114342   2.788   4.890   6.165
 4481SOL    HW214343   2.811   5.035   6.236
 4482SOL     OW14344   3.148   5.361   6.699
 4482SOL    HW114345   3.062   5.328   6.739
 4482SOL    HW214346   3.193   5.285   6.651
 4483SOL     OW14347   0.250   2.644   1.692
 4483SOL    HW114348   0.288   2.588   1.618
 4483SOL    HW214349   0.313   2.644   1.770
 4484SOL     OW14350   2.347   2.868   6.476
 4484SOL    HW114351   2.270   2.815   6.440
 4484SOL    HW214352   2.313   2.954   6.514
 4485SOL     OW14353   5.333   2.404   4.437
 4485SOL    HW114354   5.347   2.391   4.535
 4485SOL    HW214355   5.385   2.335   4.387
 4486SOL     OW14356   5.063   5.075   5.194
 4486SOL    HW114357   5.066   5.001   5.261
 4486SOL    HW214358   4.993   5.141   5.220
 4487SOL     OW14359   1.805   2.500   6.907
 4487SOL    HW114360   1.793   2.599   6.914
 4487SOL    HW214361   1.783   2.470   6.814
 4488SOL     OW14362   0.369   4.632   4.242
 4488SOL    HW114363   0.370   4.665   4.336
 4488SOL    HW214364   0.447   4.571   4.227
 4489SOL     OW14365   4.754   5.135   5.484
 4489SOL    HW114366   4.838   5.102   5.441
 4489SOL    HW214367   4.709   5.201   5.422
 4490SOL     OW14368   5.282   1.870   0.976
 4490SOL    HW114369   5.378   1.896   0.969
 4490SOL    HW214370   5.237   1.930   1.043
 4491SOL     OW14371   1.349   2.920   3.523
 4491SOL    HW114372   1.323   2.916   3.427
 4491SOL    HW214373   1.426   2.858   3.540
 4492SOL     OW14374   5.731   0.281   1.958
 4492SOL    HW114375   5.649   0.325   1.995
 4492SOL    HW214376   5.745   0.311   1.863
 4493SOL     OW14377   5.298   0.700   5.080
 4493SOL    HW114378   5.232   0.674   5.151
 4493SOL    HW214379   5.391   0.697   5.118
 4494SOL     OW14380   7.017   0.300   6.944
 4494SOL    HW114381   6.946   0.275   7.010
 4494SOL    HW214382   6.982   0.286   6.851
 4495SOL     OW14383   3.814   5.972   2.041
 4495SOL    HW114384   3.723   5.937   2.020
 4495SOL    HW214385   3.882   5.900   2.024
 4496SOL     OW14386   3.760   5.953   6.180
 4496SOL    HW114387   3.785   5.946   6.084
 4496SOL    HW214388   3.672   5.999   6.189
 4497SOL     OW14389   4.091   1.773   6.297
 4497SOL    HW114390   4.034   1.745   6.374
 4497SOL    HW214391   4.062   1.864   6.265
 4498SOL     OW14392   0.345   5.170   5.766
 4498SOL    HW114393   0.388   5.243   5.821
 4498SOL    HW214394   0.253   5.199   5.739
 4499SOL     OW14395   6.173   1.997   2.614
 4499SOL    HW114396   6.266   1.961   2.607
 4499SOL    HW214397   6.123   1.948   2.686
 4500SOL     OW14398   3.340   5.149   0.255
 4500SOL    HW114399   3.263   5.172   0.196
 4500SOL    HW214400   3.348   5.218   0.327
 4501SOL     OW14401   5.597   1.634   2.189
 4501SOL    HW114402   5.531   1.651   2.262
 4501SOL    HW214403   5.688   1.664   2.220
 4502SOL     OW14404   0.768   3.435   6.883
 4502SOL    HW114405   0.754   3.475   6.793
 4502SOL    HW214406   0.752   3.336   6.879
 4503SOL     OW14407   2.687   0.068   2.514
 4503SOL    HW114408   2.649   0.047   2.604
 4503SOL    HW214409   2.730   7.011   2.476
 4504SOL     OW14410   0.477   1.674   3.272
 4504SOL    HW114411   0.510   1.766   3.250
 4504SOL    HW214412   0.549   1.624   3.320
 4505SOL     OW14413   5.863   3.931   2.770
 4505SOL    HW114414   5.848   4.023   2.806
 4505SOL    HW214415   5.885   3.869   2.846
 4506SOL     OW14416   5.120   2.956   4.340
 4506SOL    HW114417   5.214   2.942   4.370
 4506SOL    HW214418   5.117   2.956   4.240
 4507SOL     OW14419   6.190   3.289   3.456
 4507SOL    HW114420   6.273   3.232   3.449
 4507SOL    HW214421   6.215   3.385   3.446
 4508SOL     OW14422   0.655   5.172   0.777
 4508SOL    HW114423   0.755   5.168   0.771
 4508SOL    HW214424   0.629   5.204   0.868
 4509SOL     OW14425   4.478   1.967   2.274
 4509SOL    HW114426   4.448   2.062   2.269
 4509SOL    HW214427   4.564   1.957   2.225
 4510SOL     OW14428   4.935   1.657   4.355
 4510SOL    HW114429   4.841   1.657   4.321
 4510SOL    HW214430   4.959   1.749   4.385
 4511SOL     OW14431   0.246   4.530   1.101
 4511SOL    HW114432   0.218   4.619   1.063
 4511SOL    HW214433   0.165   4.479   1.130
 4512SOL     OW14434   3.419   1.944   6.069
 4512SOL    HW114435   3.408   1.860   6.123
 4512SOL    HW214436   3.516   1.966   6.061
 4513SOL     OW14437   1.484   6.276   0.046
 4513SOL    HW114438   1.507   6.203   7.006
 4513SOL    HW214439   1.542   6.355   0.029
 4514SOL     OW14440   3.349   3.569   6.505
 4514SOL    HW114441   3.267   3.598   6.555
 4514SOL    HW214442   3.389   3.649   6.459
 4515SOL     OW14443   4.963   7.019   5.535
 4515SOL    HW114444   4.941   0.024   5.628
 4515SOL    HW214445   4.878   7.011   5.482
 4516SOL     OW14446   3.929   1.836   5.440
 4516SOL    HW114447   3.970   1.745   5.450
 4516SOL    HW214448   3.902   1.871   5.530
 4517SOL     OW14449   4.100   0.436   5.985
 4517SOL    HW114450   4.061   0.377   6.056
 4517SOL    HW214451   4.172   0.493   6.025
 4518SOL     OW14452   1.665   0.166   0.683
 4518SOL    HW114453   1.633   0.077   0.649
 4518SOL    HW214454   1.756   0.155   0.723
 4519SOL     OW14455   5.356   6.450   6.828
 4519SOL    HW114456   5.329   6.541   6.796
 4519SOL    HW214457   5.301   6.426   6.908
 4520SOL     OW14458   4.071   6.682   4.995
 4520SOL    HW114459   4.087   6.755   4.928
 4520SOL    HW214460   4.060   6.595   4.947
 4521SOL     OW14461   4.806   3.080   4.703
 4521SOL    HW114462   4.780   2.984   4.694
 4521SOL    HW214463   4.797   3.108   4.799
 4522SOL     OW14464   4.979   3.497   3.565
 4522SOL    HW114465   4.906   3.520   3.629
 4522SOL    HW214466   4.960   3.408   3.523
 4523SOL     OW14467   0.698   3.417   6.305
 4523SOL    HW114468   0.788   3.413   6.261
 4523SOL    HW214469   0.685   3.335   6.361
 4524SOL     OW14470   0.668   3.262   3.058
 4524SOL    HW114471   0.666   3.250   3.158
 4524SOL    HW214472   0.704   3.353   3.037
 4525SOL     OW14473   1.966   2.349   5.730
 4525SOL    HW114474   1.933   2.254   5.732
 4525SOL    HW214475   2.064   2.349   5.710
 4526SOL     OW14476   0.758   6.992   6.045
 4526SOL    HW114477   0.788   6.945   5.962
 4526SOL    HW214478   0.658   7.002   6.042
 4527SOL     OW14479   6.106   6.898   3.195
 4527SOL    HW114480   6.040   6.963   3.156
 4527SOL    HW214481   6.066   6.807   3.198
 4528SOL     OW14482   3.805   0.777   5.473
 4528SOL    HW114483   3.841   0.870   5.482
 4528SOL    HW214484   3.818   0.728   5.558
 4529SOL     OW14485   2.925   1.086   5.545
 4529SOL    HW114486   2.970   1.033   5.618
 4529SOL    HW214487   2.943   1.183   5.559
 4530SOL     OW14488   2.507   6.185   5.127
 4530SOL    HW114489   2.436   6.151   5.066
 4530SOL    HW214490   2.597   6.169   5.087
 4531SOL     OW14491   0.864   5.395   6.101
 4531SOL    HW114492   0.938   5.328   6.089
 4531SOL    HW214493   0.861   5.425   6.197
 4532SOL     OW14494   5.505   0.758   2.785
 4532SOL    HW114495   5.459   0.737   2.699
 4532SOL    HW214496   5.538   0.853   2.782
 4533SOL     OW14497   2.415   0.555   2.032
 4533SOL    HW114498   2.472   0.637   2.043
 4533SOL    HW214499   2.473   0.474   2.031
 4534SOL     OW14500   4.400   1.435   3.905
 4534SOL    HW114501   4.480   1.414   3.961
 4534SOL    HW214502   4.333   1.484   3.960
 4535SOL     OW14503   3.057   1.466   0.633
 4535SOL    HW114504   2.977   1.415   0.601
 4535SOL    HW214505   3.140   1.415   0.610
 4536SOL     OW14506   2.899   1.528   6.296
 4536SOL    HW114507   2.928   1.433   6.304
 4536SOL    HW214508   2.966   1.587   6.340
 4537SOL     OW14509   3.524   4.125   4.320
 4537SOL    HW114510   3.448   4.125   4.384
 4537SOL    HW214511   3.488   4.126   4.226
 4538SOL     OW14512   6.964   2.295   0.816
 4538SOL    HW114513   6.968   2.216   0.876
 4538SOL    HW214514   0.030   2.311   0.775
 4539SOL     OW14515   1.103   5.684   6.113
 4539SOL    HW114516   1.010   5.666   6.081
 4539SOL    HW214517   1.108   5.778   6.148
 4540SOL     OW14518   0.166   1.229   0.701
 4540SOL    HW114519   0.084   1.178   0.673
 4540SOL    HW214520   0.182   1.215   0.798
 4541SOL     OW14521   4.128   2.076   5.862
 4541SOL    HW114522   4.166   2.167   5.876
 4541SOL    HW214523   4.199   2.014   5.830
 4542SOL     OW14524   0.495   2.851   1.147
 4542SOL    HW114525   0.478   2.949   1.138
 4542SOL    HW214526   0.423   2.800   1.099
 4543SOL     OW14527   3.583   2.059   7.014
 4543SOL    HW114528   3.607   1.968   0.025
 4543SOL    HW214529   3.509   2.097   0.043
 4544SOL     OW14530   5.934   5.363   0.690
 4544SOL    HW114531   5.939   5.329   0.784
 4544SOL    HW214532   5.846   5.338   0.650
 4545SOL     OW14533   1.879   3.223   5.186
 4545SOL    HW114534   1.881   3.176   5.098
 4545SOL    HW214535   1.927   3.310   5.179
 4546SOL     OW14536   2.427   1.324   6.700
 4546SOL    HW114537   2.480   1.343   6.782
 4546SOL    HW214538   2.340   1.374   6.704
 4547SOL     OW14539   6.413   0.093   0.189
 4547SOL    HW114540   6.358   0.163   0.234
 4547SOL    HW214541   6.391   0.004   0.227
 4548SOL     OW14542   2.183   3.092   3.298
 4548SOL    HW114543   2.090   3.076   3.330
 4548SOL    HW214544   2.197   3.190   3.283
 4549SOL     OW14545   5.720   3.768   3.046
 4549SOL    HW114546   5.637   3.751   2.992
 4549SOL    HW214547   5.700   3.830   3.121
 4550SOL     OW14548   0.479   4.366   2.917
 4550SOL    HW114549   0.485   4.342   2.820
 4550SOL    HW214550   0.565   4.341   2.962
 4551SOL     OW14551   1.152   3.508   4.898
 4551SOL    HW114552   1.089   3.534   4.970
 4551SOL    HW214553   1.168   3.409   4.903
 4552SOL     OW14554   5.738   1.181   1.242
 4552SOL    HW114555   5.653   1.208   1.287
 4552SOL    HW214556   5.816   1.210   1.298
 4553SOL     OW14557   5.506   5.170   5.982
 4553SOL    HW114558   5.430   5.174   6.046
 4553SOL    HW214559   5.584   5.126   6.026
 4554SOL     OW14560   0.865   6.265   1.673
 4554SOL    HW114561   0.944   6.279   1.733
 4554SOL    HW214562   0.847   6.349   1.622
 4555SOL     OW14563   0.771   1.117   6.890
 4555SOL    HW114564   0.775   1.017   6.883
 4555SOL    HW214565   0.863   1.154   6.902
 4556SOL     OW14566   6.160   3.232   6.007
 4556SOL    HW114567   6.068   3.267   5.992
 4556SOL    HW214568   6.221   3.269   5.937
 4557SOL     OW14569   6.004   4.896   3.237
 4557SOL    HW114570   6.086   4.938   3.278
 4557SOL    HW214571   6.011   4.898   3.138
 4558SOL     OW14572   7.016   3.132   5.193
 4558SOL    HW114573   6.935   3.182   5.163
 4558SOL    HW214574   7.002   3.099   5.287
 4559SOL     OW14575   0.688   3.140   2.547
 4559SOL    HW114576   0.677   3.109   2.452
 4559SOL    HW214577   0.678   3.063   2.609
 4560SOL     OW14578   5.837   4.522   2.464
 4560SOL    HW114579   5.915   4.463   2.443
 4560SOL    HW214580   5.809   4.507   2.559
 4561SOL     OW14581   4.136   2.181   4.646
 4561SOL    HW114582   4.064   2.160   4.579
 4561SOL    HW214583   4.188   2.260   4.615
 4562SOL     OW14584   2.291   0.732   1.025
 4562SOL    HW114585   2.264   0.656   0.967
 4562SOL    HW214586   2.287   0.817   0.972
 4563SOL     OW14587   0.161   3.155   1.634
 4563SOL    HW114588   0.125   3.189   1.548
 4563SOL    HW214589   0.123   3.064   1.653
 4564SOL     OW14590   6.938   4.220   2.212
 4564SOL    HW114591   0.013   4.224   2.202
 4564SOL    HW214592   6.910   4.124   2.222
 4565SOL     OW14593   2.029   6.711   5.043
 4565SOL    HW114594   1.966   6.657   4.987
 4565SOL    HW214595   2.007   6.697   5.140
 4566SOL     OW14596   6.741   4.492   1.694
 4566SOL    HW114597   6.706   4.460   1.606
 4566SOL    HW214598   6.735   4.418   1.761
 4567SOL     OW14599   0.284   0.387   6.380
 4567SOL    HW114600   0.240   0.399   6.469
 4567SOL    HW214601   0.380   0.415   6.386
 4568SOL     OW14602   0.443   5.599   3.696
 4568SOL    HW114603   0.533   5.556   3.698
 4568SOL    HW214604   0.372   5.529   3.698
 4569SOL     OW14605   2.870   1.285   3.038
 4569SOL    HW114606   2.809   1.207   3.054
 4569SOL    HW214607   2.816   1.368   3.028
 4570SOL     OW14608   6.183   5.347   1.614
 4570SOL    HW114609   6.221   5.255   1.625
 4570SOL    HW214610   6.193   5.376   1.519
 4571SOL     OW14611   3.359   3.082   6.321
 4571SOL    HW114612   3.302   3.078   6.403
 4571SOL    HW214613   3.418   3.001   6.317
 4572SOL     OW14614   2.681   3.429   1.072
 4572SOL    HW114615   2.621   3.509   1.073
 4572SOL    HW214616   2.751   3.440   1.002
 4573SOL     OW14617   1.561   6.139   1.416
 4573SOL    HW114618   1.468   6.104   1.405
 4573SOL    HW214619   1.616   6.114   1.336
 4574SOL     OW14620   6.006   3.171   0.429
 4574SOL    HW114621   5.966   3.121   0.352
 4574SOL    HW214622   6.085   3.223   0.397
 4575SOL     OW14623   6.328   0.653   4.200
 4575SOL    HW114624   6.387   0.719   4.246
 4575SOL    HW214625   6.235   0.660   4.237
 4576SOL     OW14626   2.595   5.030   5.110
 4576SOL    HW114627   2.523   5.008   5.176
 4576SOL    HW214628   2.561   5.016   5.017
 4577SOL     OW14629   2.009   1.553   2.832
 4577SOL    HW114630   1.960   1.639   2.848
 4577SOL    HW214631   2.035   1.546   2.736
 4578SOL     OW14632   1.235   0.789   1.924
 4578SOL    HW114633   1.326   0.804   1.965
 4578SOL    HW214634   1.194   0.708   1.964
 4579SOL     OW14635   4.143   0.340   2.335
 4579SOL    HW114636   4.218   0.343   2.401
 4579SOL    HW214637   4.169   0.283   2.257
 4580SOL     OW14638   6.510   2.966   0.425
 4580SOL    HW114639   6.589   3.018   0.393
 4580SOL    HW214640   6.509   2.876   0.381
 4581SOL     OW14641   3.430   6.929   1.936
 4581SOL    HW114642   3.366   6.999   1.904
 4581SOL    HW214643   3.504   6.919   1.869
 4582SOL     OW14644   5.945   0.732   2.930
 4582SOL    HW114645   5.971   0.638   2.950
 4582SOL    HW214646   5.919   0.739   2.833
 4583SOL     OW14647   2.055   7.011   6.797
 4583SOL    HW114648   2.109   7.020   6.714
 4583SOL    HW214649   2.114   7.024   6.877
 4584SOL     OW14650   1.418   0.508   5.849
 4584SOL    HW114651   1.338   0.519   5.789
 4584SOL    HW214652   1.393   0.533   5.942
 4585SOL     OW14653   1.168   3.914   3.146
 4585SOL    HW114654   1.086   3.875   3.188
 4585SOL    HW214655   1.176   3.883   3.052
 4586SOL     OW14656   5.325   4.610   6.872
 4586SOL    HW114657   5.365   4.623   6.963
 4586SOL    HW214658   5.232   4.573   6.881
 4587SOL     OW14659   3.103   3.753   4.668
 4587SOL    HW114660   3.070   3.846   4.680
 4587SOL    HW214661   3.044   3.705   4.603
 4588SOL     OW14662   2.511   4.048   5.836
 4588SOL    HW114663   2.482   4.144   5.839
 4588SOL    HW214664   2.593   4.037   5.893
 4589SOL     OW14665   5.071   6.562   2.407
 4589SOL    HW114666   5.047   6.635   2.343
 4589SOL    HW214667   4.989   6.508   2.427
 4590SOL     OW14668   3.277   5.223   2.113
 4590SOL    HW114669   3.245   5.253   2.024
 4590SOL    HW214670   3.351   5.283   2.144
 4591SOL     OW14671   2.214   0.411   5.460
 4591SOL    HW114672   2.125   0.399   5.504
 4591SOL    HW214673   2.284   0.368   5.516
 4592SOL     OW14674   2.584   1.586   4.568
 4592SOL    HW114675   2.509   1.622   4.513
 4592SOL    HW214676   2.586   1.632   4.657
 4593SOL     OW14677   0.404   5.853   4.461
 4593SOL    HW114678   0.466   5.775   4.461
 4593SOL    HW214679   0.425   5.914   4.385
 4594SOL     OW14680   2.223   0.381   2.492
 4594SOL    HW114681   2.245   0.322   2.414
 4594SOL    HW214682   2.308   0.418   2.530
 4595SOL     OW14683   4.913   1.635   6.289
 4595SOL    HW114684   4.889   1.724   6.251
 4595SOL    HW214685   4.994   1.644   6.348
 4596SOL     OW14686   0.937   0.862   2.271
 4596SOL    HW114687   0.981   0.858   2.361
 4596SOL    HW214688   0.959   0.779   2.219
 4597SOL     OW14689   3.096   5.813   7.004
 4597SOL    HW114690   3.102   5.726   6.954
 4597SOL    HW214691   3.158   5.811   0.057
 4598SOL     OW14692   2.062   5.582   6.757
 4598SOL    HW114693   1.976   5.629   6.774
 4598SOL    HW214694   2.100   5.549   6.843
 4599SOL     OW14695   1.780   4.847   2.755
 4599SOL    HW114696   1.769   4.856   2.854
 4599SOL    HW214697   1.701   4.885   2.708
 4600SOL     OW14698   6.800   6.548   5.463
 4600SOL    HW114699   6.749   6.468   5.432
 4600SOL    HW214700   6.820   6.540   5.560
 4601SOL     OW14701   0.939   1.208   4.465
 4601SOL    HW114702   1.018   1.204   4.405
 4601SOL    HW214703   0.968   1.198   4.560
 4602SOL     OW14704   3.241   1.195   6.908
 4602SOL    HW114705   3.320   1.219   6.852
 4602SOL    HW214706   3.206   1.277   6.953
 4603SOL     OW14707   4.547   5.731   1.034
 4603SOL    HW114708   4.496   5.804   1.079
 4603SOL    HW214709   4.641   5.761   1.016
 4604SOL     OW14710   5.510   6.995   5.857
 4604SOL    HW114711   5.599   0.017   5.863
 4604SOL    HW214712   5.525   6.897   5.853
 4605SOL     OW14713   3.033   6.829   2.287
 4605SOL    HW114714   3.028   6.767   2.209
 4605SOL    HW214715   3.128   6.837   2.317
 4606SOL     OW14716   6.751   6.559   3.270
 4606SOL    HW114717   6.668   6.607   3.296
 4606SOL    HW214718   6.831   6.616   3.292
 4607SOL     OW14719   1.865   3.242   2.457
 4607SOL    HW114720   1.797   3.196   2.514
 4607SOL    HW214721   1.842   3.229   2.360
 4608SOL     OW14722   0.083   3.555   4.926
 4608SOL    HW114723   7.009   3.570   4.919
 4608SOL    HW214724   0.100   3.464   4.965
 4609SOL     OW14725   4.445   6.186   6.477
 4609SOL    HW114726   4.534   6.231   6.484
 4609SOL    HW214727   4.436   6.143   6.388
 4610SOL     OW14728   5.156   2.261   0.736
 4610SOL    HW114729   5.144   2.248   0.835
 4610SOL    HW214730   5.220   2.336   0.720
 4611SOL     OW14731   1.035   0.150   5.852
 4611SOL    HW114732   1.121   0.201   5.848
 4611SOL    HW214733   0.969   0.202   5.907
 4612SOL     OW14734   1.799   6.446   2.173
 4612SOL    HW114735   1.708   6.487   2.172
 4612SOL    HW214736   1.869   6.518   2.174
 4613SOL     OW14737   1.679   5.054   1.704
 4613SOL    HW114738   1.733   5.137   1.706
 4613SOL    HW214739   1.594   5.068   1.756
 4614SOL     OW14740   6.815   3.590   4.910
 4614SOL    HW114741   6.761   3.630   4.835
 4614SOL    HW214742   6.770   3.608   4.997
 4615SOL     OW14743   1.297   2.042   1.090
 4615SOL    HW114744   1.389   2.073   1.114
 4615SOL    HW214745   1.259   1.989   1.165
 4616SOL     OW14746   6.429   3.061   4.542
 4616SOL    HW114747   6.418   3.093   4.447
 4616SOL    HW214748   6.342   3.028   4.577
 4617SOL     OW14749   0.411   2.224   2.509
 4617SOL    HW114750   0.479   2.192   2.575
 4617SOL    HW214751   0.440   2.311   2.470
 4618SOL     OW14752   2.693   4.347   5.662
 4618SOL    HW114753   2.736   4.301   5.584
 4618SOL    HW214754   2.764   4.391   5.717
 4619SOL     OW14755   3.203   6.116   5.102
 4619SOL    HW114756   3.135   6.085   5.169
 4619SOL    HW214757   3.173   6.202   5.062
 4620SOL     OW14758   0.685   5.650   2.564
 4620SOL    HW114759   0.671   5.706   2.482
 4620SOL    HW214760   0.781   5.626   2.572
 4621SOL     OW14761   5.078   0.563   2.405
 4621SOL    HW114762   5.167   0.604   2.386
 4621SOL    HW214763   5.054   0.501   2.330
 4622SOL     OW14764   4.423   5.954   1.201
 4622SOL    HW114765   4.464   5.908   1.280
 4622SOL    HW214766   4.331   5.984   1.223
 4623SOL     OW14767   2.955   4.986   1.479
 4623SOL    HW114768   2.951   4.988   1.579
 4623SOL    HW214769   2.885   4.924   1.444
 4624SOL     OW14770   4.183   0.890   3.195
 4624SOL    HW114771   4.085   0.896   3.213
 4624SOL    HW214772   4.202   0.807   3.143
 4625SOL     OW14773   1.803   5.297   1.741
 4625SOL    HW114774   1.821   5.328   1.835
 4625SOL    HW214775   1.722   5.344   1.706
 4626SOL     OW14776   4.043   3.946   1.562
 4626SOL    HW114777   4.115   3.952   1.632
 4626SOL    HW214778   4.085   3.938   1.472
 4627SOL     OW14779   6.688   6.548   4.652
 4627SOL    HW114780   6.781   6.586   4.654
 4627SOL    HW214781   6.668   6.515   4.560
 4628SOL     OW14782   5.063   5.211   3.317
 4628SOL    HW114783   4.975   5.163   3.324
 4628SOL    HW214784   5.107   5.187   3.231
 4629SOL     OW14785   2.117   5.991   6.651
 4629SOL    HW114786   2.033   5.939   6.635
 4629SOL    HW214787   2.167   5.951   6.728
 4630SOL     OW14788   1.884   4.120   1.709
 4630SOL    HW114789   1.855   4.205   1.754
 4630SOL    HW214790   1.846   4.117   1.617
 4631SOL     OW14791   0.321   0.717   3.899
 4631SOL    HW114792   0.281   0.777   3.969
 4631SOL    HW214793   0.293   0.749   3.809
 4632SOL     OW14794   3.420   4.908   2.707
 4632SOL    HW114795   3.444   4.912   2.610
 4632SOL    HW214796   3.329   4.868   2.718
 4633SOL     OW14797   5.283   1.585   3.841
 4633SOL    HW114798   5.343   1.611   3.917
 4633SOL    HW214799   5.265   1.487   3.844
 4634SOL     OW14800   3.252   3.503   4.586
 4634SOL    HW114801   3.172   3.469   4.538
 4634SOL    HW214802   3.224   3.546   4.671
 4635SOL     OW14803   5.246   5.785   0.328
 4635SOL    HW114804   5.325   5.756   0.275
 4635SOL    HW214805   5.254   5.882   0.349
 4636SOL     OW14806   2.148   5.870   0.045
 4636SOL    HW114807   2.129   5.967   0.064
 4636SOL    HW214808   2.134   5.816   0.127
 4637SOL     OW14809   2.077   6.972   2.440
 4637SOL    HW114810   2.138   6.957   2.362
 4637SOL    HW214811   1.984   6.943   2.416
 4638SOL     OW14812   3.867   5.198   0.412
 4638SOL    HW114813   3.944   5.256   0.386
 4638SOL    HW214814   3.835   5.147   0.332
 4639SOL     OW14815   2.014   2.029   0.689
 4639SOL    HW114816   2.102   2.065   0.720
 4639SOL    HW214817   2.030   1.962   0.617
 4640SOL     OW14818   6.578   3.079   5.399
 4640SOL    HW114819   6.585   3.093   5.498
 4640SOL    HW214820   6.573   2.981   5.380
 4641SOL     OW14821   0.469   5.444   4.214
 4641SOL    HW114822   0.490   5.417   4.119
 4641SOL    HW214823   0.431   5.365   4.262
 4642SOL     OW14824   0.983   1.777   3.445
 4642SOL    HW114825   1.026   1.724   3.518
 4642SOL    HW214826   1.032   1.863   3.432
 4643SOL     OW14827   0.206   2.038   6.715
 4643SOL    HW114828   0.153   2.051   6.799
 4643SOL    HW214829   0.292   2.089   6.721
 4644SOL     OW14830   1.864   0.853   0.640
 4644SOL    HW114831   1.767   0.846   0.662
 4644SOL    HW214832   1.907   0.763   0.648
 4645SOL     OW14833   1.698   0.975   3.376
 4645SOL    HW114834   1.765   0.905   3.350
 4645SOL    HW214835   1.687   1.039   3.300
 4646SOL     OW14836   2.124   5.312   3.845
 4646SOL    HW114837   2.049   5.296   3.909
 4646SOL    HW214838   2.152   5.226   3.804
 4647SOL     OW14839   1.693   6.804   3.033
 4647SOL    HW114840   1.656   6.728   2.979
 4647SOL    HW214841   1.785   6.825   3.001
 4648SOL     OW14842   3.037   1.417   4.549
 4648SOL    HW114843   3.016   1.376   4.637
 4648SOL    HW214844   3.075   1.348   4.487
 4649SOL     OW14845   5.957   0.597   0.400
 4649SOL    HW114846   5.930   0.520   0.342
 4649SOL    HW214847   6.010   0.562   0.478
 4650SOL     OW14848   5.285   6.563   1.566
 4650SOL    HW114849   5.295   6.659   1.591
 4650SOL    HW214850   5.192   6.533   1.586
 4651SOL     OW14851   6.088   2.979   5.729
 4651SOL    HW114852   6.129   2.890   5.745
 4651SOL    HW214853   6.108   3.040   5.805
 4652SOL     OW14854   0.014   6.291   4.325
 4652SOL    HW114855   0.004   6.387   4.355
 4652SOL    HW214856   0.098   6.282   4.271
 4653SOL     OW14857   5.281   5.904   1.182
 4653SOL    HW114858   5.188   5.936   1.203
 4653SOL    HW214859   5.286   5.877   1.086
 4654SOL     OW14860   0.178   6.647   5.109
 4654SOL    HW114861   0.178   6.711   5.032
 4654SOL    HW214862   0.084   6.627   5.135
 4655SOL     OW14863   4.587   2.693   1.053
 4655SOL    HW114864   4.499   2.661   1.019
 4655SOL    HW214865   4.586   2.694   1.153
 4656SOL     OW14866   0.695   1.103   1.498
 4656SOL    HW114867   0.675   1.101   1.596
 4656SOL    HW214868   0.793   1.091   1.483
 4657SOL     OW14869   5.118   7.016   2.213
 4657SOL    HW114870   5.168   0.053   2.275
 4657SOL    HW214871   5.184   6.959   2.164
 4658SOL     OW14872   2.696   2.372   5.270
 4658SOL    HW114873   2.648   2.456   5.292
 4658SOL    HW214874   2.780   2.366   5.325
 4659SOL     OW14875   3.480   4.784   1.125
 4659SOL    HW114876   3.413   4.810   1.056
 4659SOL    HW214877   3.461   4.833   1.210
 4660SOL     OW14878   1.157   6.220   4.160
 4660SOL    HW114879   1.170   6.233   4.062
 4660SOL    HW214880   1.242   6.242   4.208
 4661SOL     OW14881   2.129   3.346   6.036
 4661SOL    HW114882   2.149   3.354   5.939
 4661SOL    HW214883   2.183   3.413   6.087
 4662SOL     OW14884   2.507   6.664   4.780
 4662SOL    HW114885   2.594   6.670   4.829
 4662SOL    HW214886   2.455   6.585   4.813
 4663SOL     OW14887   0.821   6.976   0.176
 4663SOL    HW114888   0.739   0.005   0.193
 4663SOL    HW214889   0.815   6.934   0.085
 4664SOL     OW14890   6.540   6.554   0.399
 4664SOL    HW114891   6.569   6.539   0.493
 4664SOL    HW214892   6.620   6.555   0.339
 4665SOL     OW14893   2.329   0.898   4.770
 4665SOL    HW114894   2.282   0.827   4.823
 4665SOL    HW214895   2.316   0.986   4.815
 4666SOL     OW14896   1.837   2.055   5.807
 4666SOL    HW114897   1.834   2.013   5.716
 4666SOL    HW214898   1.823   1.985   5.876
 4667SOL     OW14899   0.098   3.781   1.681
 4667SOL    HW114900   0.092   3.833   1.596
 4667SOL    HW214901   0.083   3.843   1.759
 4668SOL     OW14902   4.424   2.434   4.844
 4668SOL    HW114903   4.448   2.341   4.875
 4668SOL    HW214904   4.347   2.468   4.897
 4669SOL     OW14905   5.651   0.128   0.263
 4669SOL    HW114906   5.678   0.162   0.173
 4669SOL    HW214907   5.686   0.036   0.276
 4670SOL     OW14908   0.797   3.454   0.707
 4670SOL    HW114909   0.827   3.493   0.793
 4670SOL    HW214910   0.724   3.511   0.668
 4671SOL     OW14911   0.404   3.886   0.152
 4671SOL    HW114912   0.499   3.886   0.182
 4671SOL    HW214913   0.360   3.971   0.181
 4672SOL     OW14914   3.354   4.121   5.746
 4672SOL    HW114915   3.365   4.060   5.668
 4672SOL    HW214916   3.261   4.111   5.783
 4673SOL     OW14917   5.850   0.445   6.704
 4673SOL    HW114918   5.843   0.526   6.645
 4673SOL    HW214919   5.812   0.467   6.794
 4674SOL     OW14920   0.642   1.771   0.263
 4674SOL    HW114921   0.566   1.706   0.269
 4674SOL    HW214922   0.639   1.834   0.340
 4675SOL     OW14923   3.077   5.866   0.311
 4675SOL    HW114924   3.122   5.926   0.378
 4675SOL    HW214925   3.013   5.920   0.257
 4676SOL     OW14926   0.777   6.257   3.777
 4676SOL    HW114927   0.789   6.187   3.847
 4676SOL    HW214928   0.686   6.249   3.737
 4677SOL     OW14929   4.458   0.436   6.065
 4677SOL    HW114930   4.522   0.511   6.075
 4677SOL    HW214931   4.396   0.434   6.143
 4678SOL     OW14932   1.996   4.766   0.272
 4678SOL    HW114933   2.049   4.704   0.330
 4678SOL    HW214934   2.056   4.807   0.204
 4679SOL     OW14935   2.788   0.767   6.265
 4679SOL    HW114936   2.777   0.744   6.168
 4679SOL    HW214937   2.698   0.777   6.308
 4680SOL     OW14938   1.796   5.378   0.484
 4680SOL    HW114939   1.769   5.282   0.495
 4680SOL    HW214940   1.760   5.413   0.398
 4681SOL     OW14941   6.982   4.965   5.830
 4681SOL    HW114942   7.007   5.060   5.849
 4681SOL    HW214943   6.930   4.960   5.745
 4682SOL     OW14944   3.918   6.508   0.465
 4682SOL    HW114945   4.010   6.516   0.503
 4682SOL    HW214946   3.885   6.414   0.476
 4683SOL     OW14947   5.905   3.877   2.246
 4683SOL    HW114948   5.916   3.882   2.146
 4683SOL    HW214949   5.828   3.816   2.267
 4684SOL     OW14950   1.659   1.819   4.492
 4684SOL    HW114951   1.650   1.918   4.481
 4684SOL    HW214952   1.744   1.788   4.450
 4685SOL     OW14953   5.091   5.110   4.516
 4685SOL    HW114954   5.189   5.112   4.497
 4685SOL    HW214955   5.059   5.016   4.520
 4686SOL     OW14956   4.825   5.167   6.511
 4686SOL    HW114957   4.870   5.248   6.548
 4686SOL    HW214958   4.850   5.156   6.415
 4687SOL     OW14959   6.024   4.554   4.890
 4687SOL    HW114960   6.045   4.613   4.812
 4687SOL    HW214961   5.934   4.512   4.877
 4688SOL     OW14962   0.582   3.066   6.893
 4688SOL    HW114963   0.563   3.148   6.839
 4688SOL    HW214964   0.543   3.075   6.984
 4689SOL     OW14965   6.835   6.184   4.689
 4689SOL    HW114966   6.771   6.156   4.760
 4689SOL    HW214967   6.906   6.242   4.729
 4690SOL     OW14968   1.641   1.433   0.358
 4690SOL    HW114969   1.733   1.471   0.349
 4690SOL    HW214970   1.590   1.450   0.273
 4691SOL     OW14971   2.577   4.833   0.848
 4691SOL    HW114972   2.508   4.852   0.918
 4691SOL    HW214973   2.632   4.754   0.876
 4692SOL     OW14974   6.930   5.238   3.396
 4692SOL    HW114975   6.854   5.213   3.457
 4692SOL    HW214976   6.954   5.334   3.409
 4693SOL     OW14977   0.569   1.289   4.258
 4693SOL    HW114978   0.603   1.221   4.193
 4693SOL    HW214979   0.606   1.270   4.348
 4694SOL     OW14980   1.710   1.382   0.797
 4694SOL    HW114981   1.629   1.324   0.797
 4694SOL    HW214982   1.683   1.478   0.786
 4695SOL     OW14983   3.775   2.937   2.176
 4695SOL    HW114984   3.752   2.841   2.165
 4695SOL    HW214985   3.869   2.945   2.208
 4696SOL     OW14986   6.784   3.015   5.984
 4696SOL    HW114987   6.818   2.964   5.906
 4696SOL    HW214988   6.825   2.980   6.068
 4697SOL     OW14989   1.037   4.288   0.018
 4697SOL    HW114990   0.963   4.259   0.078
 4697SOL    HW214991   1.121   4.296   0.071
 4698SOL     OW14992   5.725   3.680   1.083
 4698SOL    HW114993   5.762   3.753   1.140
 4698SOL    HW214994   5.753   3.591   1.120
 4699SOL     OW14995   0.199   0.847   2.578
 4699SOL    HW114996   0.243   0.791   2.648
 4699SOL    HW214997   0.189   0.940   2.612
 4700SOL     OW14998   4.946   1.286   0.982
 4700SOL    HW114999   4.934   1.246   0.891
 4700SOL    HW215000   4.907   1.224   1.051
 4701SOL     OW15001   0.645   1.174   0.114
 4701SOL    HW115002   0.711   1.180   0.038
 4701SOL    HW215003   0.554   1.200   0.081
 4702SOL     OW15004   3.583   3.843   0.198
 4702SOL    HW115005   3.606   3.747   0.213
 4702SOL    HW215006   3.534   3.879   0.277
 4703SOL     OW15007   2.007   0.843   2.353
 4703SOL    HW115008   2.018   0.781   2.431
 4703SOL    HW215009   2.042   0.933   2.377
 4704SOL     OW15010   0.051   6.882   0.541
 4704SOL    HW115011   7.016   6.811   0.577
 4704SOL    HW215012   0.084   6.940   0.615
 4705SOL     OW15013   3.666   3.469   4.110
 4705SOL    HW115014   3.595   3.516   4.057
 4705SOL    HW215015   3.692   3.527   4.188
 4706SOL     OW15016   4.197   6.415   6.791
 4706SOL    HW115017   4.250   6.386   6.871
 4706SOL    HW215018   4.138   6.491   6.816
 4707SOL     OW15019   2.097   5.453   1.194
 4707SOL    HW115020   2.001   5.444   1.222
 4707SOL    HW215021   2.145   5.367   1.212
 4708SOL     OW15022   2.850   2.623   1.441
 4708SOL    HW115023   2.840   2.688   1.517
 4708SOL    HW215024   2.833   2.670   1.355
 4709SOL     OW15025   3.908   5.232   5.107
 4709SOL    HW115026   3.883   5.289   5.186
 4709SOL    HW215027   3.906   5.288   5.024
 4710SOL     OW15028   4.425   1.311   6.639
 4710SOL    HW115029   4.361   1.254   6.587
 4710SOL    HW215030   4.516   1.305   6.598
 4711SOL     OW15031   3.764   0.051   2.659
 4711SOL    HW115032   3.711   7.002   2.701
 4711SOL    HW215033   3.776   0.125   2.724
 4712SOL     OW15034   1.957   4.683   0.693
 4712SOL    HW115035   1.965   4.772   0.646
 4712SOL    HW215036   1.934   4.698   0.789
 4713SOL     OW15037   2.266   5.225   1.274
 4713SOL    HW115038   2.201   5.174   1.217
 4713SOL    HW215039   2.358   5.213   1.239
 4714SOL     OW15040   3.351   2.012   1.708
 4714SOL    HW115041   3.308   1.967   1.786
 4714SOL    HW215042   3.296   1.997   1.626
 4715SOL     OW15043   0.117   2.618   2.986
 4715SOL    HW115044   0.179   2.592   3.060
 4715SOL    HW215045   0.053   2.543   2.967
 4716SOL     OW15046   3.454   5.682   0.458
 4716SOL    HW115047   3.533   5.622   0.458
 4716SOL    HW215048   3.466   5.752   0.529
 4717SOL     OW15049   1.262   6.093   3.502
 4717SOL    HW115050   1.352   6.116   3.464
 4717SOL    HW215051   1.267   6.088   3.601
 4718SOL     OW15052   5.830   1.231   6.418
 4718SOL    HW115053   5.781   1.232   6.331
 4718SOL    HW215054   5.860   1.324   6.440
 4719SOL     OW15055   5.209   3.198   1.823
 4719SOL    HW115056   5.294   3.232   1.863
 4719SOL    HW215057   5.216   3.200   1.724
 4720SOL     OW15058   2.392   0.345   5.696
 4720SOL    HW115059   2.461   0.311   5.760
 4720SOL    HW215060   2.311   0.374   5.748
 4721SOL     OW15061   1.929   1.665   1.048
 4721SOL    HW115062   1.868   1.743   1.061
 4721SOL    HW215063   1.911   1.596   1.118
 4722SOL     OW15064   1.743   6.976   0.070
 4722SOL    HW115065   1.782   0.030   0.117
 4722SOL    HW215066   1.647   6.966   0.093
 4723SOL     OW15067   2.647   6.774   6.764
 4723SOL    HW115068   2.567   6.828   6.787
 4723SOL    HW215069   2.713   6.780   6.839
 4724SOL     OW15070   3.633   6.588   1.766
 4724SOL    HW115071   3.644   6.688   1.770
 4724SOL    HW215072   3.585   6.557   1.848
 4725SOL     OW15073   5.750   6.357   3.461
 4725SOL    HW115074   5.757   6.445   3.414
 4725SOL    HW215075   5.694   6.367   3.543
 4726SOL     OW15076   0.886   4.228   6.826
 4726SOL    HW115077   0.937   4.290   6.885
 4726SOL    HW215078   0.808   4.277   6.787
 4727SOL     OW15079   6.810   5.665   6.894
 4727SOL    HW115080   6.745   5.728   6.850
 4727SOL    HW215081   6.761   5.609   6.961
 4728SOL     OW15082   0.317   0.778   6.480
 4728SOL    HW115083   0.264   0.786   6.396
 4728SOL    HW215084   0.255   0.768   6.558
 4729SOL     OW15085   3.516   6.984   2.450
 4729SOL    HW115086   3.586   6.997   2.520
 4729SOL    HW215087   3.554   7.008   2.360
 4730SOL     OW15088   2.105   6.323   5.614
 4730SOL    HW115089   2.201   6.316   5.641
 4730SOL    HW215090   2.048   6.283   5.686
 4731SOL     OW15091   5.814   1.151   4.682
 4731SOL    HW115092   5.877   1.132   4.607
 4731SOL    HW215093   5.859   1.209   4.750
 4732SOL     OW15094   0.216   3.165   7.007
 4732SOL    HW115095   0.186   3.233   0.050
 4732SOL    HW215096   0.205   3.204   6.915
 4733SOL     OW15097   0.117   4.308   3.401
 4733SOL    HW115098   0.174   4.389   3.415
 4733SOL    HW215099   0.167   4.242   3.345
 4734SOL     OW15100   4.132   3.802   6.583
 4734SOL    HW115101   4.136   3.789   6.484
 4734SOL    HW215102   4.139   3.899   6.605
 4735SOL     OW15103   0.966   4.927   3.509
 4735SOL    HW115104   0.990   4.830   3.520
 4735SOL    HW215105   0.873   4.942   3.541
 4736SOL     OW15106   0.925   0.871   0.110
 4736SOL    HW115107   0.840   0.900   0.155
 4736SOL    HW215108   1.002   0.885   0.173
 4737SOL     OW15109   2.273   4.784   1.861
 4737SOL    HW115110   2.345   4.763   1.795
 4737SOL    HW215111   2.300   4.749   1.951
 4738SOL     OW15112   6.934   6.517   2.012
 4738SOL    HW115113   6.858   6.580   2.030
 4738SOL    HW215114   7.021   6.564   2.025
 4739SOL     OW15115   4.668   0.468   2.458
 4739SOL    HW115116   4.666   0.369   2.477
 4739SOL    HW215117   4.590   0.493   2.401
 4740SOL     OW15118   1.246   1.989   2.663
 4740SOL    HW115119   1.211   1.927   2.593
 4740SOL    HW215120   1.281   2.072   2.619
 4741SOL     OW15121   4.426   3.450   1.595
 4741SOL    HW115122   4.465   3.359   1.578
 4741SOL    HW215123   4.495   3.508   1.638
 4742SOL     OW15124   2.958   0.092   0.513
 4742SOL    HW115125   3.015   0.057   0.587
 4742SOL    HW215126   2.894   0.159   0.550
 4743SOL     OW15127   2.407   4.956   1.034
 4743SOL    HW115128   2.382   5.046   0.998
 4743SOL    HW215129   2.324   4.907   1.062
 4744SOL     OW15130   1.658   6.907   0.740
 4744SOL    HW115131   1.674   6.840   0.813
 4744SOL    HW215132   1.559   6.917   0.725
 4745SOL     OW15133   1.717   4.191   0.394
 4745SOL    HW115134   1.656   4.268   0.408
 4745SOL    HW215135   1.669   4.106   0.415
 4746SOL     OW15136   4.671   5.643   4.520
 4746SOL    HW115137   4.754   5.605   4.562
 4746SOL    HW215138   4.592   5.588   4.547
 4747SOL     OW15139   1.560   2.366   0.907
 4747SOL    HW115140   1.461   2.377   0.904
 4747SOL    HW215141   1.584   2.284   0.959
 4748SOL     OW15142   1.767   6.651   3.304
 4748SOL    HW115143   1.716   6.625   3.222
 4748SOL    HW215144   1.863   6.664   3.282
 4749SOL     OW15145   1.853   0.159   0.217
 4749SOL    HW115146   1.871   0.180   0.314
 4749SOL    HW215147   1.863   0.242   0.163
 4750SOL     OW15148   5.611   3.263   5.440
 4750SOL    HW115149   5.635   3.317   5.520
 4750SOL    HW215150   5.644   3.169   5.452
 4751SOL     OW15151   4.754   0.850   2.887
 4751SOL    HW115152   4.845   0.885   2.909
 4751SOL    HW215153   4.699   0.844   2.970
 4752SOL     OW15154   4.526   2.271   0.016
 4752SOL    HW115155   4.495   2.205   0.085
 4752SOL    HW215156   4.613   2.310   0.044
 4753SOL     OW15157   2.668   6.492   5.123
 4753SOL    HW115158   2.710   6.436   5.195
 4753SOL    HW215159   2.606   6.558   5.165
 4754SOL     OW15160   4.427   4.687   6.398
 4754SOL    HW115161   4.350   4.623   6.390
 4754SOL    HW215162   4.395   4.780   6.380
 4755SOL     OW15163   1.025   0.631   1.243
 4755SOL    HW115164   1.048   0.721   1.204
 4755SOL    HW215165   1.038   0.561   1.174
 4756SOL     OW15166   6.453   4.046   6.578
 4756SOL    HW115167   6.432   3.984   6.654
 4756SOL    HW215168   6.436   4.140   6.606
 4757SOL     OW15169   1.655   3.708   1.545
 4757SOL    HW115170   1.750   3.730   1.570
 4757SOL    HW215171   1.596   3.785   1.569
 4758SOL     OW15172   1.718   6.977   3.240
 4758SOL    HW115173   1.703   6.904   3.174
 4758SOL    HW215174   1.744   6.937   3.328
 4759SOL     OW15175   1.284   4.909   1.176
 4759SOL    HW115176   1.283   4.821   1.129
 4759SOL    HW215177   1.230   4.902   1.260
 4760SOL     OW15178   1.316   6.497   0.649
 4760SOL    HW115179   1.397   6.438   0.647
 4760SOL    HW215180   1.340   6.587   0.613
 4761SOL     OW15181   6.913   6.940   1.246
 4761SOL    HW115182   6.955   6.898   1.326
 4761SOL    HW215183   6.846   7.008   1.276
 4762SOL     OW15184   2.157   5.962   2.401
 4762SOL    HW115185   2.144   5.863   2.405
 4762SOL    HW215186   2.133   5.995   2.309
 4763SOL     OW15187   4.516   5.771   1.993
 4763SOL    HW115188   4.511   5.870   1.981
 4763SOL    HW215189   4.609   5.740   1.975
 4764SOL     OW15190   3.975   3.817   5.935
 4764SOL    HW115191   4.069   3.840   5.912
 4764SOL    HW215192   3.963   3.824   6.034
 4765SOL     OW15193   3.735   1.708   4.970
 4765SOL    HW115194   3.705   1.725   5.064
 4765SOL    HW215195   3.680   1.762   4.907
 4766SOL     OW15196   0.028   6.780   4.029
 4766SOL    HW115197   0.115   6.740   3.999
 4766SOL    HW215198   6.979   6.715   4.010
 4767SOL     OW15199   2.001   4.720   5.327
 4767SOL    HW115200   1.957   4.775   5.256
 4767SOL    HW215201   2.069   4.660   5.285
 4768SOL     OW15202   4.329   2.021   0.414
 4768SOL    HW115203   4.282   2.078   0.482
 4768SOL    HW215204   4.270   1.944   0.388
 4769SOL     OW15205   3.129   5.291   1.824
 4769SOL    HW115206   3.088   5.259   1.739
 4769SOL    HW215207   3.056   5.313   1.890
 4770SOL     OW15208   0.604   1.094   5.306
 4770SOL    HW115209   0.617   0.997   5.287
 4770SOL    HW215210   0.522   1.127   5.259
 4771SOL     OW15211   2.205   6.703   5.350
 4771SOL    HW115212   2.247   6.665   5.268
 4771SOL    HW215213   2.251   6.666   5.431
 4772SOL     OW15214   2.225   6.186   1.364
 4772SOL    HW115215   2.313   6.221   1.396
 4772SOL    HW215216   2.236   6.091   1.335
 4773SOL     OW15217   2.345   5.199   5.223
 4773SOL    HW115218   2.273   5.188   5.292
 4773SOL    HW215219   2.430   5.224   5.268
 4774SOL     OW15220   1.478   4.040   0.392
 4774SOL    HW115221   1.386   4.068   0.364
 4774SOL    HW215222   1.477   4.017   0.490
 4775SOL     OW15223   6.055   6.599   4.866
 4775SOL    HW115224   6.012   6.653   4.939
 4775SOL    HW215225   6.070   6.506   4.898
 4776SOL     OW15226   0.865   1.016   5.955
 4776SOL    HW115227   0.887   0.979   6.045
 4776SOL    HW215228   0.769   0.999   5.934
 4777SOL     OW15229   0.898   6.220   1.340
 4777SOL    HW115230   0.881   6.141   1.398
 4777SOL    HW215231   0.995   6.242   1.339
 4778SOL     OW15232   1.685   2.873   5.763
 4778SOL    HW115233   1.665   2.926   5.680
 4778SOL    HW215234   1.732   2.931   5.829
 4779SOL     OW15235   5.290   1.092   3.671
 4779SOL    HW115236   5.302   1.165   3.738
 4779SOL    HW215237   5.219   1.118   3.606
 4780SOL     OW15238   6.296   2.504   5.190
 4780SOL    HW115239   6.357   2.427   5.172
 4780SOL    HW215240   6.348   2.589   5.191
 4781SOL     OW15241   2.302   6.150   2.980
 4781SOL    HW115242   2.349   6.213   2.918
 4781SOL    HW215243   2.367   6.084   3.017
 4782SOL     OW15244   5.924   5.629   4.297
 4782SOL    HW115245   5.834   5.634   4.255
 4782SOL    HW215246   5.994   5.631   4.225
 4783SOL     OW15247   6.575   2.980   1.369
 4783SOL    HW115248   6.598   2.935   1.283
 4783SOL    HW215249   6.537   2.914   1.433
 4784SOL     OW15250   5.123   2.302   6.104
 4784SOL    HW115251   5.214   2.334   6.078
 4784SOL    HW215252   5.129   2.246   6.186
 4785SOL     OW15253   0.263   5.635   4.177
 4785SOL    HW115254   0.339   5.572   4.195
 4785SOL    HW215255   0.209   5.647   4.260
 4786SOL     OW15256   2.472   6.411   0.569
 4786SOL    HW115257   2.379   6.439   0.594
 4786SOL    HW215258   2.468   6.333   0.507
 4787SOL     OW15259   3.173   1.069   4.491
 4787SOL    HW115260   3.186   1.119   4.577
 4787SOL    HW215261   3.191   1.131   4.414
 4788SOL     OW15262   5.712   6.507   6.504
 4788SOL    HW115263   5.695   6.597   6.544
 4788SOL    HW215264   5.746   6.518   6.410
 4789SOL     OW15265   5.333   0.651   2.596
 4789SOL    HW115266   5.311   0.576   2.659
 4789SOL    HW215267   5.252   0.709   2.586
 4790SOL     OW15268   6.274   2.055   4.769
 4790SOL    HW115269   6.224   1.968   4.773
 4790SOL    HW215270   6.208   2.131   4.775
 4791SOL     OW15271   0.056   1.776   0.109
 4791SOL    HW115272   0.098   1.789   0.019
 4791SOL    HW215273   0.100   1.700   0.156
 4792SOL     OW15274   2.059   3.638   3.397
 4792SOL    HW115275   2.014   3.549   3.399
 4792SOL    HW215276   2.097   3.660   3.487
 4793SOL     OW15277   0.679   3.586   5.722
 4793SOL    HW115278   0.709   3.681   5.730
 4793SOL    HW215279   0.750   3.525   5.756
 4794SOL     OW15280   4.545   0.598   3.800
 4794SOL    HW115281   4.522   0.502   3.783
 4794SOL    HW215282   4.563   0.643   3.713
 4795SOL     OW15283   0.948   1.050   5.237
 4795SOL    HW115284   0.905   1.070   5.325
 4795SOL    HW215285   0.930   0.955   5.212
 4796SOL     OW15286   4.023   1.499   5.229
 4796SOL    HW115287   3.930   1.486   5.195
 4796SOL    HW215288   4.022   1.564   5.304
 4797SOL     OW15289   0.882   5.599   4.645
 4797SOL    HW115290   0.964   5.633   4.598
 4797SOL    HW215291   0.905   5.578   4.740
 4798SOL     OW15292   4.348   4.293   6.254
 4798SOL    HW115293   4.308   4.385   6.255
 4798SOL    HW215294   4.399   4.279   6.339
 4799SOL     OW15295   3.522   2.669   6.622
 4799SOL    HW115296   3.535   2.576   6.588
 4799SOL    HW215297   3.586   2.687   6.697
 4800SOL     OW15298   0.900   4.951   0.452
 4800SOL    HW115299   0.846   4.904   0.383
 4800SOL    HW215300   0.931   5.039   0.416
 4801SOL     OW15301   4.826   2.620   1.675
 4801SOL    HW115302   4.853   2.544   1.735
 4801SOL    HW215303   4.778   2.689   1.729
 4802SOL     OW15304   6.933   6.872   2.442
 4802SOL    HW115305   6.850   6.915   2.408
 4802SOL    HW215306   6.913   6.821   2.525
 4803SOL     OW15307   5.715   3.828   6.112
 4803SOL    HW115308   5.618   3.827   6.137
 4803SOL    HW215309   5.726   3.788   6.021
 4804SOL     OW15310   5.362   1.256   0.427
 4804SOL    HW115311   5.454   1.296   0.420
 4804SOL    HW215312   5.368   1.157   0.413
 4805SOL     OW15313   6.197   2.007   0.970
 4805SOL    HW115314   6.157   1.949   0.900
 4805SOL    HW215315   6.295   2.018   0.952
 4806SOL     OW15316   1.009   1.102   3.586
 4806SOL    HW115317   1.014   1.004   3.606
 4806SOL    HW215318   1.098   1.144   3.602
 4807SOL     OW15319   1.121   2.904   6.041
 4807SOL    HW115320   1.178   2.939   5.967
 4807SOL    HW215321   1.157   2.817   6.073
 4808SOL     OW15322   3.898   5.759   0.462
 4808SOL    HW115323   3.978   5.709   0.427
 4808SOL    HW215324   3.818   5.700   0.460
 4809SOL     OW15325   3.689   4.904   1.708
 4809SOL    HW115326   3.627   4.857   1.771
 4809SOL    HW215327   3.658   4.998   1.695
 4810SOL     OW15328   0.689   3.942   3.647
 4810SOL    HW115329   0.664   3.852   3.682
 4810SOL    HW215330   0.624   3.970   3.576
 4811SOL     OW15331   2.899   3.485   4.707
 4811SOL    HW115332   2.810   3.513   4.743
 4811SOL    HW215333   2.918   3.535   4.623
 4812SOL     OW15334   0.211   0.260   2.340
 4812SOL    HW115335   0.310   0.256   2.359
 4812SOL    HW215336   0.167   0.179   2.379
 4813SOL     OW15337   6.383   1.446   6.415
 4813SOL    HW115338   6.334   1.418   6.498
 4813SOL    HW215339   6.461   1.385   6.400
 4814SOL     OW15340   6.797   4.073   1.643
 4814SOL    HW115341   6.875   4.093   1.702
 4814SOL    HW215342   6.740   4.154   1.632
 4815SOL     OW15343   5.535   4.980   2.878
 4815SOL    HW115344   5.575   4.888   2.879
 4815SOL    HW215345   5.447   4.978   2.831
 4816SOL     OW15346   1.763   0.184   2.124
 4816SOL    HW115347   1.857   0.216   2.114
 4816SOL    HW215348   1.745   0.161   2.219
 4817SOL     OW15349   4.412   1.300   1.159
 4817SOL    HW115350   4.432   1.291   1.256
 4817SOL    HW215351   4.399   1.210   1.119
 4818SOL     OW15352   3.551   0.240   5.103
 4818SOL    HW115353   3.564   0.222   5.201
 4818SOL    HW215354   3.454   0.260   5.086
 4819SOL     OW15355   2.640   0.555   1.129
 4819SOL    HW115356   2.714   0.491   1.150
 4819SOL    HW215357   2.570   0.550   1.200
 4820SOL     OW15358   6.637   4.041   2.270
 4820SOL    HW115359   6.615   3.949   2.238
 4820SOL    HW215360   6.656   4.038   2.368
 4821SOL     OW15361   6.308   5.069   1.561
 4821SOL    HW115362   6.396   5.058   1.608
 4821SOL    HW215363   6.323   5.108   1.471
 4822SOL     OW15364   1.683   4.275   3.445
 4822SOL    HW115365   1.781   4.277   3.466
 4822SOL    HW215366   1.661   4.344   3.377
 4823SOL     OW15367   0.999   0.651   4.664
 4823SOL    HW115368   1.050   0.693   4.589
 4823SOL    HW215369   1.037   0.560   4.682
 4824SOL     OW15370   5.029   2.758   2.433
 4824SOL    HW115371   5.107   2.807   2.394
 4824SOL    HW215372   5.023   2.776   2.531
 4825SOL     OW15373   1.115   3.587   2.812
 4825SOL    HW115374   1.105   3.532   2.729
 4825SOL    HW215375   1.059   3.547   2.885
 4826SOL     OW15376   0.155   5.888   0.671
 4826SOL    HW115377   0.118   5.968   0.718
 4826SOL    HW215378   0.223   5.916   0.604
 4827SOL     OW15379   4.676   0.730   1.010
 4827SOL    HW115380   4.671   0.656   0.942
 4827SOL    HW215381   4.667   0.818   0.963
 4828SOL     OW15382   4.831   3.530   1.308
 4828SOL    HW115383   4.763   3.457   1.313
 4828SOL    HW215384   4.889   3.516   1.228
 4829SOL     OW15385   3.254   1.303   6.138
 4829SOL    HW115386   3.251   1.394   6.097
 4829SOL    HW215387   3.347   1.266   6.131
 4830SOL     OW15388   4.379   6.604   4.219
 4830SOL    HW115389   4.361   6.531   4.153
 4830SOL    HW215390   4.451   6.574   4.283
 4831SOL     OW15391   6.350   4.646   5.693
 4831SOL    HW115392   6.391   4.652   5.602
 4831SOL    HW215393   6.290   4.724   5.708
 4832SOL     OW15394   2.544   3.500   5.897
 4832SOL    HW115395   2.504   3.477   5.986
 4832SOL    HW215396   2.620   3.438   5.878
 4833SOL     OW15397   4.053   1.260   3.250
 4833SOL    HW115398   3.955   1.252   3.237
 4833SOL    HW215399   4.080   1.356   3.242
 4834SOL     OW15400   4.844   1.486   2.241
 4834SOL    HW115401   4.898   1.446   2.166
 4834SOL    HW215402   4.904   1.508   2.318
 4835SOL     OW15403   2.028   6.963   0.204
 4835SOL    HW115404   1.955   7.008   0.256
 4835SOL    HW215405   2.065   0.001   0.136
 4836SOL     OW15406   4.852   2.096   4.154
 4836SOL    HW115407   4.810   2.036   4.223
 4836SOL    HW215408   4.921   2.045   4.103
 4837SOL     OW15409   2.322   3.022   0.653
 4837SOL    HW115410   2.245   2.964   0.624
 4837SOL    HW215411   2.315   3.040   0.751
 4838SOL     OW15412   3.735   4.938   2.125
 4838SOL    HW115413   3.672   4.964   2.198
 4838SOL    HW215414   3.688   4.879   2.059
 4839SOL     OW15415   0.557   5.244   6.363
 4839SOL    HW115416   0.491   5.185   6.409
 4839SOL    HW215417   0.584   5.203   6.276
 4840SOL     OW15418   6.748   5.993   0.111
 4840SOL    HW115419   6.811   6.059   0.071
 4840SOL    HW215420   6.797   5.908   0.130
 4841SOL     OW15421   3.075   5.245   2.284
 4841SOL    HW115422   3.146   5.204   2.227
 4841SOL    HW215423   3.061   5.340   2.256
 4842SOL     OW15424   4.597   6.160   1.146
 4842SOL    HW115425   4.677   6.120   1.190
 4842SOL    HW215426   4.515   6.112   1.176
 4843SOL     OW15427   6.686   3.597   0.069
 4843SOL    HW115428   6.785   3.590   0.051
 4843SOL    HW215429   6.650   3.506   0.087
 4844SOL     OW15430   5.960   2.112   6.066
 4844SOL    HW115431   5.960   2.191   6.128
 4844SOL    HW215432   5.877   2.058   6.082
 4845SOL     OW15433   5.592   5.206   3.957
 4845SOL    HW115434   5.613   5.256   3.873
 4845SOL    HW215435   5.532   5.129   3.937
 4846SOL     OW15436   1.499   2.909   1.026
 4846SOL    HW115437   1.567   2.983   1.025
 4846SOL    HW215438   1.514   2.850   0.947
 4847SOL     OW15439   3.644   2.092   5.110
 4847SOL    HW115440   3.717   2.090   5.042
 4847SOL    HW215441   3.555   2.104   5.065
 4848SOL     OW15442   2.763   1.581   2.791
 4848SOL    HW115443   2.830   1.638   2.838
 4848SOL    HW215444   2.807   1.532   2.716
 4849SOL     OW15445   0.871   0.619   0.247
 4849SOL    HW115446   0.945   0.584   0.305
 4849SOL    HW215447   0.903   0.699   0.197
 4850SOL     OW15448   4.078   0.399   1.812
 4850SOL    HW115449   4.014   0.406   1.736
 4850SOL    HW215450   4.143   0.475   1.809
 4851SOL     OW15451   4.413   6.437   5.170
 4851SOL    HW115452   4.361   6.489   5.237
 4851SOL    HW215453   4.352   6.406   5.097
 4852SOL     OW15454   2.394   0.847   6.757
 4852SOL    HW115455   2.314   0.792   6.734
 4852SOL    HW215456   2.414   0.839   6.855
 4853SOL     OW15457   3.565   1.481   2.476
 4853SOL    HW115458   3.581   1.382   2.480
 4853SOL    HW215459   3.590   1.522   2.564
 4854SOL     OW15460   5.181   6.512   2.119
 4854SOL    HW115461   5.157   6.549   2.029
 4854SOL    HW215462   5.125   6.557   2.189
 4855SOL     OW15463   5.905   1.511   2.323
 4855SOL    HW115464   5.881   1.608   2.313
 4855SOL    HW215465   5.913   1.469   2.232
 4856SOL     OW15466   2.605   5.022   4.226
 4856SOL    HW115467   2.564   5.027   4.134
 4856SOL    HW215468   2.532   5.008   4.293
 4857SOL     OW15469   0.486   1.941   5.610
 4857SOL    HW115470   0.534   1.944   5.698
 4857SOL    HW215471   0.392   1.911   5.625
 4858SOL     OW15472   2.131   2.359   4.689
 4858SOL    HW115473   2.036   2.391   4.683
 4858SOL    HW215474   2.148   2.322   4.780
 4859SOL     OW15475   1.674   5.916   4.989
 4859SOL    HW115476   1.654   6.002   5.037
 4859SOL    HW215477   1.640   5.839   5.043
 4860SOL     OW15478   4.617   5.226   1.772
 4860SOL    HW115479   4.537   5.168   1.757
 4860SOL    HW215480   4.595   5.298   1.838
 4861SOL     OW15481   4.962   4.279   5.202
 4861SOL    HW115482   4.883   4.284   5.264
 4861SOL    HW215483   4.937   4.317   5.114
 4862SOL     OW15484   1.846   5.812   2.405
 4862SOL    HW115485   1.762   5.759   2.417
 4862SOL    HW215486   1.924   5.750   2.397
 4863SOL     OW15487   6.018   3.915   6.944
 4863SOL    HW115488   6.024   3.821   6.978
 4863SOL    HW215489   5.923   3.947   6.953
 4864SOL     OW15490   3.000   1.031   3.137
 4864SOL    HW115491   3.082   1.076   3.103
 4864SOL    HW215492   2.958   1.087   3.208
 4865SOL     OW15493   2.585   5.695   4.807
 4865SOL    HW115494   2.535   5.717   4.723
 4865SOL    HW215495   2.554   5.606   4.842
 4866SOL     OW15496   6.900   3.814   0.949
 4866SOL    HW115497   6.803   3.799   0.968
 4866SOL    HW215498   6.923   3.909   0.969
 4867SOL     OW15499   4.634   6.171   2.871
 4867SOL    HW115500   4.582   6.096   2.912
 4867SOL    HW215501   4.708   6.134   2.815
 4868SOL     OW15502   6.711   4.429   1.435
 4868SOL    HW115503   6.809   4.416   1.448
 4868SOL    HW215504   6.695   4.489   1.357
 4869SOL     OW15505   0.404   1.506   6.202
 4869SOL    HW115506   0.371   1.594   6.169
 4869SOL    HW215507   0.362   1.485   6.290
 4870SOL     OW15508   0.857   6.150   1.983
 4870SOL    HW115509   0.822   6.156   1.890
 4870SOL    HW215510   0.887   6.241   2.014
 4871SOL     OW15511   1.329   0.840   4.523
 4871SOL    HW115512   1.395   0.848   4.448
 4871SOL    HW215513   1.377   0.845   4.610
 4872SOL     OW15514   7.012   6.690   3.379
 4872SOL    HW115515   0.082   6.722   3.379
 4872SOL    HW215516   6.991   6.650   3.468
 4873SOL     OW15517   0.212   6.470   4.870
 4873SOL    HW115518   0.226   6.545   4.935
 4873SOL    HW215519   0.300   6.443   4.832
 4874SOL     OW15520   4.812   2.949   3.408
 4874SOL    HW115521   4.830   2.999   3.323
 4874SOL    HW215522   4.896   2.906   3.441
 4875SOL     OW15523   5.279   6.671   6.705
 4875SOL    HW115524   5.308   6.664   6.609
 4875SOL    HW215525   5.238   6.761   6.721
 4876SOL     OW15526   1.526   1.656   2.979
 4876SOL    HW115527   1.569   1.612   3.058
 4876SOL    HW215528   1.446   1.708   3.009
 4877SOL     OW15529   0.709   1.110   4.129
 4877SOL    HW115530   0.712   1.013   4.154
 4877SOL    HW215531   0.779   1.129   4.060
 4878SOL     OW15532   6.478   1.626   2.307
 4878SOL    HW115533   6.539   1.593   2.378
 4878SOL    HW215534   6.484   1.566   2.227
 4879SOL     OW15535   4.651   1.751   2.738
 4879SOL    HW115536   4.551   1.752   2.731
 4879SOL    HW215537   4.688   1.694   2.664
 4880SOL     OW15538   5.928   2.782   6.174
 4880SOL    HW115539   5.943   2.688   6.142
 4880SOL    HW215540   6.003   2.840   6.142
 4881SOL     OW15541   1.935   2.817   1.990
 4881SOL    HW115542   1.962   2.723   2.011
 4881SOL    HW215543   1.869   2.849   2.058
 4882SOL     OW15544   4.470   2.431   5.168
 4882SOL    HW115545   4.377   2.453   5.138
 4882SOL    HW215546   4.531   2.432   5.089
 4883SOL     OW15547   5.347   3.378   1.003
 4883SOL    HW115548   5.341   3.316   1.081
 4883SOL    HW215549   5.365   3.326   0.919
 4884SOL     OW15550   1.593   6.319   1.588
 4884SOL    HW115551   1.592   6.270   1.502
 4884SOL    HW215552   1.592   6.418   1.570
 4885SOL     OW15553   2.088   5.106   1.105
 4885SOL    HW115554   2.014   5.112   1.173
 4885SOL    HW215555   2.048   5.095   1.014
 4886SOL     OW15556   3.845   0.622   2.413
 4886SOL    HW115557   3.770   0.558   2.396
 4886SOL    HW215558   3.907   0.584   2.482
 4887SOL     OW15559   1.218   6.461   2.152
 4887SOL    HW115560   1.202   6.370   2.114
 4887SOL    HW215561   1.174   6.467   2.242
 4888SOL     OW15562   3.241   6.709   3.207
 4888SOL    HW115563   3.170   6.767   3.166
 4888SOL    HW215564   3.258   6.631   3.148
 4889SOL     OW15565   6.499   2.458   3.678
 4889SOL    HW115566   6.436   2.406   3.734
 4889SOL    HW215567   6.528   2.541   3.727
 4890SOL     OW15568   1.074   0.789   5.011
 4890SOL    HW115569   1.164   0.819   5.043
 4890SOL    HW215570   1.009   0.796   5.086
 4891SOL     OW15571   2.745   5.417   6.270
 4891SOL    HW115572   2.702   5.378   6.188
 4891SOL    HW215573   2.674   5.458   6.328
 4892SOL     OW15574   5.711   6.794   2.513
 4892SOL    HW115575   5.625   6.763   2.552
 4892SOL    HW215576   5.735   6.884   2.551
 4893SOL     OW15577   0.080   3.943   1.955
 4893SOL    HW115578   0.014   3.899   2.016
 4893SOL    HW215579   0.123   4.020   2.002
 4894SOL     OW15580   3.775   6.596   2.365
 4894SOL    HW115581   3.851   6.531   2.367
 4894SOL    HW215582   3.759   6.625   2.271
 4895SOL     OW15583   0.063   5.221   3.763
 4895SOL    HW115584   0.063   5.190   3.858
 4895SOL    HW215585   0.086   5.145   3.703
 4896SOL     OW15586   2.196   5.036   3.737
 4896SOL    HW115587   2.228   4.950   3.776
 4896SOL    HW215588   2.243   5.052   3.650
 4897SOL     OW15589   1.788   5.759   5.723
 4897SOL    HW115590   1.857   5.705   5.675
 4897SOL    HW215591   1.700   5.710   5.720
 4898SOL     OW15592   3.800   1.744   4.280
 4898SOL    HW115593   3.779   1.719   4.186
 4898SOL    HW215594   3.757   1.679   4.343
 4899SOL     OW15595   6.569   5.108   2.210
 4899SOL    HW115596   6.534   5.172   2.141
 4899SOL    HW215597   6.669   5.110   2.210
 4900SOL     OW15598   4.201   6.179   5.371
 4900SOL    HW115599   4.133   6.216   5.434
 4900SOL    HW215600   4.289   6.224   5.388
 4901SOL     OW15601   0.668   1.226   5.714
 4901SOL    HW115602   0.638   1.308   5.665
 4901SOL    HW215603   0.731   1.251   5.787
 4902SOL     OW15604   2.334   0.492   6.543
 4902SOL    HW115605   2.422   0.538   6.536
 4902SOL    HW215606   2.261   0.556   6.519
 4903SOL     OW15607   5.272   5.475   1.062
 4903SOL    HW115608   5.281   5.393   1.004
 4903SOL    HW215609   5.176   5.487   1.087
 4904SOL     OW15610   1.403   0.788   6.928
 4904SOL    HW115611   1.494   0.745   6.927
 4904SOL    HW215612   1.413   0.887   6.940
 4905SOL     OW15613   3.465   7.001   3.175
 4905SOL    HW115614   3.411   6.917   3.178
 4905SOL    HW215615   3.490   7.021   3.081
 4906SOL     OW15616   4.789   3.131   5.138
 4906SOL    HW115617   4.823   3.067   5.069
 4906SOL    HW215618   4.819   3.224   5.115
 4907SOL     OW15619   4.865   1.414   7.009
 4907SOL    HW115620   4.906   1.498   0.017
 4907SOL    HW215621   4.883   1.404   6.911
 4908SOL     OW15622   5.105   0.197   6.895
 4908SOL    HW115623   5.061   0.153   6.817
 4908SOL    HW215624   5.072   0.292   6.902
 4909SOL     OW15625   5.945   3.895   3.260
 4909SOL    HW115626   5.911   3.828   3.325
 4909SOL    HW215627   6.020   3.855   3.207
 4910SOL     OW15628   5.104   0.947   5.717
 4910SOL    HW115629   5.161   0.912   5.791
 4910SOL    HW215630   5.094   0.876   5.646
 4911SOL     OW15631   1.918   1.989   2.163
 4911SOL    HW115632   1.871   2.001   2.075
 4911SOL    HW215633   1.901   1.897   2.198
 4912SOL     OW15634   5.938   1.991   5.173
 4912SOL    HW115635   6.031   2.026   5.167
 4912SOL    HW215636   5.902   2.008   5.265
 4913SOL     OW15637   5.748   2.805   4.891
 4913SOL    HW115638   5.792   2.721   4.859
 4913SOL    HW215639   5.668   2.782   4.946
 4914SOL     OW15640   4.777   0.850   4.029
 4914SOL    HW115641   4.852   0.900   3.986
 4914SOL    HW215642   4.802   0.826   4.123
 4915SOL     OW15643   3.108   5.861   5.408
 4915SOL    HW115644   3.046   5.812   5.470
 4915SOL    HW215645   3.163   5.795   5.358
 4916SOL     OW15646   6.090   0.929   3.773
 4916SOL    HW115647   6.066   0.832   3.767
 4916SOL    HW215648   6.148   0.943   3.853
 4917SOL     OW15649   4.346   6.035   0.730
 4917SOL    HW115650   4.422   6.097   0.713
 4917SOL    HW215651   4.260   6.086   0.726
 4918SOL     OW15652   6.510   5.439   2.070
 4918SOL    HW115653   6.481   5.511   2.007
 4918SOL    HW215654   6.448   5.361   2.063
 4919SOL     OW15655   4.242   3.293   1.932
 4919SOL    HW115656   4.342   3.297   1.935
 4919SOL    HW215657   4.214   3.218   1.871
 4920SOL     OW15658   6.086   1.136   4.957
 4920SOL    HW115659   6.036   1.196   4.894
 4920SOL    HW215660   6.074   1.041   4.928
 4921SOL     OW15661   0.487   6.681   1.250
 4921SOL    HW115662   0.548   6.654   1.325
 4921SOL    HW215663   0.476   6.604   1.187
 4922SOL     OW15664   3.784   2.083   5.643
 4922SOL    HW115665   3.684   2.081   5.637
 4922SOL    HW215666   3.820   2.152   5.580
 4923SOL     OW15667   3.322   1.810   3.014
 4923SOL    HW115668   3.405   1.817   3.069
 4923SOL    HW215669   3.262   1.740   3.051
 4924SOL     OW15670   2.656   1.626   6.475
 4924SOL    HW115671   2.729   1.603   6.411
 4924SOL    HW215672   2.670   1.720   6.508
 4925SOL     OW15673   4.709   6.761   3.048
 4925SOL    HW115674   4.667   6.674   3.022
 4925SOL    HW215675   4.638   6.831   3.058
 4926SOL     OW15676   5.616   2.086   1.761
 4926SOL    HW115677   5.516   2.084   1.754
 4926SOL    HW215678   5.655   2.020   1.698
 4927SOL     OW15679   3.629   1.613   6.506
 4927SOL    HW115680   3.678   1.601   6.592
 4927SOL    HW215681   3.636   1.530   6.452
 4928SOL     OW15682   0.917   2.306   1.004
 4928SOL    HW115683   0.972   2.232   0.965
 4928SOL    HW215684   0.896   2.286   1.100
 4929SOL     OW15685   0.031   0.514   3.800
 4929SOL    HW115686   0.105   0.529   3.735
 4929SOL    HW215687   0.025   0.417   3.822
 4930SOL     OW15688   5.805   6.729   1.929
 4930SOL    HW115689   5.776   6.824   1.944
 4930SOL    HW215690   5.902   6.721   1.949
 4931SOL     OW15691   6.243   6.023   1.912
 4931SOL    HW115692   6.318   5.993   1.853
 4931SOL    HW215693   6.235   5.961   1.990
 4932SOL     OW15694   3.069   3.544   2.554
 4932SOL    HW115695   3.044   3.595   2.472
 4932SOL    HW215696   3.136   3.474   2.532
 4933SOL     OW15697   2.910   6.127   4.892
 4933SOL    HW115698   2.861   6.120   4.805
 4933SOL    HW215699   2.870   6.062   4.957
 4934SOL     OW15700   3.541   5.666   3.395
 4934SOL    HW115701   3.510   5.740   3.335
 4934SOL    HW215702   3.618   5.698   3.450
 4935SOL     OW15703   0.616   1.930   6.736
 4935SOL    HW115704   0.589   1.947   6.831
 4935SOL    HW215705   0.543   1.881   6.689
 4936SOL     OW15706   2.359   4.148   1.204
 4936SOL    HW115707   2.296   4.222   1.181
 4936SOL    HW215708   2.331   4.106   1.291
 4937SOL     OW15709   4.972   3.500   4.766
 4937SOL    HW115710   4.956   3.436   4.842
 4937SOL    HW215711   4.961   3.594   4.799
 4938SOL     OW15712   4.339   4.980   5.929
 4938SOL    HW115713   4.250   4.939   5.952
 4938SOL    HW215714   4.399   4.911   5.889
 4939SOL     OW15715   4.692   2.926   5.647
 4939SOL    HW115716   4.593   2.934   5.641
 4939SOL    HW215717   4.732   2.942   5.557
 4940SOL     OW15718   1.993   6.314   5.012
 4940SOL    HW115719   2.059   6.240   5.023
 4940SOL    HW215720   1.941   6.325   5.097
 4941SOL     OW15721   4.973   1.681   0.096
 4941SOL    HW115722   4.906   1.738   0.049
 4941SOL    HW215723   5.015   1.733   0.169
 4942SOL     OW15724   5.000   3.653   5.217
 4942SOL    HW115725   5.061   3.574   5.210
 4942SOL    HW215726   4.928   3.645   5.148
 4943SOL     OW15727   3.870   2.316   1.017
 4943SOL    HW115728   3.934   2.274   1.081
 4943SOL    HW215729   3.863   2.259   0.935
 4944SOL     OW15730   1.986   4.472   2.748
 4944SOL    HW115731   2.018   4.405   2.681
 4944SOL    HW215732   1.976   4.561   2.704
 4945SOL     OW15733   0.016   6.437   4.075
 4945SOL    HW115734   6.993   6.362   4.120
 4945SOL    HW215735   6.979   6.481   4.010
 4946SOL     OW15736   1.620   3.872   2.184
 4946SOL    HW115737   1.577   3.853   2.272
 4946SOL    HW215738   1.553   3.913   2.122
 4947SOL     OW15739   0.902   0.236   0.692
 4947SOL    HW115740   0.938   0.168   0.756
 4947SOL    HW215741   0.851   0.189   0.620
 4948SOL     OW15742   2.563   1.091   2.087
 4948SOL    HW115743   2.505   1.081   2.168
 4948SOL    HW215744   2.656   1.063   2.109
 4949SOL     OW15745   5.468   0.960   5.189
 4949SOL    HW115746   5.399   1.029   5.210
 4949SOL    HW215747   5.536   0.957   5.262
 4950SOL     OW15748   2.747   5.771   5.301
 4950SOL    HW115749   2.736   5.860   5.256
 4950SOL    HW215750   2.822   5.721   5.258
 4951SOL     OW15751   4.379   1.960   4.570
 4951SOL    HW115752   4.344   1.887   4.628
 4951SOL    HW215753   4.332   1.959   4.482
 4952SOL     OW15754   0.043   6.339   5.514
 4952SOL    HW115755   0.107   6.414   5.530
 4952SOL    HW215756   0.047   6.312   5.418
 4953SOL     OW15757   1.678   5.692   1.852
 4953SOL    HW115758   1.769   5.717   1.819
 4953SOL    HW215759   1.637   5.770   1.899
 4954SOL     OW15760   5.416   5.901   6.853
 4954SOL    HW115761   5.361   5.959   6.793
 4954SOL    HW215762   5.513   5.924   6.841
 4955SOL     OW15763   1.562   6.776   1.333
 4955SOL    HW115764   1.635   6.813   1.275
 4955SOL    HW215765   1.493   6.732   1.275
 4956SOL     OW15766   4.219   6.841   4.765
 4956SOL    HW115767   4.313   6.872   4.777
 4956SOL    HW215768   4.219   6.755   4.713
 4957SOL     OW15769   1.108   0.829   3.809
 4957SOL    HW115770   1.176   0.819   3.882
 4957SOL    HW215771   1.151   0.810   3.721
 4958SOL     OW15772   0.727   5.777   6.901
 4958SOL    HW115773   0.641   5.731   6.879
 4958SOL    HW215774   0.773   5.728   6.975
 4959SOL     OW15775   0.729   0.655   1.652
 4959SOL    HW115776   0.820   0.632   1.616
 4959SOL    HW215777   0.711   0.599   1.733
 4960SOL     OW15778   3.832   6.374   4.513
 4960SOL    HW115779   3.741   6.333   4.521
 4960SOL    HW215780   3.886   6.321   4.447
 4961SOL     OW15781   4.874   0.685   4.814
 4961SOL    HW115782   4.807   0.735   4.758
 4961SOL    HW215783   4.880   0.728   4.904
 4962SOL     OW15784   6.814   2.374   1.092
 4962SOL    HW115785   6.894   2.427   1.122
 4962SOL    HW215786   6.833   2.334   1.003
 4963SOL     OW15787   0.926   4.754   1.701
 4963SOL    HW115788   0.945   4.733   1.797
 4963SOL    HW215789   0.863   4.686   1.664
 4964SOL     OW15790   3.135   6.574   3.754
 4964SOL    HW115791   3.133   6.595   3.656
 4964SOL    HW215792   3.164   6.480   3.768
 4965SOL     OW15793   6.442   0.226   4.474
 4965SOL    HW115794   6.539   0.228   4.448
 4965SOL    HW215795   6.393   0.297   4.422
 4966SOL     OW15796   3.223   5.262   5.247
 4966SOL    HW115797   3.237   5.166   5.269
 4966SOL    HW215798   3.221   5.316   5.332
 4967SOL     OW15799   3.707   2.539   6.054
 4967SOL    HW115800   3.666   2.462   6.104
 4967SOL    HW215801   3.694   2.623   6.107
 4968SOL     OW15802   5.871   3.610   5.237
 4968SOL    HW115803   5.777   3.639   5.253
 4968SOL    HW215804   5.873   3.544   5.162
 4969SOL     OW15805   1.183   0.845   1.492
 4969SOL    HW115806   1.187   0.760   1.544
 4969SOL    HW215807   1.218   0.830   1.400
 4970SOL     OW15808   1.179   2.084   5.025
 4970SOL    HW115809   1.219   2.173   5.003
 4970SOL    HW215810   1.099   2.068   4.967
 4971SOL     OW15811   6.077   6.428   3.495
 4971SOL    HW115812   6.138   6.359   3.456
 4971SOL    HW215813   5.985   6.390   3.503
 4972SOL     OW15814   1.900   3.559   0.573
 4972SOL    HW115815   1.930   3.522   0.486
 4972SOL    HW215816   1.870   3.654   0.561
 4973SOL     OW15817   5.802   6.014   2.283
 4973SOL    HW115818   5.819   6.113   2.284
 4973SOL    HW215819   5.728   5.994   2.219
 4974SOL     OW15820   5.610   6.324   2.163
 4974SOL    HW115821   5.571   6.235   2.136
 4974SOL    HW215822   5.549   6.397   2.133
 4975SOL     OW15823   6.093   6.050   0.801
 4975SOL    HW115824   6.006   6.100   0.795
 4975SOL    HW215825   6.167   6.115   0.815
 4976SOL     OW15826   3.784   0.569   4.992
 4976SOL    HW115827   3.823   0.661   4.983
 4976SOL    HW215828   3.711   0.570   5.059
 4977SOL     OW15829   3.458   3.005   0.573
 4977SOL    HW115830   3.368   2.965   0.557
 4977SOL    HW215831   3.464   3.039   0.667
 4978SOL     OW15832   5.555   3.196   6.027
 4978SOL    HW115833   5.612   3.243   6.095
 4978SOL    HW215834   5.588   3.102   6.014
 4979SOL     OW15835   0.746   0.197   5.425
 4979SOL    HW115836   0.791   0.285   5.411
 4979SOL    HW215837   0.808   0.136   5.475
 4980SOL     OW15838   3.646   5.175   2.399
 4980SOL    HW115839   3.735   5.217   2.383
 4980SOL    HW215840   3.586   5.240   2.446
 4981SOL     OW15841   4.047   6.311   5.561
 4981SOL    HW115842   4.078   6.395   5.605
 4981SOL    HW215843   3.952   6.321   5.532
 4982SOL     OW15844   2.333   2.763   0.431
 4982SOL    HW115845   2.263   2.804   0.490
 4982SOL    HW215846   2.300   2.675   0.397
 4983SOL     OW15847   5.382   2.967   4.398
 4983SOL    HW115848   5.393   2.869   4.416
 4983SOL    HW215849   5.421   3.019   4.474
 4984SOL     OW15850   4.926   3.704   4.186
 4984SOL    HW115851   4.890   3.748   4.103
 4984SOL    HW215852   4.888   3.612   4.194
 4985SOL     OW15853   5.280   5.280   2.163
 4985SOL    HW115854   5.310   5.188   2.191
 4985SOL    HW215855   5.272   5.338   2.243
 4986SOL     OW15856   4.969   4.782   2.822
 4986SOL    HW115857   4.921   4.708   2.775
 4986SOL    HW215858   4.902   4.842   2.867
 4987SOL     OW15859   0.041   3.185   1.393
 4987SOL    HW115860   7.021   3.096   1.404
 4987SOL    HW215861   0.066   3.198   1.297
 4988SOL     OW15862   0.446   1.471   4.114
 4988SOL    HW115863   0.428   1.423   4.029
 4988SOL    HW215864   0.499   1.412   4.176
 4989SOL     OW15865   0.255   1.494   0.703
 4989SOL    HW115866   0.166   1.505   0.749
 4989SOL    HW215867   0.281   1.397   0.705
 4990SOL     OW15868   1.236   2.632   5.498
 4990SOL    HW115869   1.250   2.728   5.523
 4990SOL    HW215870   1.324   2.591   5.475
 4991SOL     OW15871   1.132   2.974   4.216
 4991SOL    HW115872   1.060   2.944   4.154
 4991SOL    HW215873   1.221   2.957   4.175
 4992SOL     OW15874   3.401   1.075   5.368
 4992SOL    HW115875   3.481   1.025   5.400
 4992SOL    HW215876   3.361   1.028   5.289
 4993SOL     OW15877   2.596   6.031   4.044
 4993SOL    HW115878   2.567   5.948   3.998
 4993SOL    HW215879   2.672   6.072   3.994
 4994SOL     OW15880   0.473   0.281   2.848
 4994SOL    HW115881   0.526   0.339   2.785
 4994SOL    HW215882   0.534   0.245   2.919
 4995SOL     OW15883   6.204   2.233   6.037
 4995SOL    HW115884   6.139   2.165   6.072
 4995SOL    HW215885   6.155   2.315   6.008
 4996SOL     OW15886   1.046   1.795   3.176
 4996SOL    HW115887   1.012   1.791   3.270
 4996SOL    HW215888   0.969   1.802   3.113
 4997SOL     OW15889   7.020   3.019   3.669
 4997SOL    HW115890   6.980   2.972   3.748
 4997SOL    HW215891   0.094   3.010   3.672
 4998SOL     OW15892   1.409   5.438   4.670
 4998SOL    HW115893   1.420   5.531   4.635
 4998SOL    HW215894   1.412   5.439   4.770
 4999SOL     OW15895   5.734   5.461   1.353
 4999SOL    HW115896   5.670   5.503   1.289
 4999SOL    HW215897   5.824   5.453   1.310
 5000SOL     OW15898   0.197   0.091   4.655
 5000SOL    HW115899   0.282   0.066   4.609
 5000SOL    HW215900   0.151   0.163   4.603
 5001SOL     OW15901   3.366   4.290   5.276
 5001SOL    HW115902   3.411   4.377   5.296
 5001SOL    HW215903   3.267   4.305   5.273
 5002SOL     OW15904   1.818   0.984   1.530
 5002SOL    HW115905   1.798   1.036   1.613
 5002SOL    HW215906   1.833   0.888   1.554
 5003SOL     OW15907   6.242   6.135   2.605
 5003SOL    HW115908   6.218   6.069   2.676
 5003SOL    HW215909   6.332   6.174   2.624
 5004SOL     OW15910   2.912   6.470   6.953
 5004SOL    HW115911   2.814   6.459   6.969
 5004SOL    HW215912   2.948   6.388   6.909
 5005SOL     OW15913   4.270   2.961   0.285
 5005SOL    HW115914   4.326   2.984   0.204
 5005SOL    HW215915   4.299   2.872   0.320
 5006SOL     OW15916   4.986   6.325   4.798
 5006SOL    HW115917   4.944   6.313   4.888
 5006SOL    HW215918   5.084   6.306   4.804
 5007SOL     OW15919   4.077   1.074   5.218
 5007SOL    HW115920   3.978   1.084   5.208
 5007SOL    HW215921   4.116   1.040   5.133
 5008SOL     OW15922   6.148   0.895   3.468
 5008SOL    HW115923   6.186   0.977   3.512
 5008SOL    HW215924   6.096   0.923   3.387
 5009SOL     OW15925   0.937   6.628   2.879
 5009SOL    HW115926   0.890   6.540   2.872
 5009SOL    HW215927   1.022   6.625   2.826
 5010SOL     OW15928   3.694   3.923   4.127
 5010SOL    HW115929   3.657   3.961   4.212
 5010SOL    HW215930   3.699   3.823   4.135
 5011SOL     OW15931   0.940   2.818   2.552
 5011SOL    HW115932   0.913   2.749   2.485
 5011SOL    HW215933   0.860   2.847   2.605
 5012SOL     OW15934   6.834   2.657   6.231
 5012SOL    HW115935   6.755   2.718   6.231
 5012SOL    HW215936   6.911   2.702   6.274
 5013SOL     OW15937   4.286   1.767   5.942
 5013SOL    HW115938   4.260   1.808   5.855
 5013SOL    HW215939   4.205   1.726   5.985
 5014SOL     OW15940   5.704   6.342   0.306
 5014SOL    HW115941   5.748   6.383   0.386
 5014SOL    HW215942   5.617   6.388   0.288
 5015SOL     OW15943   4.668   2.422   3.527
 5015SOL    HW115944   4.661   2.521   3.526
 5015SOL    HW215945   4.709   2.392   3.613
 5016SOL     OW15946   2.485   0.598   2.942
 5016SOL    HW115947   2.582   0.615   2.958
 5016SOL    HW215948   2.439   0.579   3.029
 5017SOL     OW15949   2.637   2.326   1.029
 5017SOL    HW115950   2.712   2.264   1.054
 5017SOL    HW215951   2.645   2.351   0.933
 5018SOL     OW15952   6.015   5.338   3.727
 5018SOL    HW115953   5.998   5.345   3.629
 5018SOL    HW215954   6.108   5.306   3.743
 5019SOL     OW15955   1.796   4.303   6.996
 5019SOL    HW115956   1.815   4.270   6.903
 5019SOL    HW215957   1.872   4.278   0.031
 5020SOL     OW15958   5.337   4.825   6.719
 5020SOL    HW115959   5.293   4.827   6.629
 5020SOL    HW215960   5.318   4.738   6.763
 5021SOL     OW15961   1.990   4.380   6.096
 5021SOL    HW115962   2.016   4.287   6.074
 5021SOL    HW215963   1.931   4.380   6.177
 5022SOL     OW15964   1.486   6.112   0.653
 5022SOL    HW115965   1.497   6.181   0.582
 5022SOL    HW215966   1.437   6.151   0.731
 5023SOL     OW15967   5.990   3.051   1.780
 5023SOL    HW115968   5.991   2.998   1.694
 5023SOL    HW215969   6.084   3.073   1.806
 5024SOL     OW15970   6.111   3.800   4.342
 5024SOL    HW115971   6.165   3.716   4.350
 5024SOL    HW215972   6.016   3.776   4.321
 5025SOL     OW15973   5.480   1.305   3.295
 5025SOL    HW115974   5.495   1.243   3.218
 5025SOL    HW215975   5.383   1.305   3.319
 5026SOL     OW15976   6.677   6.189   4.131
 5026SOL    HW115977   6.664   6.206   4.229
 5026SOL    HW215978   6.668   6.092   4.112
 5027SOL     OW15979   0.692   6.708   3.333
 5027SOL    HW115980   0.765   6.672   3.391
 5027SOL    HW215981   0.724   6.710   3.238
 5028SOL     OW15982   0.310   0.457   3.143
 5028SOL    HW115983   0.309   0.361   3.114
 5028SOL    HW215984   0.227   0.476   3.196
 5029SOL     OW15985   7.020   2.067   0.969
 5029SOL    HW115986   6.979   1.995   1.025
 5029SOL    HW215987   0.091   2.044   0.952
 5030SOL     OW15988   0.394   0.078   0.132
 5030SOL    HW115989   0.367   0.101   0.225
 5030SOL    HW215990   0.313   0.078   0.073
 5031SOL     OW15991   5.844   0.689   4.198
 5031SOL    HW115992   5.888   0.704   4.109
 5031SOL    HW215993   5.807   0.596   4.202
 5032SOL     OW15994   1.648   5.350   1.138
 5032SOL    HW115995   1.661   5.447   1.116
 5032SOL    HW215996   1.550   5.328   1.132
 5033SOL     OW15997   2.427   4.015   5.566
 5033SOL    HW115998   2.501   3.952   5.545
 5033SOL    HW215999   2.432   4.042   5.662
 5034SOL     OW16000   6.650   3.279   1.487
 5034SOL    HW116001   6.673   3.366   1.445
 5034SOL    HW216002   6.600   3.223   1.421
 5035SOL     OW16003   5.160   5.088   0.496
 5035SOL    HW116004   5.126   5.000   0.530
 5035SOL    HW216005   5.120   5.162   0.550
 5036SOL     OW16006   1.046   6.826   1.415
 5036SOL    HW116007   0.967   6.842   1.473
 5036SOL    HW216008   1.104   6.907   1.414
 5037SOL     OW16009   4.371   2.064   4.049
 5037SOL    HW116010   4.295   1.999   4.052
 5037SOL    HW216011   4.416   2.058   3.959
 5038SOL     OW16012   1.632   6.307   5.663
 5038SOL    HW116013   1.559   6.349   5.716
 5038SOL    HW216014   1.706   6.374   5.650
 5039SOL     OW16015   1.910   2.577   5.440
 5039SOL    HW116016   1.968   2.657   5.458
 5039SOL    HW216017   1.959   2.494   5.470
 5040SOL     OW16018   3.334   3.993   5.488
 5040SOL    HW116019   3.302   3.932   5.416
 5040SOL    HW216020   3.407   4.051   5.452
 5041SOL     OW16021   1.160   3.737   1.340
 5041SOL    HW116022   1.180   3.682   1.258
 5041SOL    HW216023   1.069   3.712   1.375
 5042SOL     OW16024   5.279   2.595   6.064
 5042SOL    HW116025   5.264   2.689   6.035
 5042SOL    HW216026   5.194   2.558   6.102
 5043SOL     OW16027   3.138   0.504   3.188
 5043SOL    HW116028   3.191   0.420   3.174
 5043SOL    HW216029   3.179   0.579   3.136
 5044SOL     OW16030   5.702   5.140   3.561
 5044SOL    HW116031   5.735   5.225   3.520
 5044SOL    HW216032   5.744   5.062   3.516
 5045SOL     OW16033   6.685   2.550   6.579
 5045SOL    HW116034   6.772   2.600   6.585
 5045SOL    HW216035   6.691   2.468   6.636
 5046SOL     OW16036   3.197   3.293   5.175
 5046SOL    HW116037   3.161   3.370   5.123
 5046SOL    HW216038   3.287   3.267   5.138
 5047SOL     OW16039   0.659   0.937   2.363
 5047SOL    HW116040   0.638   1.026   2.405
 5047SOL    HW216041   0.758   0.929   2.351
 5048SOL     OW16042   6.557   2.578   1.490
 5048SOL    HW116043   6.524   2.500   1.437
 5048SOL    HW216044   6.642   2.555   1.536
 5049SOL     OW16045   0.665   2.442   2.226
 5049SOL    HW116046   0.707   2.463   2.137
 5049SOL    HW216047   0.685   2.515   2.291
 5050SOL     OW16048   1.101   3.258   1.961
 5050SOL    HW116049   1.042   3.182   1.987
 5050SOL    HW216050   1.080   3.338   2.016
 5051SOL     OW16051   2.836   5.056   0.979
 5051SOL    HW116052   2.839   5.046   0.880
 5051SOL    HW216053   2.742   5.076   1.008
 5052SOL     OW16054   5.398   4.803   1.280
 5052SOL    HW116055   5.376   4.845   1.368
 5052SOL    HW216056   5.389   4.704   1.287
 5053SOL     OW16057   2.530   4.160   0.584
 5053SOL    HW116058   2.442   4.206   0.571
 5053SOL    HW216059   2.528   4.107   0.669
 5054SOL     OW16060   3.582   5.713   5.025
 5054SOL    HW116061   3.600   5.619   4.997
 5054SOL    HW216062   3.578   5.772   4.944
 5055SOL     OW16063   0.670   1.407   5.082
 5055SOL    HW116064   0.700   1.313   5.063
 5055SOL    HW216065   0.592   1.405   5.144
 5056SOL     OW16066   1.082   3.338   5.224
 5056SOL    HW116067   1.019   3.348   5.301
 5056SOL    HW216068   1.141   3.258   5.239
 5057SOL     OW16069   6.927   5.643   3.095
 5057SOL    HW116070   6.903   5.702   3.019
 5057SOL    HW216071   7.015   5.599   3.076
 5058SOL     OW16072   4.567   4.433   6.444
 5058SOL    HW116073   4.530   4.520   6.413
 5058SOL    HW216074   4.652   4.413   6.396
 5059SOL     OW16075   3.307   1.935   3.861
 5059SOL    HW116076   3.284   1.974   3.950
 5059SOL    HW216077   3.257   1.848   3.849
 5060SOL     OW16078   0.773   3.136   5.591
 5060SOL    HW116079   0.849   3.199   5.576
 5060SOL    HW216080   0.783   3.057   5.530
 5061SOL     OW16081   3.649   2.880   5.264
 5061SOL    HW116082   3.742   2.909   5.240
 5061SOL    HW216083   3.593   2.874   5.182
 5062SOL     OW16084   5.115   0.824   2.583
 5062SOL    HW116085   5.117   0.920   2.612
 5062SOL    HW216086   5.023   0.801   2.549
 5063SOL     OW16087   1.021   6.935   2.556
 5063SOL    HW116088   0.964   6.990   2.617
 5063SOL    HW216089   1.117   6.944   2.582
 5064SOL     OW16090   4.707   5.447   0.420
 5064SOL    HW116091   4.674   5.521   0.361
 5064SOL    HW216092   4.728   5.367   0.364
 5065SOL     OW16093   2.629   7.018   3.315
 5065SOL    HW116094   2.666   0.086   3.314
 5065SOL    HW216095   2.540   7.018   3.360
 5066SOL     OW16096   2.377   4.337   1.598
 5066SOL    HW116097   2.420   4.383   1.675
 5066SOL    HW216098   2.390   4.392   1.515
 5067SOL     OW16099   4.131   2.806   1.405
 5067SOL    HW116100   4.091   2.758   1.483
 5067SOL    HW216101   4.073   2.792   1.324
 5068SOL     OW16102   3.136   6.010   0.572
 5068SOL    HW116103   3.164   6.063   0.652
 5068SOL    HW216104   3.062   5.948   0.598
 5069SOL     OW16105   3.483   4.364   5.928
 5069SOL    HW116106   3.499   4.279   5.879
 5069SOL    HW216107   3.550   4.433   5.898
 5070SOL     OW16108   6.388   3.561   4.025
 5070SOL    HW116109   6.333   3.592   3.947
 5070SOL    HW216110   6.386   3.461   4.030
 5071SOL     OW16111   2.977   0.805   3.629
 5071SOL    HW116112   3.016   0.849   3.549
 5071SOL    HW216113   2.927   0.723   3.600
 5072SOL     OW16114   1.166   1.259   1.240
 5072SOL    HW116115   1.195   1.346   1.202
 5072SOL    HW216116   1.246   1.200   1.254
 5073SOL     OW16117   2.967   6.651   2.865
 5073SOL    HW116118   2.935   6.725   2.807
 5073SOL    HW216119   3.054   6.616   2.830
 5074SOL     OW16120   3.614   2.100   1.676
 5074SOL    HW116121   3.522   2.063   1.664
 5074SOL    HW216122   3.618   2.154   1.760
 5075SOL     OW16123   1.351   3.128   6.891
 5075SOL    HW116124   1.403   3.083   6.964
 5075SOL    HW216125   1.332   3.063   6.818
 5076SOL     OW16126   5.725   0.398   0.181
 5076SOL    HW116127   5.774   0.373   0.265
 5076SOL    HW216128   5.780   0.370   0.101
 5077SOL     OW16129   1.013   4.776   3.829
 5077SOL    HW116130   1.053   4.743   3.744
 5077SOL    HW216131   0.914   4.785   3.818
 5078SOL     OW16132   0.334   1.279   3.924
 5078SOL    HW116133   0.242   1.266   3.888
 5078SOL    HW216134   0.362   1.196   3.973
 5079SOL     OW16135   1.571   2.265   6.293
 5079SOL    HW116136   1.537   2.236   6.204
 5079SOL    HW216137   1.660   2.309   6.281
 5080SOL     OW16138   5.323   5.160   6.181
 5080SOL    HW116139   5.371   5.112   6.255
 5080SOL    HW216140   5.231   5.184   6.212
 5081SOL     OW16141   3.186   5.610   5.288
 5081SOL    HW116142   3.272   5.653   5.262
 5081SOL    HW216143   3.200   5.554   5.370
 5082SOL     OW16144   5.641   6.224   1.627
 5082SOL    HW116145   5.570   6.294   1.637
 5082SOL    HW216146   5.731   6.267   1.638
 5083SOL     OW16147   2.440   0.251   3.178
 5083SOL    HW116148   2.388   0.226   3.261
 5083SOL    HW216149   2.534   0.271   3.203
 5084SOL     OW16150   1.113   4.950   5.463
 5084SOL    HW116151   1.210   4.970   5.444
 5084SOL    HW216152   1.057   4.988   5.390
 5085SOL     OW16153   0.468   3.732   6.054
 5085SOL    HW116154   0.456   3.660   5.985
 5085SOL    HW216155   0.565   3.752   6.063
 5086SOL     OW16156   1.653   4.772   2.082
 5086SOL    HW116157   1.684   4.809   1.995
 5086SOL    HW216158   1.713   4.697   2.110
 5087SOL     OW16159   6.283   4.967   2.869
 5087SOL    HW116160   6.187   4.961   2.896
 5087SOL    HW216161   6.341   4.935   2.944
 5088SOL     OW16162   4.365   6.195   1.905
 5088SOL    HW116163   4.436   6.166   1.970
 5088SOL    HW216164   4.408   6.230   1.822
 5089SOL     OW16165   5.750   5.031   4.583
 5089SOL    HW116166   5.786   5.048   4.491
 5089SOL    HW216167   5.701   5.112   4.615
 5090SOL     OW16168   3.033   0.356   4.905
 5090SOL    HW116169   2.940   0.393   4.908
 5090SOL    HW216170   3.040   0.290   4.829
 5091SOL     OW16171   6.236   6.751   0.124
 5091SOL    HW116172   6.249   6.799   0.211
 5091SOL    HW216173   6.280   6.803   0.051
 5092SOL     OW16174   3.396   3.705   5.059
 5092SOL    HW116175   3.422   3.636   5.127
 5092SOL    HW216176   3.323   3.670   5.001
 5093SOL     OW16177   1.818   1.764   2.289
 5093SOL    HW116178   1.747   1.751   2.219
 5093SOL    HW216179   1.775   1.793   2.375
 5094SOL     OW16180   2.573   5.762   6.582
 5094SOL    HW116181   2.576   5.858   6.553
 5094SOL    HW216182   2.492   5.747   6.637
 5095SOL     OW16183   0.220   0.866   2.874
 5095SOL    HW116184   0.160   0.787   2.881
 5095SOL    HW216185   0.315   0.836   2.868
 5096SOL     OW16186   4.921   2.690   6.060
 5096SOL    HW116187   4.846   2.638   6.020
 5096SOL    HW216188   4.960   2.752   5.991
 5097SOL     OW16189   6.930   6.127   6.989
 5097SOL    HW116190   6.937   6.226   7.002
 5097SOL    HW216191   7.021   6.086   6.995
 5098SOL     OW16192   3.861   2.109   1.848
 5098SOL    HW116193   3.818   2.034   1.797
 5098SOL    HW216194   3.793   2.151   1.909
 5099SOL     OW16195   1.092   5.945   1.452
 5099SOL    HW116196   1.153   5.900   1.517
 5099SOL    HW216197   1.002   5.957   1.493
 5100SOL     OW16198   5.124   4.007   2.628
 5100SOL    HW116199   5.171   3.921   2.609
 5100SOL    HW216200   5.043   3.990   2.683
 5101SOL     OW16201   4.171   6.808   5.468
 5101SOL    HW116202   4.193   6.904   5.488
 5101SOL    HW216203   4.105   6.774   5.535
 5102SOL     OW16204   5.141   4.871   4.666
 5102SOL    HW116205   5.227   4.918   4.687
 5102SOL    HW216206   5.071   4.899   4.733
 5103SOL     OW16207   0.982   0.096   5.570
 5103SOL    HW116208   1.029   0.014   5.538
 5103SOL    HW216209   1.016   0.121   5.661
 5104SOL     OW16210   3.494   4.520   1.351
 5104SOL    HW116211   3.397   4.495   1.352
 5104SOL    HW216212   3.518   4.559   1.262
 5105SOL     OW16213   3.734   2.677   6.863
 5105SOL    HW116214   3.720   2.591   6.911
 5105SOL    HW216215   3.813   2.668   6.802
 5106SOL     OW16216   4.009   2.761   1.168
 5106SOL    HW116217   4.038   2.670   1.139
 5106SOL    HW216218   4.053   2.830   1.111
 5107SOL     OW16219   4.905   3.200   1.229
 5107SOL    HW116220   4.846   3.232   1.302
 5107SOL    HW216221   4.974   3.269   1.208
 5108SOL     OW16222   4.513   3.321   6.336
 5108SOL    HW116223   4.462   3.382   6.398
 5108SOL    HW216224   4.449   3.276   6.273
 5109SOL     OW16225   1.823   2.467   0.932
 5109SOL    HW116226   1.766   2.542   0.966
 5109SOL    HW216227   1.766   2.387   0.915
 5110SOL     OW16228   6.176   0.610   6.586
 5110SOL    HW116229   6.112   0.590   6.512
 5110SOL    HW216230   6.246   0.674   6.554
 5111SOL     OW16231   0.967   6.055   5.077
 5111SOL    HW116232   1.035   6.034   5.147
 5111SOL    HW216233   0.899   5.982   5.074
 5112SOL     OW16234   0.070   0.355   3.238
 5112SOL    HW116235   0.019   0.319   3.160
 5112SOL    HW216236   0.080   0.283   3.307
 5113SOL     OW16237   1.977   4.930   0.519
 5113SOL    HW116238   1.964   4.878   0.435
 5113SOL    HW216239   2.009   5.022   0.498
 5114SOL     OW16240   4.262   6.496   0.977
 5114SOL    HW116241   4.207   6.453   1.049
 5114SOL    HW216242   4.304   6.425   0.921
 5115SOL     OW16243   1.687   3.721   0.949
 5115SOL    HW116244   1.725   3.632   0.925
 5115SOL    HW216245   1.725   3.751   1.037
 5116SOL     OW16246   2.034   6.627   6.833
 5116SOL    HW116247   2.100   6.673   6.773
 5116SOL    HW216248   1.965   6.692   6.863
 5117SOL     OW16249   1.759   2.831   4.467
 5117SOL    HW116250   1.847   2.868   4.437
 5117SOL    HW216251   1.693   2.906   4.478
 5118SOL     OW16252   6.019   6.100   0.200
 5118SOL    HW116253   6.051   6.040   0.273
 5118SOL    HW216254   6.085   6.173   0.185
 5119SOL     OW16255   4.772   1.762   0.354
 5119SOL    HW116256   4.696   1.698   0.363
 5119SOL    HW216257   4.775   1.822   0.434
 5120SOL     OW16258   5.122   6.936   5.210
 5120SOL    HW116259   5.181   7.015   5.194
 5120SOL    HW216260   5.031   6.967   5.239
 5121SOL     OW16261   2.707   3.958   6.650
 5121SOL    HW116262   2.711   4.055   6.672
 5121SOL    HW216263   2.711   3.905   6.735
 5122SOL     OW16264   4.613   5.270   3.858
 5122SOL    HW116265   4.645   5.272   3.952
 5122SOL    HW216266   4.625   5.177   3.821
 5123SOL     OW16267   4.576   2.453   2.227
 5123SOL    HW116268   4.603   2.519   2.297
 5123SOL    HW216269   4.523   2.499   2.156
 5124SOL     OW16270   2.300   6.338   4.086
 5124SOL    HW116271   2.259   6.397   4.156
 5124SOL    HW216272   2.231   6.313   4.019
 5125SOL     OW16273   0.301   2.353   4.081
 5125SOL    HW116274   0.382   2.404   4.053
 5125SOL    HW216275   0.269   2.386   4.169
 5126SOL     OW16276   1.846   6.933   1.455
 5126SOL    HW116277   1.910   6.995   1.499
 5126SOL    HW216278   1.757   6.977   1.446
 5127SOL     OW16279   2.058   5.427   0.597
 5127SOL    HW116280   2.107   5.345   0.569
 5127SOL    HW216281   1.961   5.419   0.571
 5128SOL     OW16282   6.251   6.064   1.369
 5128SOL    HW116283   6.214   6.028   1.454
 5128SOL    HW216284   6.297   5.990   1.319
 5129SOL     OW16285   4.986   6.578   1.021
 5129SOL    HW116286   4.936   6.524   0.954
 5129SOL    HW216287   5.058   6.522   1.062
 5130SOL     OW16288   5.987   4.885   3.765
 5130SOL    HW116289   5.909   4.861   3.823
 5130SOL    HW216290   5.955   4.915   3.676
 5131SOL     OW16291   2.030   2.445   3.847
 5131SOL    HW116292   1.954   2.480   3.791
 5131SOL    HW216293   2.110   2.430   3.788
 5132SOL     OW16294   3.256   5.025   5.955
 5132SOL    HW116295   3.263   5.022   6.055
 5132SOL    HW216296   3.326   4.967   5.915
 5133SOL     OW16297   4.068   6.386   6.307
 5133SOL    HW116298   4.034   6.293   6.292
 5133SOL    HW216299   4.133   6.386   6.384
 5134SOL     OW16300   0.472   3.597   1.099
 5134SOL    HW116301   0.467   3.614   1.198
 5134SOL    HW216302   0.388   3.628   1.056
 5135SOL     OW16303   0.026   1.791   4.601
 5135SOL    HW116304   0.007   1.883   4.635
 5135SOL    HW216305   6.966   1.751   4.565
 5136SOL     OW16306   4.977   1.048   3.999
 5136SOL    HW116307   5.052   0.988   3.970
 5136SOL    HW216308   4.988   1.068   4.097
 5137SOL     OW16309   4.613   4.373   5.994
 5137SOL    HW116310   4.594   4.428   5.913
 5137SOL    HW216311   4.587   4.278   5.977
 5138SOL     OW16312   2.256   3.989   5.868
 5138SOL    HW116313   2.209   3.923   5.808
 5138SOL    HW216314   2.355   3.981   5.856
 5139SOL     OW16315   1.185   6.875   4.191
 5139SOL    HW116316   1.111   6.834   4.244
 5139SOL    HW216317   1.212   6.812   4.117
 5140SOL     OW16318   3.186   2.902   0.548
 5140SOL    HW116319   3.230   2.836   0.487
 5140SOL    HW216320   3.129   2.854   0.614
 5141SOL     OW16321   5.467   2.958   0.207
 5141SOL    HW116322   5.530   3.033   0.226
 5141SOL    HW216323   5.463   2.942   0.108
 5142SOL     OW16324   5.974   3.653   4.836
 5142SOL    HW116325   5.972   3.618   4.742
 5142SOL    HW216326   5.890   3.703   4.855
 5143SOL     OW16327   6.578   5.062   4.586
 5143SOL    HW116328   6.595   5.136   4.650
 5143SOL    HW216329   6.543   5.100   4.500
 5144SOL     OW16330   1.323   0.598   6.092
 5144SOL    HW116331   1.244   0.538   6.096
 5144SOL    HW216332   1.299   0.688   6.128
 5145SOL     OW16333   2.594   5.292   6.074
 5145SOL    HW116334   2.523   5.357   6.100
 5145SOL    HW216335   2.564   5.199   6.094
 5146SOL     OW16336   3.210   4.251   6.896
 5146SOL    HW116337   3.128   4.246   6.839
 5146SOL    HW216338   3.256   4.163   6.896
 5147SOL     OW16339   6.402   4.116   0.003
 5147SOL    HW116340   6.324   4.177   7.017
 5147SOL    HW216341   6.381   4.047   0.072
 5148SOL     OW16342   6.967   6.026   1.514
 5148SOL    HW116343   6.899   6.013   1.586
 5148SOL    HW216344   0.030   6.048   1.556
 5149SOL     OW16345   6.343   1.319   3.691
 5149SOL    HW116346   6.259   1.353   3.734
 5149SOL    HW216347   6.410   1.393   3.686
 5150SOL     OW16348   1.404   5.523   3.855
 5150SOL    HW116349   1.316   5.511   3.809
 5150SOL    HW216350   1.426   5.621   3.858
 5151SOL     OW16351   4.932   1.152   6.177
 5151SOL    HW116352   5.016   1.194   6.144
 5151SOL    HW216353   4.880   1.116   6.099
 5152SOL     OW16354   0.874   4.168   0.225
 5152SOL    HW116355   0.906   4.073   0.232
 5152SOL    HW216356   0.912   4.220   0.302
 5153SOL     OW16357   1.692   2.014   0.637
 5153SOL    HW116358   1.782   2.057   0.635
 5153SOL    HW216359   1.679   1.968   0.725
 5154SOL     OW16360   1.680   3.335   5.575
 5154SOL    HW116361   1.621   3.366   5.650
 5154SOL    HW216362   1.726   3.251   5.601
 5155SOL     OW16363   3.789   6.653   2.027
 5155SOL    HW116364   3.801   6.741   1.982
 5155SOL    HW216365   3.850   6.586   1.984
 5156SOL     OW16366   6.524   2.563   5.425
 5156SOL    HW116367   6.586   2.503   5.376
 5156SOL    HW216368   6.576   2.636   5.469
 5157SOL     OW16369   5.112   2.910   3.640
 5157SOL    HW116370   5.127   2.943   3.546
 5157SOL    HW216371   5.177   2.837   3.660
 5158SOL     OW16372   3.966   0.914   1.091
 5158SOL    HW116373   3.935   1.008   1.103
 5158SOL    HW216374   3.901   0.852   1.134
 5159SOL     OW16375   1.250   3.675   4.356
 5159SOL    HW116376   1.336   3.625   4.366
 5159SOL    HW216377   1.219   3.670   4.262
 5160SOL     OW16378   1.851   3.934   4.587
 5160SOL    HW116379   1.890   4.015   4.632
 5160SOL    HW216380   1.753   3.948   4.573
 5161SOL     OW16381   1.209   3.152   5.484
 5161SOL    HW116382   1.193   3.172   5.580
 5161SOL    HW216383   1.280   3.213   5.448
 5162SOL     OW16384   6.945   6.533   3.623
 5162SOL    HW116385   6.899   6.446   3.606
 5162SOL    HW216386   0.004   6.517   3.675
 5163SOL     OW16387   5.726   4.664   1.277
 5163SOL    HW116388   5.765   4.667   1.369
 5163SOL    HW216389   5.660   4.589   1.271
 5164SOL     OW16390   6.398   3.697   5.398
 5164SOL    HW116391   6.307   3.657   5.389
 5164SOL    HW216392   6.460   3.632   5.441
 5165SOL     OW16393   6.570   4.426   4.332
 5165SOL    HW116394   6.513   4.493   4.378
 5165SOL    HW216395   6.621   4.373   4.400
 5166SOL     OW16396   1.832   5.047   2.277
 5166SOL    HW116397   1.779   5.088   2.203
 5166SOL    HW216398   1.788   5.066   2.365
 5167SOL     OW16399   0.189   6.535   5.683
 5167SOL    HW116400   0.282   6.563   5.659
 5167SOL    HW216401   0.193   6.465   5.754
 5168SOL     OW16402   4.155   2.244   2.925
 5168SOL    HW116403   4.240   2.192   2.916
 5168SOL    HW216404   4.166   2.334   2.882
 5169SOL     OW16405   3.251   3.481   6.252
 5169SOL    HW116406   3.265   3.501   6.349
 5169SOL    HW216407   3.154   3.496   6.229
 5170SOL     OW16408   6.444   4.481   4.713
 5170SOL    HW116409   6.538   4.508   4.732
 5170SOL    HW216410   6.398   4.456   4.799
 5171SOL     OW16411   1.554   4.835   4.511
 5171SOL    HW116412   1.631   4.898   4.524
 5171SOL    HW216413   1.587   4.748   4.474
 5172SOL     OW16414   0.632   4.552   2.358
 5172SOL    HW116415   0.622   4.646   2.327
 5172SOL    HW216416   0.681   4.550   2.445
 5173SOL     OW16417   5.090   3.071   6.207
 5173SOL    HW116418   5.189   3.076   6.221
 5173SOL    HW216419   5.060   3.150   6.154
 5174SOL     OW16420   1.694   4.835   6.283
 5174SOL    HW116421   1.748   4.815   6.201
 5174SOL    HW216422   1.662   4.930   6.280
 5175SOL     OW16423   1.113   4.333   0.679
 5175SOL    HW116424   1.059   4.318   0.596
 5175SOL    HW216425   1.053   4.359   0.754
 5176SOL     OW16426   3.783   3.909   0.948
 5176SOL    HW116427   3.783   3.836   1.016
 5176SOL    HW216428   3.732   3.880   0.867
 5177SOL     OW16429   5.051   6.554   5.893
 5177SOL    HW116430   5.089   6.462   5.903
 5177SOL    HW216431   4.979   6.568   5.961
 5178SOL     OW16432   2.551   2.661   1.631
 5178SOL    HW116433   2.615   2.591   1.662
 5178SOL    HW216434   2.458   2.633   1.651
 5179SOL     OW16435   3.228   6.172   5.396
 5179SOL    HW116436   3.145   6.210   5.436
 5179SOL    HW216437   3.233   6.074   5.417
 5180SOL     OW16438   2.880   2.582   0.856
 5180SOL    HW116439   2.902   2.533   0.940
 5180SOL    HW216440   2.833   2.521   0.793
 5181SOL     OW16441   4.555   0.024   2.766
 5181SOL    HW116442   4.456   0.032   2.780
 5181SOL    HW216443   4.595   0.115   2.759
 5182SOL     OW16444   5.836   4.620   1.872
 5182SOL    HW116445   5.893   4.652   1.949
 5182SOL    HW216446   5.859   4.526   1.850
 5183SOL     OW16447   4.711   6.630   1.489
 5183SOL    HW116448   4.630   6.644   1.546
 5183SOL    HW216449   4.697   6.674   1.400
 5184SOL     OW16450   0.810   0.921   2.960
 5184SOL    HW116451   0.771   0.916   2.868
 5184SOL    HW216452   0.849   1.012   2.975
 5185SOL     OW16453   3.793   0.222   2.268
 5185SOL    HW116454   3.868   0.245   2.206
 5185SOL    HW216455   3.762   0.129   2.250
 5186SOL     OW16456   6.858   4.379   0.678
 5186SOL    HW116457   6.789   4.307   0.686
 5186SOL    HW216458   6.948   4.337   0.665
 5187SOL     OW16459   6.308   1.986   3.419
 5187SOL    HW116460   6.386   1.957   3.362
 5187SOL    HW216461   6.254   1.906   3.444
 5188SOL     OW16462   0.686   4.363   5.893
 5188SOL    HW116463   0.780   4.339   5.918
 5188SOL    HW216464   0.632   4.375   5.976
 5189SOL     OW16465   4.764   4.763   6.578
 5189SOL    HW116466   4.692   4.701   6.607
 5189SOL    HW216467   4.796   4.736   6.487
 5190SOL     OW16468   1.006   2.753   4.060
 5190SOL    HW116469   1.065   2.784   3.986
 5190SOL    HW216470   0.924   2.711   4.023
 5191SOL     OW16471   3.535   1.393   1.543
 5191SOL    HW116472   3.446   1.412   1.502
 5191SOL    HW216473   3.523   1.337   1.625
 5192SOL     OW16474   5.688   5.902   2.631
 5192SOL    HW116475   5.629   5.860   2.699
 5192SOL    HW216476   5.738   5.979   2.673
 5193SOL     OW16477   4.706   4.216   4.147
 5193SOL    HW116478   4.655   4.296   4.179
 5193SOL    HW216479   4.786   4.246   4.095
 5194SOL     OW16480   5.642   0.667   5.850
 5194SOL    HW116481   5.566   0.731   5.842
 5194SOL    HW216482   5.694   0.666   5.765
 5195SOL     OW16483   6.070   6.618   5.176
 5195SOL    HW116484   6.146   6.682   5.164
 5195SOL    HW216485   6.058   6.599   5.274
 5196SOL     OW16486   0.167   4.277   1.632
 5196SOL    HW116487   0.191   4.365   1.673
 5196SOL    HW216488   0.232   4.207   1.662
 5197SOL     OW16489   2.519   5.854   5.029
 5197SOL    HW116490   2.492   5.790   5.102
 5197SOL    HW216491   2.548   5.802   4.949
 5198SOL     OW16492   3.793   6.427   5.410
 5198SOL    HW116493   3.756   6.337   5.432
 5198SOL    HW216494   3.737   6.498   5.453
 5199SOL     OW16495   2.290   5.343   1.505
 5199SOL    HW116496   2.276   5.275   1.433
 5199SOL    HW216497   2.329   5.298   1.586
 5200SOL     OW16498   0.054   1.469   4.825
 5200SOL    HW116499   0.085   1.521   4.904
 5200SOL    HW216500   0.128   1.462   4.758
 5201SOL     OW16501   5.482   4.886   4.170
 5201SOL    HW116502   5.472   4.963   4.233
 5201SOL    HW216503   5.564   4.834   4.194
 5202SOL     OW16504   3.668   3.057   6.497
 5202SOL    HW116505   3.723   3.068   6.581
 5202SOL    HW216506   3.694   3.128   6.431
 5203SOL     OW16507   1.913   0.165   0.473
 5203SOL    HW116508   1.926   0.070   0.499
 5203SOL    HW216509   1.891   0.219   0.555
 5204SOL     OW16510   3.495   1.020   6.931
 5204SOL    HW116511   3.553   0.940   6.916
 5204SOL    HW216512   3.416   1.017   6.870
 5205SOL     OW16513   0.167   5.620   0.765
 5205SOL    HW116514   0.092   5.590   0.824
 5205SOL    HW216515   0.157   5.717   0.747
 5206SOL     OW16516   0.854   4.648   5.272
 5206SOL    HW116517   0.824   4.697   5.354
 5206SOL    HW216518   0.863   4.551   5.293
 5207SOL     OW16519   0.174   0.780   4.458
 5207SOL    HW116520   0.154   0.794   4.361
 5207SOL    HW216521   0.098   0.731   4.501
 5208SOL     OW16522   4.572   2.278   0.698
 5208SOL    HW116523   4.579   2.220   0.617
 5208SOL    HW216524   4.478   2.274   0.734
 5209SOL     OW16525   5.129   5.871   2.967
 5209SOL    HW116526   5.035   5.842   2.950
 5209SOL    HW216527   5.164   5.824   3.048
 5210SOL     OW16528   5.491   4.221   0.573
 5210SOL    HW116529   5.530   4.152   0.634
 5210SOL    HW216530   5.402   4.189   0.540
 5211SOL     OW16531   4.694   2.718   4.214
 5211SOL    HW116532   4.653   2.668   4.290
 5211SOL    HW216533   4.648   2.692   4.129
 5212SOL     OW16534   1.121   3.424   1.216
 5212SOL    HW116535   1.193   3.435   1.285
 5212SOL    HW216536   1.035   3.460   1.252
 5213SOL     OW16537   4.168   3.407   2.840
 5213SOL    HW116538   4.263   3.414   2.808
 5213SOL    HW216539   4.145   3.310   2.852
 5214SOL     OW16540   5.818   3.661   5.859
 5214SOL    HW116541   5.846   3.710   5.777
 5214SOL    HW216542   5.852   3.567   5.856
 5215SOL     OW16543   0.422   3.915   4.907
 5215SOL    HW116544   0.374   3.999   4.883
 5215SOL    HW216545   0.478   3.885   4.830
 5216SOL     OW16546   5.412   4.987   0.476
 5216SOL    HW116547   5.343   4.914   0.468
 5216SOL    HW216548   5.381   5.055   0.543
 5217SOL     OW16549   4.276   6.271   3.725
 5217SOL    HW116550   4.262   6.268   3.627
 5217SOL    HW216551   4.237   6.188   3.767
 5218SOL     OW16552   0.476   0.189   0.926
 5218SOL    HW116553   0.486   0.161   1.021
 5218SOL    HW216554   0.382   0.217   0.908
 5219SOL     OW16555   2.088   2.320   5.472
 5219SOL    HW116556   2.078   2.223   5.451
 5219SOL    HW216557   2.129   2.331   5.562
 5220SOL     OW16558   1.720   4.893   3.819
 5220SOL    HW116559   1.639   4.912   3.764
 5220SOL    HW216560   1.705   4.926   3.913
 5221SOL     OW16561   6.461   0.214   0.867
 5221SOL    HW116562   6.534   0.279   0.847
 5221SOL    HW216563   6.478   0.170   0.956
 5222SOL     OW16564   4.926   4.509   1.471
 5222SOL    HW116565   4.884   4.429   1.513
 5222SOL    HW216566   4.899   4.514   1.375
 5223SOL     OW16567   0.803   3.139   1.245
 5223SOL    HW116568   0.777   3.140   1.149
 5223SOL    HW216569   0.736   3.190   1.299
 5224SOL     OW16570   0.731   2.538   4.904
 5224SOL    HW116571   0.714   2.636   4.895
 5224SOL    HW216572   0.678   2.489   4.835
 5225SOL     OW16573   0.768   1.799   4.885
 5225SOL    HW116574   0.685   1.801   4.829
 5225SOL    HW216575   0.848   1.791   4.825
 5226SOL     OW16576   6.890   6.602   3.905
 5226SOL    HW116577   6.894   6.603   3.805
 5226SOL    HW216578   6.796   6.617   3.935
 5227SOL     OW16579   0.263   2.552   5.056
 5227SOL    HW116580   0.224   2.645   5.058
 5227SOL    HW216581   0.270   2.518   5.150
 5228SOL     OW16582   1.939   2.497   5.957
 5228SOL    HW116583   1.946   2.452   5.868
 5228SOL    HW216584   1.853   2.549   5.962
 5229SOL     OW16585   4.364   0.857   5.985
 5229SOL    HW116586   4.310   0.828   6.064
 5229SOL    HW216587   4.334   0.947   5.955
 5230SOL     OW16588   6.892   6.930   1.937
 5230SOL    HW116589   6.931   6.924   1.845
 5230SOL    HW216590   6.810   6.874   1.943
 5231SOL     OW16591   6.396   1.819   2.621
 5231SOL    HW116592   6.482   1.833   2.572
 5231SOL    HW216593   6.380   1.721   2.632
 5232SOL     OW16594   2.144   2.901   5.674
 5232SOL    HW116595   2.178   2.868   5.586
 5232SOL    HW216596   2.063   2.848   5.701
 5233SOL     OW16597   3.083   0.649   2.638
 5233SOL    HW116598   2.987   0.672   2.652
 5233SOL    HW216599   3.091   0.552   2.617
 5234SOL     OW16600   2.384   2.284   1.115
 5234SOL    HW116601   2.479   2.303   1.091
 5234SOL    HW216602   2.325   2.304   1.037
 5235SOL     OW16603   2.768   1.679   1.203
 5235SOL    HW116604   2.706   1.625   1.147
 5235SOL    HW216605   2.859   1.637   1.203
 5236SOL     OW16606   3.501   5.457   1.960
 5236SOL    HW116607   3.523   5.359   1.961
 5236SOL    HW216608   3.586   5.509   1.972
 5237SOL     OW16609   1.917   2.332   4.093
 5237SOL    HW116610   1.966   2.354   4.009
 5237SOL    HW216611   1.981   2.331   4.170
 5238SOL     OW16612   1.086   6.192   2.726
 5238SOL    HW116613   1.168   6.236   2.688
 5238SOL    HW216614   1.043   6.136   2.655
 5239SOL     OW16615   2.695   3.848   1.157
 5239SOL    HW116616   2.765   3.919   1.157
 5239SOL    HW216617   2.632   3.862   1.234
 5240SOL     OW16618   2.177   3.760   5.721
 5240SOL    HW116619   2.137   3.806   5.642
 5240SOL    HW216620   2.106   3.707   5.768
 5241SOL     OW16621   0.617   5.819   2.365
 5241SOL    HW116622   0.524   5.843   2.396
 5241SOL    HW216623   0.635   5.865   2.278
 5242SOL     OW16624   4.917   0.575   6.350
 5242SOL    HW116625   4.924   0.566   6.250
 5242SOL    HW216626   4.947   0.490   6.393
 5243SOL     OW16627   2.177   6.700   2.003
 5243SOL    HW116628   2.232   6.684   2.084
 5243SOL    HW216629   2.230   6.678   1.921
 5244SOL     OW16630   5.147   3.008   0.903
 5244SOL    HW116631   5.140   3.101   0.866
 5244SOL    HW216632   5.076   2.995   0.973
 5245SOL     OW16633   4.268   3.749   1.314
 5245SOL    HW116634   4.305   3.813   1.381
 5245SOL    HW216635   4.276   3.789   1.222
 5246SOL     OW16636   6.157   2.822   1.292
 5246SOL    HW116637   6.226   2.753   1.274
 5246SOL    HW216638   6.066   2.785   1.272
 5247SOL     OW16639   4.280   2.090   6.689
 5247SOL    HW116640   4.363   2.034   6.696
 5247SOL    HW216641   4.294   2.163   6.622
 5248SOL     OW16642   6.652   1.412   3.527
 5248SOL    HW116643   6.738   1.462   3.539
 5248SOL    HW216644   6.633   1.402   3.429
 5249SOL     OW16645   0.623   4.925   6.746
 5249SOL    HW116646   0.625   4.856   6.674
 5249SOL    HW216647   0.677   5.004   6.717
 5250SOL     OW16648   2.307   6.169   0.704
 5250SOL    HW116649   2.294   6.234   0.629
 5250SOL    HW216650   2.222   6.160   0.755
 5251SOL     OW16651   0.655   4.725   0.686
 5251SOL    HW116652   0.736   4.754   0.736
 5251SOL    HW216653   0.652   4.625   0.683
 5252SOL     OW16654   3.995   0.277   2.563
 5252SOL    HW116655   4.036   0.197   2.605
 5252SOL    HW216656   4.032   0.289   2.470
 5253SOL     OW16657   6.054   4.727   4.620
 5253SOL    HW116658   6.048   4.806   4.558
 5253SOL    HW216659   6.037   4.643   4.569
 5254SOL     OW16660   6.014   0.170   2.877
 5254SOL    HW116661   6.041   0.100   2.811
 5254SOL    HW216662   5.915   0.175   2.883
 5255SOL     OW16663   6.434   1.749   4.853
 5255SOL    HW116664   6.341   1.787   4.845
 5255SOL    HW216665   6.488   1.776   4.773
 5256SOL     OW16666   5.652   1.084   2.750
 5256SOL    HW116667   5.669   1.045   2.660
 5256SOL    HW216668   5.716   1.044   2.816
 5257SOL     OW16669   3.866   0.655   5.726
 5257SOL    HW116670   3.835   0.747   5.748
 5257SOL    HW216671   3.890   0.606   5.809
 5258SOL     OW16672   4.706   2.048   2.551
 5258SOL    HW116673   4.691   1.956   2.587
 5258SOL    HW216674   4.728   2.042   2.453
 5259SOL     OW16675   5.757   5.523   2.853
 5259SOL    HW116676   5.678   5.563   2.808
 5259SOL    HW216677   5.755   5.424   2.842
 5260SOL     OW16678   2.342   1.004   0.889
 5260SOL    HW116679   2.279   1.040   0.820
 5260SOL    HW216680   2.350   1.070   0.964
 5261SOL     OW16681   6.282   4.439   0.142
 5261SOL    HW116682   6.230   4.454   0.058
 5261SOL    HW216683   6.239   4.490   0.217
 5262SOL     OW16684   2.051   0.829   2.649
 5262SOL    HW116685   2.029   0.927   2.649
 5262SOL    HW216686   2.049   0.795   2.743
 5263SOL     OW16687   2.134   0.511   2.819
 5263SOL    HW116688   2.210   0.510   2.754
 5263SOL    HW216689   2.137   0.594   2.874
 5264SOL     OW16690   0.067   2.170   1.603
 5264SOL    HW116691   0.063   2.073   1.580
 5264SOL    HW216692   6.999   2.205   1.617
 5265SOL     OW16693   6.460   3.989   4.637
 5265SOL    HW116694   6.392   4.010   4.567
 5265SOL    HW216695   6.430   3.910   4.690
 5266SOL     OW16696   2.242   0.503   0.869
 5266SOL    HW116697   2.315   0.519   0.803
 5266SOL    HW216698   2.260   0.419   0.919
 5267SOL     OW16699   4.981   2.281   4.294
 5267SOL    HW116700   4.917   2.352   4.263
 5267SOL    HW216701   4.954   2.193   4.256
 5268SOL     OW16702   5.729   0.803   6.186
 5268SOL    HW116703   5.726   0.807   6.286
 5268SOL    HW216704   5.812   0.755   6.157
 5269SOL     OW16705   0.163   6.456   3.445
 5269SOL    HW116706   0.097   6.437   3.373
 5269SOL    HW216707   0.223   6.531   3.417
 5270SOL     OW16708   0.055   2.336   6.179
 5270SOL    HW116709   6.998   2.343   6.236
 5270SOL    HW216710   0.131   2.299   6.232
 5271SOL     OW16711   6.280   5.685   3.970
 5271SOL    HW116712   6.303   5.774   3.930
 5271SOL    HW216713   6.362   5.628   3.974
 5272SOL     OW16714   4.418   0.385   0.376
 5272SOL    HW116715   4.367   0.470   0.391
 5272SOL    HW216716   4.422   0.333   0.462
 5273SOL     OW16717   1.066   2.601   2.706
 5273SOL    HW116718   1.055   2.536   2.632
 5273SOL    HW216719   1.049   2.694   2.673
 5274SOL     OW16720   4.453   5.633   2.218
 5274SOL    HW116721   4.471   5.687   2.136
 5274SOL    HW216722   4.525   5.565   2.230
 5275SOL     OW16723   3.705   1.083   6.380
 5275SOL    HW116724   3.760   1.094   6.463
 5275SOL    HW216725   3.765   1.061   6.303
 5276SOL     OW16726   3.494   6.423   2.278
 5276SOL    HW116727   3.432   6.346   2.261
 5276SOL    HW216728   3.576   6.390   2.325
 5277SOL     OW16729   2.202   2.047   1.840
 5277SOL    HW116730   2.165   1.976   1.781
 5277SOL    HW216731   2.301   2.054   1.825
 5278SOL     OW16732   4.649   4.968   1.466
 5278SOL    HW116733   4.617   4.877   1.440
 5278SOL    HW216734   4.718   4.960   1.537
 5279SOL     OW16735   2.957   5.080   2.008
 5279SOL    HW116736   2.920   5.147   2.072
 5279SOL    HW216737   2.978   4.995   2.057
 5280SOL     OW16738   4.186   5.847   4.480
 5280SOL    HW116739   4.170   5.941   4.509
 5280SOL    HW216740   4.137   5.784   4.540
 5281SOL     OW16741   0.594   1.749   1.736
 5281SOL    HW116742   0.602   1.651   1.722
 5281SOL    HW216743   0.681   1.785   1.769
 5282SOL     OW16744   3.498   1.982   3.474
 5282SOL    HW116745   3.469   2.008   3.381
 5282SOL    HW216746   3.459   1.893   3.496
 5283SOL     OW16747   5.393   5.121   6.779
 5283SOL    HW116748   5.434   5.168   6.702
 5283SOL    HW216749   5.365   5.029   6.752
 5284SOL     OW16750   5.725   2.936   2.922
 5284SOL    HW116751   5.782   2.935   2.840
 5284SOL    HW216752   5.782   2.919   3.002
 5285SOL     OW16753   3.279   5.343   3.119
 5285SOL    HW116754   3.255   5.384   3.031
 5285SOL    HW216755   3.218   5.266   3.138
 5286SOL     OW16756   1.981   4.671   1.307
 5286SOL    HW116757   1.959   4.600   1.374
 5286SOL    HW216758   1.925   4.752   1.324
 5287SOL     OW16759   1.922   2.270   1.293
 5287SOL    HW116760   1.826   2.284   1.268
 5287SOL    HW216761   1.977   2.341   1.249
 5288SOL     OW16762   3.571   6.846   0.690
 5288SOL    HW116763   3.562   6.930   0.638
 5288SOL    HW216764   3.601   6.772   0.629
 5289SOL     OW16765   2.108   5.611   1.456
 5289SOL    HW116766   2.140   5.518   1.477
 5289SOL    HW216767   2.009   5.611   1.448
 5290SOL     OW16768   4.452   6.216   0.425
 5290SOL    HW116769   4.397   6.143   0.386
 5290SOL    HW216770   4.467   6.287   0.357
 5291SOL     OW16771   2.209   4.914   6.407
 5291SOL    HW116772   2.259   4.926   6.493
 5291SOL    HW216773   2.223   4.820   6.373
 5292SOL     OW16774   4.097   3.048   5.931
 5292SOL    HW116775   4.092   3.142   5.965
 5292SOL    HW216776   4.078   3.048   5.832
 5293SOL     OW16777   0.464   0.283   4.552
 5293SOL    HW116778   0.491   0.280   4.455
 5293SOL    HW216779   0.365   0.291   4.559
 5294SOL     OW16780   5.661   2.347   5.825
 5294SOL    HW116781   5.588   2.413   5.806
 5294SOL    HW216782   5.746   2.378   5.782
 5295SOL     OW16783   6.527   0.993   1.935
 5295SOL    HW116784   6.562   0.905   1.902
 5295SOL    HW216785   6.456   0.977   2.004
 5296SOL     OW16786   0.731   4.621   1.185
 5296SOL    HW116787   0.753   4.538   1.237
 5296SOL    HW216788   0.655   4.602   1.123
 5297SOL     OW16789   2.221   2.520   1.304
 5297SOL    HW116790   2.319   2.532   1.324
 5297SOL    HW216791   2.210   2.468   1.220
 5298SOL     OW16792   0.890   5.178   1.454
 5298SOL    HW116793   0.880   5.247   1.526
 5298SOL    HW216794   0.859   5.216   1.367
 5299SOL     OW16795   3.093   0.265   2.255
 5299SOL    HW116796   3.028   0.336   2.228
 5299SOL    HW216797   3.051   0.175   2.241
 5300SOL     OW16798   6.618   5.269   3.179
 5300SOL    HW116799   6.592   5.295   3.272
 5300SOL    HW216800   6.711   5.233   3.179
 5301SOL     OW16801   4.263   1.623   0.147
 5301SOL    HW116802   4.343   1.630   0.206
 5301SOL    HW216803   4.285   1.569   0.066
 5302SOL     OW16804   6.010   4.210   3.025
 5302SOL    HW116805   6.085   4.192   3.089
 5302SOL    HW216806   6.047   4.238   2.936
 5303SOL     OW16807   0.413   4.731   3.382
 5303SOL    HW116808   0.451   4.717   3.291
 5303SOL    HW216809   0.338   4.797   3.377
 5304SOL     OW16810   5.147   1.976   5.843
 5304SOL    HW116811   5.137   1.919   5.925
 5304SOL    HW216812   5.173   1.918   5.766
 5305SOL     OW16813   2.396   1.054   3.295
 5305SOL    HW116814   2.461   1.130   3.303
 5305SOL    HW216815   2.339   1.068   3.214
 5306SOL     OW16816   3.021   0.169   5.625
 5306SOL    HW116817   2.997   0.217   5.709
 5306SOL    HW216818   2.939   0.156   5.569
 5307SOL     OW16819   5.103   6.868   7.017
 5307SOL    HW116820   5.030   6.911   6.965
 5307SOL    HW216821   5.187   6.920   7.007
 5308SOL     OW16822   6.962   1.031   2.676
 5308SOL    HW116823   0.033   1.056   2.693
 5308SOL    HW216824   6.953   0.989   2.586
 5309SOL     OW16825   3.350   3.905   3.500
 5309SOL    HW116826   3.254   3.926   3.481
 5309SOL    HW216827   3.407   3.939   3.425
 5310SOL     OW16828   4.759   2.272   0.910
 5310SOL    HW116829   4.806   2.347   0.958
 5310SOL    HW216830   4.680   2.309   0.861
 5311SOL     OW16831   1.104   5.617   0.054
 5311SOL    HW116832   1.020   5.568   0.030
 5311SOL    HW216833   1.086   5.716   0.053
 5312SOL     OW16834   0.510   3.690   2.731
 5312SOL    HW116835   0.487   3.697   2.828
 5312SOL    HW216836   0.469   3.607   2.693
 5313SOL     OW16837   1.250   5.609   1.115
 5313SOL    HW116838   1.150   5.613   1.104
 5313SOL    HW216839   1.285   5.701   1.129
 5314SOL     OW16840   3.711   4.797   0.881
 5314SOL    HW116841   3.793   4.791   0.938
 5314SOL    HW216842   3.675   4.891   0.884
 5315SOL     OW16843   5.448   2.546   2.349
 5315SOL    HW116844   5.547   2.558   2.355
 5315SOL    HW216845   5.424   2.517   2.256
 5316SOL     OW16846   5.862   5.188   4.057
 5316SOL    HW116847   5.904   5.266   4.011
 5316SOL    HW216848   5.762   5.195   4.050
 5317SOL     OW16849   5.546   6.367   2.596
 5317SOL    HW116850   5.468   6.382   2.536
 5317SOL    HW216851   5.628   6.346   2.542
 5318SOL     OW16852   0.447   2.603   4.535
 5318SOL    HW116853   0.382   2.613   4.610
 5318SOL    HW216854   0.500   2.519   4.548
 5319SOL     OW16855   4.768   0.356   0.613
 5319SOL    HW116856   4.737   0.395   0.699
 5319SOL    HW216857   4.868   0.361   0.608
 5320SOL     OW16858   5.752   2.742   5.669
 5320SOL    HW116859   5.798   2.654   5.673
 5320SOL    HW216860   5.820   2.815   5.660
 5321SOL     OW16861   2.178   5.322   6.053
 5321SOL    HW116862   2.163   5.224   6.068
 5321SOL    HW216863   2.091   5.368   6.040
 5322SOL     OW16864   3.187   5.639   0.445
 5322SOL    HW116865   3.154   5.721   0.399
 5322SOL    HW216866   3.286   5.631   0.432
 5323SOL     OW16867   5.595   2.704   0.256
 5323SOL    HW116868   5.519   2.768   0.254
 5323SOL    HW216869   5.561   2.612   0.278
 5324SOL     OW16870   3.448   3.536   1.778
 5324SOL    HW116871   3.546   3.558   1.770
 5324SOL    HW216872   3.405   3.596   1.844
 5325SOL     OW16873   5.051   5.751   3.409
 5325SOL    HW116874   5.013   5.775   3.319
 5325SOL    HW216875   5.080   5.655   3.408
 5326SOL     OW16876   6.596   6.227   1.834
 5326SOL    HW116877   6.523   6.228   1.765
 5326SOL    HW216878   6.582   6.151   1.897
 5327SOL     OW16879   6.615   0.598   3.515
 5327SOL    HW116880   6.543   0.621   3.579
 5327SOL    HW216881   6.703   0.593   3.563
 5328SOL     OW16882   3.940   4.789   1.074
 5328SOL    HW116883   3.874   4.731   1.122
 5328SOL    HW216884   4.021   4.735   1.052
 5329SOL     OW16885   6.940   5.048   6.938
 5329SOL    HW116886   6.927   4.950   6.917
 5329SOL    HW216887   6.927   5.101   6.854
 5330SOL     OW16888   4.759   4.413   0.761
 5330SOL    HW116889   4.659   4.418   0.751
 5330SOL    HW216890   4.781   4.381   0.853
 5331SOL     OW16891   4.491   3.203   6.681
 5331SOL    HW116892   4.428   3.129   6.703
 5331SOL    HW216893   4.445   3.270   6.623
 5332SOL     OW16894   5.823   2.666   0.091
 5332SOL    HW116895   5.762   2.722   0.147
 5332SOL    HW216896   5.772   2.589   0.053
 5333SOL     OW16897   1.650   1.704   3.997
 5333SOL    HW116898   1.582   1.772   4.025
 5333SOL    HW216899   1.659   1.634   4.068
 5334SOL     OW16900   4.271   5.531   2.000
 5334SOL    HW116901   4.268   5.578   2.088
 5334SOL    HW216902   4.306   5.594   1.930
 5335SOL     OW16903   0.282   4.015   1.281
 5335SOL    HW116904   0.202   4.026   1.222
 5335SOL    HW216905   0.325   4.104   1.296
 5336SOL     OW16906   1.446   3.678   4.029
 5336SOL    HW116907   1.426   3.764   4.076
 5336SOL    HW216908   1.424   3.688   3.932
 5337SOL     OW16909   6.482   4.579   0.809
 5337SOL    HW116910   6.410   4.528   0.856
 5337SOL    HW216911   6.456   4.593   0.714
 5338SOL     OW16912   6.766   3.465   0.802
 5338SOL    HW116913   6.720   3.500   0.883
 5338SOL    HW216914   6.851   3.516   0.787
 5339SOL     OW16915   5.403   3.293   2.762
 5339SOL    HW116916   5.408   3.244   2.849
 5339SOL    HW216917   5.380   3.389   2.779
 5340SOL     OW16918   6.026   2.784   2.210
 5340SOL    HW116919   6.016   2.849   2.135
 5340SOL    HW216920   6.056   2.833   2.292
 5341SOL     OW16921   3.966   5.196   3.987
 5341SOL    HW116922   3.895   5.265   4.007
 5341SOL    HW216923   4.007   5.215   3.898
 5342SOL     OW16924   6.044   7.017   4.362
 5342SOL    HW116925   6.117   0.008   4.428
 5342SOL    HW216926   6.038   0.070   4.300
 5343SOL     OW16927   3.452   3.594   6.873
 5343SOL    HW116928   3.502   3.536   6.808
 5343SOL    HW216929   3.481   3.689   6.861
 5344SOL     OW16930   1.454   1.589   6.600
 5344SOL    HW116931   1.514   1.659   6.638
 5344SOL    HW216932   1.502   1.540   6.527
 5345SOL     OW16933   5.040   1.834   0.308
 5345SOL    HW116934   4.948   1.804   0.332
 5345SOL    HW216935   5.107   1.771   0.347
 5346SOL     OW16936   3.132   6.053   4.033
 5346SOL    HW116937   3.109   6.142   4.072
 5346SOL    HW216938   3.048   5.998   4.026
 5347SOL     OW16939   5.927   1.558   4.005
 5347SOL    HW116940   6.024   1.537   4.016
 5347SOL    HW216941   5.888   1.501   3.933
 5348SOL     OW16942   5.538   2.475   2.963
 5348SOL    HW116943   5.525   2.539   3.039
 5348SOL    HW216944   5.452   2.429   2.942
 5349SOL     OW16945   0.516   3.975   2.268
 5349SOL    HW116946   0.543   3.880   2.284
 5349SOL    HW216947   0.512   4.023   2.356
 5350SOL     OW16948   1.401   6.549   0.288
 5350SOL    HW116949   1.431   6.625   0.346
 5350SOL    HW216950   1.462   6.541   0.209
 5351SOL     OW16951   6.489   6.232   2.677
 5351SOL    HW116952   6.580   6.195   2.699
 5351SOL    HW216953   6.461   6.295   2.750
 5352SOL     OW16954   1.232   3.232   4.976
 5352SOL    HW116955   1.225   3.174   5.057
 5352SOL    HW216956   1.299   3.305   4.993
 5353SOL     OW16957   3.771   5.486   3.492
 5353SOL    HW116958   3.785   5.523   3.400
 5353SOL    HW216959   3.775   5.386   3.489
 5354SOL     OW16960   4.580   5.793   0.491
 5354SOL    HW116961   4.555   5.757   0.581
 5354SOL    HW216962   4.508   5.770   0.426
 5355SOL     OW16963   5.269   4.582   5.079
 5355SOL    HW116964   5.279   4.485   5.057
 5355SOL    HW216965   5.235   4.632   4.998
 5356SOL     OW16966   0.540   5.245   1.283
 5356SOL    HW116967   0.501   5.318   1.227
 5356SOL    HW216968   0.615   5.201   1.233
 5357SOL     OW16969   5.942   3.148   2.489
 5357SOL    HW116970   5.980   3.238   2.507
 5357SOL    HW216971   5.861   3.134   2.546
 5358SOL     OW16972   4.272   2.244   0.210
 5358SOL    HW116973   4.310   2.196   0.289
 5358SOL    HW216974   4.211   2.182   0.160
 5359SOL     OW16975   3.470   2.508   0.092
 5359SOL    HW116976   3.416   2.515   0.008
 5359SOL    HW216977   3.412   2.478   0.167
 5360SOL     OW16978   5.389   4.314   3.340
 5360SOL    HW116979   5.353   4.294   3.249
 5360SOL    HW216980   5.315   4.347   3.399
 5361SOL     OW16981   2.061   5.324   2.208
 5361SOL    HW116982   2.104   5.348   2.295
 5361SOL    HW216983   2.101   5.379   2.135
 5362SOL     OW16984   5.418   0.458   1.937
 5362SOL    HW116985   5.400   0.383   2.001
 5362SOL    HW216986   5.452   0.420   1.851
 5363SOL     OW16987   5.969   5.568   3.284
 5363SOL    HW116988   5.966   5.617   3.371
 5363SOL    HW216989   5.896   5.601   3.225
 5364SOL     OW16990   4.919   1.130   2.140
 5364SOL    HW116991   4.987   1.194   2.106
 5364SOL    HW216992   4.852   1.111   2.068
 5365SOL     OW16993   3.598   2.958   3.838
 5365SOL    HW116994   3.507   2.983   3.872
 5365SOL    HW216995   3.608   2.992   3.745
 5366SOL     OW16996   6.271   5.766   2.629
 5366SOL    HW116997   6.321   5.808   2.554
 5366SOL    HW216998   6.178   5.743   2.599
 5367SOL     OW16999   6.452   6.196   1.558
 5367SOL    HW117000   6.396   6.175   1.479
 5367SOL    HW217001   6.405   6.263   1.615
 5368SOL     OW17002   6.410   5.918   3.903
 5368SOL    HW117003   6.508   5.923   3.924
 5368SOL    HW217004   6.359   5.971   3.971
 5369SOL     OW17005   2.844   5.367   2.676
 5369SOL    HW117006   2.855   5.466   2.665
 5369SOL    HW217007   2.897   5.320   2.604
 5370SOL     OW17008   1.427   3.713   1.066
 5370SOL    HW117009   1.522   3.733   1.040
 5370SOL    HW217010   1.368   3.789   1.041
 5371SOL     OW17011   5.673   5.659   4.604
 5371SOL    HW117012   5.698   5.571   4.644
 5371SOL    HW217013   5.574   5.662   4.590
 5372SOL     OW17014   1.017   0.120   3.089
 5372SOL    HW117015   0.954   0.083   3.158
 5372SOL    HW217016   1.000   0.075   3.002
 5373SOL     OW17017   3.850   1.628   6.792
 5373SOL    HW117018   3.762   1.608   6.835
 5373SOL    HW217019   3.920   1.637   6.863
 5374SOL     OW17020   1.888   4.772   2.347
 5374SOL    HW117021   1.948   4.846   2.317
 5374SOL    HW217022   1.849   4.726   2.267
 5375SOL     OW17023   1.737   4.225   4.598
 5375SOL    HW117024   1.686   4.309   4.616
 5375SOL    HW217025   1.831   4.248   4.574
 5376SOL     OW17026   0.492   7.000   6.135
 5376SOL    HW117027   0.554   6.973   6.209
 5376SOL    HW217028   0.426   0.042   6.170
 5377SOL     OW17029   1.935   0.819   3.350
 5377SOL    HW117030   1.890   0.730   3.344
 5377SOL    HW217031   1.988   0.823   3.434
 5378SOL     OW17032   5.111   0.965   2.004
 5378SOL    HW117033   5.044   1.013   2.061
 5378SOL    HW217034   5.196   0.955   2.055
 5379SOL     OW17035   1.562   2.106   5.817
 5379SOL    HW117036   1.657   2.076   5.814
 5379SOL    HW217037   1.550   2.172   5.891
 5380SOL     OW17038   4.344   6.524   1.423
 5380SOL    HW117039   4.310   6.611   1.458
 5380SOL    HW217040   4.410   6.542   1.350
 5381SOL     OW17041   4.340   6.964   3.831
 5381SOL    HW117042   4.307   7.024   3.903
 5381SOL    HW217043   4.440   6.969   3.826
 5382SOL     OW17044   4.285   1.545   1.459
 5382SOL    HW117045   4.363   1.603   1.438
 5382SOL    HW217046   4.249   1.569   1.549
 5383SOL     OW17047   2.052   2.694   4.591
 5383SOL    HW117048   2.025   2.782   4.629
 5383SOL    HW217049   2.034   2.622   4.658
 5384SOL     OW17050   5.357   5.470   4.283
 5384SOL    HW117051   5.316   5.560   4.275
 5384SOL    HW217052   5.331   5.429   4.370
 5385SOL     OW17053   3.648   2.924   6.055
 5385SOL    HW117054   3.694   2.955   5.972
 5385SOL    HW217055   3.711   2.868   6.109
 5386SOL     OW17056   5.725   4.585   4.505
 5386SOL    HW117057   5.730   4.489   4.477
 5386SOL    HW217058   5.772   4.597   4.592
 5387SOL     OW17059   1.933   1.348   3.528
 5387SOL    HW117060   1.928   1.385   3.435
 5387SOL    HW217061   1.927   1.423   3.594
 5388SOL     OW17062   0.524   6.545   2.184
 5388SOL    HW117063   0.459   6.495   2.126
 5388SOL    HW217064   0.491   6.638   2.199
 5389SOL     OW17065   4.483   1.594   4.213
 5389SOL    HW117066   4.475   1.500   4.246
 5389SOL    HW217067   4.411   1.612   4.146
 5390SOL     OW17068   0.879   2.845   2.939
 5390SOL    HW117069   0.873   2.754   2.980
 5390SOL    HW217070   0.973   2.878   2.943
 5391SOL     OW17071   3.060   3.648   0.218
 5391SOL    HW117072   2.973   3.642   0.169
 5391SOL    HW217073   3.126   3.585   0.176
 5392SOL     OW17074   5.444   1.918   3.844
 5392SOL    HW117075   5.351   1.953   3.835
 5392SOL    HW217076   5.508   1.995   3.849
 5393SOL     OW17077   4.759   1.792   4.998
 5393SOL    HW117078   4.809   1.796   5.085
 5393SOL    HW217079   4.821   1.759   4.926
 5394SOL     OW17080   1.606   2.032   1.077
 5394SOL    HW117081   1.646   1.951   1.120
 5394SOL    HW217082   1.678   2.079   1.025
 5395SOL     OW17083   6.543   2.079   0.489
 5395SOL    HW117084   6.482   2.024   0.546
 5395SOL    HW217085   6.620   2.113   0.544
 5396SOL     OW17086   5.174   4.270   0.787
 5396SOL    HW117087   5.096   4.258   0.848
 5396SOL    HW217088   5.206   4.180   0.756
 5397SOL     OW17089   0.610   1.179   2.590
 5397SOL    HW117090   0.560   1.217   2.512
 5397SOL    HW217091   0.704   1.213   2.590
 5398SOL     OW17092   5.723   1.542   2.546
 5398SOL    HW117093   5.726   1.639   2.569
 5398SOL    HW217094   5.802   1.518   2.490
 5399SOL     OW17095   2.012   1.310   0.130
 5399SOL    HW117096   1.947   1.271   0.065
 5399SOL    HW217097   2.002   1.410   0.131
 5400SOL     OW17098   4.865   3.440   1.769
 5400SOL    HW117099   4.953   3.436   1.722
 5400SOL    HW217100   4.818   3.352   1.759
 5401SOL     OW17101   5.891   2.719   1.291
 5401SOL    HW117102   5.890   2.777   1.210
 5401SOL    HW217103   5.841   2.765   1.365
 5402SOL     OW17104   1.104   6.307   1.809
 5402SOL    HW117105   1.141   6.284   1.899
 5402SOL    HW217106   1.178   6.309   1.742
 5403SOL     OW17107   4.641   2.996   0.134
 5403SOL    HW117108   4.622   3.018   0.230
 5403SOL    HW217109   4.578   3.045   0.075
 5404SOL     OW17110   5.813   1.043   0.489
 5404SOL    HW117111   5.803   0.956   0.536
 5404SOL    HW217112   5.734   1.059   0.431
 5405SOL     OW17113   6.900   5.350   0.114
 5405SOL    HW117114   6.958   5.411   0.167
 5405SOL    HW217115   6.913   5.256   0.146
 5406SOL     OW17116   2.452   0.668   5.566
 5406SOL    HW117117   2.511   0.724   5.624
 5406SOL    HW217118   2.504   0.591   5.530
 5407SOL     OW17119   2.266   6.909   2.724
 5407SOL    HW117120   2.211   6.977   2.676
 5407SOL    HW217121   2.286   6.942   2.816
 5408SOL     OW17122   3.439   1.569   3.918
 5408SOL    HW117123   3.505   1.498   3.892
 5408SOL    HW217124   3.360   1.565   3.856
 5409SOL     OW17125   0.697   2.639   1.797
 5409SOL    HW117126   0.600   2.648   1.819
 5409SOL    HW217127   0.722   2.707   1.729
 5410SOL     OW17128   1.032   2.637   1.169
 5410SOL    HW117129   0.969   2.715   1.170
 5410SOL    HW217130   0.987   2.558   1.128
 5411SOL     OW17131   3.193   5.284   0.080
 5411SOL    HW117132   3.131   5.229   0.024
 5411SOL    HW217133   3.141   5.355   0.127
 5412SOL     OW17134   0.137   2.110   5.951
 5412SOL    HW117135   0.236   2.108   5.942
 5412SOL    HW217136   0.095   2.079   5.866
 5413SOL     OW17137   6.665   6.184   4.464
 5413SOL    HW117138   6.588   6.121   4.458
 5413SOL    HW217139   6.711   6.173   4.552
 5414SOL     OW17140   5.393   4.047   5.845
 5414SOL    HW117141   5.394   3.948   5.838
 5414SOL    HW217142   5.320   4.076   5.908
 5415SOL     OW17143   4.409   1.067   0.115
 5415SOL    HW117144   4.437   1.102   0.205
 5415SOL    HW217145   4.474   1.100   0.046
 5416SOL     OW17146   3.371   5.922   6.131
 5416SOL    HW117147   3.277   5.905   6.101
 5416SOL    HW217148   3.384   5.886   6.224
 5417SOL     OW17149   4.245   6.816   4.362
 5417SOL    HW117150   4.146   6.821   4.357
 5417SOL    HW217151   4.278   6.746   4.298
 5418SOL     OW17152   6.743   3.180   4.366
 5418SOL    HW117153   6.730   3.150   4.461
 5418SOL    HW217154   6.795   3.266   4.366
 5419SOL     OW17155   5.095   0.050   6.075
 5419SOL    HW117156   5.034   7.010   6.030
 5419SOL    HW217157   5.065   0.065   6.169
 5420SOL     OW17158   0.868   1.105   2.067
 5420SOL    HW117159   0.898   1.023   2.117
 5420SOL    HW217160   0.809   1.160   2.127
 5421SOL     OW17161   4.104   4.698   1.970
 5421SOL    HW117162   4.195   4.657   1.983
 5421SOL    HW217163   4.052   4.642   1.906
 5422SOL     OW17164   2.702   5.199   3.640
 5422SOL    HW117165   2.653   5.124   3.596
 5422SOL    HW217166   2.793   5.168   3.669
 5423SOL     OW17167   5.520   5.975   1.753
 5423SOL    HW117168   5.572   6.053   1.717
 5423SOL    HW217169   5.464   5.936   1.680
 5424SOL     OW17170   4.410   4.251   5.539
 5424SOL    HW117171   4.319   4.284   5.562
 5424SOL    HW217172   4.424   4.257   5.441
 5425SOL     OW17173   1.706   4.436   5.553
 5425SOL    HW117174   1.724   4.383   5.636
 5425SOL    HW217175   1.613   4.473   5.557
 5426SOL     OW17176   5.995   5.481   1.330
 5426SOL    HW117177   6.088   5.445   1.339
 5426SOL    HW217178   5.994   5.578   1.354
 5427SOL     OW17179   4.433   1.865   6.387
 5427SOL    HW117180   4.476   1.928   6.451
 5427SOL    HW217181   4.448   1.898   6.293
 5428SOL     OW17182   6.040   5.585   2.543
 5428SOL    HW117183   6.044   5.563   2.640
 5428SOL    HW217184   5.962   5.645   2.525
 5429SOL     OW17185   3.670   0.210   4.868
 5429SOL    HW117186   3.630   0.298   4.841
 5429SOL    HW217187   3.637   0.185   4.959
 5430SOL     OW17188   2.672   3.806   5.699
 5430SOL    HW117189   2.610   3.766   5.767
 5430SOL    HW217190   2.732   3.734   5.664
 5431SOL     OW17191   3.491   4.254   0.182
 5431SOL    HW117192   3.555   4.201   0.238
 5431SOL    HW217193   3.397   4.230   0.206
 5432SOL     OW17194   0.186   5.734   6.780
 5432SOL    HW117195   0.139   5.704   6.863
 5432SOL    HW217196   0.244   5.660   6.746
 5433SOL     OW17197   2.030   0.629   1.255
 5433SOL    HW117198   2.092   0.698   1.218
 5433SOL    HW217199   2.077   0.541   1.261
 5434SOL     OW17200   5.301   0.727   4.776
 5434SOL    HW117201   5.326   0.738   4.873
 5434SOL    HW217202   5.280   0.631   4.758
 5435SOL     OW17203   6.776   4.569   0.869
 5435SOL    HW117204   6.677   4.576   0.853
 5435SOL    HW217205   6.820   4.525   0.791
 5436SOL     OW17206   1.378   4.663   2.727
 5436SOL    HW117207   1.343   4.599   2.658
 5436SOL    HW217208   1.473   4.640   2.747
 5437SOL     OW17209   3.943   5.391   1.611
 5437SOL    HW117210   3.877   5.440   1.667
 5437SOL    HW217211   4.020   5.451   1.589
 5438SOL     OW17212   4.650   5.671   2.430
 5438SOL    HW117213   4.586   5.680   2.354
 5438SOL    HW217214   4.743   5.684   2.397
 5439SOL     OW17215   0.983   4.745   1.975
 5439SOL    HW117216   1.059   4.787   2.024
 5439SOL    HW217217   0.920   4.703   2.040
 5440SOL     OW17218   6.334   6.799   3.607
 5440SOL    HW117219   6.267   6.873   3.606
 5440SOL    HW217220   6.289   6.713   3.631
 5441SOL     OW17221   6.317   3.246   4.080
 5441SOL    HW117222   6.258   3.284   4.152
 5441SOL    HW217223   6.261   3.208   4.007
 5442SOL     OW17224   4.312   0.008   5.626
 5442SOL    HW117225   4.347   6.977   5.701
 5442SOL    HW217226   4.235   0.064   5.660
 5443SOL     OW17227   4.805   1.015   3.692
 5443SOL    HW117228   4.868   1.050   3.761
 5443SOL    HW217229   4.851   1.013   3.603
 5444SOL     OW17230   6.583   1.537   4.658
 5444SOL    HW117231   6.573   1.479   4.739
 5444SOL    HW217232   6.669   1.516   4.612
 5445SOL     OW17233   5.699   5.987   4.498
 5445SOL    HW117234   5.753   5.963   4.417
 5445SOL    HW217235   5.647   5.907   4.528
 5446SOL     OW17236   6.933   4.120   6.420
 5446SOL    HW117237   6.838   4.117   6.453
 5446SOL    HW217238   6.948   4.206   6.371
 5447SOL     OW17239   0.743   2.546   1.136
 5447SOL    HW117240   0.807   2.497   1.194
 5447SOL    HW217241   0.769   2.643   1.132
 5448SOL     OW17242   4.433   5.240   3.136
 5448SOL    HW117243   4.344   5.286   3.138
 5448SOL    HW217244   4.420   5.142   3.151
 5449SOL     OW17245   3.229   1.323   2.066
 5449SOL    HW117246   3.193   1.406   2.109
 5449SOL    HW217247   3.153   1.272   2.024
 5450SOL     OW17248   4.085   5.629   1.715
 5450SOL    HW117249   4.050   5.703   1.773
 5450SOL    HW217250   4.185   5.631   1.716
 5451SOL     OW17251   0.023   6.915   2.860
 5451SOL    HW117252   0.074   6.860   2.794
 5451SOL    HW217253   6.956   6.877   2.871
 5452SOL     OW17254   2.464   4.514   1.790
 5452SOL    HW117255   2.410   4.487   1.870
 5452SOL    HW217256   2.523   4.591   1.815
 5453SOL     OW17257   5.981   3.643   2.988
 5453SOL    HW117258   5.886   3.665   3.009
 5453SOL    HW217259   5.998   3.546   3.009
 5454SOL     OW17260   5.667   4.397   2.063
 5454SOL    HW117261   5.630   4.412   1.971
 5454SOL    HW217262   5.739   4.465   2.080
 5455SOL     OW17263   1.785   2.012   4.197
 5455SOL    HW117264   1.840   1.940   4.154
 5455SOL    HW217265   1.689   1.987   4.194
 5456SOL     OW17266   5.304   1.603   1.100
 5456SOL    HW117267   5.307   1.529   1.034
 5456SOL    HW217268   5.329   1.689   1.055
 5457SOL     OW17269   5.511   1.578   6.759
 5457SOL    HW117270   5.458   1.579   6.843
 5457SOL    HW217271   5.460   1.531   6.687
 5458SOL     OW17272   6.332   3.267   0.067
 5458SOL    HW117273   6.312   3.189   0.126
 5458SOL    HW217274   6.269   3.342   0.089
 5459SOL     OW17275   1.685   3.413   5.250
 5459SOL    HW117276   1.770   3.359   5.247
 5459SOL    HW217277   1.689   3.476   5.328
 5460SOL     OW17278   1.330   0.841   1.240
 5460SOL    HW117279   1.356   0.936   1.251
 5460SOL    HW217280   1.237   0.836   1.202
 5461SOL     OW17281   6.502   1.405   5.197
 5461SOL    HW117282   6.602   1.404   5.185
 5461SOL    HW217283   6.463   1.324   5.154
 5462SOL     OW17284   4.681   3.995   6.592
 5462SOL    HW117285   4.643   4.065   6.653
 5462SOL    HW217286   4.703   4.036   6.504
 5463SOL     OW17287   1.597   2.775   0.102
 5463SOL    HW117288   1.607   2.705   0.173
 5463SOL    HW217289   1.500   2.795   0.089
 5464SOL     OW17290   0.506   5.886   6.224
 5464SOL    HW117291   0.578   5.826   6.259
 5464SOL    HW217292   0.468   5.940   6.298
 5465SOL     OW17293   6.402   6.481   3.847
 5465SOL    HW117294   6.325   6.539   3.819
 5465SOL    HW217295   6.424   6.417   3.774
 5466SOL     OW17296   5.860   2.554   4.843
 5466SOL    HW117297   5.885   2.518   4.753
 5466SOL    HW217298   5.931   2.529   4.909
 5467SOL     OW17299   4.654   2.555   4.434
 5467SOL    HW117300   4.612   2.572   4.524
 5467SOL    HW217301   4.609   2.476   4.391
 5468SOL     OW17302   6.906   1.474   1.047
 5468SOL    HW117303   6.880   1.508   1.138
 5468SOL    HW217304   6.873   1.380   1.036
 5469SOL     OW17305   3.318   0.117   5.271
 5469SOL    HW117306   3.276   0.040   5.224
 5469SOL    HW217307   3.301   0.201   5.220
 5470SOL     OW17308   3.416   5.303   3.443
 5470SOL    HW117309   3.440   5.352   3.527
 5470SOL    HW217310   3.469   5.341   3.366
 5471SOL     OW17311   4.614   0.986   3.312
 5471SOL    HW117312   4.615   1.075   3.356
 5471SOL    HW217313   4.685   0.928   3.351
 5472SOL     OW17314   2.729   2.368   6.682
 5472SOL    HW117315   2.683   2.316   6.610
 5472SOL    HW217316   2.800   2.425   6.642
 5473SOL     OW17317   2.692   4.452   1.661
 5473SOL    HW117318   2.611   4.459   1.719
 5473SOL    HW217319   2.774   4.457   1.717
 5474SOL     OW17320   1.036   5.217   3.000
 5474SOL    HW117321   1.076   5.170   2.921
 5474SOL    HW217322   1.077   5.180   3.084
 5475SOL     OW17323   6.987   1.643   5.352
 5475SOL    HW117324   6.924   1.714   5.322
 5475SOL    HW217325   0.056   1.677   5.344
 5476SOL     OW17326   2.618   6.470   6.007
 5476SOL    HW117327   2.567   6.469   5.921
 5476SOL    HW217328   2.644   6.564   6.030
 5477SOL     OW17329   1.290   4.406   4.528
 5477SOL    HW117330   1.264   4.442   4.438
 5477SOL    HW217331   1.378   4.445   4.556
 5478SOL     OW17332   5.570   4.294   5.451
 5478SOL    HW117333   5.621   4.379   5.437
 5478SOL    HW217334   5.506   4.306   5.527
 5479SOL     OW17335   3.630   1.138   4.836
 5479SOL    HW117336   3.565   1.214   4.840
 5479SOL    HW217337   3.720   1.173   4.808
 5480SOL     OW17338   0.129   3.946   4.269
 5480SOL    HW117339   0.033   3.919   4.276
 5480SOL    HW217340   0.157   3.992   4.353
 5481SOL     OW17341   4.361   0.646   6.643
 5481SOL    HW117342   4.321   0.699   6.718
 5481SOL    HW217343   4.445   0.602   6.675
 5482SOL     OW17344   5.198   2.987   1.168
 5482SOL    HW117345   5.229   2.973   1.074
 5482SOL    HW217346   5.188   2.898   1.213
 5483SOL     OW17347   0.388   3.247   5.540
 5483SOL    HW117348   0.321   3.309   5.582
 5483SOL    HW217349   0.394   3.267   5.442
 5484SOL     OW17350   5.813   6.312   4.319
 5484SOL    HW117351   5.782   6.313   4.414
 5484SOL    HW217352   5.739   6.342   4.259
 5485SOL     OW17353   3.061   6.894   5.657
 5485SOL    HW117354   2.985   6.845   5.616
 5485SOL    HW217355   3.048   6.993   5.645
 5486SOL     OW17356   0.370   0.875   3.504
 5486SOL    HW117357   0.414   0.816   3.436
 5486SOL    HW217358   0.438   0.935   3.546
 5487SOL     OW17359   5.654   5.018   0.502
 5487SOL    HW117360   5.698   4.940   0.546
 5487SOL    HW217361   5.556   5.001   0.493
 5488SOL     OW17362   5.381   1.348   6.314
 5488SOL    HW117363   5.325   1.347   6.231
 5488SOL    HW217364   5.473   1.314   6.292
 5489SOL     OW17365   1.243   4.219   3.019
 5489SOL    HW117366   1.288   4.192   3.104
 5489SOL    HW217367   1.312   4.245   2.952
 5490SOL     OW17368   2.143   1.446   0.975
 5490SOL    HW117369   2.178   1.510   0.906
 5490SOL    HW217370   2.085   1.496   1.040
 5491SOL     OW17371   0.840   4.860   0.842
 5491SOL    HW117372   0.857   4.941   0.786
 5491SOL    HW217373   0.831   4.888   0.938
 5492SOL     OW17374   0.839   1.262   6.500
 5492SOL    HW117375   0.898   1.314   6.438
 5492SOL    HW217376   0.773   1.209   6.447
 5493SOL     OW17377   3.795   3.481   7.021
 5493SOL    HW117378   3.722   3.430   0.042
 5493SOL    HW217379   3.874   3.421   7.007
 5494SOL     OW17380   5.733   2.895   1.597
 5494SOL    HW117381   5.809   2.834   1.619
 5494SOL    HW217382   5.726   2.966   1.667
 5495SOL     OW17383   3.984   3.451   2.550
 5495SOL    HW117384   3.969   3.415   2.642
 5495SOL    HW217385   3.968   3.378   2.484
 5496SOL     OW17386   4.033   6.011   1.515
 5496SOL    HW117387   4.006   5.993   1.609
 5496SOL    HW217388   3.954   6.001   1.455
 5497SOL     OW17389   6.412   0.730   1.687
 5497SOL    HW117390   6.384   0.776   1.604
 5497SOL    HW217391   6.331   0.707   1.741
 5498SOL     OW17392   4.216   0.929   5.396
 5498SOL    HW117393   4.171   0.931   5.486
 5498SOL    HW217394   4.155   0.966   5.327
 5499SOL     OW17395   0.047   1.428   2.819
 5499SOL    HW117396   0.019   1.521   2.794
 5499SOL    HW217397   0.000   1.399   2.902
 5500SOL     OW17398   2.368   5.676   1.425
 5500SOL    HW117399   2.429   5.597   1.418
 5500SOL    HW217400   2.273   5.643   1.426
 5501SOL     OW17401   2.937   0.486   2.206
 5501SOL    HW117402   2.939   0.511   2.303
 5501SOL    HW217403   2.972   0.561   2.151
 5502SOL     OW17404   5.903   3.915   5.586
 5502SOL    HW117405   5.864   3.986   5.527
 5502SOL    HW217406   5.845   3.833   5.582
 5503SOL     OW17407   1.493   5.266   3.526
 5503SOL    HW117408   1.440   5.230   3.602
 5503SOL    HW217409   1.556   5.196   3.493
 5504SOL     OW17410   3.137   1.991   5.063
 5504SOL    HW117411   3.130   2.083   5.026
 5504SOL    HW217412   3.210   1.941   5.016
 5505SOL     OW17413   2.887   5.527   5.833
 5505SOL    HW117414   2.909   5.499   5.740
 5505SOL    HW217415   2.792   5.506   5.853
 5506SOL     OW17416   6.231   0.667   5.610
 5506SOL    HW117417   6.207   0.575   5.641
 5506SOL    HW217418   6.184   0.735   5.667
 5507SOL     OW17419   2.457   6.156   4.227
 5507SOL    HW117420   2.500   6.101   4.155
 5507SOL    HW217421   2.394   6.222   4.186
 5508SOL     OW17422   3.368   0.674   6.571
 5508SOL    HW117423   3.319   0.738   6.630
 5508SOL    HW217424   3.460   0.710   6.551
 5509SOL     OW17425   5.939   6.872   6.672
 5509SOL    HW117426   5.869   6.933   6.635
 5509SOL    HW217427   5.987   6.918   6.747
 5510SOL     OW17428   5.558   0.540   6.073
 5510SOL    HW117429   5.601   0.591   5.998
 5510SOL    HW217430   5.493   0.474   6.035
 5511SOL     OW17431   0.640   0.666   2.421
 5511SOL    HW117432   0.737   0.648   2.406
 5511SOL    HW217433   0.624   0.765   2.420
 5512SOL     OW17434   1.181   0.508   6.772
 5512SOL    HW117435   1.241   0.463   6.838
 5512SOL    HW217436   1.108   0.556   6.821
 5513SOL     OW17437   4.629   4.383   4.494
 5513SOL    HW117438   4.684   4.301   4.508
 5513SOL    HW217439   4.630   4.407   4.396
 5514SOL     OW17440   5.181   4.568   2.303
 5514SOL    HW117441   5.168   4.664   2.276
 5514SOL    HW217442   5.247   4.525   2.241
 5515SOL     OW17443   6.804   2.572   1.662
 5515SOL    HW117444   6.759   2.569   1.752
 5515SOL    HW217445   6.897   2.607   1.672
 5516SOL     OW17446   0.978   3.917   6.472
 5516SOL    HW117447   1.007   3.856   6.398
 5516SOL    HW217448   1.025   4.004   6.464
 5517SOL     OW17449   2.580   1.817   1.931
 5517SOL    HW117450   2.560   1.905   1.889
 5517SOL    HW217451   2.669   1.821   1.976
 5518SOL     OW17452   6.291   5.081   5.219
 5518SOL    HW117453   6.226   5.005   5.223
 5518SOL    HW217454   6.362   5.061   5.152
 5519SOL     OW17455   5.293   4.092   3.740
 5519SOL    HW117456   5.226   4.066   3.811
 5519SOL    HW217457   5.380   4.048   3.760
 5520SOL     OW17458   1.295   4.047   1.871
 5520SOL    HW117459   1.283   4.146   1.857
 5520SOL    HW217460   1.384   4.019   1.837
 5521SOL     OW17461   5.955   5.348   1.771
 5521SOL    HW117462   5.904   5.427   1.736
 5521SOL    HW217463   6.038   5.335   1.716
 5522SOL     OW17464   2.508   3.480   1.699
 5522SOL    HW117465   2.568   3.400   1.703
 5522SOL    HW217466   2.421   3.459   1.743
 5523SOL     OW17467   3.344   0.583   2.383
 5523SOL    HW117468   3.305   0.508   2.436
 5523SOL    HW217469   3.399   0.546   2.308
 5524SOL     OW17470   0.066   4.714   5.926
 5524SOL    HW117471   0.025   4.768   5.852
 5524SOL    HW217472   0.104   4.776   5.995
 5525SOL     OW17473   6.603   5.683   5.659
 5525SOL    HW117474   6.529   5.722   5.713
 5525SOL    HW217475   6.653   5.756   5.613
 5526SOL     OW17476   6.547   3.113   4.101
 5526SOL    HW117477   6.466   3.169   4.083
 5526SOL    HW217478   6.622   3.172   4.132
 5527SOL     OW17479   1.527   3.251   1.418
 5527SOL    HW117480   1.549   3.162   1.378
 5527SOL    HW217481   1.428   3.260   1.425
 5528SOL     OW17482   0.585   3.763   4.504
 5528SOL    HW117483   0.560   3.666   4.495
 5528SOL    HW217484   0.634   3.793   4.422
 5529SOL     OW17485   2.876   1.625   4.738
 5529SOL    HW117486   2.974   1.638   4.723
 5529SOL    HW217487   2.853   1.528   4.727
 5530SOL     OW17488   1.070   2.454   0.348
 5530SOL    HW117489   1.160   2.410   0.342
 5530SOL    HW217490   1.052   2.505   0.263
 5531SOL     OW17491   3.521   2.840   5.599
 5531SOL    HW117492   3.570   2.763   5.639
 5531SOL    HW217493   3.584   2.915   5.581
 5532SOL     OW17494   2.557   1.498   1.103
 5532SOL    HW117495   2.535   1.444   1.021
 5532SOL    HW217496   2.488   1.569   1.115
 5533SOL     OW17497   3.590   1.197   1.769
 5533SOL    HW117498   3.570   1.100   1.758
 5533SOL    HW217499   3.684   1.208   1.801
 5534SOL     OW17500   0.293   3.898   6.471
 5534SOL    HW117501   0.199   3.901   6.504
 5534SOL    HW217502   0.347   3.837   6.529
 5535SOL     OW17503   6.672   3.170   2.163
 5535SOL    HW117504   6.671   3.084   2.112
 5535SOL    HW217505   6.579   3.191   2.193
 5536SOL     OW17506   2.615   1.137   3.997
 5536SOL    HW117507   2.582   1.230   4.014
 5536SOL    HW217508   2.586   1.076   4.071
 5537SOL     OW17509   4.394   0.065   5.003
 5537SOL    HW117510   4.396   0.095   5.098
 5537SOL    HW217511   4.301   0.070   4.968
 5538SOL     OW17512   4.278   1.476   6.947
 5538SOL    HW117513   4.199   1.421   6.923
 5538SOL    HW217514   4.323   1.509   6.864
 5539SOL     OW17515   2.483   6.886   1.877
 5539SOL    HW117516   2.420   6.818   1.840
 5539SOL    HW217517   2.478   6.970   1.822
 5540SOL     OW17518   5.033   1.994   0.005
 5540SOL    HW117519   4.965   1.945   6.976
 5540SOL    HW217520   5.032   1.962   0.099
 5541SOL     OW17521   4.610   3.727   6.659
 5541SOL    HW117522   4.517   3.715   6.692
 5541SOL    HW217523   4.624   3.821   6.629
 5542SOL     OW17524   5.546   4.243   6.472
 5542SOL    HW117525   5.536   4.341   6.491
 5542SOL    HW217526   5.495   4.191   6.540
 5543SOL     OW17527   1.718   0.253   0.995
 5543SOL    HW117528   1.629   0.243   0.951
 5543SOL    HW217529   1.790   0.223   0.933
 5544SOL     OW17530   4.427   5.148   6.125
 5544SOL    HW117531   4.401   5.086   6.051
 5544SOL    HW217532   4.399   5.241   6.102
 5545SOL     OW17533   4.549   0.843   3.073
 5545SOL    HW117534   4.584   0.879   3.160
 5545SOL    HW217535   4.458   0.881   3.056
 5546SOL     OW17536   6.953   6.115   5.636
 5546SOL    HW117537   7.013   6.177   5.586
 5546SOL    HW217538   6.900   6.060   5.571
 5547SOL     OW17539   5.337   1.478   5.499
 5547SOL    HW117540   5.240   1.499   5.513
 5547SOL    HW217541   5.345   1.405   5.431
 5548SOL     OW17542   6.987   3.878   5.018
 5548SOL    HW117543   7.013   3.819   5.094
 5548SOL    HW217544   0.037   3.882   4.952
 5549SOL     OW17545   3.952   3.633   1.959
 5549SOL    HW117546   3.995   3.621   1.870
 5549SOL    HW217547   3.998   3.575   2.027
 5550SOL     OW17548   1.713   4.493   3.227
 5550SOL    HW117549   1.628   4.453   3.192
 5550SOL    HW217550   1.693   4.575   3.281
 5551SOL     OW17551   2.250   5.472   3.632
 5551SOL    HW117552   2.206   5.415   3.701
 5551SOL    HW217553   2.214   5.565   3.636
 5552SOL     OW17554   6.892   6.903   6.278
 5552SOL    HW117555   6.810   6.942   6.237
 5552SOL    HW217556   6.907   6.811   6.242
 5553SOL     OW17557   4.821   0.350   6.747
 5553SOL    HW117558   4.881   0.382   6.820
 5553SOL    HW217559   4.866   0.362   6.659
 5554SOL     OW17560   6.058   3.045   0.920
 5554SOL    HW117561   6.131   2.979   0.903
 5554SOL    HW217562   6.002   3.055   0.838
 5555SOL     OW17563   1.238   4.082   2.597
 5555SOL    HW117564   1.307   4.116   2.532
 5555SOL    HW217565   1.151   4.129   2.581
 5556SOL     OW17566   6.834   1.228   4.087
 5556SOL    HW117567   6.844   1.245   3.989
 5556SOL    HW217568   6.767   1.293   4.125
 5557SOL     OW17569   3.126   5.490   2.075
 5557SOL    HW117570   3.129   5.550   1.995
 5557SOL    HW217571   3.204   5.510   2.135
 5558SOL     OW17572   3.395   4.446   0.851
 5558SOL    HW117573   3.450   4.527   0.827
 5558SOL    HW217574   3.405   4.427   0.948
 5559SOL     OW17575   1.474   0.116   2.909
 5559SOL    HW117576   1.534   0.173   2.853
 5559SOL    HW217577   1.421   0.174   2.971
 5560SOL     OW17578   0.123   5.494   3.019
 5560SOL    HW117579   0.083   5.514   2.930
 5560SOL    HW217580   0.163   5.402   3.019
 5561SOL     OW17581   2.869   1.192   3.927
 5561SOL    HW117582   2.773   1.183   3.952
 5561SOL    HW217583   2.904   1.103   3.898
 5562SOL     OW17584   4.174   4.088   0.274
 5562SOL    HW117585   4.204   4.031   0.352
 5562SOL    HW217586   4.189   4.184   0.295
 5563SOL     OW17587   3.181   4.896   3.057
 5563SOL    HW117588   3.260   4.956   3.063
 5563SOL    HW217589   3.197   4.814   3.113
 5564SOL     OW17590   5.487   0.387   5.746
 5564SOL    HW117591   5.390   0.365   5.755
 5564SOL    HW217592   5.530   0.384   5.836
 5565SOL     OW17593   3.799   3.296   0.591
 5565SOL    HW117594   3.832   3.333   0.504
 5565SOL    HW217595   3.700   3.306   0.596
 5566SOL     OW17596   0.662   4.029   0.499
 5566SOL    HW117597   0.679   3.971   0.419
 5566SOL    HW217598   0.630   3.973   0.575
 5567SOL     OW17599   6.829   3.584   1.703
 5567SOL    HW117600   6.924   3.553   1.709
 5567SOL    HW217601   6.781   3.559   1.787
 5568SOL     OW17602   4.300   6.384   2.712
 5568SOL    HW117603   4.385   6.345   2.678
 5568SOL    HW217604   4.253   6.316   2.769
 5569SOL     OW17605   2.730   2.104   3.495
 5569SOL    HW117606   2.789   2.161   3.553
 5569SOL    HW217607   2.658   2.063   3.550
 5570SOL     OW17608   6.371   3.533   3.440
 5570SOL    HW117609   6.459   3.495   3.411
 5570SOL    HW217610   6.385   3.600   3.512
 5571SOL     OW17611   6.786   5.373   2.069
 5571SOL    HW117612   6.705   5.421   2.035
 5571SOL    HW217613   6.797   5.390   2.167
 5572SOL     OW17614   1.336   3.652   5.174
 5572SOL    HW117615   1.332   3.659   5.075
 5572SOL    HW217616   1.259   3.701   5.215
 5573SOL     OW17617   1.346   5.259   5.557
 5573SOL    HW117618   1.421   5.254   5.622
 5573SOL    HW217619   1.259   5.269   5.606
 5574SOL     OW17620   0.572   2.450   6.314
 5574SOL    HW117621   0.541   2.525   6.373
 5574SOL    HW217622   0.566   2.479   6.218
 5575SOL     OW17623   0.799   0.383   1.738
 5575SOL    HW117624   0.843   0.470   1.760
 5575SOL    HW217625   0.768   0.339   1.822
 5576SOL     OW17626   2.123   4.476   3.372
 5576SOL    HW117627   2.156   4.496   3.279
 5576SOL    HW217628   2.174   4.532   3.438
 5577SOL     OW17629   1.499   3.331   6.787
 5577SOL    HW117630   1.453   3.251   6.824
 5577SOL    HW217631   1.527   3.391   6.862
 5578SOL     OW17632   3.762   3.217   3.340
 5578SOL    HW117633   3.799   3.286   3.278
 5578SOL    HW217634   3.675   3.248   3.378
 5579SOL     OW17635   0.145   3.172   1.132
 5579SOL    HW117636   0.229   3.215   1.100
 5579SOL    HW217637   0.138   3.079   1.096
 5580SOL     OW17638   4.872   1.908   5.955
 5580SOL    HW117639   4.912   1.901   6.047
 5580SOL    HW217640   4.909   1.988   5.908
 5581SOL     OW17641   0.842   1.893   1.169
 5581SOL    HW117642   0.897   1.822   1.126
 5581SOL    HW217643   0.747   1.863   1.174
 5582SOL     OW17644   2.471   3.832   6.519
 5582SOL    HW117645   2.392   3.890   6.538
 5582SOL    HW217646   2.554   3.879   6.551
 5583SOL     OW17647   4.860   0.720   2.499
 5583SOL    HW117648   4.886   0.652   2.430
 5583SOL    HW217649   4.764   0.708   2.522
 5584SOL     OW17650   6.755   3.992   4.567
 5584SOL    HW117651   6.663   3.972   4.600
 5584SOL    HW217652   6.750   4.037   4.478
 5585SOL     OW17653   4.870   4.538   2.677
 5585SOL    HW117654   4.794   4.491   2.721
 5585SOL    HW217655   4.920   4.473   2.619
 5586SOL     OW17656   6.769   3.615   5.947
 5586SOL    HW117657   6.821   3.558   5.883
 5586SOL    HW217658   6.733   3.558   6.021
 5587SOL     OW17659   4.291   1.097   6.444
 5587SOL    HW117660   4.217   1.038   6.476
 5587SOL    HW217661   4.371   1.042   6.421
 5588SOL     OW17662   2.577   6.752   2.881
 5588SOL    HW117663   2.553   6.659   2.852
 5588SOL    HW217664   2.584   6.756   2.981
 5589SOL     OW17665   5.824   4.566   6.232
 5589SOL    HW117666   5.810   4.663   6.249
 5589SOL    HW217667   5.822   4.516   6.319
 5590SOL     OW17668   5.095   5.778   3.768
 5590SOL    HW117669   5.080   5.848   3.838
 5590SOL    HW217670   5.042   5.697   3.791
 5591SOL     OW17671   0.148   1.667   1.888
 5591SOL    HW117672   0.063   1.618   1.868
 5591SOL    HW217673   0.132   1.765   1.881
 5592SOL     OW17674   1.690   5.120   3.241
 5592SOL    HW117675   1.741   5.056   3.183
 5592SOL    HW217676   1.608   5.151   3.194
 5593SOL     OW17677   0.144   2.920   6.676
 5593SOL    HW117678   0.203   2.990   6.634
 5593SOL    HW217679   0.049   2.943   6.658
 5594SOL     OW17680   4.969   1.188   4.640
 5594SOL    HW117681   4.954   1.144   4.729
 5594SOL    HW217682   4.882   1.222   4.606
 5595SOL     OW17683   1.317   2.308   5.008
 5595SOL    HW117684   1.361   2.338   4.924
 5595SOL    HW217685   1.378   2.326   5.086
 5596SOL     OW17686   3.969   6.908   2.920
 5596SOL    HW117687   3.872   6.923   2.941
 5596SOL    HW217688   4.021   6.898   3.005
 5597SOL     OW17689   5.176   2.674   4.169
 5597SOL    HW117690   5.181   2.574   4.170
 5597SOL    HW217691   5.108   2.703   4.101
 5598SOL     OW17692   4.686   2.708   3.525
 5598SOL    HW117693   4.767   2.672   3.571
 5598SOL    HW217694   4.667   2.800   3.560
 5599SOL     OW17695   1.383   0.542   4.773
 5599SOL    HW117696   1.368   0.641   4.775
 5599SOL    HW217697   1.380   0.510   4.678
 5600SOL     OW17698   0.923   2.185   2.786
 5600SOL    HW117699   0.959   2.144   2.870
 5600SOL    HW217700   0.942   2.283   2.785
 5601SOL     OW17701   2.567   0.831   5.776
 5601SOL    HW117702   2.643   0.875   5.824
 5601SOL    HW217703   2.482   0.880   5.796
 5602SOL     OW17704   0.575   1.546   0.706
 5602SOL    HW117705   0.666   1.518   0.676
 5602SOL    HW217706   0.529   1.595   0.632
 5603SOL     OW17707   5.296   1.889   6.998
 5603SOL    HW117708   5.317   1.929   0.063
 5603SOL    HW217709   5.206   1.921   6.968
 5604SOL     OW17710   6.721   2.001   5.703
 5604SOL    HW117711   6.664   1.944   5.644
 5604SOL    HW217712   6.688   2.096   5.699
 5605SOL     OW17713   0.523   1.199   4.813
 5605SOL    HW117714   0.530   1.299   4.803
 5605SOL    HW217715   0.614   1.160   4.818
 5606SOL     OW17716   5.616   6.432   1.366
 5606SOL    HW117717   5.698   6.377   1.348
 5606SOL    HW217718   5.541   6.371   1.392
 5607SOL     OW17719   5.376   1.189   2.091
 5607SOL    HW117720   5.318   1.167   2.169
 5607SOL    HW217721   5.472   1.196   2.121
 5608SOL     OW17722   4.448   0.443   4.405
 5608SOL    HW117723   4.488   0.532   4.381
 5608SOL    HW217724   4.505   0.400   4.476
 5609SOL     OW17725   2.186   5.683   0.629
 5609SOL    HW117726   2.270   5.655   0.583
 5609SOL    HW217727   2.115   5.614   0.613
 5610SOL     OW17728   5.019   0.307   0.227
 5610SOL    HW117729   4.964   0.226   0.247
 5610SOL    HW217730   4.983   0.351   0.144
 5611SOL     OW17731   1.979   4.714   2.615
 5611SOL    HW117732   1.949   4.735   2.522
 5611SOL    HW217733   1.913   4.751   2.681
 5612SOL     OW17734   3.902   2.138   6.384
 5612SOL    HW117735   3.859   2.134   6.294
 5612SOL    HW217736   3.999   2.113   6.376
 5613SOL     OW17737   4.844   3.963   2.739
 5613SOL    HW117738   4.816   3.934   2.648
 5613SOL    HW217739   4.857   4.062   2.740
 5614SOL     OW17740   4.412   2.366   3.274
 5614SOL    HW117741   4.457   2.277   3.273
 5614SOL    HW217742   4.423   2.411   3.186
 5615SOL     OW17743   0.544   0.438   6.449
 5615SOL    HW117744   0.591   0.352   6.470
 5615SOL    HW217745   0.567   0.506   6.518
 5616SOL     OW17746   2.342   0.640   5.319
 5616SOL    HW117747   2.313   0.549   5.349
 5616SOL    HW217748   2.379   0.691   5.397
 5617SOL     OW17749   2.425   0.005   6.110
 5617SOL    HW117750   2.347   0.047   6.156
 5617SOL    HW217751   2.507   0.016   6.166
 5618SOL     OW17752   6.960   3.785   4.595
 5618SOL    HW117753   6.891   3.856   4.580
 5618SOL    HW217754   7.017   3.810   4.673
 5619SOL     OW17755   2.814   3.901   6.404
 5619SOL    HW117756   2.772   3.821   6.363
 5619SOL    HW217757   2.782   3.911   6.499
 5620SOL     OW17758   3.853   3.312   0.280
 5620SOL    HW117759   3.851   3.223   0.235
 5620SOL    HW217760   3.943   3.354   0.266
 5621SOL     OW17761   1.395   1.461   5.876
 5621SOL    HW117762   1.333   1.493   5.947
 5621SOL    HW217763   1.484   1.506   5.886
 5622SOL     OW17764   4.893   0.071   5.784
 5622SOL    HW117765   4.809   0.054   5.835
 5622SOL    HW217766   4.931   0.160   5.809
 5623SOL     OW17767   1.753   6.433   6.264
 5623SOL    HW117768   1.783   6.346   6.224
 5623SOL    HW217769   1.658   6.451   6.238
 5624SOL     OW17770   1.386   4.790   3.361
 5624SOL    HW117771   1.443   4.713   3.390
 5624SOL    HW217772   1.386   4.794   3.261
 5625SOL     OW17773   6.191   2.321   4.237
 5625SOL    HW117774   6.096   2.351   4.230
 5625SOL    HW217775   6.232   2.319   4.145
 5626SOL     OW17776   2.875   6.406   4.927
 5626SOL    HW117777   2.897   6.310   4.940
 5626SOL    HW217778   2.789   6.428   4.974
 5627SOL     OW17779   1.430   5.817   1.160
 5627SOL    HW117780   1.471   5.822   1.069
 5627SOL    HW217781   1.501   5.797   1.228
 5628SOL     OW17782   1.481   2.248   6.031
 5628SOL    HW117783   1.458   2.345   6.026
 5628SOL    HW217784   1.405   2.198   6.073
 5629SOL     OW17785   3.060   3.580   1.607
 5629SOL    HW117786   3.005   3.616   1.682
 5629SOL    HW217787   3.045   3.481   1.599
 5630SOL     OW17788   1.671   5.143   0.751
 5630SOL    HW117789   1.690   5.111   0.658
 5630SOL    HW217790   1.622   5.230   0.747
 5631SOL     OW17791   4.167   1.809   0.309
 5631SOL    HW117792   4.074   1.830   0.280
 5631SOL    HW217793   4.199   1.726   0.262
 5632SOL     OW17794   4.353   3.747   6.170
 5632SOL    HW117795   4.277   3.766   6.232
 5632SOL    HW217796   4.420   3.821   6.175
 5633SOL     OW17797   6.524   2.379   3.398
 5633SOL    HW117798   6.551   2.472   3.373
 5633SOL    HW217799   6.517   2.371   3.497
 5634SOL     OW17800   2.900   5.459   5.565
 5634SOL    HW117801   2.984   5.414   5.534
 5634SOL    HW217802   2.825   5.393   5.564
 5635SOL     OW17803   2.168   3.236   4.910
 5635SOL    HW117804   2.195   3.140   4.921
 5635SOL    HW217805   2.133   3.250   4.817
 5636SOL     OW17806   3.428   5.974   2.351
 5636SOL    HW117807   3.428   6.065   2.309
 5636SOL    HW217808   3.334   5.944   2.367
 5637SOL     OW17809   5.853   6.962   3.846
 5637SOL    HW117810   5.936   7.011   3.817
 5637SOL    HW217811   5.862   6.934   3.942
 5638SOL     OW17812   5.852   2.882   1.081
 5638SOL    HW117813   5.901   2.969   1.079
 5638SOL    HW217814   5.756   2.898   1.103
 5639SOL     OW17815   0.422   1.419   6.684
 5639SOL    HW117816   0.399   1.472   6.765
 5639SOL    HW217817   0.519   1.428   6.664
 5640SOL     OW17818   2.731   0.382   4.227
 5640SOL    HW117819   2.758   0.290   4.200
 5640SOL    HW217820   2.633   0.383   4.248
 5641SOL     OW17821   6.925   4.377   6.272
 5641SOL    HW117822   6.844   4.371   6.332
 5641SOL    HW217823   6.950   4.472   6.259
 5642SOL     OW17824   1.994   0.543   7.007
 5642SOL    HW117825   1.942   0.509   0.060
 5642SOL    HW217826   2.091   0.523   7.020
 5643SOL     OW17827   5.622   1.941   4.471
 5643SOL    HW117828   5.587   1.959   4.563
 5643SOL    HW217829   5.713   1.981   4.461
 5644SOL     OW17830   2.874   6.953   5.218
 5644SOL    HW117831   2.962   7.001   5.220
 5644SOL    HW217832   2.885   6.862   5.259
 5645SOL     OW17833   6.478   3.927   3.393
 5645SOL    HW117834   6.439   3.886   3.475
 5645SOL    HW217835   6.456   3.871   3.314
 5646SOL     OW17836   2.228   4.562   3.105
 5646SOL    HW117837   2.308   4.556   3.046
 5646SOL    HW217838   2.151   4.512   3.064
 5647SOL     OW17839   5.337   6.282   1.895
 5647SOL    HW117840   5.386   6.201   1.929
 5647SOL    HW217841   5.402   6.347   1.857
 5648SOL     OW17842   2.875   6.067   3.181
 5648SOL    HW117843   2.859   5.989   3.120
 5648SOL    HW217844   2.791   6.121   3.187
 5649SOL     OW17845   0.907   5.673   4.186
 5649SOL    HW117846   0.884   5.729   4.265
 5649SOL    HW217847   0.899   5.576   4.210
 5650SOL     OW17848   0.563   4.900   0.489
 5650SOL    HW117849   0.616   4.848   0.556
 5650SOL    HW217850   0.539   4.989   0.527
 5651SOL     OW17851   1.390   0.381   0.380
 5651SOL    HW117852   1.451   0.399   0.457
 5651SOL    HW217853   1.371   0.468   0.333
 5652SOL     OW17854   7.010   5.195   2.095
 5652SOL    HW117855   6.923   5.245   2.093
 5652SOL    HW217856   0.058   5.257   2.120
 5653SOL     OW17857   0.038   6.429   1.083
 5653SOL    HW117858   6.969   6.399   1.101
 5653SOL    HW217859   0.060   6.507   1.141
 5654SOL     OW17860   1.471   6.307   4.970
 5654SOL    HW117861   1.523   6.392   4.982
 5654SOL    HW217862   1.374   6.329   4.958
 5655SOL     OW17863   6.106   3.024   3.888
 5655SOL    HW117864   6.170   2.967   3.940
 5655SOL    HW217865   6.128   3.020   3.791
 5656SOL     OW17866   0.260   3.210   6.498
 5656SOL    HW117867   0.315   3.246   6.423
 5656SOL    HW217868   0.315   3.150   6.555
 5657SOL     OW17869   4.413   4.633   4.240
 5657SOL    HW117870   4.443   4.604   4.331
 5657SOL    HW217871   4.321   4.670   4.245
 5658SOL     OW17872   1.658   2.697   5.984
 5658SOL    HW117873   1.645   2.762   5.909
 5658SOL    HW217874   1.576   2.695   6.042
 5659SOL     OW17875   3.220   4.139   6.579
 5659SOL    HW117876   3.130   4.137   6.623
 5659SOL    HW217877   3.283   4.082   6.630
 5660SOL     OW17878   4.764   6.909   6.352
 5660SOL    HW117879   4.745   6.864   6.265
 5660SOL    HW217880   4.781   6.839   6.422
 5661SOL     OW17881   0.654   5.611   5.951
 5661SOL    HW117882   0.620   5.523   5.986
 5661SOL    HW217883   0.658   5.608   5.851
 5662SOL     OW17884   2.498   6.326   3.279
 5662SOL    HW117885   2.408   6.298   3.245
 5662SOL    HW217886   2.522   6.269   3.358
 5663SOL     OW17887   1.265   2.692   1.039
 5663SOL    HW117888   1.188   2.700   1.103
 5663SOL    HW217889   1.349   2.677   1.091
 5664SOL     OW17890   5.363   4.291   4.485
 5664SOL    HW117891   5.326   4.383   4.476
 5664SOL    HW217892   5.291   4.224   4.468
 5665SOL     OW17893   1.634   0.106   0.404
 5665SOL    HW117894   1.666   0.187   0.453
 5665SOL    HW217895   1.689   0.093   0.321
 5666SOL     OW17896   6.258   1.416   4.018
 5666SOL    HW117897   6.340   1.371   4.054
 5666SOL    HW217898   6.177   1.365   4.045
 5667SOL     OW17899   1.530   4.840   4.848
 5667SOL    HW117900   1.551   4.823   4.752
 5667SOL    HW217901   1.481   4.927   4.856
 5668SOL     OW17902   6.221   2.758   2.880
 5668SOL    HW117903   6.294   2.723   2.938
 5668SOL    HW217904   6.142   2.696   2.884
 5669SOL     OW17905   6.099   3.834   6.671
 5669SOL    HW117906   6.043   3.789   6.601
 5669SOL    HW217907   6.040   3.859   6.749
 5670SOL     OW17908   1.220   2.912   2.546
 5670SOL    HW117909   1.130   2.871   2.540
 5670SOL    HW217910   1.244   2.955   2.459
 5671SOL     OW17911   6.758   6.312   3.635
 5671SOL    HW117912   6.793   6.250   3.565
 5671SOL    HW217913   6.675   6.357   3.602
 5672SOL     OW17914   5.126   3.965   4.993
 5672SOL    HW117915   5.028   3.956   5.013
 5672SOL    HW217916   5.141   3.958   4.895
 5673SOL     OW17917   0.689   7.022   1.841
 5673SOL    HW117918   0.753   6.952   1.871
 5673SOL    HW217919   0.681   0.068   1.912
 5674SOL     OW17920   1.433   5.096   4.949
 5674SOL    HW117921   1.479   5.109   5.036
 5674SOL    HW217922   1.334   5.098   4.962
 5675SOL     OW17923   2.963   1.117   0.168
 5675SOL    HW117924   3.052   1.153   0.197
 5675SOL    HW217925   2.969   1.081   0.076
 5676SOL     OW17926   2.675   2.432   1.751
 5676SOL    HW117927   2.582   2.429   1.786
 5676SOL    HW217928   2.737   2.387   1.816
 5677SOL     OW17929   6.796   0.830   0.888
 5677SOL    HW117930   6.754   0.918   0.865
 5677SOL    HW217931   6.797   0.771   0.807
 5678SOL     OW17932   3.506   1.669   1.890
 5678SOL    HW117933   3.496   1.570   1.891
 5678SOL    HW217934   3.523   1.702   1.983
 5679SOL     OW17935   6.275   2.777   4.774
 5679SOL    HW117936   6.245   2.770   4.869
 5679SOL    HW217937   6.228   2.854   4.730
 5680SOL     OW17938   1.105   5.270   6.019
 5680SOL    HW117939   1.193   5.294   6.061
 5680SOL    HW217940   1.105   5.299   5.924
 5681SOL     OW17941   0.634   4.053   3.224
 5681SOL    HW117942   0.688   3.973   3.197
 5681SOL    HW217943   0.678   4.135   3.188
 5682SOL     OW17944   2.174   4.546   2.347
 5682SOL    HW117945   2.260   4.553   2.397
 5682SOL    HW217946   2.170   4.458   2.300
 5683SOL     OW17947   4.250   2.507   0.137
 5683SOL    HW117948   4.287   2.414   0.128
 5683SOL    HW217949   4.196   2.529   0.056
 5684SOL     OW17950   2.213   2.995   5.912
 5684SOL    HW117951   2.245   2.920   5.970
 5684SOL    HW217952   2.207   2.964   5.818
 5685SOL     OW17953   2.325   2.348   3.954
 5685SOL    HW117954   2.417   2.368   3.988
 5685SOL    HW217955   2.264   2.330   4.032
 5686SOL     OW17956   3.613   0.669   5.939
 5686SOL    HW117957   3.574   0.687   5.849
 5686SOL    HW217958   3.602   0.573   5.961
 5687SOL     OW17959   1.138   6.050   5.511
 5687SOL    HW117960   1.238   6.055   5.515
 5687SOL    HW217961   1.103   6.131   5.463
 5688SOL     OW17962   2.070   3.832   3.202
 5688SOL    HW117963   2.090   3.761   3.270
 5688SOL    HW217964   2.044   3.789   3.116
 5689SOL     OW17965   1.413   0.778   0.954
 5689SOL    HW117966   1.361   0.846   1.006
 5689SOL    HW217967   1.355   0.699   0.937
 5690SOL     OW17968   0.694   5.593   0.203
 5690SOL    HW117969   0.744   5.551   0.128
 5690SOL    HW217970   0.698   5.693   0.194
 5691SOL     OW17971   3.574   1.203   2.399
 5691SOL    HW117972   3.545   1.220   2.305
 5691SOL    HW217973   3.572   1.104   2.417
 5692SOL     OW17974   4.924   5.450   1.061
 5692SOL    HW117975   4.859   5.424   0.990
 5692SOL    HW217976   4.917   5.548   1.078
 5693SOL     OW17977   3.865   0.653   0.386
 5693SOL    HW117978   3.786   0.602   0.350
 5693SOL    HW217979   3.866   0.647   0.486
 5694SOL     OW17980   0.579   0.514   2.708
 5694SOL    HW117981   0.490   0.550   2.680
 5694SOL    HW217982   0.598   0.542   2.802
 5695SOL     OW17983   1.188   0.649   1.682
 5695SOL    HW117984   1.190   0.714   1.757
 5695SOL    HW217985   1.217   0.559   1.715
 5696SOL     OW17986   1.305   0.254   4.353
 5696SOL    HW117987   1.238   0.281   4.284
 5696SOL    HW217988   1.278   0.167   4.394
 5697SOL     OW17989   6.435   2.825   1.506
 5697SOL    HW117990   6.482   2.737   1.494
 5697SOL    HW217991   6.337   2.809   1.518
 5698SOL     OW17992   1.514   3.359   3.308
 5698SOL    HW117993   1.420   3.386   3.327
 5698SOL    HW217994   1.572   3.389   3.384
 5699SOL     OW17995   2.139   2.693   3.444
 5699SOL    HW117996   2.224   2.735   3.477
 5699SOL    HW217997   2.074   2.684   3.520
 5700SOL     OW17998   6.541   0.417   1.741
 5700SOL    HW117999   6.602   0.496   1.729
 5700SOL    HW218000   6.592   0.333   1.726
 5701SOL     OW18001   6.202   1.469   1.193
 5701SOL    HW118002   6.250   1.477   1.280
 5701SOL    HW218003   6.158   1.557   1.171
 5702SOL     OW18004   2.224   6.972   4.722
 5702SOL    HW118005   2.190   6.886   4.683
 5702SOL    HW218006   2.323   6.977   4.708
 5703SOL     OW18007   6.918   3.673   6.174
 5703SOL    HW118008   6.868   3.669   6.088
 5703SOL    HW218009   6.921   3.767   6.207
 5704SOL     OW18010   5.122   3.931   3.466
 5704SOL    HW118011   5.039   3.880   3.443
 5704SOL    HW218012   5.201   3.888   3.424
 5705SOL     OW18013   5.963   6.498   6.101
 5705SOL    HW118014   5.880   6.512   6.156
 5705SOL    HW218015   6.034   6.458   6.158
 5706SOL     OW18016   5.787   2.132   0.369
 5706SOL    HW118017   5.706   2.102   0.318
 5706SOL    HW218018   5.863   2.145   0.306
 5707SOL     OW18019   5.044   6.486   1.640
 5707SOL    HW118020   4.997   6.423   1.701
 5707SOL    HW218021   4.977   6.543   1.592
 5708SOL     OW18022   4.502   5.547   3.486
 5708SOL    HW118023   4.434   5.620   3.493
 5708SOL    HW218024   4.587   5.576   3.530
 5709SOL     OW18025   1.138   1.000   1.790
 5709SOL    HW118026   1.182   0.927   1.844
 5709SOL    HW218027   1.065   0.960   1.734
 5710SOL     OW18028   2.584   2.686   1.145
 5710SOL    HW118029   2.563   2.604   1.199
 5710SOL    HW218030   2.676   2.718   1.168
 5711SOL     OW18031   5.217   0.597   1.518
 5711SOL    HW118032   5.249   0.624   1.609
 5711SOL    HW218033   5.145   0.528   1.526
 5712SOL     OW18034   6.814   6.247   1.096
 5712SOL    HW118035   6.825   6.212   1.003
 5712SOL    HW218036   6.839   6.176   1.161
 5713SOL     OW18037   2.670   5.865   0.712
 5713SOL    HW118038   2.693   5.947   0.660
 5713SOL    HW218039   2.570   5.859   0.722
 5714SOL     OW18040   5.961   5.748   1.391
 5714SOL    HW118041   6.016   5.790   1.319
 5714SOL    HW218042   5.969   5.801   1.475
 5715SOL     OW18043   1.235   0.159   0.386
 5715SOL    HW118044   1.240   0.115   0.475
 5715SOL    HW218045   1.305   0.230   0.379
 5716SOL     OW18046   0.847   4.628   6.117
 5716SOL    HW118047   0.911   4.606   6.191
 5716SOL    HW218048   0.880   4.590   6.031
 5717SOL     OW18049   2.055   4.835   2.991
 5717SOL    HW118050   2.117   4.777   2.938
 5717SOL    HW218051   1.987   4.777   3.037
 5718SOL     OW18052   0.925   3.145   0.427
 5718SOL    HW118053   0.887   3.065   0.474
 5718SOL    HW218054   1.012   3.171   0.471
 5719SOL     OW18055   2.918   3.693   1.365
 5719SOL    HW118056   2.841   3.748   1.398
 5719SOL    HW218057   2.978   3.670   1.441
 5720SOL     OW18058   2.391   5.432   6.145
 5720SOL    HW118059   2.321   5.382   6.093
 5720SOL    HW218060   2.371   5.530   6.142
 5721SOL     OW18061   5.067   3.925   6.696
 5721SOL    HW118062   5.112   3.848   6.649
 5721SOL    HW218063   5.066   4.005   6.636
 5722SOL     OW18064   0.882   0.802   5.231
 5722SOL    HW118065   0.914   0.742   5.304
 5722SOL    HW218066   0.785   0.786   5.215
 5723SOL     OW18067   4.340   3.412   0.231
 5723SOL    HW118068   4.331   3.453   0.322
 5723SOL    HW218069   4.269   3.342   0.218
 5724SOL     OW18070   5.588   2.327   3.308
 5724SOL    HW118071   5.591   2.427   3.311
 5724SOL    HW218072   5.515   2.298   3.247
 5725SOL     OW18073   5.842   4.820   3.508
 5725SOL    HW118074   5.747   4.799   3.485
 5725SOL    HW218075   5.895   4.832   3.423
 5726SOL     OW18076   4.742   4.102   3.292
 5726SOL    HW118077   4.803   4.113   3.213
 5726SOL    HW218078   4.658   4.057   3.263
 5727SOL     OW18079   1.302   2.348   4.600
 5727SOL    HW118080   1.369   2.416   4.571
 5727SOL    HW218081   1.210   2.382   4.582
 5728SOL     OW18082   5.007   5.797   5.352
 5728SOL    HW118083   4.907   5.793   5.358
 5728SOL    HW218084   5.035   5.877   5.299
 5729SOL     OW18085   2.341   1.683   5.862
 5729SOL    HW118086   2.397   1.602   5.877
 5729SOL    HW218087   2.378   1.760   5.914
 5730SOL     OW18088   6.741   4.549   6.034
 5730SOL    HW118089   6.668   4.505   5.980
 5730SOL    HW218090   6.827   4.502   6.018
 5731SOL     OW18091   6.992   6.483   1.407
 5731SOL    HW118092   7.023   6.574   1.379
 5731SOL    HW218093   7.010   6.471   1.505
 5732SOL     OW18094   0.908   6.524   4.381
 5732SOL    HW118095   0.910   6.572   4.293
 5732SOL    HW218096   0.925   6.427   4.367
 5733SOL     OW18097   3.707   6.959   5.152
 5733SOL    HW118098   3.799   6.954   5.115
 5733SOL    HW218099   3.645   6.904   5.095
 5734SOL     OW18100   1.595   6.151   3.659
 5734SOL    HW118101   1.644   6.066   3.679
 5734SOL    HW218102   1.538   6.138   3.578
 5735SOL     OW18103   3.037   1.176   1.712
 5735SOL    HW118104   3.038   1.185   1.812
 5735SOL    HW218105   3.040   1.267   1.670
 5736SOL     OW18106   1.009   5.654   6.757
 5736SOL    HW118107   0.998   5.629   6.661
 5736SOL    HW218108   0.926   5.700   6.789
 5737SOL     OW18109   4.985   4.809   6.725
 5737SOL    HW118110   4.910   4.781   6.666
 5737SOL    HW218111   5.064   4.749   6.710
 5738SOL     OW18112   1.324   3.389   6.597
 5738SOL    HW118113   1.294   3.484   6.600
 5738SOL    HW218114   1.374   3.367   6.681
 5739SOL     OW18115   1.101   1.104   0.724
 5739SOL    HW118116   1.167   1.151   0.784
 5739SOL    HW218117   1.029   1.063   0.780
 5740SOL     OW18118   3.798   5.843   6.424
 5740SOL    HW118119   3.739   5.764   6.440
 5740SOL    HW218120   3.774   5.885   6.336
 5741SOL     OW18121   6.973   5.623   4.956
 5741SOL    HW118122   6.889   5.676   4.945
 5741SOL    HW218123   7.015   5.609   4.867
 5742SOL     OW18124   6.473   6.470   2.865
 5742SOL    HW118125   6.454   6.525   2.946
 5742SOL    HW218126   6.435   6.514   2.784
 5743SOL     OW18127   1.870   6.326   5.238
 5743SOL    HW118128   1.957   6.302   5.282
 5743SOL    HW218129   1.830   6.405   5.285
 5744SOL     OW18130   5.771   0.741   0.503
 5744SOL    HW118131   5.852   0.702   0.460
 5744SOL    HW218132   5.761   0.704   0.595
 5745SOL     OW18133   2.061   1.929   4.505
 5745SOL    HW118134   2.004   1.952   4.584
 5745SOL    HW218135   2.013   1.862   4.448
 5746SOL     OW18136   4.475   2.427   6.818
 5746SOL    HW118137   4.475   2.359   6.891
 5746SOL    HW218138   4.560   2.420   6.765
 5747SOL     OW18139   0.729   5.717   3.158
 5747SOL    HW118140   0.644   5.683   3.117
 5747SOL    HW218141   0.739   5.815   3.138
 5748SOL     OW18142   2.731   6.136   2.911
 5748SOL    HW118143   2.815   6.168   2.954
 5748SOL    HW218144   2.746   6.124   2.813
 5749SOL     OW18145   2.184   2.416   3.335
 5749SOL    HW118146   2.150   2.492   3.391
 5749SOL    HW218147   2.164   2.435   3.239
 5750SOL     OW18148   6.273   5.718   3.287
 5750SOL    HW118149   6.290   5.620   3.289
 5750SOL    HW218150   6.291   5.757   3.377
 5751SOL     OW18151   2.395   3.585   5.418
 5751SOL    HW118152   2.355   3.572   5.508
 5751SOL    HW218153   2.418   3.495   5.379
 5752SOL     OW18154   6.805   6.806   6.552
 5752SOL    HW118155   6.758   6.801   6.464
 5752SOL    HW218156   6.882   6.869   6.545
 5753SOL     OW18157   3.751   2.554   0.321
 5753SOL    HW118158   3.839   2.600   0.332
 5753SOL    HW218159   3.759   2.460   0.356
 5754SOL     OW18160   6.487   4.757   1.532
 5754SOL    HW118161   6.515   4.852   1.545
 5754SOL    HW218162   6.471   4.714   1.622
 5755SOL     OW18163   2.983   4.302   0.355
 5755SOL    HW118164   3.029   4.384   0.389
 5755SOL    HW218165   2.982   4.304   0.255
 5756SOL     OW18166   6.754   5.360   4.011
 5756SOL    HW118167   6.792   5.367   3.919
 5756SOL    HW218168   6.737   5.264   4.032
 5757SOL     OW18169   7.025   5.248   0.637
 5757SOL    HW118170   6.970   5.225   0.556
 5757SOL    HW218171   7.014   5.345   0.657
 5758SOL     OW18172   1.529   2.616   5.648
 5758SOL    HW118173   1.610   2.665   5.678
 5758SOL    HW218174   1.552   2.558   5.570
 5759SOL     OW18175   5.378   1.685   6.118
 5759SOL    HW118176   5.420   1.736   6.193
 5759SOL    HW218177   5.449   1.646   6.059
 5760SOL     OW18178   1.619   5.598   2.488
 5760SOL    HW118179   1.664   5.596   2.577
 5760SOL    HW218180   1.664   5.534   2.426
 5761SOL     OW18181   4.768   0.011   4.449
 5761SOL    HW118182   4.734   0.104   4.433
 5761SOL    HW218183   4.856   7.025   4.403
 5762SOL     OW18184   5.688   6.028   1.438
 5762SOL    HW118185   5.634   6.099   1.483
 5762SOL    HW218186   5.660   6.021   1.342
 5763SOL     OW18187   1.362   0.413   1.075
 5763SOL    HW118188   1.370   0.454   1.166
 5763SOL    HW218189   1.381   0.315   1.082
 5764SOL     OW18190   5.098   3.693   5.519
 5764SOL    HW118191   5.166   3.729   5.582
 5764SOL    HW218192   5.073   3.600   5.546
 5765SOL     OW18193   5.873   4.464   6.984
 5765SOL    HW118194   5.815   4.536   6.945
 5765SOL    HW218195   5.827   4.421   0.037
 5766SOL     OW18196   3.004   2.180   2.633
 5766SOL    HW118197   2.923   2.133   2.601
 5766SOL    HW218198   3.070   2.189   2.559
 5767SOL     OW18199   0.041   6.783   1.445
 5767SOL    HW118200   0.093   6.757   1.363
 5767SOL    HW218201   0.098   6.768   1.526
 5768SOL     OW18202   6.622   1.862   2.475
 5768SOL    HW118203   6.676   1.940   2.507
 5768SOL    HW218204   6.682   1.798   2.426
 5769SOL     OW18205   2.186   5.675   4.474
 5769SOL    HW118206   2.163   5.602   4.409
 5769SOL    HW218207   2.118   5.676   4.548
 5770SOL     OW18208   6.306   0.528   1.215
 5770SOL    HW118209   6.232   0.471   1.249
 5770SOL    HW218210   6.269   0.610   1.173
 5771SOL     OW18211   1.591   1.578   1.103
 5771SOL    HW118212   1.598   1.630   1.018
 5771SOL    HW218213   1.632   1.488   1.091
 5772SOL     OW18214   5.355   3.886   0.424
 5772SOL    HW118215   5.325   3.798   0.387
 5772SOL    HW218216   5.444   3.875   0.469
 5773SOL     OW18217   5.392   5.690   4.661
 5773SOL    HW118218   5.311   5.700   4.718
 5773SOL    HW218219   5.416   5.779   4.622
 5774SOL     OW18220   1.809   5.427   4.259
 5774SOL    HW118221   1.748   5.457   4.186
 5774SOL    HW218222   1.756   5.409   4.342
 5775SOL     OW18223   0.372   6.486   6.147
 5775SOL    HW118224   0.435   6.486   6.069
 5775SOL    HW218225   0.321   6.572   6.149
 5776SOL     OW18226   5.018   0.410   5.568
 5776SOL    HW118227   4.928   0.445   5.594
 5776SOL    HW218228   5.070   0.387   5.650
 5777SOL     OW18229   0.271   1.239   4.287
 5777SOL    HW118230   0.315   1.327   4.301
 5777SOL    HW218231   0.328   1.181   4.228
 5778SOL     OW18232   1.342   6.940   3.883
 5778SOL    HW118233   1.381   6.855   3.919
 5778SOL    HW218234   1.291   6.919   3.799
 5779SOL     OW18235   4.199   0.885   2.131
 5779SOL    HW118236   4.241   0.972   2.158
 5779SOL    HW218237   4.122   0.865   2.191
 5780SOL     OW18238   5.865   4.021   1.769
 5780SOL    HW118239   5.913   4.104   1.738
 5780SOL    HW218240   5.777   4.047   1.808
 5781SOL     OW18241   1.588   5.321   4.873
 5781SOL    HW118242   1.540   5.234   4.883
 5781SOL    HW218243   1.624   5.350   4.961
 5782SOL     OW18244   2.796   1.820   2.418
 5782SOL    HW118245   2.769   1.910   2.453
 5782SOL    HW218246   2.714   1.763   2.408
 5783SOL     OW18247   1.476   0.097   0.979
 5783SOL    HW118248   1.413   0.110   0.902
 5783SOL    HW218249   1.471   0.002   1.011
 5784SOL     OW18250   1.677   5.907   0.339
 5784SOL    HW118251   1.739   5.901   0.417
 5784SOL    HW218252   1.651   6.002   0.323
 5785SOL     OW18253   1.810   1.832   0.445
 5785SOL    HW118254   1.864   1.834   0.360
 5785SOL    HW218255   1.724   1.881   0.431
 5786SOL     OW18256   1.342   3.475   1.817
 5786SOL    HW118257   1.266   3.411   1.824
 5786SOL    HW218258   1.326   3.537   1.739
 5787SOL     OW18259   6.609   3.152   4.917
 5787SOL    HW118260   6.683   3.088   4.896
 5787SOL    HW218261   6.619   3.235   4.863
 5788SOL     OW18262   2.494   1.454   2.277
 5788SOL    HW118263   2.533   1.409   2.357
 5788SOL    HW218264   2.549   1.431   2.196
 5789SOL     OW18265   3.585   4.181   6.470
 5789SOL    HW118266   3.653   4.110   6.454
 5789SOL    HW218267   3.541   4.206   6.384
 5790SOL     OW18268   5.249   5.714   4.189
 5790SOL    HW118269   5.153   5.718   4.161
 5790SOL    HW218270   5.270   5.791   4.250
 5791SOL     OW18271   4.059   1.512   2.558
 5791SOL    HW118272   4.046   1.417   2.527
 5791SOL    HW218273   4.137   1.515   2.620
 5792SOL     OW18274   4.883   3.039   2.832
 5792SOL    HW118275   4.877   3.074   2.738
 5792SOL    HW218276   4.934   3.104   2.889
 5793SOL     OW18277   4.608   2.269   5.724
 5793SOL    HW118278   4.520   2.288   5.679
 5793SOL    HW218279   4.656   2.355   5.738
 5794SOL     OW18280   4.209   0.435   0.213
 5794SOL    HW118281   4.296   0.404   0.251
 5794SOL    HW218282   4.218   0.445   0.114
 5795SOL     OW18283   2.044   6.103   1.700
 5795SOL    HW118284   1.963   6.143   1.742
 5795SOL    HW218285   2.017   6.034   1.633
 5796SOL     OW18286   4.711   2.399   6.691
 5796SOL    HW118287   4.789   2.458   6.710
 5796SOL    HW218288   4.730   2.344   6.610
 5797SOL     OW18289   5.314   2.602   0.974
 5797SOL    HW118290   5.340   2.631   1.066
 5797SOL    HW218291   5.217   2.619   0.959
 5798SOL     OW18292   1.745   4.308   5.769
 5798SOL    HW118293   1.783   4.218   5.789
 5798SOL    HW218294   1.697   4.343   5.850
 5799SOL     OW18295   2.343   6.670   3.525
 5799SOL    HW118296   2.258   6.621   3.545
 5799SOL    HW218297   2.379   6.639   3.437
 5800SOL     OW18298   0.964   0.204   1.381
 5800SOL    HW118299   0.998   0.276   1.441
 5800SOL    HW218300   0.885   0.238   1.330
 5801SOL     OW18301   2.234   1.904   2.869
 5801SOL    HW118302   2.308   1.879   2.930
 5801SOL    HW218303   2.198   1.994   2.895
 5802SOL     OW18304   0.405   1.314   1.508
 5802SOL    HW118305   0.396   1.227   1.557
 5802SOL    HW218306   0.340   1.379   1.547
 5803SOL     OW18307   0.480   4.933   3.855
 5803SOL    HW118308   0.393   4.913   3.900
 5803SOL    HW218309   0.474   4.906   3.759
 5804SOL     OW18310   5.814   1.693   3.677
 5804SOL    HW118311   5.887   1.669   3.613
 5804SOL    HW218312   5.796   1.615   3.737
 5805SOL     OW18313   1.940   2.670   1.646
 5805SOL    HW118314   1.993   2.616   1.580
 5805SOL    HW218315   1.956   2.767   1.631
 5806SOL     OW18316   0.214   4.144   2.072
 5806SOL    HW118317   0.228   4.123   2.169
 5806SOL    HW218318   0.269   4.224   2.048
 5807SOL     OW18319   1.081   0.103   1.139
 5807SOL    HW118320   1.060   0.159   1.220
 5807SOL    HW218321   1.001   0.049   1.114
 5808SOL     OW18322   6.836   6.931   5.768
 5808SOL    HW118323   6.934   6.937   5.786
 5808SOL    HW218324   6.819   6.937   5.670
 5809SOL     OW18325   0.754   2.205   5.673
 5809SOL    HW118326   0.835   2.150   5.693
 5809SOL    HW218327   0.729   2.194   5.577
 5810SOL     OW18328   3.701   6.883   5.518
 5810SOL    HW118329   3.678   6.961   5.460
 5810SOL    HW218330   3.776   6.909   5.579
 5811SOL     OW18331   3.081   3.719   6.148
 5811SOL    HW118332   2.992   3.705   6.105
 5811SOL    HW218333   3.143   3.762   6.082
 5812SOL     OW18334   5.477   2.376   0.165
 5812SOL    HW118335   5.391   2.327   0.147
 5812SOL    HW218336   5.495   2.377   0.263
 5813SOL     OW18337   4.872   6.406   0.400
 5813SOL    HW118338   4.840   6.493   0.438
 5813SOL    HW218339   4.872   6.336   0.471
 5814SOL     OW18340   5.026   1.601   1.180
 5814SOL    HW118341   5.017   1.565   1.087
 5814SOL    HW218342   5.106   1.660   1.185
 5815SOL     OW18343   6.259   1.661   4.125
 5815SOL    HW118344   6.262   1.648   4.224
 5815SOL    HW218345   6.262   1.572   4.080
 5816SOL     OW18346   0.614   3.450   2.318
 5816SOL    HW118347   0.580   3.407   2.402
 5816SOL    HW218348   0.671   3.385   2.268
 5817SOL     OW18349   6.428   3.734   3.175
 5817SOL    HW118350   6.367   3.656   3.187
 5817SOL    HW218351   6.498   3.712   3.108
 5818SOL     OW18352   2.081   0.066   5.606
 5818SOL    HW118353   2.040   0.077   5.515
 5818SOL    HW218354   2.031   0.124   5.671
 5819SOL     OW18355   4.512   5.215   0.201
 5819SOL    HW118356   4.601   5.244   0.237
 5819SOL    HW218357   4.491   5.123   0.233
 5820SOL     OW18358   5.415   5.730   2.194
 5820SOL    HW118359   5.478   5.702   2.122
 5820SOL    HW218360   5.333   5.673   2.191
 5821SOL     OW18361   6.790   7.022   0.651
 5821SOL    HW118362   6.702   6.983   0.624
 5821SOL    HW218363   6.853   6.948   0.673
 5822SOL     OW18364   1.852   3.171   2.791
 5822SOL    HW118365   1.935   3.213   2.755
 5822SOL    HW218366   1.859   3.167   2.891
 5823SOL     OW18367   2.269   5.532   3.984
 5823SOL    HW118368   2.214   5.455   3.951
 5823SOL    HW218369   2.250   5.612   3.928
 5824SOL     OW18370   0.984   0.285   2.099
 5824SOL    HW118371   0.996   0.224   2.178
 5824SOL    HW218372   1.021   0.240   2.017
 5825SOL     OW18373   6.083   0.693   4.337
 5825SOL    HW118374   6.068   0.736   4.426
 5825SOL    HW218375   5.995   0.680   4.291
 5826SOL     OW18376   7.023   0.236   5.115
 5826SOL    HW118377   0.085   0.282   5.101
 5826SOL    HW218378   7.020   0.196   5.207
 5827SOL     OW18379   2.429   4.522   4.747
 5827SOL    HW118380   2.525   4.523   4.719
 5827SOL    HW218381   2.398   4.427   4.758
 5828SOL     OW18382   4.214   6.641   4.589
 5828SOL    HW118383   4.126   6.612   4.553
 5828SOL    HW218384   4.259   6.702   4.524
 5829SOL     OW18385   2.233   1.226   4.189
 5829SOL    HW118386   2.170   1.193   4.118
 5829SOL    HW218387   2.273   1.147   4.236
 5830SOL     OW18388   3.429   5.642   4.457
 5830SOL    HW118389   3.417   5.735   4.492
 5830SOL    HW218390   3.414   5.576   4.532
 5831SOL     OW18391   1.462   2.378   5.252
 5831SOL    HW118392   1.521   2.358   5.331
 5831SOL    HW218393   1.366   2.370   5.279
 5832SOL     OW18394   2.861   5.046   1.749
 5832SOL    HW118395   2.901   5.070   1.838
 5832SOL    HW218396   2.845   4.948   1.746
 5833SOL     OW18397   3.369   4.374   6.594
 5833SOL    HW118398   3.290   4.314   6.583
 5833SOL    HW218399   3.452   4.323   6.571
 5834SOL     OW18400   5.587   2.836   6.348
 5834SOL    HW118401   5.528   2.844   6.428
 5834SOL    HW218402   5.559   2.756   6.294
 5835SOL     OW18403   5.475   1.709   2.425
 5835SOL    HW118404   5.405   1.751   2.482
 5835SOL    HW218405   5.565   1.746   2.450
 5836SOL     OW18406   4.688   6.564   3.480
 5836SOL    HW118407   4.594   6.599   3.486
 5836SOL    HW218408   4.686   6.464   3.480
 5837SOL     OW18409   3.259   4.727   0.199
 5837SOL    HW118410   3.310   4.702   0.116
 5837SOL    HW218411   3.164   4.748   0.174
 5838SOL     OW18412   2.730   1.994   0.985
 5838SOL    HW118413   2.676   1.950   1.057
 5838SOL    HW218414   2.797   1.928   0.949
 5839SOL     OW18415   1.953   2.072   1.138
 5839SOL    HW118416   2.047   2.041   1.148
 5839SOL    HW218417   1.922   2.114   1.223
 5840SOL     OW18418   0.972   3.266   3.229
 5840SOL    HW118419   1.022   3.263   3.315
 5840SOL    HW218420   0.877   3.294   3.247
 5841SOL     OW18421   5.238   1.989   0.642
 5841SOL    HW118422   5.198   2.078   0.665
 5841SOL    HW218423   5.229   1.928   0.721
 5842SOL     OW18424   2.281   1.755   0.655
 5842SOL    HW118425   2.199   1.738   0.709
 5842SOL    HW218426   2.266   1.833   0.594
 5843SOL     OW18427   1.819   3.804   1.195
 5843SOL    HW118428   1.915   3.826   1.175
 5843SOL    HW218429   1.813   3.711   1.231
 5844SOL     OW18430   0.582   0.098   5.213
 5844SOL    HW118431   0.635   0.126   5.293
 5844SOL    HW218432   0.575   7.023   5.211
 5845SOL     OW18433   1.338   6.562   1.937
 5845SOL    HW118434   1.303   6.536   2.028
 5845SOL    HW218435   1.351   6.661   1.934
 5846SOL     OW18436   6.437   3.964   6.009
 5846SOL    HW118437   6.437   3.897   6.084
 5846SOL    HW218438   6.390   4.047   6.039
 5847SOL     OW18439   2.747   3.829   0.595
 5847SOL    HW118440   2.728   3.844   0.498
 5847SOL    HW218441   2.817   3.893   0.627
 5848SOL     OW18442   1.691   5.225   2.099
 5848SOL    HW118443   1.758   5.296   2.076
 5848SOL    HW218444   1.645   5.195   2.015
 5849SOL     OW18445   3.593   5.946   5.462
 5849SOL    HW118446   3.553   5.972   5.374
 5849SOL    HW218447   3.585   5.847   5.474
 5850SOL     OW18448   1.277   1.937   2.300
 5850SOL    HW118449   1.240   1.853   2.260
 5850SOL    HW218450   1.375   1.941   2.283
 5851SOL     OW18451   6.292   3.994   4.428
 5851SOL    HW118452   6.218   3.931   4.406
 5851SOL    HW218453   6.330   4.032   4.343
 5852SOL     OW18454   4.934   4.022   2.425
 5852SOL    HW118455   5.015   4.027   2.484
 5852SOL    HW218456   4.963   4.021   2.329
 5853SOL     OW18457   3.289   5.032   5.650
 5853SOL    HW118458   3.191   5.047   5.639
 5853SOL    HW218459   3.317   5.056   5.743
 5854SOL     OW18460   3.091   4.403   5.568
 5854SOL    HW118461   3.092   4.312   5.525
 5854SOL    HW218462   3.185   4.432   5.587
 5855SOL     OW18463   2.105   3.346   3.249
 5855SOL    HW118464   2.028   3.361   3.312
 5855SOL    HW218465   2.148   3.434   3.228
 5856SOL     OW18466   1.462   6.767   3.205
 5856SOL    HW118467   1.378   6.819   3.216
 5856SOL    HW218468   1.541   6.829   3.213
 5857SOL     OW18469   6.301   4.270   6.575
 5857SOL    HW118470   6.319   4.338   6.646
 5857SOL    HW218471   6.213   4.225   6.593
 5858SOL     OW18472   1.837   0.576   3.356
 5858SOL    HW118473   1.765   0.507   3.361
 5858SOL    HW218474   1.902   0.550   3.285
 5859SOL     OW18475   6.267   0.347   1.777
 5859SOL    HW118476   6.201   0.401   1.725
 5859SOL    HW218477   6.359   0.369   1.746
 5860SOL     OW18478   0.475   4.304   3.560
 5860SOL    HW118479   0.538   4.293   3.636
 5860SOL    HW218480   0.394   4.355   3.591
 5861SOL     OW18481   5.200   1.197   5.685
 5861SOL    HW118482   5.142   1.118   5.705
 5861SOL    HW218483   5.147   1.281   5.694
 5862SOL     OW18484   0.147   5.766   2.106
 5862SOL    HW118485   0.175   5.861   2.120
 5862SOL    HW218486   0.199   5.706   2.167
 5863SOL     OW18487   4.344   0.416   5.443
 5863SOL    HW118488   4.370   0.393   5.537
 5863SOL    HW218489   4.326   0.514   5.436
 5864SOL     OW18490   3.467   3.921   2.353
 5864SOL    HW118491   3.515   4.004   2.324
 5864SOL    HW218492   3.534   3.851   2.378
 5865SOL     OW18493   6.386   0.707   5.902
 5865SOL    HW118494   6.365   0.673   5.810
 5865SOL    HW218495   6.459   0.775   5.896
 5866SOL     OW18496   3.431   2.905   3.406
 5866SOL    HW118497   3.357   2.950   3.355
 5866SOL    HW218498   3.396   2.820   3.447
 5867SOL     OW18499   3.774   1.739   2.147
 5867SOL    HW118500   3.861   1.786   2.131
 5867SOL    HW218501   3.793   1.644   2.174
 5868SOL     OW18502   1.324   1.356   5.627
 5868SOL    HW118503   1.339   1.380   5.723
 5868SOL    HW218504   1.267   1.274   5.622
 5869SOL     OW18505   0.292   5.880   4.095
 5869SOL    HW118506   0.322   5.868   4.001
 5869SOL    HW218507   0.267   5.790   4.133
 5870SOL     OW18508   4.172   4.769   4.230
 5870SOL    HW118509   4.138   4.767   4.136
 5870SOL    HW218510   4.097   4.788   4.292
 5871SOL     OW18511   3.230   3.594   4.198
 5871SOL    HW118512   3.268   3.502   4.197
 5871SOL    HW218513   3.148   3.597   4.141
 5872SOL     OW18514   4.343   5.696   1.789
 5872SOL    HW118515   4.412   5.740   1.846
 5872SOL    HW218516   4.387   5.659   1.707
 5873SOL     OW18517   3.697   5.484   2.267
 5873SOL    HW118518   3.784   5.436   2.256
 5873SOL    HW218519   3.671   5.485   2.363
 5874SOL     OW18520   2.560   4.631   5.638
 5874SOL    HW118521   2.645   4.678   5.614
 5874SOL    HW218522   2.581   4.538   5.666
 5875SOL     OW18523   2.695   1.253   0.831
 5875SOL    HW118524   2.710   1.156   0.811
 5875SOL    HW218525   2.725   1.273   0.924
 5876SOL     OW18526   3.552   3.127   1.935
 5876SOL    HW118527   3.522   3.168   1.849
 5876SOL    HW218528   3.508   3.174   2.012
 5877SOL     OW18529   6.031   4.207   0.404
 5877SOL    HW118530   6.063   4.300   0.420
 5877SOL    HW218531   5.934   4.200   0.426
 5878SOL     OW18532   2.368   4.280   2.453
 5878SOL    HW118533   2.375   4.317   2.360
 5878SOL    HW218534   2.300   4.207   2.455
 5879SOL     OW18535   0.016   4.127   5.685
 5879SOL    HW118536   7.005   4.101   5.774
 5879SOL    HW218537   7.012   4.220   5.663
 5880SOL     OW18538   2.068   6.130   0.914
 5880SOL    HW118539   2.088   6.170   1.003
 5880SOL    HW218540   2.081   6.031   0.918
 5881SOL     OW18541   0.322   5.530   4.537
 5881SOL    HW118542   0.410   5.578   4.533
 5881SOL    HW218543   0.258   5.572   4.472
 5882SOL     OW18544   4.976   1.212   1.485
 5882SOL    HW118545   4.932   1.282   1.429
 5882SOL    HW218546   5.009   1.138   1.426
 5883SOL     OW18547   0.288   3.665   5.691
 5883SOL    HW118548   0.367   3.644   5.748
 5883SOL    HW218549   0.224   3.723   5.742
 5884SOL     OW18550   1.191   1.532   2.991
 5884SOL    HW118551   1.241   1.596   3.050
 5884SOL    HW218552   1.143   1.466   3.048
 5885SOL     OW18553   6.238   6.663   1.491
 5885SOL    HW118554   6.234   6.599   1.415
 5885SOL    HW218555   6.147   6.674   1.530
 5886SOL     OW18556   1.257   1.549   6.090
 5886SOL    HW118557   1.305   1.498   6.161
 5886SOL    HW218558   1.169   1.505   6.071
 5887SOL     OW18559   3.758   6.876   4.473
 5887SOL    HW118560   3.834   6.820   4.440
 5887SOL    HW218561   3.793   6.953   4.525
 5888SOL     OW18562   2.349   0.240   3.818
 5888SOL    HW118563   2.305   0.175   3.757
 5888SOL    HW218564   2.344   0.205   3.912
 5889SOL     OW18565   2.776   0.758   0.980
 5889SOL    HW118566   2.737   0.701   1.052
 5889SOL    HW218567   2.870   0.728   0.961
 5890SOL     OW18568   2.699   4.896   5.788
 5890SOL    HW118569   2.774   4.870   5.850
 5890SOL    HW218570   2.710   4.992   5.762
 5891SOL     OW18571   3.272   3.983   7.015
 5891SOL    HW118572   3.188   3.933   6.996
 5891SOL    HW218573   3.268   4.018   0.084
 5892SOL     OW18574   0.848   6.883   1.572
 5892SOL    HW118575   0.856   6.975   1.609
 5892SOL    HW218576   0.758   6.871   1.531
 5893SOL     OW18577   1.485   1.047   3.899
 5893SOL    HW118578   1.567   0.989   3.896
 5893SOL    HW218579   1.493   1.120   3.832
 5894SOL     OW18580   0.875   3.579   3.507
 5894SOL    HW118581   0.822   3.593   3.424
 5894SOL    HW218582   0.958   3.634   3.503
 5895SOL     OW18583   5.497   3.631   3.979
 5895SOL    HW118584   5.496   3.569   4.057
 5895SOL    HW218585   5.443   3.712   4.001
 5896SOL     OW18586   3.653   2.429   6.516
 5896SOL    HW118587   3.702   2.408   6.431
 5896SOL    HW218588   3.612   2.346   6.552
 5897SOL     OW18589   3.723   0.072   0.873
 5897SOL    HW118590   3.711   0.140   0.801
 5897SOL    HW218591   3.652   0.082   0.942
 5898SOL     OW18592   2.142   0.126   2.618
 5898SOL    HW118593   2.172   0.217   2.587
 5898SOL    HW218594   2.116   0.071   2.538
 5899SOL     OW18595   5.653   6.947   4.231
 5899SOL    HW118596   5.630   6.884   4.157
 5899SOL    HW218597   5.722   6.906   4.290
 5900SOL     OW18598   4.797   5.271   2.733
 5900SOL    HW118599   4.787   5.171   2.732
 5900SOL    HW218600   4.727   5.312   2.675
 5901SOL     OW18601   2.686   6.694   5.778
 5901SOL    HW118602   2.649   6.736   5.861
 5901SOL    HW218603   2.635   6.611   5.757
 5902SOL     OW18604   6.583   2.223   6.618
 5902SOL    HW118605   6.507   2.287   6.606
 5902SOL    HW218606   6.560   2.136   6.573
 5903SOL     OW18607   6.210   3.018   6.702
 5903SOL    HW118608   6.153   2.951   6.654
 5903SOL    HW218609   6.306   3.006   6.676
 5904SOL     OW18610   0.154   3.574   2.665
 5904SOL    HW118611   0.180   3.669   2.681
 5904SOL    HW218612   0.193   3.516   2.737
 5905SOL     OW18613   6.899   5.817   2.085
 5905SOL    HW118614   6.995   5.789   2.089
 5905SOL    HW218615   6.868   5.817   1.990
 5906SOL     OW18616   5.807   1.148   3.573
 5906SOL    HW118617   5.758   1.233   3.555
 5906SOL    HW218618   5.827   1.140   3.670
 5907SOL     OW18619   1.174   5.715   1.971
 5907SOL    HW118620   1.143   5.651   2.042
 5907SOL    HW218621   1.261   5.756   1.999
 5908SOL     OW18622   6.730   3.189   5.178
 5908SOL    HW118623   6.695   3.165   5.087
 5908SOL    HW218624   6.679   3.140   5.248
 5909SOL     OW18625   6.865   5.468   0.736
 5909SOL    HW118626   6.770   5.451   0.761
 5909SOL    HW218627   6.911   5.518   0.810
 5910SOL     OW18628   2.520   2.537   3.223
 5910SOL    HW118629   2.472   2.573   3.303
 5910SOL    HW218630   2.617   2.559   3.230
 5911SOL     OW18631   6.213   6.093   6.129
 5911SOL    HW118632   6.228   6.132   6.039
 5911SOL    HW218633   6.296   6.048   6.161
 5912SOL     OW18634   0.391   1.246   3.540
 5912SOL    HW118635   0.323   1.194   3.489
 5912SOL    HW218636   0.449   1.184   3.592
 5913SOL     OW18637   5.561   2.575   6.773
 5913SOL    HW118638   5.592   2.544   6.863
 5913SOL    HW218639   5.463   2.560   6.764
 5914SOL     OW18640   0.815   6.580   0.039
 5914SOL    HW118641   0.817   6.653   6.996
 5914SOL    HW218642   0.900   6.528   0.035
 5915SOL     OW18643   4.199   1.628   6.612
 5915SOL    HW118644   4.136   1.637   6.534
 5915SOL    HW218645   4.198   1.713   6.664
 5916SOL     OW18646   1.012   5.980   2.573
 5916SOL    HW118647   1.053   5.888   2.569
 5916SOL    HW218648   0.988   6.009   2.480
 5917SOL     OW18649   3.347   4.457   0.038
 5917SOL    HW118650   3.310   4.392   6.997
 5917SOL    HW218651   3.429   4.419   0.081
 5918SOL     OW18652   3.357   6.083   5.721
 5918SOL    HW118653   3.356   6.164   5.779
 5918SOL    HW218654   3.443   6.078   5.671
 5919SOL     OW18655   3.680   2.933   3.257
 5919SOL    HW118656   3.685   3.014   3.315
 5919SOL    HW218657   3.601   2.877   3.285
 5920SOL     OW18658   6.906   0.271   5.822
 5920SOL    HW118659   6.901   0.362   5.864
 5920SOL    HW218660   6.921   0.203   5.894
 5921SOL     OW18661   3.345   5.072   6.211
 5921SOL    HW118662   3.417   5.114   6.156
 5921SOL    HW218663   3.385   4.998   6.266
 5922SOL     OW18664   5.333   3.690   3.291
 5922SOL    HW118665   5.410   3.752   3.307
 5922SOL    HW218666   5.265   3.736   3.234
 5923SOL     OW18667   6.781   0.371   1.467
 5923SOL    HW118668   6.783   0.469   1.484
 5923SOL    HW218669   6.776   0.322   1.554
 5924SOL     OW18670   6.148   0.230   3.100
 5924SOL    HW118671   6.232   0.177   3.114
 5924SOL    HW218672   6.102   0.198   3.017
 5925SOL     OW18673   4.613   6.184   1.469
 5925SOL    HW118674   4.675   6.106   1.464
 5925SOL    HW218675   4.664   6.269   1.452
 5926SOL     OW18676   4.201   5.375   3.175
 5926SOL    HW118677   4.214   5.454   3.235
 5926SOL    HW218678   4.138   5.310   3.219
 5927SOL     OW18679   1.135   4.486   1.893
 5927SOL    HW118680   1.109   4.569   1.942
 5927SOL    HW218681   1.065   4.416   1.905
 5928SOL     OW18682   3.551   0.474   0.684
 5928SOL    HW118683   3.527   0.561   0.725
 5928SOL    HW218684   3.469   0.428   0.652
 5929SOL     OW18685   0.900   0.900   6.217
 5929SOL    HW118686   0.838   0.966   6.260
 5929SOL    HW218687   0.848   0.835   6.162
 5930SOL     OW18688   1.523   3.388   2.353
 5930SOL    HW118689   1.504   3.291   2.370
 5930SOL    HW218690   1.542   3.401   2.256
 5931SOL     OW18691   5.256   6.162   3.187
 5931SOL    HW118692   5.266   6.145   3.089
 5931SOL    HW218693   5.264   6.259   3.206
 5932SOL     OW18694   2.552   1.421   6.992
 5932SOL    HW118695   2.550   1.515   6.956
 5932SOL    HW218696   2.466   1.402   0.014
 5933SOL     OW18697   6.325   6.028   3.660
 5933SOL    HW118698   6.354   5.980   3.743
 5933SOL    HW218699   6.246   6.085   3.680
 5934SOL     OW18700   2.891   3.630   5.742
 5934SOL    HW118701   2.924   3.536   5.742
 5934SOL    HW218702   2.953   3.686   5.687
 5935SOL     OW18703   6.712   6.281   5.338
 5935SOL    HW118704   6.750   6.301   5.248
 5935SOL    HW218705   6.744   6.191   5.368
 5936SOL     OW18706   2.945   3.279   1.840
 5936SOL    HW118707   2.921   3.278   1.937
 5936SOL    HW218708   3.038   3.244   1.828
 5937SOL     OW18709   6.731   3.083   1.667
 5937SOL    HW118710   6.719   3.134   1.581
 5937SOL    HW218711   6.735   3.148   1.743
 5938SOL     OW18712   6.993   5.086   5.203
 5938SOL    HW118713   0.065   5.067   5.184
 5938SOL    HW218714   6.938   5.060   5.124
 5939SOL     OW18715   3.813   0.041   4.705
 5939SOL    HW118716   3.746   0.105   4.743
 5939SOL    HW218717   3.903   0.083   4.704
 5940SOL     OW18718   4.651   6.128   2.511
 5940SOL    HW118719   4.622   6.222   2.527
 5940SOL    HW218720   4.738   6.112   2.558
 5941SOL     OW18721   7.007   1.906   1.613
 5941SOL    HW118722   7.021   1.844   1.536
 5941SOL    HW218723   6.933   1.870   1.671
 5942SOL     OW18724   6.139   3.743   5.636
 5942SOL    HW118725   6.069   3.674   5.654
 5942SOL    HW218726   6.096   3.828   5.605
 5943SOL     OW18727   3.363   3.701   1.107
 5943SOL    HW118728   3.327   3.608   1.114
 5943SOL    HW218729   3.290   3.766   1.126
 5944SOL     OW18730   0.934   3.360   6.171
 5944SOL    HW118731   0.954   3.439   6.112
 5944SOL    HW218732   0.984   3.369   6.257
 5945SOL     OW18733   0.231   5.353   5.398
 5945SOL    HW118734   0.302   5.283   5.390
 5945SOL    HW218735   0.194   5.374   5.308
 5946SOL     OW18736   3.554   4.105   1.036
 5946SOL    HW118737   3.611   4.115   0.954
 5946SOL    HW218738   3.520   4.011   1.042
 5947SOL     OW18739   3.216   3.036   4.734
 5947SOL    HW118740   3.228   2.968   4.806
 5947SOL    HW218741   3.140   3.097   4.758
 5948SOL     OW18742   5.105   3.855   2.004
 5948SOL    HW118743   5.170   3.786   2.035
 5948SOL    HW218744   5.014   3.833   2.039
 5949SOL     OW18745   6.992   4.749   2.486
 5949SOL    HW118746   0.058   4.791   2.483
 5949SOL    HW218747   6.994   4.671   2.548
 5950SOL     OW18748   4.972   1.724   5.661
 5950SOL    HW118749   4.969   1.708   5.760
 5950SOL    HW218750   4.880   1.713   5.624
 5951SOL     OW18751   1.310   4.334   5.783
 5951SOL    HW118752   1.361   4.383   5.713
 5951SOL    HW218753   1.300   4.238   5.757
 5952SOL     OW18754   3.946   5.058   1.116
 5952SOL    HW118755   3.951   4.959   1.104
 5952SOL    HW218756   3.995   5.085   1.198
 5953SOL     OW18757   5.631   2.449   4.986
 5953SOL    HW118758   5.700   2.425   4.918
 5953SOL    HW218759   5.579   2.529   4.955
 5954SOL     OW18760   0.839   6.408   4.753
 5954SOL    HW118761   0.764   6.420   4.688
 5954SOL    HW218762   0.918   6.463   4.724
 5955SOL     OW18763   6.104   3.910   0.785
 5955SOL    HW118764   6.151   3.913   0.697
 5955SOL    HW218765   6.167   3.877   0.855
 5956SOL     OW18766   4.800   2.432   4.167
 5956SOL    HW118767   4.749   2.399   4.088
 5956SOL    HW218768   4.817   2.530   4.157
 5957SOL     OW18769   1.266   1.158   2.324
 5957SOL    HW118770   1.170   1.185   2.322
 5957SOL    HW218771   1.323   1.239   2.341
 5958SOL     OW18772   3.627   6.873   2.795
 5958SOL    HW118773   3.675   6.830   2.871
 5958SOL    HW218774   3.555   6.811   2.762
 5959SOL     OW18775   4.978   2.452   4.538
 5959SOL    HW118776   4.990   2.546   4.507
 5959SOL    HW218777   4.987   2.390   4.459
 5960SOL     OW18778   4.603   0.182   5.669
 5960SOL    HW118779   4.623   0.101   5.725
 5960SOL    HW218780   4.659   0.180   5.586
 5961SOL     OW18781   2.949   1.751   2.919
 5961SOL    HW118782   3.005   1.720   2.996
 5961SOL    HW218783   3.008   1.792   2.849
 5962SOL     OW18784   5.659   6.045   0.398
 5962SOL    HW118785   5.599   6.061   0.476
 5962SOL    HW218786   5.646   6.119   0.331
 5963SOL     OW18787   3.875   4.486   0.047
 5963SOL    HW118788   3.953   4.523   0.097
 5963SOL    HW218789   3.906   4.441   6.988
 5964SOL     OW18790   2.138   6.555   2.462
 5964SOL    HW118791   2.073   6.592   2.395
 5964SOL    HW218792   2.101   6.565   2.554
 5965SOL     OW18793   1.690   6.387   6.931
 5965SOL    HW118794   1.726   6.405   6.839
 5965SOL    HW218795   1.755   6.329   6.980
 5966SOL     OW18796   2.075   0.893   5.589
 5966SOL    HW118797   2.108   0.985   5.612
 5966SOL    HW218798   1.976   0.896   5.576
 5967SOL     OW18799   2.243   1.686   4.200
 5967SOL    HW118800   2.302   1.738   4.139
 5967SOL    HW218801   2.270   1.702   4.295
 5968SOL     OW18802   5.709   2.304   0.830
 5968SOL    HW118803   5.714   2.241   0.752
 5968SOL    HW218804   5.789   2.364   0.830
 5969SOL     OW18805   5.278   0.818   6.956
 5969SOL    HW118806   5.315   0.885   6.892
 5969SOL    HW218807   5.292   0.850   0.025
 5970SOL     OW18808   0.284   3.060   0.494
 5970SOL    HW118809   0.340   2.981   0.520
 5970SOL    HW218810   0.190   3.044   0.521
 5971SOL     OW18811   6.973   0.035   3.554
 5971SOL    HW118812   6.931   0.112   3.602
 5971SOL    HW218813   6.924   6.976   3.577
 5972SOL     OW18814   5.200   5.298   0.875
 5972SOL    HW118815   5.146   5.375   0.839
 5972SOL    HW218816   5.138   5.227   0.907
 5973SOL     OW18817   1.964   2.880   3.010
 5973SOL    HW118818   1.965   2.814   3.084
 5973SOL    HW218819   2.056   2.887   2.971
 5974SOL     OW18820   4.462   1.589   6.325
 5974SOL    HW118821   4.439   1.684   6.348
 5974SOL    HW218822   4.469   1.580   6.226
 5975SOL     OW18823   5.835   4.753   0.580
 5975SOL    HW118824   5.934   4.748   0.575
 5975SOL    HW218825   5.801   4.689   0.648
 5976SOL     OW18826   3.298   3.735   5.709
 5976SOL    HW118827   3.210   3.693   5.688
 5976SOL    HW218828   3.288   3.834   5.716
 5977SOL     OW18829   6.916   4.813   0.154
 5977SOL    HW118830   6.872   4.727   0.181
 5977SOL    HW218831   6.958   4.855   0.234
 5978SOL     OW18832   3.350   4.950   0.480
 5978SOL    HW118833   3.263   4.990   0.509
 5978SOL    HW218834   3.364   4.966   0.382
 5979SOL     OW18835   6.045   0.425   1.292
 5979SOL    HW118836   6.068   0.331   1.267
 5979SOL    HW218837   5.948   0.432   1.315
 5980SOL     OW18838   3.812   2.745   1.716
 5980SOL    HW118839   3.801   2.726   1.618
 5980SOL    HW218840   3.729   2.718   1.764
 5981SOL     OW18841   2.973   2.276   0.255
 5981SOL    HW118842   2.995   2.321   0.168
 5981SOL    HW218843   2.959   2.345   0.326
 5982SOL     OW18844   6.223   2.297   1.575
 5982SOL    HW118845   6.267   2.207   1.571
 5982SOL    HW218846   6.213   2.334   1.483
 5983SOL     OW18847   0.391   1.065   4.073
 5983SOL    HW118848   0.329   0.986   4.071
 5983SOL    HW218849   0.485   1.033   4.078
 5984SOL     OW18850   6.005   6.283   2.970
 5984SOL    HW118851   6.004   6.241   2.879
 5984SOL    HW218852   5.932   6.350   2.977
 5985SOL     OW18853   6.252   2.426   2.669
 5985SOL    HW118854   6.182   2.379   2.724
 5985SOL    HW218855   6.208   2.478   2.596
 5986SOL     OW18856   4.227   3.617   5.755
 5986SOL    HW118857   4.292   3.690   5.777
 5986SOL    HW218858   4.186   3.635   5.666
 5987SOL     OW18859   6.521   0.920   4.980
 5987SOL    HW118860   6.591   0.989   4.999
 5987SOL    HW218861   6.499   0.870   5.064
 5988SOL     OW18862   2.169   2.221   0.232
 5988SOL    HW118863   2.261   2.259   0.222
 5988SOL    HW218864   2.118   2.235   0.147
 5989SOL     OW18865   0.389   6.212   6.584
 5989SOL    HW118866   0.343   6.142   6.638
 5989SOL    HW218867   0.401   6.179   6.490
 5990SOL     OW18868   3.822   5.011   1.414
 5990SOL    HW118869   3.750   5.020   1.345
 5990SOL    HW218870   3.826   4.917   1.447
 5991SOL     OW18871   5.190   6.310   0.656
 5991SOL    HW118872   5.259   6.238   0.649
 5991SOL    HW218873   5.164   6.340   0.564
 5992SOL     OW18874   3.661   6.993   2.197
 5992SOL    HW118875   3.592   6.956   2.134
 5992SOL    HW218876   3.751   6.986   2.155
 5993SOL     OW18877   5.833   2.032   0.054
 5993SOL    HW118878   5.755   1.995   0.104
 5993SOL    HW218879   5.834   1.995   6.986
 5994SOL     OW18880   0.672   2.366   0.199
 5994SOL    HW118881   0.730   2.370   0.280
 5994SOL    HW218882   0.665   2.458   0.159
 5995SOL     OW18883   5.061   3.506   1.566
 5995SOL    HW118884   4.980   3.526   1.511
 5995SOL    HW218885   5.075   3.407   1.568
 5996SOL     OW18886   2.856   5.354   1.321
 5996SOL    HW118887   2.874   5.444   1.360
 5996SOL    HW218888   2.765   5.353   1.280
 5997SOL     OW18889   0.154   0.076   3.718
 5997SOL    HW118890   0.087   0.037   3.655
 5997SOL    HW218891   0.111   0.091   3.807
 5998SOL     OW18892   6.494   0.702   1.339
 5998SOL    HW118893   6.458   0.624   1.288
 5998SOL    HW218894   6.583   0.727   1.302
 5999SOL     OW18895   4.052   3.115   1.258
 5999SOL    HW118896   4.009   3.049   1.320
 5999SOL    HW218897   4.058   3.075   1.167
 6000SOL     OW18898   6.508   4.973   6.929
 6000SOL    HW118899   6.559   5.040   6.983
 6000SOL    HW218900   6.570   4.921   6.872
 6001SOL     OW18901   5.584   6.327   5.190
 6001SOL    HW118902   5.560   6.262   5.263
 6001SOL    HW218903   5.683   6.322   5.173
 6002SOL     OW18904   6.376   6.201   4.688
 6002SOL    HW118905   6.445   6.129   4.686
 6002SOL    HW218906   6.304   6.177   4.753
 6003SOL     OW18907   6.915   3.186   4.062
 6003SOL    HW118908   6.897   3.108   4.002
 6003SOL    HW218909   7.002   3.172   4.110
 6004SOL     OW18910   5.781   2.617   3.561
 6004SOL    HW118911   5.761   2.680   3.486
 6004SOL    HW218912   5.879   2.596   3.561
 6005SOL     OW18913   4.096   4.880   5.985
 6005SOL    HW118914   4.031   4.879   5.909
 6005SOL    HW218915   4.047   4.899   6.070
 6006SOL     OW18916   3.562   5.664   5.470
 6006SOL    HW118917   3.525   5.672   5.562
 6006SOL    HW218918   3.493   5.694   5.403
 6007SOL     OW18919   1.395   5.012   5.445
 6007SOL    HW118920   1.494   4.994   5.441
 6007SOL    HW218921   1.380   5.105   5.479
 6008SOL     OW18922   2.470   5.057   5.865
 6008SOL    HW118923   2.466   4.959   5.845
 6008SOL    HW218924   2.565   5.086   5.871
 6009SOL     OW18925   4.026   5.281   3.387
 6009SOL    HW118926   4.103   5.237   3.433
 6009SOL    HW218927   3.952   5.295   3.452
 6010SOL     OW18928   0.049   4.940   4.806
 6010SOL    HW118929   7.008   4.940   4.881
 6010SOL    HW218930   0.125   4.880   4.828
 6011SOL     OW18931   6.203   1.428   2.383
 6011SOL    HW118932   6.204   1.528   2.382
 6011SOL    HW218933   6.120   1.397   2.430
 6012SOL     OW18934   0.053   0.409   6.007
 6012SOL    HW118935   0.119   0.336   6.019
 6012SOL    HW218936   6.998   0.391   6.065
 6013SOL     OW18937   5.661   1.017   2.491
 6013SOL    HW118938   5.644   0.929   2.447
 6013SOL    HW218939   5.752   1.050   2.464
 6014SOL     OW18940   3.862   2.967   4.205
 6014SOL    HW118941   3.931   3.008   4.265
 6014SOL    HW218942   3.883   2.989   4.110
 6015SOL     OW18943   6.235   1.614   4.421
 6015SOL    HW118944   6.314   1.652   4.470
 6015SOL    HW218945   6.232   1.515   4.435
 6016SOL     OW18946   5.085   1.597   4.631
 6016SOL    HW118947   4.998   1.562   4.596
 6016SOL    HW218948   5.135   1.523   4.677
 6017SOL     OW18949   0.160   2.801   5.103
 6017SOL    HW118950   0.075   2.850   5.082
 6017SOL    HW218951   0.211   2.852   5.172
 6018SOL     OW18952   3.556   1.525   6.037
 6018SOL    HW118953   3.545   1.447   5.976
 6018SOL    HW218954   3.588   1.604   5.985
 6019SOL     OW18955   0.060   3.930   6.580
 6019SOL    HW118956   7.025   3.857   6.612
 6019SOL    HW218957   0.008   3.995   6.524
 6020SOL     OW18958   0.957   4.410   0.424
 6020SOL    HW118959   0.918   4.485   0.371
 6020SOL    HW218960   0.900   4.391   0.504
 6021SOL     OW18961   4.241   0.678   3.058
 6021SOL    HW118962   4.158   0.621   3.061
 6021SOL    HW218963   4.321   0.620   3.075
 6022SOL     OW18964   6.781   1.603   1.916
 6022SOL    HW118965   6.833   1.564   1.840
 6022SOL    HW218966   6.841   1.614   1.995
 6023SOL     OW18967   4.659   0.908   1.256
 6023SOL    HW118968   4.673   0.821   1.208
 6023SOL    HW218969   4.589   0.961   1.209
 6024SOL     OW18970   0.502   5.503   0.387
 6024SOL    HW118971   0.561   5.549   0.320
 6024SOL    HW218972   0.465   5.420   0.347
 6025SOL     OW18973   2.489   1.357   4.102
 6025SOL    HW118974   2.390   1.340   4.100
 6025SOL    HW218975   2.507   1.447   4.141
 6026SOL     OW18976   6.377   4.341   4.119
 6026SOL    HW118977   6.445   4.304   4.183
 6026SOL    HW218978   6.361   4.437   4.141
 6027SOL     OW18979   6.016   3.461   5.690
 6027SOL    HW118980   5.964   3.434   5.771
 6027SOL    HW218981   5.959   3.449   5.608
 6028SOL     OW18982   5.111   4.942   6.360
 6028SOL    HW118983   5.116   5.013   6.430
 6028SOL    HW218984   5.072   4.859   6.400
 6029SOL     OW18985   2.417   0.809   3.364
 6029SOL    HW118986   2.508   0.797   3.405
 6029SOL    HW218987   2.409   0.902   3.328
 6030SOL     OW18988   5.317   3.706   4.613
 6030SOL    HW118989   5.351   3.775   4.550
 6030SOL    HW218990   5.244   3.653   4.569
 6031SOL     OW18991   0.513   5.960   5.339
 6031SOL    HW118992   0.585   5.893   5.327
 6031SOL    HW218993   0.554   6.050   5.357
 6032SOL     OW18994   2.884   5.944   3.680
 6032SOL    HW118995   2.912   5.849   3.693
 6032SOL    HW218996   2.872   5.962   3.582
 6033SOL     OW18997   2.353   1.788   2.658
 6033SOL    HW118998   2.297   1.803   2.739
 6033SOL    HW218999   2.441   1.749   2.685
 6034SOL     OW19000   1.561   0.439   6.819
 6034SOL    HW119001   1.484   0.425   6.881
 6034SOL    HW219002   1.634   0.489   6.867
 6035SOL     OW19003   1.850   0.892   3.089
 6035SOL    HW119004   1.904   0.846   3.159
 6035SOL    HW219005   1.808   0.824   3.029
 6036SOL     OW19006   6.047   2.822   0.563
 6036SOL    HW119007   6.026   2.919   0.577
 6036SOL    HW219008   5.962   2.770   0.554
 6037SOL     OW19009   4.321   2.325   0.833
 6037SOL    HW119010   4.281   2.261   0.899
 6037SOL    HW219011   4.277   2.312   0.744
 6038SOL     OW19012   0.617   1.965   5.859
 6038SOL    HW119013   0.651   1.872   5.844
 6038SOL    HW219014   0.646   1.997   5.949
 6039SOL     OW19015   3.208   4.058   3.696
 6039SOL    HW119016   3.195   4.044   3.598
 6039SOL    HW219017   3.305   4.074   3.715
 6040SOL     OW19018   1.185   1.562   6.663
 6040SOL    HW119019   1.171   1.509   6.580
 6040SOL    HW219020   1.283   1.568   6.683
 6041SOL     OW19021   3.061   2.867   6.404
 6041SOL    HW119022   3.107   2.941   6.451
 6041SOL    HW219023   2.983   2.903   6.352
 6042SOL     OW19024   2.868   5.930   3.414
 6042SOL    HW119025   2.876   6.003   3.346
 6042SOL    HW219026   2.941   5.863   3.400
 6043SOL     OW19027   1.911   0.786   4.134
 6043SOL    HW119028   1.878   0.725   4.205
 6043SOL    HW219029   1.889   0.748   4.044
 6044SOL     OW19030   1.816   2.307   1.601
 6044SOL    HW119031   1.717   2.302   1.593
 6044SOL    HW219032   1.856   2.316   1.509
 6045SOL     OW19033   5.207   2.638   3.353
 6045SOL    HW119034   5.113   2.611   3.332
 6045SOL    HW219035   5.210   2.680   3.443
 6046SOL     OW19036   3.414   3.235   2.132
 6046SOL    HW119037   3.386   3.143   2.158
 6046SOL    HW219038   3.345   3.301   2.163
 6047SOL     OW19039   5.797   1.913   0.780
 6047SOL    HW119040   5.726   1.851   0.746
 6047SOL    HW219041   5.820   1.979   0.708
 6048SOL     OW19042   5.449   5.963   4.638
 6048SOL    HW119043   5.481   5.996   4.727
 6048SOL    HW219044   5.427   6.040   4.579
 6049SOL     OW19045   4.583   4.572   5.283
 6049SOL    HW119046   4.659   4.605   5.339
 6049SOL    HW219047   4.614   4.493   5.228
 6050SOL     OW19048   3.519   5.215   1.484
 6050SOL    HW119049   3.461   5.187   1.560
 6050SOL    HW219050   3.615   5.204   1.509
 6051SOL     OW19051   1.323   0.952   3.125
 6051SOL    HW119052   1.292   1.035   3.079
 6051SOL    HW219053   1.332   0.878   3.058
 6052SOL     OW19054   5.363   6.871   0.394
 6052SOL    HW119055   5.410   6.842   0.311
 6052SOL    HW219056   5.271   6.903   0.370
 6053SOL     OW19057   4.460   2.294   6.144
 6053SOL    HW119058   4.512   2.268   6.226
 6053SOL    HW219059   4.473   2.392   6.126
 6054SOL     OW19060   4.091   4.589   0.983
 6054SOL    HW119061   4.075   4.490   0.990
 6054SOL    HW219062   4.078   4.618   0.888
 6055SOL     OW19063   3.518   4.669   0.717
 6055SOL    HW119064   3.539   4.607   0.642
 6055SOL    HW219065   3.602   4.689   0.768
 6056SOL     OW19066   6.276   4.429   4.950
 6056SOL    HW119067   6.263   4.330   4.954
 6056SOL    HW219068   6.187   4.474   4.947
 6057SOL     OW19069   4.946   0.120   3.228
 6057SOL    HW119070   4.918   0.140   3.134
 6057SOL    HW219071   4.992   0.201   3.267
 6058SOL     OW19072   5.536   2.372   6.599
 6058SOL    HW119073   5.560   2.458   6.644
 6058SOL    HW219074   5.617   2.333   6.555
 6059SOL     OW19075   5.153   4.393   5.915
 6059SOL    HW119076   5.172   4.422   5.821
 6059SOL    HW219077   5.123   4.297   5.914
 6060SOL     OW19078   3.026   3.204   6.764
 6060SOL    HW119079   2.955   3.264   6.728
 6060SOL    HW219080   3.115   3.250   6.758
 6061SOL     OW19081   4.338   5.048   0.652
 6061SOL    HW119082   4.438   5.053   0.662
 6061SOL    HW219083   4.313   5.066   0.557
 6062SOL     OW19084   2.240   2.752   0.845
 6062SOL    HW119085   2.183   2.789   0.918
 6062SOL    HW219086   2.336   2.775   0.863
 6063SOL     OW19087   3.658   4.715   5.579
 6063SOL    HW119088   3.732   4.782   5.577
 6063SOL    HW219089   3.571   4.763   5.566
 6064SOL     OW19090   6.912   6.733   0.730
 6064SOL    HW119091   6.929   6.638   0.705
 6064SOL    HW219092   6.857   6.737   0.813
 6065SOL     OW19093   0.970   5.602   2.513
 6065SOL    HW119094   1.040   5.659   2.557
 6065SOL    HW219095   1.006   5.510   2.500
 6066SOL     OW19096   4.978   6.940   3.632
 6066SOL    HW119097   5.059   6.998   3.630
 6066SOL    HW219098   5.003   6.847   3.660
 6067SOL     OW19099   6.123   0.372   5.623
 6067SOL    HW119100   6.072   0.311   5.683
 6067SOL    HW219101   6.120   0.338   5.529
 6068SOL     OW19102   4.687   1.582   5.688
 6068SOL    HW119103   4.699   1.620   5.779
 6068SOL    HW219104   4.601   1.531   5.684
 6069SOL     OW19105   0.094   3.173   6.087
 6069SOL    HW119106   0.086   3.185   5.988
 6069SOL    HW219107   0.188   3.150   6.111
 6070SOL     OW19108   3.551   1.557   1.059
 6070SOL    HW119109   3.644   1.552   1.022
 6070SOL    HW219110   3.550   1.621   1.136
 6071SOL     OW19111   5.433   6.746   5.079
 6071SOL    HW119112   5.369   6.677   5.044
 6071SOL    HW219113   5.439   6.821   5.014
 6072SOL     OW19114   0.323   2.591   0.670
 6072SOL    HW119115   0.421   2.586   0.655
 6072SOL    HW219116   0.286   2.499   0.680
 6073SOL     OW19117   4.711   2.496   0.612
 6073SOL    HW119118   4.668   2.586   0.613
 6073SOL    HW219119   4.652   2.431   0.659
 6074SOL     OW19120   0.945   5.741   2.274
 6074SOL    HW119121   0.998   5.681   2.216
 6074SOL    HW219122   0.933   5.699   2.364
 6075SOL     OW19123   4.761   6.571   6.443
 6075SOL    HW119124   4.661   6.570   6.440
 6075SOL    HW219125   4.794   6.488   6.487
 6076SOL     OW19126   2.483   4.992   3.976
 6076SOL    HW119127   2.392   4.989   4.017
 6076SOL    HW219128   2.514   5.087   3.971
 6077SOL     OW19129   6.108   6.685   1.900
 6077SOL    HW119130   6.110   6.756   1.971
 6077SOL    HW219131   6.200   6.672   1.863
 6078SOL     OW19132   4.700   4.146   0.299
 6078SOL    HW119133   4.770   4.077   0.283
 6078SOL    HW219134   4.631   4.110   0.361
 6079SOL     OW19135   4.035   4.278   6.455
 6079SOL    HW119136   4.004   4.250   6.364
 6079SOL    HW219137   3.955   4.301   6.511
 6080SOL     OW19138   0.783   4.600   0.273
 6080SOL    HW119139   0.743   4.546   0.199
 6080SOL    HW219140   0.773   4.698   0.253
 6081SOL     OW19141   0.956   3.771   4.795
 6081SOL    HW119142   0.940   3.674   4.810
 6081SOL    HW219143   1.031   3.803   4.853
 6082SOL     OW19144   4.238   0.866   1.069
 6082SOL    HW119145   4.144   0.890   1.094
 6082SOL    HW219146   4.250   0.766   1.075
 6083SOL     OW19147   5.021   6.075   6.408
 6083SOL    HW119148   5.065   6.012   6.344
 6083SOL    HW219149   5.091   6.117   6.466
 6084SOL     OW19150   0.537   6.888   2.317
 6084SOL    HW119151   0.480   6.866   2.396
 6084SOL    HW219152   0.584   6.975   2.332
 6085SOL     OW19153   0.049   6.039   0.379
 6085SOL    HW119154   0.084   6.129   0.354
 6085SOL    HW219155   0.003   5.997   0.301
 6086SOL     OW19156   3.801   3.457   6.596
 6086SOL    HW119157   3.711   3.434   6.633
 6086SOL    HW219158   3.862   3.482   6.671
 6087SOL     OW19159   5.193   0.159   0.540
 6087SOL    HW119160   5.132   0.238   0.535
 6087SOL    HW219161   5.248   0.165   0.623
 6088SOL     OW19162   5.329   0.042   3.872
 6088SOL    HW119163   5.358   0.062   3.965
 6088SOL    HW219164   5.346   6.971   3.852
 6089SOL     OW19165   6.446   2.507   2.852
 6089SOL    HW119166   6.485   2.587   2.805
 6089SOL    HW219167   6.374   2.467   2.795
 6090SOL     OW19168   3.516   6.171   4.262
 6090SOL    HW119169   3.423   6.139   4.282
 6090SOL    HW219170   3.512   6.263   4.225
 6091SOL     OW19171   2.381   1.558   1.498
 6091SOL    HW119172   2.401   1.460   1.496
 6091SOL    HW219173   2.464   1.609   1.520
 6092SOL     OW19174   4.019   6.172   2.110
 6092SOL    HW119175   4.035   6.216   2.022
 6092SOL    HW219176   3.947   6.103   2.101
 6093SOL     OW19177   2.169   1.460   2.174
 6093SOL    HW119178   2.143   1.547   2.216
 6093SOL    HW219179   2.256   1.471   2.125
 6094SOL     OW19180   0.359   6.738   4.591
 6094SOL    HW119181   0.342   6.640   4.584
 6094SOL    HW219182   0.288   6.788   4.542
 6095SOL     OW19183   4.044   5.745   6.995
 6095SOL    HW119184   4.046   5.680   6.919
 6095SOL    HW219185   3.959   5.734   0.021
 6096SOL     OW19186   5.790   6.538   2.155
 6096SOL    HW119187   5.784   6.611   2.087
 6096SOL    HW219188   5.732   6.461   2.126
 6097SOL     OW19189   1.789   5.889   2.694
 6097SOL    HW119190   1.700   5.891   2.739
 6097SOL    HW219191   1.779   5.920   2.599
 6098SOL     OW19192   0.069   1.255   4.568
 6098SOL    HW119193   0.151   1.199   4.576
 6098SOL    HW219194   0.004   1.209   4.508
 6099SOL     OW19195   5.004   5.706   6.325
 6099SOL    HW119196   4.905   5.715   6.326
 6099SOL    HW219197   5.032   5.648   6.249
 6100SOL     OW19198   6.906   5.949   3.767
 6100SOL    HW119199   6.918   6.041   3.804
 6100SOL    HW219200   6.953   5.943   3.678
 6101SOL     OW19201   6.464   2.324   1.378
 6101SOL    HW119202   6.383   2.342   1.322
 6101SOL    HW219203   6.536   2.285   1.320
 6102SOL     OW19204   4.263   6.218   2.323
 6102SOL    HW119205   4.325   6.153   2.367
 6102SOL    HW219206   4.207   6.170   2.255
 6103SOL     OW19207   6.388   1.518   1.405
 6103SOL    HW119208   6.455   1.587   1.378
 6103SOL    HW219209   6.434   1.446   1.457
 6104SOL     OW19210   5.991   1.268   4.365
 6104SOL    HW119211   5.925   1.338   4.392
 6104SOL    HW219212   5.978   1.186   4.422
 6105SOL     OW19213   2.630   6.259   5.636
 6105SOL    HW119214   2.573   6.201   5.694
 6105SOL    HW219215   2.672   6.204   5.564
 6106SOL     OW19216   0.469   4.047   6.848
 6106SOL    HW119217   0.483   4.029   6.945
 6106SOL    HW219218   0.376   4.020   6.822
 6107SOL     OW19219   4.435   4.605   4.518
 6107SOL    HW119220   4.489   4.525   4.545
 6107SOL    HW219221   4.414   4.659   4.600
 6108SOL     OW19222   1.551   1.376   1.713
 6108SOL    HW119223   1.522   1.305   1.778
 6108SOL    HW219224   1.650   1.383   1.715
 6109SOL     OW19225   5.509   6.447   3.084
 6109SOL    HW119226   5.464   6.455   2.995
 6109SOL    HW219227   5.465   6.510   3.149
 6110SOL     OW19228   1.268   2.257   5.421
 6110SOL    HW119229   1.309   2.171   5.390
 6110SOL    HW219230   1.168   2.249   5.416
 6111SOL     OW19231   1.456   3.865   1.654
 6111SOL    HW119232   1.509   3.949   1.666
 6111SOL    HW219233   1.390   3.876   1.581
 6112SOL     OW19234   4.330   0.283   2.528
 6112SOL    HW119235   4.336   0.363   2.586
 6112SOL    HW219236   4.422   0.256   2.498
 6113SOL     OW19237   2.455   5.662   6.817
 6113SOL    HW119238   2.478   5.636   6.910
 6113SOL    HW219239   2.478   5.587   6.755
 6114SOL     OW19240   4.968   1.627   0.628
 6114SOL    HW119241   4.913   1.699   0.671
 6114SOL    HW219242   5.040   1.667   0.573
 6115SOL     OW19243   1.076   1.220   5.604
 6115SOL    HW119244   1.004   1.196   5.539
 6115SOL    HW219245   1.080   1.151   5.676
 6116SOL     OW19246   4.168   2.055   4.892
 6116SOL    HW119247   4.099   1.983   4.885
 6116SOL    HW219248   4.182   2.097   4.802
 6117SOL     OW19249   1.755   2.289   2.724
 6117SOL    HW119250   1.767   2.295   2.823
 6117SOL    HW219251   1.795   2.369   2.680
 6118SOL     OW19252   5.706   1.100   0.213
 6118SOL    HW119253   5.760   1.019   0.189
 6118SOL    HW219254   5.693   1.156   0.131
 6119SOL     OW19255   0.397   2.123   0.532
 6119SOL    HW119256   0.388   2.199   0.468
 6119SOL    HW219257   0.315   2.065   0.528
 6120SOL     OW19258   2.346   6.955   5.850
 6120SOL    HW119259   2.406   6.983   5.776
 6120SOL    HW219260   2.367   7.008   5.932
 6121SOL     OW19261   1.225   3.080   5.205
 6121SOL    HW119262   1.197   3.086   5.301
 6121SOL    HW219263   1.308   3.025   5.198
 6122SOL     OW19264   5.348   6.080   5.704
 6122SOL    HW119265   5.392   5.991   5.690
 6122SOL    HW219266   5.383   6.121   5.788
 6123SOL     OW19267   5.956   1.092   5.197
 6123SOL    HW119268   5.980   0.999   5.228
 6123SOL    HW219269   5.980   1.102   5.101
 6124SOL     OW19270   2.193   0.363   4.736
 6124SOL    HW119271   2.279   0.399   4.772
 6124SOL    HW219272   2.116   0.416   4.773
 6125SOL     OW19273   2.025   3.462   6.901
 6125SOL    HW119274   2.079   3.537   6.863
 6125SOL    HW219275   1.959   3.430   6.832
 6126SOL     OW19276   0.321   2.607   4.797
 6126SOL    HW119277   0.306   2.580   4.892
 6126SOL    HW219278   0.285   2.699   4.783
 6127SOL     OW19279   4.234   1.496   1.738
 6127SOL    HW119280   4.322   1.536   1.761
 6127SOL    HW219281   4.165   1.524   1.805
 6128SOL     OW19282   5.783   5.742   0.945
 6128SOL    HW119283   5.863   5.802   0.944
 6128SOL    HW219284   5.790   5.675   0.871
 6129SOL     OW19285   1.919   4.650   3.138
 6129SOL    HW119286   1.869   4.569   3.167
 6129SOL    HW219287   1.981   4.680   3.210
 6130SOL     OW19288   4.915   2.957   1.370
 6130SOL    HW119289   4.975   2.885   1.334
 6130SOL    HW219290   4.920   3.037   1.311
 6131SOL     OW19291   0.114   1.952   2.405
 6131SOL    HW119292   0.163   1.977   2.321
 6131SOL    HW219293   0.176   1.961   2.483
 6132SOL     OW19294   3.182   1.749   6.700
 6132SOL    HW119295   3.091   1.759   6.739
 6132SOL    HW219296   3.203   1.653   6.685
 6133SOL     OW19297   1.692   2.463   4.139
 6133SOL    HW119298   1.780   2.416   4.138
 6133SOL    HW219299   1.619   2.397   4.118
 6134SOL     OW19300   5.170   5.906   6.237
 6134SOL    HW119301   5.215   5.895   6.148
 6134SOL    HW219302   5.118   5.823   6.258
 6135SOL     OW19303   5.461   0.405   0.073
 6135SOL    HW119304   5.541   0.449   0.112
 6135SOL    HW219305   5.425   0.337   0.137
 6136SOL     OW19306   0.912   2.804   2.214
 6136SOL    HW119307   0.898   2.726   2.276
 6136SOL    HW219308   0.896   2.775   2.120
 6137SOL     OW19309   0.416   5.100   3.429
 6137SOL    HW119310   0.317   5.096   3.420
 6137SOL    HW219311   0.458   5.094   3.339
 6138SOL     OW19312   3.520   0.565   1.805
 6138SOL    HW119313   3.589   0.525   1.865
 6138SOL    HW219314   3.485   0.649   1.846
 6139SOL     OW19315   1.169   6.925   5.437
 6139SOL    HW119316   1.185   7.013   5.391
 6139SOL    HW219317   1.227   6.919   5.518
 6140SOL     OW19318   2.205   0.319   3.041
 6140SOL    HW119319   2.219   0.372   2.958
 6140SOL    HW219320   2.294   0.287   3.075
 6141SOL     OW19321   0.052   0.722   5.365
 6141SOL    HW119322   0.030   0.793   5.298
 6141SOL    HW219323   0.100   0.764   5.443
 6142SOL     OW19324   0.513   1.259   0.802
 6142SOL    HW119325   0.535   1.208   0.719
 6142SOL    HW219326   0.515   1.357   0.783
 6143SOL     OW19327   6.241   3.553   6.329
 6143SOL    HW119328   6.186   3.624   6.285
 6143SOL    HW219329   6.286   3.497   6.260
 6144SOL     OW19330   4.632   4.461   2.786
 6144SOL    HW119331   4.547   4.460   2.733
 6144SOL    HW219332   4.618   4.515   2.869
 6145SOL     OW19333   4.918   3.421   4.249
 6145SOL    HW119334   4.851   3.367   4.299
 6145SOL    HW219335   5.005   3.371   4.245
 6146SOL     OW19336   4.013   0.630   4.430
 6146SOL    HW119337   3.919   0.624   4.396
 6146SOL    HW219338   4.064   0.696   4.375
 6147SOL     OW19339   2.280   2.921   4.156
 6147SOL    HW119340   2.360   2.979   4.171
 6147SOL    HW219341   2.273   2.854   4.231
 6148SOL     OW19342   4.093   4.927   0.267
 6148SOL    HW119343   4.014   4.988   0.268
 6148SOL    HW219344   4.137   4.932   0.177
 6149SOL     OW19345   2.747   0.300   2.218
 6149SOL    HW119346   2.798   0.215   2.211
 6149SOL    HW219347   2.804   0.376   2.188
 6150SOL     OW19348   5.967   3.722   6.468
 6150SOL    HW119349   5.922   3.632   6.468
 6150SOL    HW219350   5.991   3.747   6.375
 6151SOL     OW19351   4.930   4.492   4.447
 6151SOL    HW119352   4.900   4.399   4.429
 6151SOL    HW219353   4.853   4.555   4.440
 6152SOL     OW19354   0.664   5.122   3.936
 6152SOL    HW119355   0.674   5.114   4.035
 6152SOL    HW219356   0.596   5.057   3.903
 6153SOL     OW19357   4.849   5.423   0.644
 6153SOL    HW119358   4.860   5.324   0.642
 6153SOL    HW219359   4.807   5.453   0.558
 6154SOL     OW19360   5.579   2.844   2.260
 6154SOL    HW119361   5.537   2.842   2.169
 6154SOL    HW219362   5.663   2.790   2.259
 6155SOL     OW19363   2.267   1.406   3.275
 6155SOL    HW119364   2.341   1.339   3.280
 6155SOL    HW219365   2.305   1.498   3.273
 6156SOL     OW19366   5.467   4.200   1.558
 6156SOL    HW119367   5.477   4.104   1.582
 6156SOL    HW219368   5.387   4.211   1.499
 6157SOL     OW19369   0.707   2.330   3.287
 6157SOL    HW119370   0.701   2.304   3.190
 6157SOL    HW219371   0.726   2.248   3.342
 6158SOL     OW19372   2.434   2.843   5.603
 6158SOL    HW119373   2.508   2.855   5.668
 6158SOL    HW219374   2.414   2.745   5.592
 6159SOL     OW19375   5.847   2.271   6.936
 6159SOL    HW119376   5.839   2.199   7.005
 6159SOL    HW219377   5.849   2.230   6.845
 6160SOL     OW19378   0.556   7.003   6.749
 6160SOL    HW119379   0.534   6.916   6.791
 6160SOL    HW219380   0.500   7.016   6.667
 6161SOL     OW19381   4.950   2.614   6.691
 6161SOL    HW119382   4.967   2.598   6.594
 6161SOL    HW219383   5.033   2.647   6.735
 6162SOL     OW19384   6.583   6.067   2.370
 6162SOL    HW119385   6.528   6.001   2.422
 6162SOL    HW219386   6.553   6.160   2.391
 6163SOL     OW19387   6.031   6.621   2.599
 6163SOL    HW119388   6.001   6.663   2.513
 6163SOL    HW219389   6.042   6.523   2.586
 6164SOL     OW19390   3.864   3.893   4.438
 6164SOL    HW119391   3.802   3.818   4.460
 6164SOL    HW219392   3.951   3.856   4.406
 6165SOL     OW19393   4.294   2.443   0.396
 6165SOL    HW119394   4.289   2.441   0.296
 6165SOL    HW219395   4.220   2.499   0.431
 6166SOL     OW19396   0.658   2.230   6.527
 6166SOL    HW119397   0.676   2.318   6.483
 6166SOL    HW219398   0.730   2.210   6.594
 6167SOL     OW19399   1.669   4.214   3.811
 6167SOL    HW119400   1.663   4.141   3.743
 6167SOL    HW219401   1.738   4.281   3.783
 6168SOL     OW19402   0.192   2.951   3.989
 6168SOL    HW119403   0.182   3.029   4.051
 6168SOL    HW219404   0.179   2.866   4.040
 6169SOL     OW19405   0.870   6.959   6.716
 6169SOL    HW119406   0.818   0.014   6.685
 6169SOL    HW219407   0.948   6.989   6.770
 6170SOL     OW19408   4.025   4.171   0.532
 6170SOL    HW119409   4.005   4.105   0.460
 6170SOL    HW219410   4.083   4.244   0.496
 6171SOL     OW19411   1.120   4.913   2.432
 6171SOL    HW119412   1.082   4.831   2.388
 6171SOL    HW219413   1.140   4.982   2.363
 6172SOL     OW19414   1.278   0.389   2.724
 6172SOL    HW119415   1.261   0.441   2.640
 6172SOL    HW219416   1.225   0.304   2.722
 6173SOL     OW19417   1.274   4.714   3.662
 6173SOL    HW119418   1.296   4.619   3.682
 6173SOL    HW219419   1.293   4.734   3.566
 6174SOL     OW19420   5.627   4.781   2.485
 6174SOL    HW119421   5.538   4.790   2.528
 6174SOL    HW219422   5.635   4.690   2.443
 6175SOL     OW19423   5.378   6.475   2.367
 6175SOL    HW119424   5.444   6.534   2.414
 6175SOL    HW219425   5.285   6.499   2.396
 6176SOL     OW19426   5.685   2.965   6.837
 6176SOL    HW119427   5.743   3.046   6.835
 6176SOL    HW219428   5.717   2.899   6.769
 6177SOL     OW19429   5.440   1.483   1.964
 6177SOL    HW119430   5.410   1.392   1.993
 6177SOL    HW219431   5.484   1.529   2.042
 6178SOL     OW19432   4.828   4.803   1.188
 6178SOL    HW119433   4.904   4.823   1.249
 6178SOL    HW219434   4.862   4.755   1.107
 6179SOL     OW19435   0.406   3.109   4.889
 6179SOL    HW119436   0.484   3.119   4.827
 6179SOL    HW219437   0.428   3.043   4.960
 6180SOL     OW19438   3.603   6.375   0.972
 6180SOL    HW119439   3.642   6.291   0.933
 6180SOL    HW219440   3.676   6.433   1.007
 6181SOL     OW19441   4.983   6.408   6.808
 6181SOL    HW119442   4.946   6.501   6.818
 6181SOL    HW219443   5.026   6.381   6.894
 6182SOL     OW19444   5.628   5.478   5.107
 6182SOL    HW119445   5.660   5.491   5.013
 6182SOL    HW219446   5.528   5.478   5.108
 6183SOL     OW19447   2.395   0.544   2.679
 6183SOL    HW119448   2.431   0.583   2.764
 6183SOL    HW219449   2.468   0.494   2.632
 6184SOL     OW19450   1.465   6.994   6.351
 6184SOL    HW119451   1.482   6.997   6.450
 6184SOL    HW219452   1.389   0.030   6.328
 6185SOL     OW19453   0.303   3.747   6.941
 6185SOL    HW119454   0.247   3.812   6.890
 6185SOL    HW219455   0.354   3.796   7.012
 6186SOL     OW19456   5.641   0.242   3.678
 6186SOL    HW119457   5.731   0.254   3.636
 6186SOL    HW219458   5.570   0.267   3.611
 6187SOL     OW19459   5.155   4.858   3.852
 6187SOL    HW119460   5.152   4.783   3.786
 6187SOL    HW219461   5.093   4.838   3.928
 6188SOL     OW19462   2.588   6.026   1.444
 6188SOL    HW119463   2.574   6.001   1.348
 6188SOL    HW219464   2.633   5.950   1.491
 6189SOL     OW19465   5.295   5.160   2.742
 6189SOL    HW119466   5.247   5.220   2.806
 6189SOL    HW219467   5.374   5.208   2.703
 6190SOL     OW19468   4.739   2.879   6.199
 6190SOL    HW119469   4.686   2.899   6.117
 6190SOL    HW219470   4.797   2.800   6.184
 6191SOL     OW19471   5.510   2.389   0.476
 6191SOL    HW119472   5.515   2.472   0.532
 6191SOL    HW219473   5.560   2.315   0.521
 6192SOL     OW19474   3.167   3.806   0.681
 6192SOL    HW119475   3.230   3.740   0.723
 6192SOL    HW219476   3.181   3.807   0.582
 6193SOL     OW19477   5.389   0.341   2.608
 6193SOL    HW119478   5.400   0.410   2.537
 6193SOL    HW219479   5.463   0.350   2.675
 6194SOL     OW19480   2.402   0.602   1.278
 6194SOL    HW119481   2.363   0.641   1.195
 6194SOL    HW219482   2.383   0.662   1.356
 6195SOL     OW19483   3.897   5.472   6.099
 6195SOL    HW119484   3.901   5.372   6.102
 6195SOL    HW219485   3.966   5.509   6.162
 6196SOL     OW19486   0.761   2.602   5.854
 6196SOL    HW119487   0.823   2.596   5.933
 6196SOL    HW219488   0.798   2.666   5.787
 6197SOL     OW19489   2.647   4.134   0.959
 6197SOL    HW119490   2.628   4.133   1.057
 6197SOL    HW219491   2.745   4.141   0.944
 6198SOL     OW19492   3.553   5.403   3.197
 6198SOL    HW119493   3.560   5.491   3.243
 6198SOL    HW219494   3.458   5.386   3.170
 6199SOL     OW19495   1.034   0.399   1.114
 6199SOL    HW119496   0.946   0.351   1.118
 6199SOL    HW219497   1.081   0.375   1.029
 6200SOL     OW19498   2.712   1.075   6.446
 6200SOL    HW119499   2.694   1.050   6.541
 6200SOL    HW219500   2.641   1.137   6.413
 6201SOL     OW19501   1.799   4.064   5.962
 6201SOL    HW119502   1.708   4.056   6.003
 6201SOL    HW219503   1.860   3.996   6.003
 6202SOL     OW19504   4.014   1.832   1.279
 6202SOL    HW119505   4.000   1.750   1.334
 6202SOL    HW219506   3.938   1.844   1.216
 6203SOL     OW19507   5.110   0.830   3.940
 6203SOL    HW119508   5.080   0.738   3.916
 6203SOL    HW219509   5.199   0.826   3.985
 6204SOL     OW19510   1.009   5.379   5.526
 6204SOL    HW119511   1.037   5.324   5.604
 6204SOL    HW219512   0.975   5.468   5.557
 6205SOL     OW19513   5.449   5.245   0.033
 6205SOL    HW119514   5.546   5.269   0.024
 6205SOL    HW219515   5.424   5.179   6.987
 6206SOL     OW19516   6.924   0.854   1.808
 6206SOL    HW119517   6.914   0.848   1.907
 6206SOL    HW219518   7.001   0.798   1.778
 6207SOL     OW19519   1.034   4.485   5.024
 6207SOL    HW119520   1.015   4.443   4.935
 6207SOL    HW219521   0.947   4.500   5.072
 6208SOL     OW19522   6.591   0.540   5.643
 6208SOL    HW119523   6.544   0.587   5.569
 6208SOL    HW219524   6.643   0.463   5.606
 6209SOL     OW19525   4.604   6.070   0.062
 6209SOL    HW119526   4.555   5.984   0.049
 6209SOL    HW219527   4.665   6.062   0.141
 6210SOL     OW19528   5.278   3.508   2.889
 6210SOL    HW119529   5.269   3.460   2.976
 6210SOL    HW219530   5.348   3.579   2.897
 6211SOL     OW19531   2.486   0.343   6.300
 6211SOL    HW119532   2.470   0.334   6.202
 6211SOL    HW219533   2.569   0.397   6.315
 6212SOL     OW19534   6.807   6.117   3.460
 6212SOL    HW119535   6.802   6.100   3.362
 6212SOL    HW219536   6.738   6.063   3.507
 6213SOL     OW19537   5.787   0.820   0.049
 6213SOL    HW119538   5.865   0.877   0.023
 6213SOL    HW219539   5.819   0.727   0.068
 6214SOL     OW19540   6.191   5.191   2.671
 6214SOL    HW119541   6.104   5.206   2.624
 6214SOL    HW219542   6.179   5.206   2.769
 6215SOL     OW19543   2.967   2.456   0.446
 6215SOL    HW119544   2.960   2.554   0.428
 6215SOL    HW219545   2.904   2.431   0.520
 6216SOL     OW19546   6.110   1.877   1.594
 6216SOL    HW119547   6.146   1.783   1.588
 6216SOL    HW219548   6.084   1.897   1.688
 6217SOL     OW19549   4.612   2.844   1.405
 6217SOL    HW119550   4.689   2.898   1.368
 6217SOL    HW219551   4.600   2.866   1.502
 6218SOL     OW19552   2.319   4.818   4.569
 6218SOL    HW119553   2.254   4.861   4.631
 6218SOL    HW219554   2.379   4.756   4.621
 6219SOL     OW19555   1.696   2.348   4.895
 6219SOL    HW119556   1.613   2.404   4.889
 6219SOL    HW219557   1.696   2.297   4.982
 6220SOL     OW19558   1.778   4.780   6.022
 6220SOL    HW119559   1.840   4.856   6.004
 6220SOL    HW219560   1.772   4.721   5.942
 6221SOL     OW19561   4.701   5.401   4.768
 6221SOL    HW119562   4.713   5.307   4.799
 6221SOL    HW219563   4.642   5.402   4.688
 6222SOL     OW19564   0.010   0.122   1.554
 6222SOL    HW119565   7.009   0.174   1.473
 6222SOL    HW219566   0.104   0.088   1.543
 6223SOL     OW19567   5.789   4.011   4.406
 6223SOL    HW119568   5.740   4.000   4.492
 6223SOL    HW219569   5.781   4.105   4.374
 6224SOL     OW19570   1.582   1.155   5.875
 6224SOL    HW119571   1.648   1.228   5.853
 6224SOL    HW219572   1.546   1.117   5.789
 6225SOL     OW19573   3.555   3.406   1.179
 6225SOL    HW119574   3.595   3.487   1.136
 6225SOL    HW219575   3.578   3.405   1.276
 6226SOL     OW19576   5.864   1.376   3.809
 6226SOL    HW119577   5.869   1.276   3.817
 6226SOL    HW219578   5.769   1.405   3.803
 6227SOL     OW19579   3.228   4.399   5.965
 6227SOL    HW119580   3.208   4.422   6.061
 6227SOL    HW219581   3.325   4.378   5.956
 6228SOL     OW19582   6.651   1.509   2.804
 6228SOL    HW119583   6.747   1.533   2.817
 6228SOL    HW219584   6.627   1.431   2.861
 6229SOL     OW19585   2.531   1.563   2.669
 6229SOL    HW119586   2.621   1.593   2.700
 6229SOL    HW219587   2.482   1.520   2.745
 6230SOL     OW19588   2.745   1.284   4.309
 6230SOL    HW119589   2.778   1.343   4.383
 6230SOL    HW219590   2.648   1.303   4.292
 6231SOL     OW19591   0.021   4.550   0.927
 6231SOL    HW119592   0.068   4.493   0.859
 6231SOL    HW219593   6.949   4.558   0.904
 6232SOL     OW19594   0.345   1.280   0.023
 6232SOL    HW119595   0.271   1.259   6.984
 6232SOL    HW219596   0.389   1.365   7.020
 6233SOL     OW19597   5.384   2.093   6.589
 6233SOL    HW119598   5.437   2.068   6.670
 6233SOL    HW219599   5.326   2.172   6.610
 6234SOL     OW19600   1.529   1.603   4.582
 6234SOL    HW119601   1.467   1.562   4.515
 6234SOL    HW219602   1.568   1.688   4.546
 6235SOL     OW19603   2.008   6.802   3.621
 6235SOL    HW119604   2.054   6.887   3.645
 6235SOL    HW219605   1.932   6.821   3.559
 6236SOL     OW19606   0.227   4.953   1.540
 6236SOL    HW119607   0.291   4.958   1.463
 6236SOL    HW219608   0.133   4.957   1.506
 6237SOL     OW19609   4.271   5.954   0.451
 6237SOL    HW119610   4.309   5.951   0.543
 6237SOL    HW219611   4.311   5.881   0.396
 6238SOL     OW19612   4.801   5.735   1.981
 6238SOL    HW119613   4.851   5.809   1.935
 6238SOL    HW219614   4.847   5.648   1.964
 6239SOL     OW19615   2.756   6.467   2.800
 6239SOL    HW119616   2.686   6.532   2.771
 6239SOL    HW219617   2.825   6.515   2.855
 6240SOL     OW19618   2.518   2.803   0.923
 6240SOL    HW119619   2.530   2.736   0.997
 6240SOL    HW219620   2.517   2.895   0.961
 6241SOL     OW19621   3.286   0.964   2.147
 6241SOL    HW119622   3.294   0.880   2.201
 6241SOL    HW219623   3.305   1.043   2.205
 6242SOL     OW19624   5.186   1.277   3.459
 6242SOL    HW119625   5.109   1.333   3.429
 6242SOL    HW219626   5.201   1.203   3.393
 6243SOL     OW19627   6.149   6.559   3.722
 6243SOL    HW119628   6.083   6.546   3.795
 6243SOL    HW219629   6.124   6.503   3.643
 6244SOL     OW19630   2.570   2.451   2.489
 6244SOL    HW119631   2.646   2.408   2.536
 6244SOL    HW219632   2.549   2.539   2.532
 6245SOL     OW19633   2.723   4.221   1.274
 6245SOL    HW119634   2.781   4.282   1.329
 6245SOL    HW219635   2.667   4.165   1.335
 6246SOL     OW19636   2.629   2.774   6.490
 6246SOL    HW119637   2.539   2.792   6.451
 6246SOL    HW219638   2.617   2.732   6.580
 6247SOL     OW19639   0.262   6.551   4.051
 6247SOL    HW119640   0.311   6.575   4.135
 6247SOL    HW219641   0.175   6.507   4.075
 6248SOL     OW19642   1.006   4.192   1.386
 6248SOL    HW119643   1.021   4.106   1.338
 6248SOL    HW219644   1.049   4.267   1.336
 6249SOL     OW19645   0.122   4.661   0.433
 6249SOL    HW119646   0.077   4.576   0.406
 6249SOL    HW219647   0.221   4.649   0.429
 6250SOL     OW19648   0.023   6.132   0.795
 6250SOL    HW119649   0.070   6.220   0.797
 6250SOL    HW219650   6.963   6.138   0.847
 6251SOL     OW19651   4.382   0.421   1.546
 6251SOL    HW119652   4.444   0.434   1.469
 6251SOL    HW219653   4.391   0.497   1.610
 6252SOL     OW19654   2.111   5.459   4.765
 6252SOL    HW119655   2.165   5.422   4.840
 6252SOL    HW219656   2.169   5.471   4.684
 6253SOL     OW19657   2.392   4.085   1.828
 6253SOL    HW119658   2.324   4.041   1.886
 6253SOL    HW219659   2.397   4.182   1.850
 6254SOL     OW19660   6.100   0.003   6.825
 6254SOL    HW119661   6.076   0.087   6.777
 6254SOL    HW219662   6.188   0.014   6.871
 6255SOL     OW19663   1.234   1.489   1.729
 6255SOL    HW119664   1.291   1.547   1.788
 6255SOL    HW219665   1.153   1.459   1.780
 6256SOL     OW19666   4.099   5.043   2.639
 6256SOL    HW119667   4.185   5.006   2.673
 6256SOL    HW219668   4.062   4.980   2.570
 6257SOL     OW19669   5.572   2.419   1.485
 6257SOL    HW119670   5.580   2.354   1.410
 6257SOL    HW219671   5.502   2.387   1.550
 6258SOL     OW19672   4.081   1.152   2.840
 6258SOL    HW119673   4.140   1.074   2.858
 6258SOL    HW219674   4.114   1.231   2.892
 6259SOL     OW19675   3.005   1.542   1.141
 6259SOL    HW119676   3.064   1.472   1.181
 6259SOL    HW219677   3.036   1.563   1.048
 6260SOL     OW19678   4.134   3.699   0.568
 6260SOL    HW119679   4.191   3.778   0.544
 6260SOL    HW219680   4.110   3.704   0.665
 6261SOL     OW19681   4.135   6.964   6.781
 6261SOL    HW119682   4.084   6.962   6.867
 6261SOL    HW219683   4.179   6.875   6.767
 6262SOL     OW19684   1.686   4.323   0.678
 6262SOL    HW119685   1.708   4.406   0.627
 6262SOL    HW219686   1.587   4.317   0.692
 6263SOL     OW19687   0.071   6.259   6.385
 6263SOL    HW119688   0.134   6.289   6.457
 6263SOL    HW219689   0.121   6.244   6.301
 6264SOL     OW19690   2.571   1.861   1.188
 6264SOL    HW119691   2.648   1.796   1.194
 6264SOL    HW219692   2.485   1.811   1.197
 6265SOL     OW19693   3.707   4.651   1.192
 6265SOL    HW119694   3.707   4.551   1.181
 6265SOL    HW219695   3.618   4.687   1.163
 6266SOL     OW19696   3.848   1.278   3.601
 6266SOL    HW119697   3.811   1.301   3.692
 6266SOL    HW219698   3.948   1.275   3.605
 6267SOL     OW19699   2.858   0.472   0.382
 6267SOL    HW119700   2.801   0.463   0.464
 6267SOL    HW219701   2.828   0.552   0.329
 6268SOL     OW19702   3.027   5.136   3.057
 6268SOL    HW119703   2.962   5.121   2.983
 6268SOL    HW219704   3.079   5.052   3.074
 6269SOL     OW19705   5.973   5.745   2.039
 6269SOL    HW119706   5.895   5.697   2.080
 6269SOL    HW219707   6.058   5.699   2.065
 6270SOL     OW19708   1.753   0.586   5.722
 6270SOL    HW119709   1.762   0.682   5.750
 6270SOL    HW219710   1.657   0.564   5.708
 6271SOL     OW19711   0.328   2.819   6.110
 6271SOL    HW119712   0.305   2.899   6.055
 6271SOL    HW219713   0.398   2.844   6.177
 6272SOL     OW19714   1.433   3.551   4.535
 6272SOL    HW119715   1.339   3.517   4.538
 6272SOL    HW219716   1.463   3.571   4.628
 6273SOL     OW19717   1.750   1.094   1.751
 6273SOL    HW119718   1.762   1.193   1.753
 6273SOL    HW219719   1.659   1.070   1.787
 6274SOL     OW19720   3.116   5.999   6.806
 6274SOL    HW119721   3.110   5.961   6.714
 6274SOL    HW219722   3.125   5.925   6.872
 6275SOL     OW19723   2.771   0.128   5.519
 6275SOL    HW119724   2.738   0.097   5.430
 6275SOL    HW219725   2.706   0.099   5.590
 6276SOL     OW19726   1.166   5.414   3.751
 6276SOL    HW119727   1.128   5.458   3.832
 6276SOL    HW219728   1.117   5.329   3.733
 6277SOL     OW19729   5.028   2.449   2.732
 6277SOL    HW119730   4.996   2.455   2.637
 6277SOL    HW219731   4.950   2.460   2.794
 6278SOL     OW19732   4.657   0.163   4.143
 6278SOL    HW119733   4.648   0.179   4.045
 6278SOL    HW219734   4.599   0.086   4.170
 6279SOL     OW19735   4.173   1.343   0.665
 6279SOL    HW119736   4.185   1.428   0.613
 6279SOL    HW219737   4.078   1.335   0.695
 6280SOL     OW19738   0.644   3.436   5.495
 6280SOL    HW119739   0.637   3.495   5.576
 6280SOL    HW219740   0.568   3.371   5.495
 6281SOL     OW19741   2.162   0.357   5.195
 6281SOL    HW119742   2.133   0.261   5.195
 6281SOL    HW219743   2.169   0.390   5.289
 6282SOL     OW19744   1.526   6.669   5.219
 6282SOL    HW119745   1.516   6.768   5.229
 6282SOL    HW219746   1.435   6.627   5.209
 6283SOL     OW19747   6.870   2.362   5.103
 6283SOL    HW119748   6.956   2.339   5.149
 6283SOL    HW219749   6.888   2.431   5.032
 6284SOL     OW19750   1.486   5.264   5.770
 6284SOL    HW119751   1.546   5.195   5.811
 6284SOL    HW219752   1.443   5.318   5.842
 6285SOL     OW19753   1.180   3.202   4.012
 6285SOL    HW119754   1.188   3.270   4.084
 6285SOL    HW219755   1.251   3.132   4.024
 6286SOL     OW19756   5.787   1.318   3.054
 6286SOL    HW119757   5.688   1.311   3.047
 6286SOL    HW219758   5.826   1.228   3.072
 6287SOL     OW19759   4.785   4.201   1.848
 6287SOL    HW119760   4.843   4.154   1.914
 6287SOL    HW219761   4.694   4.214   1.886
 6288SOL     OW19762   5.449   4.233   0.919
 6288SOL    HW119763   5.373   4.268   0.864
 6288SOL    HW219764   5.422   4.146   0.960
 6289SOL     OW19765   2.341   2.456   3.700
 6289SOL    HW119766   2.305   2.379   3.646
 6289SOL    HW219767   2.357   2.425   3.793
 6290SOL     OW19768   5.233   4.327   4.172
 6290SOL    HW119769   5.193   4.412   4.206
 6290SOL    HW219770   5.270   4.342   4.080
 6291SOL     OW19771   3.805   3.345   3.682
 6291SOL    HW119772   3.778   3.392   3.766
 6291SOL    HW219773   3.884   3.287   3.701
 6292SOL     OW19774   0.891   2.040   3.246
 6292SOL    HW119775   0.947   2.057   3.327
 6292SOL    HW219776   0.945   2.058   3.164
 6293SOL     OW19777   5.441   0.033   6.780
 6293SOL    HW119778   5.386   0.070   6.855
 6293SOL    HW219779   5.509   0.101   6.752
 6294SOL     OW19780   3.259   5.436   2.612
 6294SOL    HW119781   3.269   5.466   2.707
 6294SOL    HW219782   3.198   5.357   2.609
 6295SOL     OW19783   5.517   5.825   5.712
 6295SOL    HW119784   5.608   5.789   5.690
 6295SOL    HW219785   5.474   5.768   5.781
 6296SOL     OW19786   6.339   0.819   3.201
 6296SOL    HW119787   6.417   0.769   3.239
 6296SOL    HW219788   6.280   0.850   3.276
 6297SOL     OW19789   5.194   6.330   5.941
 6297SOL    HW119790   5.166   6.258   5.877
 6297SOL    HW219791   5.249   6.289   6.014
 6298SOL     OW19792   1.102   3.435   5.677
 6298SOL    HW119793   1.151   3.519   5.702
 6298SOL    HW219794   1.144   3.357   5.724
 6299SOL     OW19795   6.120   2.331   6.382
 6299SOL    HW119796   6.198   2.373   6.336
 6299SOL    HW219797   6.115   2.363   6.476
 6300SOL     OW19798   5.544   0.692   4.453
 6300SOL    HW119799   5.502   0.745   4.527
 6300SOL    HW219800   5.624   0.644   4.488
 6301SOL     OW19801   2.724   6.468   1.145
 6301SOL    HW119802   2.781   6.488   1.225
 6301SOL    HW219803   2.734   6.372   1.120
 6302SOL     OW19804   1.757   0.982   3.842
 6302SOL    HW119805   1.795   1.056   3.896
 6302SOL    HW219806   1.760   1.007   3.745
 6303SOL     OW19807   2.199   0.032   5.228
 6303SOL    HW119808   2.214   0.038   5.129
 6303SOL    HW219809   2.224   6.965   5.259
 6304SOL     OW19810   3.523   0.680   0.839
 6304SOL    HW119811   3.528   0.669   0.938
 6304SOL    HW219812   3.574   0.762   0.812
 6305SOL     OW19813   6.567   6.898   1.221
 6305SOL    HW119814   6.494   6.883   1.289
 6305SOL    HW219815   6.655   6.869   1.260
 6306SOL     OW19816   6.595   2.978   3.876
 6306SOL    HW119817   6.518   2.972   3.812
 6306SOL    HW219818   6.563   3.012   3.964
 6307SOL     OW19819   2.759   5.163   5.796
 6307SOL    HW119820   2.849   5.190   5.828
 6307SOL    HW219821   2.719   5.236   5.741
 6308SOL     OW19822   2.198   1.845   5.263
 6308SOL    HW119823   2.191   1.852   5.164
 6308SOL    HW219824   2.168   1.931   5.305
 6309SOL     OW19825   4.743   2.246   3.963
 6309SOL    HW119826   4.791   2.197   4.036
 6309SOL    HW219827   4.671   2.187   3.925
 6310SOL     OW19828   1.312   4.858   4.637
 6310SOL    HW119829   1.405   4.837   4.604
 6310SOL    HW219830   1.303   4.828   4.732
 6311SOL     OW19831   6.993   0.599   4.562
 6311SOL    HW119832   0.013   0.546   4.490
 6311SOL    HW219833   6.907   0.637   4.527
 6312SOL     OW19834   4.618   5.019   6.588
 6312SOL    HW119835   4.650   4.928   6.617
 6312SOL    HW219836   4.698   5.077   6.570
 6313SOL     OW19837   1.896   5.522   3.714
 6313SOL    HW119838   1.884   5.513   3.813
 6313SOL    HW219839   1.809   5.547   3.672
 6314SOL     OW19840   2.801   5.920   2.575
 6314SOL    HW119841   2.721   5.865   2.599
 6314SOL    HW219842   2.780   6.017   2.588
 6315SOL     OW19843   4.243   3.307   6.866
 6315SOL    HW119844   4.324   3.330   6.813
 6315SOL    HW219845   4.204   3.221   6.833
 6316SOL     OW19846   4.717   2.090   6.124
 6316SOL    HW119847   4.674   2.064   6.038
 6316SOL    HW219848   4.807   2.048   6.131
 6317SOL     OW19849   4.868   6.797   2.778
 6317SOL    HW119850   4.771   6.797   2.804
 6317SOL    HW219851   4.924   6.822   2.857
 6318SOL     OW19852   2.637   2.373   5.866
 6318SOL    HW119853   2.650   2.419   5.954
 6318SOL    HW219854   2.605   2.439   5.798
 6319SOL     OW19855   0.575   3.433   3.669
 6319SOL    HW119856   0.538   3.437   3.576
 6319SOL    HW219857   0.641   3.359   3.675
 6320SOL     OW19858   6.161   3.851   3.103
 6320SOL    HW119859   6.231   3.804   3.156
 6320SOL    HW219860   6.106   3.784   3.053
 6321SOL     OW19861   2.812   5.594   0.690
 6321SOL    HW119862   2.775   5.685   0.705
 6321SOL    HW219863   2.817   5.576   0.592
 6322SOL     OW19864   1.443   1.415   6.902
 6322SOL    HW119865   1.508   1.484   6.934
 6322SOL    HW219866   1.355   1.429   6.946
 6323SOL     OW19867   3.348   2.296   1.728
 6323SOL    HW119868   3.441   2.316   1.760
 6323SOL    HW219869   3.335   2.197   1.722
 6324SOL     OW19870   4.299   0.678   5.483
 6324SOL    HW119871   4.260   0.755   5.431
 6324SOL    HW219872   4.306   0.704   5.579
 6325SOL     OW19873   0.635   2.842   2.230
 6325SOL    HW119874   0.735   2.836   2.227
 6325SOL    HW219875   0.608   2.932   2.264
 6326SOL     OW19876   5.484   5.724   1.271
 6326SOL    HW119877   5.583   5.733   1.257
 6326SOL    HW219878   5.437   5.804   1.235
 6327SOL     OW19879   5.709   5.960   5.172
 6327SOL    HW119880   5.696   5.866   5.205
 6327SOL    HW219881   5.642   5.979   5.100
 6328SOL     OW19882   1.561   4.449   0.042
 6328SOL    HW119883   1.649   4.437   7.021
 6328SOL    HW219884   1.576   4.478   0.136
 6329SOL     OW19885   1.802   1.099   3.603
 6329SOL    HW119886   1.753   1.068   3.522
 6329SOL    HW219887   1.887   1.145   3.576
 6330SOL     OW19888   4.625   0.882   0.550
 6330SOL    HW119889   4.542   0.935   0.529
 6330SOL    HW219890   4.695   0.902   0.482
 6331SOL     OW19891   6.477   2.006   0.929
 6331SOL    HW119892   6.565   1.992   0.974
 6331SOL    HW219893   6.475   1.953   0.844
 6332SOL     OW19894   6.252   5.608   1.717
 6332SOL    HW119895   6.183   5.677   1.741
 6332SOL    HW219896   6.208   5.534   1.665
 6333SOL     OW19897   3.198   5.363   3.729
 6333SOL    HW119898   3.224   5.269   3.749
 6333SOL    HW219899   3.163   5.407   3.812
 6334SOL     OW19900   2.636   7.011   2.768
 6334SOL    HW119901   2.609   6.917   2.788
 6334SOL    HW219902   2.589   0.048   2.830
 6335SOL     OW19903   6.189   1.539   6.937
 6335SOL    HW119904   6.184   1.561   6.840
 6335SOL    HW219905   6.185   1.623   6.991
 6336SOL     OW19906   6.964   2.648   4.672
 6336SOL    HW119907   6.872   2.617   4.648
 6336SOL    HW219908   6.990   2.723   4.611
 6337SOL     OW19909   5.189   3.184   5.908
 6337SOL    HW119910   5.246   3.253   5.950
 6337SOL    HW219911   5.094   3.196   5.937
 6338SOL     OW19912   2.412   1.813   2.223
 6338SOL    HW119913   2.464   1.755   2.286
 6338SOL    HW219914   2.468   1.836   2.144
 6339SOL     OW19915   0.732   2.744   3.562
 6339SOL    HW119916   0.726   2.835   3.520
 6339SOL    HW219917   0.657   2.687   3.529
 6340SOL     OW19918   2.809   5.522   3.961
 6340SOL    HW119919   2.769   5.526   4.053
 6340SOL    HW219920   2.738   5.503   3.894
 6341SOL     OW19921   6.751   5.174   3.581
 6341SOL    HW119922   6.780   5.205   3.672
 6341SOL    HW219923   6.668   5.120   3.589
 6342SOL     OW19924   2.404   2.695   2.592
 6342SOL    HW119925   2.359   2.785   2.601
 6342SOL    HW219926   2.334   2.625   2.579
 6343SOL     OW19927   4.113   2.547   6.927
 6343SOL    HW119928   4.118   2.605   6.846
 6343SOL    HW219929   4.141   2.454   6.903
 6344SOL     OW19930   0.217   3.653   5.264
 6344SOL    HW119931   0.273   3.681   5.187
 6344SOL    HW219932   0.243   3.705   5.345
 6345SOL     OW19933   3.867   1.709   2.543
 6345SOL    HW119934   3.777   1.667   2.554
 6345SOL    HW219935   3.938   1.638   2.548
 6346SOL     OW19936   0.099   3.374   3.593
 6346SOL    HW119937   0.036   3.353   3.518
 6346SOL    HW219938   0.179   3.314   3.588
 6347SOL     OW19939   2.932   0.162   1.220
 6347SOL    HW119940   2.854   0.158   1.282
 6347SOL    HW219941   2.988   0.080   1.231
 6348SOL     OW19942   0.822   3.477   4.858
 6348SOL    HW119943   0.848   3.437   4.947
 6348SOL    HW219944   0.897   3.464   4.793
 6349SOL     OW19945   3.007   0.626   1.718
 6349SOL    HW119946   3.021   0.565   1.639
 6349SOL    HW219947   3.078   0.608   1.786
 6350SOL     OW19948   1.433   5.742   2.991
 6350SOL    HW119949   1.361   5.703   2.933
 6350SOL    HW219950   1.458   5.676   3.062
 6351SOL     OW19951   0.089   2.574   2.362
 6351SOL    HW119952   0.062   2.513   2.436
 6351SOL    HW219953   0.011   2.590   2.301
 6352SOL     OW19954   1.278   5.024   3.424
 6352SOL    HW119955   1.345   4.952   3.409
 6352SOL    HW219956   1.201   4.987   3.477
 6353SOL     OW19957   0.268   0.172   6.689
 6353SOL    HW119958   0.316   0.123   6.616
 6353SOL    HW219959   0.225   0.106   6.750
 6354SOL     OW19960   1.013   6.821   2.286
 6354SOL    HW119961   1.008   6.888   2.361
 6354SOL    HW219962   0.934   6.760   2.290
 6355SOL     OW19963   1.707   3.522   3.759
 6355SOL    HW119964   1.625   3.486   3.805
 6355SOL    HW219965   1.712   3.621   3.772
 6356SOL     OW19966   5.070   4.874   1.290
 6356SOL    HW119967   5.140   4.875   1.218
 6356SOL    HW219968   5.101   4.931   1.367
 6357SOL     OW19969   4.543   3.070   0.805
 6357SOL    HW119970   4.481   3.093   0.730
 6357SOL    HW219971   4.495   3.083   0.892
 6358SOL     OW19972   6.992   2.680   3.943
 6358SOL    HW119973   7.007   2.625   3.861
 6358SOL    HW219974   0.050   2.677   4.000
 6359SOL     OW19975   6.861   0.517   5.373
 6359SOL    HW119976   6.848   0.445   5.442
 6359SOL    HW219977   6.958   0.539   5.366
 6360SOL     OW19978   2.581   4.736   4.498
 6360SOL    HW119979   2.548   4.652   4.453
 6360SOL    HW219980   2.539   4.816   4.454
 6361SOL     OW19981   4.252   5.312   6.400
 6361SOL    HW119982   4.346   5.285   6.423
 6361SOL    HW219983   4.192   5.233   6.407
 6362SOL     OW19984   6.049   4.651   6.661
 6362SOL    HW119985   6.021   4.706   6.583
 6362SOL    HW219986   6.081   4.711   6.735
 6363SOL     OW19987   2.172   6.264   4.427
 6363SOL    HW119988   2.098   6.212   4.468
 6363SOL    HW219989   2.226   6.308   4.499
 6364SOL     OW19990   2.974   2.040   5.493
 6364SOL    HW119991   2.876   2.054   5.478
 6364SOL    HW219992   3.015   2.123   5.531
 6365SOL     OW19993   4.702   7.003   3.340
 6365SOL    HW119994   4.761   0.057   3.325
 6365SOL    HW219995   4.756   6.928   3.378
 6366SOL     OW19996   0.896   5.103   5.348
 6366SOL    HW119997   0.895   5.175   5.418
 6366SOL    HW219998   0.802   5.073   5.330
 6367SOL     OW19999   4.967   0.377   3.329
 6367SOL    HW120000   4.970   0.370   3.428
 6367SOL    HW220001   4.895   0.441   3.302
 6368SOL     OW20002   3.214   0.015   4.286
 6368SOL    HW120003   3.297   0.035   4.337
 6368SOL    HW220004   3.223   6.951   4.241
 6369SOL     OW20005   2.678   5.376   4.564
 6369SOL    HW120006   2.641   5.308   4.627
 6369SOL    HW220007   2.760   5.417   4.605
 6370SOL     OW20008   0.157   1.965   1.877
 6370SOL    HW120009   0.114   1.985   1.789
 6370SOL    HW220010   0.254   1.942   1.863
 6371SOL     OW20011   4.843   2.583   2.911
 6371SOL    HW120012   4.778   2.569   2.836
 6371SOL    HW220013   4.802   2.552   2.996
 6372SOL     OW20014   3.102   6.312   2.199
 6372SOL    HW120015   3.046   6.242   2.155
 6372SOL    HW220016   3.098   6.397   2.147
 6373SOL     OW20017   5.486   4.604   5.416
 6373SOL    HW120018   5.390   4.608   5.387
 6373SOL    HW220019   5.496   4.652   5.503
 6374SOL     OW20020   2.954   3.291   3.497
 6374SOL    HW120021   2.874   3.261   3.549
 6374SOL    HW220022   2.929   3.304   3.401
 6375SOL     OW20023   1.319   0.461   2.986
 6375SOL    HW120024   1.296   0.455   2.888
 6375SOL    HW220025   1.286   0.379   3.033
 6376SOL     OW20026   0.422   1.565   4.393
 6376SOL    HW120027   0.332   1.609   4.389
 6376SOL    HW220028   0.438   1.515   4.307
 6377SOL     OW20029   0.299   1.238   4.962
 6377SOL    HW120030   0.366   1.197   4.900
 6377SOL    HW220031   0.253   1.314   4.915
 6378SOL     OW20032   4.941   4.351   4.061
 6378SOL    HW120033   4.990   4.404   4.130
 6378SOL    HW220034   4.984   4.364   3.972
 6379SOL     OW20035   2.472   4.738   3.813
 6379SOL    HW120036   2.376   4.713   3.827
 6379SOL    HW220037   2.499   4.808   3.880
 6380SOL     OW20038   0.557   0.959   5.604
 6380SOL    HW120039   0.508   0.988   5.522
 6380SOL    HW220040   0.598   1.039   5.648
 6381SOL     OW20041   3.336   3.700   2.592
 6381SOL    HW120042   3.240   3.686   2.567
 6381SOL    HW220043   3.344   3.774   2.658
 6382SOL     OW20044   1.227   2.577   6.139
 6382SOL    HW120045   1.301   2.540   6.083
 6382SOL    HW220046   1.139   2.545   6.103
 6383SOL     OW20047   2.326   2.072   4.013
 6383SOL    HW120048   2.333   2.156   3.960
 6383SOL    HW220049   2.331   2.093   4.110
 6384SOL     OW20050   5.753   5.418   2.443
 6384SOL    HW120051   5.677   5.379   2.390
 6384SOL    HW220052   5.727   5.508   2.477
 6385SOL     OW20053   6.364   5.276   4.142
 6385SOL    HW120054   6.331   5.227   4.061
 6385SOL    HW220055   6.421   5.353   4.113
 6386SOL     OW20056   2.594   5.214   0.963
 6386SOL    HW120057   2.641   5.276   0.901
 6386SOL    HW220058   2.496   5.216   0.945
 6387SOL     OW20059   0.421   2.164   5.909
 6387SOL    HW120060   0.478   2.082   5.913
 6387SOL    HW220061   0.478   2.245   5.921
 6388SOL     OW20062   3.515   4.746   1.508
 6388SOL    HW120063   3.428   4.781   1.542
 6388SOL    HW220064   3.499   4.665   1.452
 6389SOL     OW20065   0.997   5.800   3.016
 6389SOL    HW120066   0.921   5.795   3.081
 6389SOL    HW220067   1.007   5.713   2.968
 6390SOL     OW20068   0.191   2.519   3.255
 6390SOL    HW120069   0.161   2.478   3.342
 6390SOL    HW220070   0.252   2.456   3.208
 6391SOL     OW20071   3.448   1.420   0.373
 6391SOL    HW120072   3.515   1.470   0.318
 6391SOL    HW220073   3.361   1.471   0.374
 6392SOL     OW20074   1.921   6.720   4.039
 6392SOL    HW120075   1.969   6.682   3.960
 6392SOL    HW220076   1.927   6.656   4.116
 6393SOL     OW20077   5.641   6.602   0.979
 6393SOL    HW120078   5.651   6.701   0.964
 6393SOL    HW220079   5.591   6.587   1.064
 6394SOL     OW20080   2.603   5.053   0.678
 6394SOL    HW120081   2.595   4.971   0.734
 6394SOL    HW220082   2.698   5.085   0.679
 6395SOL     OW20083   5.787   1.545   1.156
 6395SOL    HW120084   5.867   1.527   1.213
 6395SOL    HW220085   5.806   1.623   1.096
 6396SOL     OW20086   4.739   2.440   6.012
 6396SOL    HW120087   4.662   2.487   6.055
 6396SOL    HW220088   4.726   2.341   6.017
 6397SOL     OW20089   0.417   2.189   6.761
 6397SOL    HW120090   0.449   2.261   6.823
 6397SOL    HW220091   0.432   2.218   6.666
 6398SOL     OW20092   2.953   0.884   1.794
 6398SOL    HW120093   3.027   0.909   1.731
 6398SOL    HW220094   2.954   0.786   1.810
 6399SOL     OW20095   1.932   5.784   6.926
 6399SOL    HW120096   2.026   5.798   6.956
 6399SOL    HW220097   1.883   5.871   6.925
 6400SOL     OW20098   2.579   5.538   3.768
 6400SOL    HW120099   2.488   5.509   3.739
 6400SOL    HW220100   2.570   5.616   3.831
 6401SOL     OW20101   0.107   4.989   3.645
 6401SOL    HW120102   0.092   4.895   3.676
 6401SOL    HW220103   0.096   4.993   3.546
 6402SOL     OW20104   2.961   0.763   3.101
 6402SOL    HW120105   2.980   0.861   3.106
 6402SOL    HW220106   3.045   0.711   3.116
 6403SOL     OW20107   1.196   4.347   0.247
 6403SOL    HW120108   1.255   4.428   0.240
 6403SOL    HW220109   1.115   4.370   0.301
 6404SOL     OW20110   4.179   2.026   3.392
 6404SOL    HW120111   4.237   1.999   3.315
 6404SOL    HW220112   4.161   2.125   3.386
 6405SOL     OW20113   2.055   1.851   2.658
 6405SOL    HW120114   2.052   1.932   2.600
 6405SOL    HW220115   2.132   1.858   2.721
 6406SOL     OW20116   2.110   1.115   3.987
 6406SOL    HW120117   2.165   1.129   3.905
 6406SOL    HW220118   2.098   1.018   4.004
 6407SOL     OW20119   3.092   6.754   4.665
 6407SOL    HW120120   3.034   6.769   4.585
 6407SOL    HW220121   3.072   6.824   4.734
 6408SOL     OW20122   5.657   1.783   6.671
 6408SOL    HW120123   5.596   1.707   6.693
 6408SOL    HW220124   5.731   1.787   6.737
 6409SOL     OW20125   6.511   3.638   2.911
 6409SOL    HW120126   6.611   3.643   2.918
 6409SOL    HW220127   6.486   3.599   2.823
 6410SOL     OW20128   1.476   1.596   0.557
 6410SOL    HW120129   1.435   1.642   0.479
 6410SOL    HW220130   1.561   1.551   0.527
 6411SOL     OW20131   1.114   1.138   3.330
 6411SOL    HW120132   1.203   1.109   3.364
 6411SOL    HW220133   1.043   1.120   3.399
 6412SOL     OW20134   0.020   2.597   5.291
 6412SOL    HW120135   0.114   2.631   5.301
 6412SOL    HW220136   0.022   2.501   5.264
 6413SOL     OW20137   6.087   5.334   2.000
 6413SOL    HW120138   6.041   5.335   1.912
 6413SOL    HW220139   6.019   5.329   2.074
 6414SOL     OW20140   5.823   0.412   0.927
 6414SOL    HW120141   5.749   0.441   0.865
 6414SOL    HW220142   5.835   0.480   0.999
 6415SOL     OW20143   2.229   2.372   2.246
 6415SOL    HW120144   2.240   2.272   2.250
 6415SOL    HW220145   2.317   2.413   2.220
 6416SOL     OW20146   0.742   6.839   6.957
 6416SOL    HW120147   0.644   6.819   6.954
 6416SOL    HW220148   0.772   6.873   6.868
 6417SOL     OW20149   0.508   0.084   3.401
 6417SOL    HW120150   0.426   0.050   3.355
 6417SOL    HW220151   0.484   0.164   3.456
 6418SOL     OW20152   6.570   5.290   2.552
 6418SOL    HW120153   6.563   5.309   2.649
 6418SOL    HW220154   6.538   5.370   2.500
 6419SOL     OW20155   3.642   5.176   1.922
 6419SOL    HW120156   3.695   5.119   1.985
 6419SOL    HW220157   3.700   5.205   1.846
 6420SOL     OW20158   3.077   3.405   6.504
 6420SOL    HW120159   3.062   3.503   6.493
 6420SOL    HW220160   3.157   3.390   6.563
 6421SOL     OW20161   5.792   0.383   1.329
 6421SOL    HW120162   5.717   0.448   1.332
 6421SOL    HW220163   5.757   0.291   1.347
 6422SOL     OW20164   6.478   0.753   2.959
 6422SOL    HW120165   6.549   0.820   2.937
 6422SOL    HW220166   6.428   0.783   3.040
 6423SOL     OW20167   4.679   3.615   0.819
 6423SOL    HW120168   4.720   3.552   0.754
 6423SOL    HW220169   4.583   3.591   0.832
 6424SOL     OW20170   6.316   3.946   6.357
 6424SOL    HW120171   6.345   4.022   6.299
 6424SOL    HW220172   6.335   3.967   6.453
 6425SOL     OW20173   6.917   4.805   2.844
 6425SOL    HW120174   6.836   4.747   2.840
 6425SOL    HW220175   6.998   4.751   2.819
 6426SOL     OW20176   1.245   3.144   3.632
 6426SOL    HW120177   1.294   3.082   3.571
 6426SOL    HW220178   1.161   3.099   3.664
 6427SOL     OW20179   1.407   3.706   6.222
 6427SOL    HW120180   1.394   3.803   6.243
 6427SOL    HW220181   1.500   3.679   6.244
 6428SOL     OW20182   6.627   3.762   2.241
 6428SOL    HW120183   6.657   3.744   2.147
 6428SOL    HW220184   6.686   3.711   2.305
 6429SOL     OW20185   1.946   0.866   4.798
 6429SOL    HW120186   1.874   0.796   4.792
 6429SOL    HW220187   1.904   0.957   4.796
 6430SOL     OW20188   4.792   1.190   1.742
 6430SOL    HW120189   4.856   1.165   1.670
 6430SOL    HW220190   4.778   1.111   1.802
 6431SOL     OW20191   4.957   6.763   3.180
 6431SOL    HW120192   5.001   6.691   3.128
 6431SOL    HW220193   4.862   6.773   3.150
 6432SOL     OW20194   4.487   3.400   0.690
 6432SOL    HW120195   4.425   3.409   0.768
 6432SOL    HW220196   4.488   3.304   0.660
 6433SOL     OW20197   3.230   4.396   1.310
 6433SOL    HW120198   3.173   4.468   1.350
 6433SOL    HW220199   3.266   4.338   1.383
 6434SOL     OW20200   1.028   3.943   1.233
 6434SOL    HW120201   0.942   3.951   1.284
 6434SOL    HW220202   1.078   3.863   1.265
 6435SOL     OW20203   3.796   5.054   0.200
 6435SOL    HW120204   3.699   5.044   0.178
 6435SOL    HW220205   3.848   5.063   0.115
 6436SOL     OW20206   1.921   3.400   3.426
 6436SOL    HW120207   1.822   3.409   3.432
 6436SOL    HW220208   1.958   3.379   3.516
 6437SOL     OW20209   0.881   0.358   6.857
 6437SOL    HW120210   0.807   0.292   6.872
 6437SOL    HW220211   0.940   0.360   6.937
 6438SOL     OW20212   0.858   4.063   4.760
 6438SOL    HW120213   0.952   4.097   4.764
 6438SOL    HW220214   0.858   3.967   4.731
 6439SOL     OW20215   0.949   6.814   0.375
 6439SOL    HW120216   0.913   6.888   0.317
 6439SOL    HW220217   1.034   6.779   0.335
 6440SOL     OW20218   1.577   2.212   2.000
 6440SOL    HW120219   1.592   2.290   1.940
 6440SOL    HW220220   1.664   2.182   2.039
 6441SOL     OW20221   1.572   1.035   2.934
 6441SOL    HW120222   1.630   0.990   3.002
 6441SOL    HW220223   1.605   1.128   2.919
 6442SOL     OW20224   2.349   1.805   4.441
 6442SOL    HW120225   2.375   1.857   4.360
 6442SOL    HW220226   2.384   1.850   4.522
 6443SOL     OW20227   2.625   3.017   0.563
 6443SOL    HW120228   2.685   2.949   0.604
 6443SOL    HW220229   2.542   3.027   0.619
 6444SOL     OW20230   0.804   1.764   3.066
 6444SOL    HW120231   0.763   1.715   2.990
 6444SOL    HW220232   0.772   1.726   3.152
 6445SOL     OW20233   4.210   2.682   5.412
 6445SOL    HW120234   4.179   2.617   5.342
 6445SOL    HW220235   4.236   2.633   5.494
 6446SOL     OW20236   6.745   1.246   6.128
 6446SOL    HW120237   6.653   1.275   6.156
 6446SOL    HW220238   6.746   1.225   6.031
 6447SOL     OW20239   1.977   6.335   2.735
 6447SOL    HW120240   2.030   6.275   2.675
 6447SOL    HW220241   2.010   6.326   2.829
 6448SOL     OW20242   6.389   3.052   2.507
 6448SOL    HW120243   6.307   3.012   2.549
 6448SOL    HW220244   6.444   2.980   2.465
 6449SOL     OW20245   3.692   3.827   1.463
 6449SOL    HW120246   3.601   3.848   1.426
 6449SOL    HW220247   3.736   3.911   1.494
 6450SOL     OW20248   6.343   3.138   1.478
 6450SOL    HW120249   6.423   3.083   1.458
 6450SOL    HW220250   6.368   3.214   1.538
 6451SOL     OW20251   2.951   6.317   5.329
 6451SOL    HW120252   2.951   6.217   5.318
 6451SOL    HW220253   3.007   6.358   5.257
 6452SOL     OW20254   3.432   6.828   4.959
 6452SOL    HW120255   3.444   6.907   4.900
 6452SOL    HW220256   3.519   6.779   4.966
 6453SOL     OW20257   1.440   6.264   0.413
 6453SOL    HW120258   1.347   6.228   0.426
 6453SOL    HW220259   1.435   6.360   0.387
 6454SOL     OW20260   3.121   1.962   4.415
 6454SOL    HW120261   3.076   1.906   4.485
 6454SOL    HW220262   3.110   2.059   4.439
 6455SOL     OW20263   0.240   2.861   4.727
 6455SOL    HW120264   0.308   2.913   4.778
 6455SOL    HW220265   0.151   2.906   4.735
 6456SOL     OW20266   1.126   0.106   3.420
 6456SOL    HW120267   1.039   0.102   3.372
 6456SOL    HW220268   1.172   0.192   3.397
 6457SOL     OW20269   6.354   2.168   1.832
 6457SOL    HW120270   6.261   2.155   1.795
 6457SOL    HW220271   6.350   2.171   1.931
 6458SOL     OW20272   1.473   5.463   3.157
 6458SOL    HW120273   1.406   5.527   3.194
 6458SOL    HW220274   1.565   5.496   3.177
 6459SOL     OW20275   6.586   4.996   0.314
 6459SOL    HW120276   6.625   4.941   0.388
 6459SOL    HW220277   6.579   5.091   0.344
 6460SOL     OW20278   4.508   4.385   6.977
 6460SOL    HW120279   4.473   4.294   6.955
 6460SOL    HW220280   4.529   4.390   0.050
 6461SOL     OW20281   2.723   5.819   5.710
 6461SOL    HW120282   2.713   5.768   5.795
 6461SOL    HW220283   2.806   5.789   5.662
 6462SOL     OW20284   2.193   3.008   5.236
 6462SOL    HW120285   2.268   2.989   5.172
 6462SOL    HW220286   2.182   3.107   5.245
 6463SOL     OW20287   2.400   4.897   6.631
 6463SOL    HW120288   2.338   4.883   6.708
 6463SOL    HW220289   2.438   4.810   6.602
 6464SOL     OW20290   0.236   5.434   3.717
 6464SOL    HW120291   0.213   5.336   3.716
 6464SOL    HW220292   0.204   5.475   3.803
 6465SOL     OW20293   5.767   1.861   4.216
 6465SOL    HW120294   5.788   1.847   4.119
 6465SOL    HW220295   5.852   1.871   4.267
 6466SOL     OW20296   6.894   2.561   4.902
 6466SOL    HW120297   6.814   2.575   4.843
 6466SOL    HW220298   6.972   2.611   4.863
 6467SOL     OW20299   2.277   1.346   0.025
 6467SOL    HW120300   2.310   1.266   7.001
 6467SOL    HW220301   2.197   1.322   0.079
 6468SOL     OW20302   4.488   6.358   1.658
 6468SOL    HW120303   4.530   6.296   1.591
 6468SOL    HW220304   4.451   6.438   1.611
 6469SOL     OW20305   6.356   1.216   5.042
 6469SOL    HW120306   6.421   1.217   4.967
 6469SOL    HW220307   6.270   1.175   5.011
 6470SOL     OW20308   6.546   6.707   5.513
 6470SOL    HW120309   6.502   6.617   5.511
 6470SOL    HW220310   6.640   6.699   5.481
 6471SOL     OW20311   0.045   5.418   6.578
 6471SOL    HW120312   0.132   5.426   6.626
 6471SOL    HW220313   0.055   5.353   6.503
 6472SOL     OW20314   0.645   5.957   1.747
 6472SOL    HW120315   0.547   5.946   1.766
 6472SOL    HW220316   0.698   5.916   1.821
 6473SOL     OW20317   2.197   1.167   6.069
 6473SOL    HW120318   2.158   1.139   6.157
 6473SOL    HW220319   2.297   1.161   6.073
 6474SOL     OW20320   1.217   3.526   6.132
 6474SOL    HW120321   1.280   3.598   6.158
 6474SOL    HW220322   1.198   3.467   6.211
 6475SOL     OW20323   5.307   6.349   3.603
 6475SOL    HW120324   5.283   6.338   3.700
 6475SOL    HW220325   5.294   6.262   3.556
 6476SOL     OW20326   4.469   4.630   2.931
 6476SOL    HW120327   4.413   4.592   2.857
 6476SOL    HW220328   4.503   4.720   2.904
 6477SOL     OW20329   6.310   5.412   6.494
 6477SOL    HW120330   6.226   5.376   6.534
 6477SOL    HW220331   6.317   5.510   6.511
 6478SOL     OW20332   3.846   5.738   2.354
 6478SOL    HW120333   3.893   5.698   2.432
 6478SOL    HW220334   3.752   5.703   2.350
 6479SOL     OW20335   4.504   4.827   1.930
 6479SOL    HW120336   4.588   4.821   1.876
 6479SOL    HW220337   4.425   4.823   1.869
 6480SOL     OW20338   3.301   2.515   6.101
 6480SOL    HW120339   3.285   2.609   6.132
 6480SOL    HW220340   3.346   2.516   6.012
 6481SOL     OW20341   3.752   1.551   1.531
 6481SOL    HW120342   3.735   1.634   1.584
 6481SOL    HW220343   3.669   1.495   1.530
 6482SOL     OW20344   6.705   0.328   6.733
 6482SOL    HW120345   6.673   0.235   6.715
 6482SOL    HW220346   6.805   0.329   6.729
 6483SOL     OW20347   1.946   6.599   2.683
 6483SOL    HW120348   1.942   6.500   2.697
 6483SOL    HW220349   1.853   6.636   2.684
 6484SOL     OW20350   4.677   0.199   2.523
 6484SOL    HW120351   4.641   0.173   2.433
 6484SOL    HW220352   4.715   0.119   2.568
 6485SOL     OW20353   1.829   3.197   3.960
 6485SOL    HW120354   1.810   3.276   3.901
 6485SOL    HW220355   1.909   3.149   3.925
 6486SOL     OW20356   0.706   4.203   4.246
 6486SOL    HW120357   0.748   4.138   4.183
 6486SOL    HW220358   0.726   4.176   4.340
 6487SOL     OW20359   6.274   6.596   4.168
 6487SOL    HW120360   6.226   6.549   4.242
 6487SOL    HW220361   6.355   6.641   4.205
 6488SOL     OW20362   3.185   5.860   5.743
 6488SOL    HW120363   3.255   5.931   5.751
 6488SOL    HW220364   3.142   5.845   5.832
 6489SOL     OW20365   2.146   2.329   6.685
 6489SOL    HW120366   2.223   2.267   6.697
 6489SOL    HW220367   2.156   2.407   6.745
 6490SOL     OW20368   3.936   2.827   0.484
 6490SOL    HW120369   3.860   2.892   0.484
 6490SOL    HW220370   4.002   2.853   0.414
 6491SOL     OW20371   4.537   1.124   6.140
 6491SOL    HW120372   4.578   1.168   6.060
 6491SOL    HW220373   4.511   1.195   6.206
 6492SOL     OW20374   6.398   6.453   0.188
 6492SOL    HW120375   6.444   6.461   0.100
 6492SOL    HW220376   6.453   6.497   0.259
 6493SOL     OW20377   1.959   6.640   6.235
 6493SOL    HW120378   2.030   6.622   6.303
 6493SOL    HW220379   1.890   6.568   6.239
 6494SOL     OW20380   1.105   0.094   3.953
 6494SOL    HW120381   1.119   0.101   3.855
 6494SOL    HW220382   1.142   0.007   3.986
 6495SOL     OW20383   5.189   5.348   2.917
 6495SOL    HW120384   5.215   5.441   2.943
 6495SOL    HW220385   5.090   5.341   2.913
 6496SOL     OW20386   0.130   6.265   1.393
 6496SOL    HW120387   0.118   6.208   1.312
 6496SOL    HW220388   0.055   6.330   1.399
 6497SOL     OW20389   2.264   3.734   1.032
 6497SOL    HW120390   2.180   3.683   1.010
 6497SOL    HW220391   2.249   3.786   1.116
 6498SOL     OW20392   1.839   4.395   4.296
 6498SOL    HW120393   1.875   4.451   4.222
 6498SOL    HW220394   1.912   4.337   4.332
 6499SOL     OW20395   4.874   1.089   4.900
 6499SOL    HW120396   4.785   1.046   4.916
 6499SOL    HW220397   4.946   1.025   4.927
 6500SOL     OW20398   6.198   4.078   3.483
 6500SOL    HW120399   6.138   4.011   3.526
 6500SOL    HW220400   6.265   4.110   3.550
 6501SOL     OW20401   6.043   3.954   1.150
 6501SOL    HW120402   6.105   4.002   1.211
 6501SOL    HW220403   6.096   3.892   1.091
 6502SOL     OW20404   0.679   4.750   4.047
 6502SOL    HW120405   0.596   4.805   4.040
 6502SOL    HW220406   0.708   4.721   3.956
 6503SOL     OW20407   5.682   6.249   3.174
 6503SOL    HW120408   5.620   6.324   3.148
 6503SOL    HW220409   5.729   6.273   3.259
 6504SOL     OW20410   4.564   0.637   6.950
 6504SOL    HW120411   4.601   0.590   6.869
 6504SOL    HW220412   4.583   0.735   6.943
 6505SOL     OW20413   5.768   4.511   0.688
 6505SOL    HW120414   5.857   4.489   0.728
 6505SOL    HW220415   5.697   4.501   0.758
 6506SOL     OW20416   0.981   2.989   1.000
 6506SOL    HW120417   0.910   3.043   0.953
 6506SOL    HW220418   0.987   2.899   0.957
 6507SOL     OW20419   1.665   5.987   1.631
 6507SOL    HW120420   1.757   5.978   1.592
 6507SOL    HW220421   1.611   6.050   1.575
 6508SOL     OW20422   2.170   2.263   3.586
 6508SOL    HW120423   2.140   2.313   3.505
 6508SOL    HW220424   2.159   2.165   3.571
 6509SOL     OW20425   1.871   2.438   4.719
 6509SOL    HW120426   1.807   2.399   4.786
 6509SOL    HW220427   1.834   2.424   4.626
 6510SOL     OW20428   6.876   5.228   6.733
 6510SOL    HW120429   6.949   5.287   6.698
 6510SOL    HW220430   6.800   5.284   6.766
 6511SOL     OW20431   6.505   0.197   5.534
 6511SOL    HW120432   6.480   0.232   5.624
 6511SOL    HW220433   6.450   0.242   5.464
 6512SOL     OW20434   4.591   6.773   2.747
 6512SOL    HW120435   4.560   6.863   2.776
 6512SOL    HW220436   4.516   6.707   2.758
 6513SOL     OW20437   3.582   6.757   4.276
 6513SOL    HW120438   3.579   6.822   4.200
 6513SOL    HW220439   3.634   6.797   4.352
 6514SOL     OW20440   4.771   0.606   4.489
 6514SOL    HW120441   4.867   0.634   4.493
 6514SOL    HW220442   4.765   0.507   4.495
 6515SOL     OW20443   6.805   5.629   4.075
 6515SOL    HW120444   6.805   5.530   4.072
 6515SOL    HW220445   6.852   5.660   4.157
 6516SOL     OW20446   0.761   1.865   6.194
 6516SOL    HW120447   0.850   1.843   6.155
 6516SOL    HW220448   0.714   1.781   6.219
 6517SOL     OW20449   0.460   1.587   0.325
 6517SOL    HW120450   0.431   1.626   0.412
 6517SOL    HW220451   0.496   1.495   0.341
 6518SOL     OW20452   0.507   6.350   1.186
 6518SOL    HW120453   0.485   6.266   1.136
 6518SOL    HW220454   0.467   6.429   1.138
 6519SOL     OW20455   2.030   1.483   4.161
 6519SOL    HW120456   2.046   1.581   4.176
 6519SOL    HW220457   2.083   1.429   4.226
 6520SOL     OW20458   6.184   5.581   2.106
 6520SOL    HW120459   6.160   5.547   2.197
 6520SOL    HW220460   6.150   5.517   2.037
 6521SOL     OW20461   1.287   1.725   4.665
 6521SOL    HW120462   1.373   1.679   4.640
 6521SOL    HW220463   1.275   1.806   4.607
 6522SOL     OW20464   2.454   5.962   0.049
 6522SOL    HW120465   2.436   5.937   6.979
 6522SOL    HW220466   2.381   5.926   0.107
 6523SOL     OW20467   2.207   1.533   6.819
 6523SOL    HW120468   2.272   1.607   6.805
 6523SOL    HW220469   2.235   1.477   6.897
 6524SOL     OW20470   3.805   4.068   3.921
 6524SOL    HW120471   3.817   4.167   3.910
 6524SOL    HW220472   3.785   4.047   4.016
 6525SOL     OW20473   0.883   2.617   3.135
 6525SOL    HW120474   0.792   2.576   3.126
 6525SOL    HW220475   0.949   2.562   3.083
 6526SOL     OW20476   1.078   6.040   4.749
 6526SOL    HW120477   1.127   6.119   4.785
 6526SOL    HW220478   0.980   6.050   4.764
 6527SOL     OW20479   1.241   0.105   4.957
 6527SOL    HW120480   1.217   0.010   4.976
 6527SOL    HW220481   1.336   0.110   4.926
 6528SOL     OW20482   0.663   0.830   4.200
 6528SOL    HW120483   0.738   0.800   4.260
 6528SOL    HW220484   0.576   0.814   4.246
 6529SOL     OW20485   5.826   1.788   2.289
 6529SOL    HW120486   5.902   1.793   2.224
 6529SOL    HW220487   5.814   1.878   2.332
 6530SOL     OW20488   6.847   2.572   0.071
 6530SOL    HW120489   6.856   2.650   0.134
 6530SOL    HW220490   6.872   2.488   0.119
 6531SOL     OW20491   5.580   2.403   3.971
 6531SOL    HW120492   5.517   2.481   3.975
 6531SOL    HW220493   5.660   2.427   3.917
 6532SOL     OW20494   6.048   1.572   6.684
 6532SOL    HW120495   6.109   1.504   6.643
 6532SOL    HW220496   5.975   1.595   6.618
 6533SOL     OW20497   4.918   6.452   0.767
 6533SOL    HW120498   4.944   6.542   0.732
 6533SOL    HW220499   4.931   6.383   0.696
 6534SOL     OW20500   2.208   3.805   1.321
 6534SOL    HW120501   2.269   3.733   1.352
 6534SOL    HW220502   2.126   3.806   1.378
 6535SOL     OW20503   0.551   3.520   4.931
 6535SOL    HW120504   0.540   3.614   4.964
 6535SOL    HW220505   0.645   3.507   4.899
 6536SOL     OW20506   5.617   1.935   0.196
 6536SOL    HW120507   5.521   1.962   0.194
 6536SOL    HW220508   5.623   1.835   0.196
 6537SOL     OW20509   7.022   6.992   6.653
 6537SOL    HW120510   6.964   6.996   6.735
 6537SOL    HW220511   0.093   6.997   6.680
 6538SOL     OW20512   3.433   3.825   0.457
 6538SOL    HW120513   3.436   3.920   0.488
 6538SOL    HW220514   3.339   3.799   0.437
 6539SOL     OW20515   2.216   1.842   6.633
 6539SOL    HW120516   2.293   1.809   6.688
 6539SOL    HW220517   2.248   1.864   6.541
 6540SOL     OW20518   3.387   1.193   4.103
 6540SOL    HW120519   3.383   1.180   4.004
 6540SOL    HW220520   3.360   1.107   4.148
 6541SOL     OW20521   3.361   2.554   5.596
 6541SOL    HW120522   3.313   2.496   5.662
 6541SOL    HW220523   3.310   2.554   5.510
 6542SOL     OW20524   5.976   4.546   3.527
 6542SOL    HW120525   5.946   4.582   3.438
 6542SOL    HW220526   6.038   4.610   3.570
 6543SOL     OW20527   6.380   5.872   6.940
 6543SOL    HW120528   6.363   5.950   6.879
 6543SOL    HW220529   6.296   5.850   6.989
 6544SOL     OW20530   6.993   6.138   4.083
 6544SOL    HW120531   6.983   6.165   3.987
 6544SOL    HW220532   6.907   6.153   4.131
 6545SOL     OW20533   5.411   1.571   5.777
 6545SOL    HW120534   5.406   1.517   5.692
 6545SOL    HW220535   5.445   1.662   5.756
 6546SOL     OW20536   3.625   4.974   6.099
 6546SOL    HW120537   3.653   4.879   6.094
 6546SOL    HW220538   3.631   5.006   6.194
 6547SOL     OW20539   5.040   2.572   6.409
 6547SOL    HW120540   5.095   2.629   6.347
 6547SOL    HW220541   4.962   2.535   6.358
 6548SOL     OW20542   6.480   4.557   5.933
 6548SOL    HW120543   6.454   4.636   5.989
 6548SOL    HW220544   6.441   4.567   5.842
 6549SOL     OW20545   3.867   2.145   0.807
 6549SOL    HW120546   3.941   2.078   0.811
 6549SOL    HW220547   3.781   2.102   0.835
 6550SOL     OW20548   1.304   5.926   3.236
 6550SOL    HW120549   1.329   6.022   3.225
 6550SOL    HW220550   1.233   5.918   3.306
 6551SOL     OW20551   1.792   4.848   1.844
 6551SOL    HW120552   1.886   4.815   1.844
 6551SOL    HW220553   1.787   4.940   1.805
 6552SOL     OW20554   2.190   5.141   5.805
 6552SOL    HW120555   2.150   5.053   5.830
 6552SOL    HW220556   2.279   5.151   5.848
 6553SOL     OW20557   0.370   3.408   1.655
 6553SOL    HW120558   0.291   3.358   1.690
 6553SOL    HW220559   0.439   3.416   1.726
 6554SOL     OW20560   6.684   1.924   5.969
 6554SOL    HW120561   6.706   1.934   5.872
 6554SOL    HW220562   6.721   2.002   6.020
 6555SOL     OW20563   1.972   1.157   2.189
 6555SOL    HW120564   1.983   1.148   2.091
 6555SOL    HW220565   1.877   1.182   2.210
 6556SOL     OW20566   4.588   4.782   5.020
 6556SOL    HW120567   4.667   4.829   5.060
 6556SOL    HW220568   4.559   4.830   4.937
 6557SOL     OW20569   5.982   5.739   0.676
 6557SOL    HW120570   5.908   5.678   0.705
 6557SOL    HW220571   5.943   5.819   0.631
 6558SOL     OW20572   6.214   6.290   0.714
 6558SOL    HW120573   6.142   6.273   0.647
 6558SOL    HW220574   6.303   6.270   0.674
 6559SOL     OW20575   5.295   3.569   1.327
 6559SOL    HW120576   5.372   3.550   1.387
 6559SOL    HW220577   5.217   3.599   1.382
 6560SOL     OW20578   3.766   3.025   1.117
 6560SOL    HW120579   3.831   3.043   1.043
 6560SOL    HW220580   3.749   2.927   1.123
 6561SOL     OW20581   3.941   3.812   2.724
 6561SOL    HW120582   4.009   3.772   2.785
 6561SOL    HW220583   3.962   3.788   2.629
 6562SOL     OW20584   6.284   4.997   5.918
 6562SOL    HW120585   6.188   4.975   5.903
 6562SOL    HW220586   6.317   4.951   6.000
 6563SOL     OW20587   0.633   6.091   0.201
 6563SOL    HW120588   0.562   6.074   0.269
 6563SOL    HW220589   0.599   6.155   0.132
 6564SOL     OW20590   1.025   3.456   2.183
 6564SOL    HW120591   0.960   3.523   2.146
 6564SOL    HW220592   1.088   3.502   2.246
 6565SOL     OW20593   6.321   2.514   4.798
 6565SOL    HW120594   6.297   2.602   4.757
 6565SOL    HW220595   6.410   2.522   4.843
 6566SOL     OW20596   3.139   7.010   1.189
 6566SOL    HW120597   3.189   6.924   1.185
 6566SOL    HW220598   3.191   0.051   1.243
 6567SOL     OW20599   5.163   2.821   0.720
 6567SOL    HW120600   5.117   2.743   0.763
 6567SOL    HW220601   5.156   2.901   0.779
 6568SOL     OW20602   4.510   4.567   1.665
 6568SOL    HW120603   4.542   4.555   1.759
 6568SOL    HW220604   4.464   4.484   1.634
 6569SOL     OW20605   2.238   4.896   0.744
 6569SOL    HW120606   2.225   4.818   0.683
 6569SOL    HW220607   2.233   4.865   0.839
 6570SOL     OW20608   5.350   0.968   1.796
 6570SOL    HW120609   5.259   1.005   1.775
 6570SOL    HW220610   5.414   1.043   1.807
 6571SOL     OW20611   2.188   5.748   3.848
 6571SOL    HW120612   2.278   5.759   3.806
 6571SOL    HW220613   2.119   5.788   3.789
 6572SOL     OW20614   6.934   3.681   5.569
 6572SOL    HW120615   6.991   3.729   5.635
 6572SOL    HW220616   6.898   3.598   5.610
 6573SOL     OW20617   3.383   1.059   2.606
 6573SOL    HW120618   3.439   0.986   2.566
 6573SOL    HW220619   3.441   1.137   2.628
 6574SOL     OW20620   2.366   5.287   2.288
 6574SOL    HW120621   2.309   5.327   2.360
 6574SOL    HW220622   2.343   5.190   2.277
 6575SOL     OW20623   1.003   1.304   1.875
 6575SOL    HW120624   1.072   1.232   1.860
 6575SOL    HW220625   0.916   1.261   1.900
 6576SOL     OW20626   1.527   5.822   6.763
 6576SOL    HW120627   1.544   5.902   6.820
 6576SOL    HW220628   1.429   5.802   6.762
 6577SOL     OW20629   1.345   1.459   3.824
 6577SOL    HW120630   1.437   1.455   3.784
 6577SOL    HW220631   1.277   1.451   3.751
 6578SOL     OW20632   6.153   5.365   3.472
 6578SOL    HW120633   6.110   5.405   3.392
 6578SOL    HW220634   6.221   5.429   3.509
 6579SOL     OW20635   6.902   4.244   3.263
 6579SOL    HW120636   6.963   4.309   3.308
 6579SOL    HW220637   6.813   4.243   3.309
 6580SOL     OW20638   5.543   0.497   0.888
 6580SOL    HW120639   5.504   0.405   0.900
 6580SOL    HW220640   5.473   0.558   0.851
 6581SOL     OW20641   4.352   2.270   6.493
 6581SOL    HW120642   4.349   2.370   6.489
 6581SOL    HW220643   4.432   2.237   6.442
 6582SOL     OW20644   0.450   6.876   2.933
 6582SOL    HW120645   0.456   6.807   2.861
 6582SOL    HW220646   0.403   6.957   2.897
 6583SOL     OW20647   5.575   1.539   5.991
 6583SOL    HW120648   5.514   1.538   5.911
 6583SOL    HW220649   5.612   1.448   6.006
 6584SOL     OW20650   5.882   1.509   6.445
 6584SOL    HW120651   5.903   1.574   6.372
 6584SOL    HW220652   5.800   1.539   6.494
 6585SOL     OW20653   0.433   1.524   6.964
 6585SOL    HW120654   0.524   1.565   6.959
 6585SOL    HW220655   0.365   1.590   6.935
 6586SOL     OW20656   6.721   1.639   5.965
 6586SOL    HW120657   6.688   1.730   5.939
 6586SOL    HW220658   6.793   1.647   6.033
 6587SOL     OW20659   1.837   5.823   4.158
 6587SOL    HW120660   1.933   5.816   4.130
 6587SOL    HW220661   1.815   5.919   4.175
 6588SOL     OW20662   1.544   3.189   0.672
 6588SOL    HW120663   1.466   3.229   0.720
 6588SOL    HW220664   1.561   3.240   0.587
 6589SOL     OW20665   4.850   1.112   5.693
 6589SOL    HW120666   4.939   1.066   5.698
 6589SOL    HW220667   4.801   1.098   5.779
 6590SOL     OW20668   0.178   1.667   4.377
 6590SOL    HW120669   0.135   1.720   4.450
 6590SOL    HW220670   0.120   1.589   4.354
 6591SOL     OW20671   5.475   6.659   2.585
 6591SOL    HW120672   5.378   6.647   2.606
 6591SOL    HW220673   5.530   6.638   2.666
 6592SOL     OW20674   4.551   0.286   4.630
 6592SOL    HW120675   4.452   0.296   4.643
 6592SOL    HW220676   4.591   0.241   4.710
 6593SOL     OW20677   3.314   2.055   4.117
 6593SOL    HW120678   3.243   2.114   4.155
 6593SOL    HW220679   3.394   2.057   4.177
 6594SOL     OW20680   5.120   0.781   6.483
 6594SOL    HW120681   5.209   0.752   6.516
 6594SOL    HW220682   5.090   0.720   6.409
 6595SOL     OW20683   1.247   3.420   0.686
 6595SOL    HW120684   1.325   3.484   0.686
 6595SOL    HW220685   1.193   3.434   0.769
 6596SOL     OW20686   4.709   0.285   5.392
 6596SOL    HW120687   4.671   0.321   5.307
 6596SOL    HW220688   4.741   0.191   5.378
 6597SOL     OW20689   6.539   6.709   4.263
 6597SOL    HW120690   6.500   6.776   4.327
 6597SOL    HW220691   6.598   6.647   4.314
 6598SOL     OW20692   1.574   5.699   5.099
 6598SOL    HW120693   1.597   5.685   5.195
 6598SOL    HW220694   1.512   5.626   5.068
 6599SOL     OW20695   3.993   4.971   6.223
 6599SOL    HW120696   3.921   4.970   6.293
 6599SOL    HW220697   3.980   5.049   6.163
 6600SOL     OW20698   4.209   5.405   4.505
 6600SOL    HW120699   4.243   5.487   4.552
 6600SOL    HW220700   4.153   5.432   4.428
 6601SOL     OW20701   0.404   1.206   0.508
 6601SOL    HW120702   0.358   1.175   0.425
 6601SOL    HW220703   0.335   1.240   0.573
 6602SOL     OW20704   0.709   2.063   1.419
 6602SOL    HW120705   0.752   1.987   1.467
 6602SOL    HW220706   0.683   2.035   1.327
 6603SOL     OW20707   1.763   3.603   3.012
 6603SOL    HW120708   1.727   3.511   2.996
 6603SOL    HW220709   1.853   3.612   2.970
 6604SOL     OW20710   2.848   5.570   2.296
 6604SOL    HW120711   2.929   5.556   2.353
 6604SOL    HW220712   2.768   5.531   2.341
 6605SOL     OW20713   5.335   5.784   0.060
 6605SOL    HW120714   5.357   5.830   6.999
 6605SOL    HW220715   5.297   5.850   0.125
 6606SOL     OW20716   5.211   0.669   2.052
 6606SOL    HW120717   5.259   0.749   2.090
 6606SOL    HW220718   5.132   0.700   1.999
 6607SOL     OW20719   2.082   1.703   2.266
 6607SOL    HW120720   1.986   1.694   2.242
 6607SOL    HW220721   2.094   1.783   2.325
 6608SOL     OW20722   5.396   3.189   3.509
 6608SOL    HW120723   5.456   3.208   3.587
 6608SOL    HW220724   5.301   3.205   3.535
 6609SOL     OW20725   5.740   1.265   7.010
 6609SOL    HW120726   5.764   1.204   6.934
 6609SOL    HW220727   5.812   1.334   7.021
 6610SOL     OW20728   2.007   0.487   0.468
 6610SOL    HW120729   1.995   0.402   0.417
 6610SOL    HW220730   1.957   0.561   0.422
 6611SOL     OW20731   6.259   2.334   3.128
 6611SOL    HW120732   6.243   2.430   3.149
 6611SOL    HW220733   6.357   2.319   3.112
 6612SOL     OW20734   1.809   6.009   6.887
 6612SOL    HW120735   1.709   6.015   6.891
 6612SOL    HW220736   1.843   6.076   6.822
 6613SOL     OW20737   5.609   5.306   3.147
 6613SOL    HW120738   5.635   5.344   3.236
 6613SOL    HW220739   5.591   5.208   3.156
 6614SOL     OW20740   4.999   5.407   6.231
 6614SOL    HW120741   4.985   5.373   6.137
 6614SOL    HW220742   4.988   5.331   6.295
 6615SOL     OW20743   0.403   3.454   5.348
 6615SOL    HW120744   0.365   3.545   5.334
 6615SOL    HW220745   0.431   3.416   5.259
 6616SOL     OW20746   5.051   1.513   5.518
 6616SOL    HW120747   5.041   1.440   5.586
 6616SOL    HW220748   5.017   1.599   5.556
 6617SOL     OW20749   2.745   6.537   4.537
 6617SOL    HW120750   2.708   6.616   4.489
 6617SOL    HW220751   2.724   6.454   4.485
 6618SOL     OW20752   1.051   4.304   2.225
 6618SOL    HW120753   1.039   4.221   2.171
 6618SOL    HW220754   1.010   4.382   2.177
 6619SOL     OW20755   4.201   6.935   3.564
 6619SOL    HW120756   4.250   6.960   3.648
 6619SOL    HW220757   4.256   6.960   3.484
 6620SOL     OW20758   1.529   3.011   6.040
 6620SOL    HW120759   1.563   2.930   6.087
 6620SOL    HW220760   1.557   3.093   6.091
 6621SOL     OW20761   2.980   4.004   0.703
 6621SOL    HW120762   3.040   3.927   0.724
 6621SOL    HW220763   2.998   4.037   0.610
 6622SOL     OW20764   6.454   6.211   0.310
 6622SOL    HW120765   6.455   6.131   0.251
 6622SOL    HW220766   6.408   6.287   0.263
 6623SOL     OW20767   3.298   2.916   2.952
 6623SOL    HW120768   3.360   2.986   2.989
 6623SOL    HW220769   3.257   2.865   3.028
 6624SOL     OW20770   3.819   5.886   5.168
 6624SOL    HW120771   3.777   5.972   5.136
 6624SOL    HW220772   3.761   5.809   5.141
 6625SOL     OW20773   6.436   1.126   6.441
 6625SOL    HW120774   6.430   1.086   6.350
 6625SOL    HW220775   6.518   1.183   6.446
 6626SOL     OW20776   3.274   5.581   3.313
 6626SOL    HW120777   3.338   5.593   3.389
 6626SOL    HW220778   3.321   5.539   3.235
 6627SOL     OW20779   1.863   0.962   6.185
 6627SOL    HW120780   1.886   0.873   6.225
 6627SOL    HW220781   1.774   0.956   6.140
 6628SOL     OW20782   4.496   4.484   2.476
 6628SOL    HW120783   4.527   4.394   2.443
 6628SOL    HW220784   4.451   4.532   2.401
 6629SOL     OW20785   3.265   5.525   1.457
 6629SOL    HW120786   3.265   5.508   1.556
 6629SOL    HW220787   3.271   5.623   1.440
 6630SOL     OW20788   3.156   1.312   0.191
 6630SOL    HW120789   3.167   1.372   0.271
 6630SOL    HW220790   3.141   1.368   0.110
 6631SOL     OW20791   5.527   0.633   2.182
 6631SOL    HW120792   5.540   0.726   2.148
 6631SOL    HW220793   5.457   0.587   2.128
 6632SOL     OW20794   6.921   1.296   0.404
 6632SOL    HW120795   7.007   1.345   0.411
 6632SOL    HW220796   6.845   1.361   0.397
 6633SOL     OW20797   1.459   5.914   0.130
 6633SOL    HW120798   1.449   5.817   0.150
 6633SOL    HW220799   1.543   5.949   0.171
 6634SOL     OW20800   6.758   3.081   5.684
 6634SOL    HW120801   6.764   2.983   5.702
 6634SOL    HW220802   6.710   3.125   5.760
 6635SOL     OW20803   4.525   5.260   3.382
 6635SOL    HW120804   4.499   5.251   3.286
 6635SOL    HW220805   4.505   5.353   3.413
 6636SOL     OW20806   1.410   2.729   4.671
 6636SOL    HW120807   1.372   2.763   4.585
 6636SOL    HW220808   1.426   2.806   4.733
 6637SOL     OW20809   1.068   0.522   0.403
 6637SOL    HW120810   1.065   0.491   0.498
 6637SOL    HW220811   1.142   0.588   0.392
 6638SOL     OW20812   1.541   5.626   5.619
 6638SOL    HW120813   1.449   5.603   5.652
 6638SOL    HW220814   1.600   5.546   5.626
 6639SOL     OW20815   5.846   4.357   6.467
 6639SOL    HW120816   5.932   4.371   6.418
 6639SOL    HW220817   5.862   4.367   6.565
 6640SOL     OW20818   0.241   2.161   3.470
 6640SOL    HW120819   0.220   2.101   3.547
 6640SOL    HW220820   0.275   2.248   3.504
 6641SOL     OW20821   2.975   4.156   6.390
 6641SOL    HW120822   2.956   4.061   6.363
 6641SOL    HW220823   3.054   4.158   6.452
 6642SOL     OW20824   1.647   5.018   6.856
 6642SOL    HW120825   1.662   5.072   6.773
 6642SOL    HW220826   1.680   5.069   6.936
 6643SOL     OW20827   6.042   4.203   6.167
 6643SOL    HW120828   6.024   4.110   6.136
 6643SOL    HW220829   5.975   4.265   6.126
 6644SOL     OW20830   3.042   4.791   2.058
 6644SOL    HW120831   2.993   4.715   2.015
 6644SOL    HW220832   3.029   4.786   2.157
 6645SOL     OW20833   6.924   4.879   6.533
 6645SOL    HW120834   6.953   4.854   6.440
 6645SOL    HW220835   7.005   4.896   6.590
 6646SOL     OW20836   3.590   5.259   4.728
 6646SOL    HW120837   3.576   5.229   4.633
 6646SOL    HW220838   3.538   5.199   4.789
 6647SOL     OW20839   3.697   0.490   2.019
 6647SOL    HW120840   3.790   0.485   2.057
 6647SOL    HW220841   3.680   0.409   1.962
 6648SOL     OW20842   4.451   5.747   2.607
 6648SOL    HW120843   4.366   5.736   2.554
 6648SOL    HW220844   4.527   5.705   2.557
 6649SOL     OW20845   4.881   1.971   6.484
 6649SOL    HW120846   4.836   1.887   6.453
 6649SOL    HW220847   4.864   1.985   6.581
 6650SOL     OW20848   4.066   1.083   3.506
 6650SOL    HW120849   3.978   1.036   3.511
 6650SOL    HW220850   4.075   1.127   3.417
 6651SOL     OW20851   1.448   2.226   6.950
 6651SOL    HW120852   1.519   2.275   7.000
 6651SOL    HW220853   1.402   2.289   6.887
 6652SOL     OW20854   6.627   5.406   1.672
 6652SOL    HW120855   6.557   5.357   1.724
 6652SOL    HW220856   6.716   5.396   1.716
 6653SOL     OW20857   3.008   3.777   2.844
 6653SOL    HW120858   3.053   3.845   2.786
 6653SOL    HW220859   2.950   3.719   2.786
 6654SOL     OW20860   2.191   2.801   1.351
 6654SOL    HW120861   2.206   2.830   1.256
 6654SOL    HW220862   2.187   2.701   1.354
 6655SOL     OW20863   3.070   6.564   2.080
 6655SOL    HW120864   3.021   6.613   2.008
 6655SOL    HW220865   3.166   6.591   2.079
 6656SOL     OW20866   6.796   1.302   1.367
 6656SOL    HW120867   6.887   1.275   1.336
 6656SOL    HW220868   6.789   1.402   1.367
 6657SOL     OW20869   3.978   6.899   6.061
 6657SOL    HW120870   3.919   6.961   6.009
 6657SOL    HW220871   3.939   6.885   6.152
 6658SOL     OW20872   5.729   1.281   5.077
 6658SOL    HW120873   5.767   1.212   5.138
 6658SOL    HW220874   5.787   1.290   4.996
 6659SOL     OW20875   2.871   3.309   0.133
 6659SOL    HW120876   2.956   3.350   0.099
 6659SOL    HW220877   2.889   3.216   0.165
 6660SOL     OW20878   6.707   6.639   2.118
 6660SOL    HW120879   6.646   6.560   2.121
 6660SOL    HW220880   6.703   6.688   2.205
 6661SOL     OW20881   6.499   5.319   3.491
 6661SOL    HW120882   6.523   5.229   3.529
 6661SOL    HW220883   6.474   5.381   3.565
 6662SOL     OW20884   2.184   0.777   0.343
 6662SOL    HW120885   2.261   0.813   0.396
 6662SOL    HW220886   2.204   0.782   0.245
 6663SOL     OW20887   0.251   5.586   2.277
 6663SOL    HW120888   0.231   5.514   2.210
 6663SOL    HW220889   0.211   5.561   2.365
 6664SOL     OW20890   1.298   0.390   2.225
 6664SOL    HW120891   1.394   0.388   2.196
 6664SOL    HW220892   1.270   0.297   2.250
 6665SOL     OW20893   1.632   6.098   2.997
 6665SOL    HW120894   1.592   6.031   2.935
 6665SOL    HW220895   1.728   6.111   2.973
 6666SOL     OW20896   6.612   1.737   5.047
 6666SOL    HW120897   6.574   1.673   5.114
 6666SOL    HW220898   6.553   1.739   4.966
 6667SOL     OW20899   6.174   5.276   4.502
 6667SOL    HW120900   6.248   5.343   4.506
 6667SOL    HW220901   6.101   5.304   4.564
 6668SOL     OW20902   0.603   4.805   2.290
 6668SOL    HW120903   0.595   4.884   2.351
 6668SOL    HW220904   0.671   4.823   2.220
 6669SOL     OW20905   2.811   5.106   3.897
 6669SOL    HW120906   2.731   5.165   3.899
 6669SOL    HW220907   2.821   5.060   3.986
 6670SOL     OW20908   3.468   4.811   6.892
 6670SOL    HW120909   3.541   4.742   6.889
 6670SOL    HW220910   3.474   4.861   6.979
 6671SOL     OW20911   6.456   4.364   6.347
 6671SOL    HW120912   6.403   4.338   6.428
 6671SOL    HW220913   6.437   4.300   6.273
 6672SOL     OW20914   1.258   0.847   5.629
 6672SOL    HW120915   1.279   0.912   5.557
 6672SOL    HW220916   1.226   0.896   5.710
 6673SOL     OW20917   4.964   5.059   2.393
 6673SOL    HW120918   5.056   5.037   2.424
 6673SOL    HW220919   4.938   4.999   2.317
 6674SOL     OW20920   1.023   6.225   5.348
 6674SOL    HW120921   0.997   6.232   5.252
 6674SOL    HW220922   0.986   6.303   5.398
 6675SOL     OW20923   5.634   4.140   0.120
 6675SOL    HW120924   5.731   4.146   0.143
 6675SOL    HW220925   5.583   4.105   0.198
 6676SOL     OW20926   0.923   3.387   5.457
 6676SOL    HW120927   0.826   3.406   5.470
 6676SOL    HW220928   0.975   3.423   5.535
 6677SOL     OW20929   0.596   3.636   0.696
 6677SOL    HW120930   0.552   3.638   0.606
 6677SOL    HW220931   0.612   3.729   0.728
 6678SOL     OW20932   1.033   2.559   6.380
 6678SOL    HW120933   1.018   2.651   6.415
 6678SOL    HW220934   1.119   2.556   6.330
 6679SOL     OW20935   1.308   2.683   5.794
 6679SOL    HW120936   1.375   2.661   5.722
 6679SOL    HW220937   1.218   2.692   5.752
 6680SOL     OW20938   4.208   6.458   6.055
 6680SOL    HW120939   4.153   6.459   6.138
 6680SOL    HW220940   4.303   6.479   6.077
 6681SOL     OW20941   5.212   5.286   0.303
 6681SOL    HW120942   5.126   5.291   0.252
 6681SOL    HW220943   5.216   5.198   0.352
 6682SOL     OW20944   0.403   5.301   2.681
 6682SOL    HW120945   0.380   5.398   2.673
 6682SOL    HW220946   0.500   5.291   2.704
 6683SOL     OW20947   4.893   1.782   5.249
 6683SOL    HW120948   4.938   1.848   5.309
 6683SOL    HW220949   4.826   1.729   5.301
 6684SOL     OW20950   1.667   6.714   2.506
 6684SOL    HW120951   1.660   6.617   2.529
 6684SOL    HW220952   1.692   6.767   2.587
 6685SOL     OW20953   5.304   2.420   6.413
 6685SOL    HW120954   5.245   2.498   6.435
 6685SOL    HW220955   5.377   2.414   6.481
 6686SOL     OW20956   6.128   3.925   3.975
 6686SOL    HW120957   6.187   4.006   3.975
 6686SOL    HW220958   6.059   3.934   4.047
 6687SOL     OW20959   1.180   1.681   0.922
 6687SOL    HW120960   1.209   1.631   1.004
 6687SOL    HW220961   1.210   1.632   0.840
 6688SOL     OW20962   0.561   4.639   2.871
 6688SOL    HW120963   0.477   4.686   2.898
 6688SOL    HW220964   0.549   4.540   2.882
 6689SOL     OW20965   5.540   3.934   0.744
 6689SOL    HW120966   5.579   3.886   0.665
 6689SOL    HW220967   5.610   3.943   0.814
 6690SOL     OW20968   2.095   3.230   1.435
 6690SOL    HW120969   2.023   3.266   1.375
 6690SOL    HW220970   2.151   3.164   1.385
 6691SOL     OW20971   2.476   6.265   1.452
 6691SOL    HW120972   2.538   6.341   1.432
 6691SOL    HW220973   2.530   6.183   1.471
 6692SOL     OW20974   3.089   4.257   5.267
 6692SOL    HW120975   3.066   4.201   5.346
 6692SOL    HW220976   3.017   4.325   5.252
 6693SOL     OW20977   4.492   3.792   5.346
 6693SOL    HW120978   4.398   3.815   5.321
 6693SOL    HW220979   4.535   3.739   5.272
 6694SOL     OW20980   4.687   6.508   0.881
 6694SOL    HW120981   4.703   6.465   0.970
 6694SOL    HW220982   4.771   6.502   0.826
 6695SOL     OW20983   0.701   1.422   6.669
 6695SOL    HW120984   0.773   1.491   6.680
 6695SOL    HW220985   0.732   1.351   6.606
 6696SOL     OW20986   2.012   3.232   1.714
 6696SOL    HW120987   2.057   3.162   1.770
 6696SOL    HW220988   2.055   3.236   1.624
 6697SOL     OW20989   4.222   1.355   2.979
 6697SOL    HW120990   4.318   1.337   2.997
 6697SOL    HW220991   4.210   1.450   2.950
 6698SOL     OW20992   3.986   2.895   6.806
 6698SOL    HW120993   4.050   2.836   6.757
 6698SOL    HW220994   3.952   2.847   6.887
 6699SOL     OW20995   3.650   4.608   6.904
 6699SOL    HW120996   3.635   4.539   6.833
 6699SOL    HW220997   3.692   4.566   6.984
 6700SOL     OW20998   0.236   5.371   1.411
 6700SOL    HW120999   0.230   5.280   1.369
 6700SOL    HW221000   0.301   5.427   1.360
 6701SOL     OW21001   0.351   1.696   0.560
 6701SOL    HW121002   0.299   1.630   0.613
 6701SOL    HW221003   0.291   1.769   0.528
 6702SOL     OW21004   2.445   1.599   0.821
 6702SOL    HW121005   2.386   1.648   0.757
 6702SOL    HW221006   2.445   1.502   0.799
 6703SOL     OW21007   0.211   1.365   6.066
 6703SOL    HW121008   0.151   1.441   6.042
 6703SOL    HW221009   0.301   1.401   6.091
 6704SOL     OW21010   4.803   2.299   2.598
 6704SOL    HW121011   4.754   2.212   2.592
 6704SOL    HW221012   4.849   2.316   2.511
 6705SOL     OW21013   6.546   2.182   1.596
 6705SOL    HW121014   6.515   2.241   1.522
 6705SOL    HW221015   6.503   2.210   1.682
 6706SOL     OW21016   0.816   3.930   6.963
 6706SOL    HW121017   0.740   3.992   6.945
 6706SOL    HW221018   0.849   3.891   6.877
 6707SOL     OW21019   6.416   5.425   4.481
 6707SOL    HW121020   6.439   5.328   4.475
 6707SOL    HW221021   6.460   5.465   4.561
 6708SOL     OW21022   1.934   5.632   1.752
 6708SOL    HW121023   1.981   5.547   1.727
 6708SOL    HW221024   1.989   5.682   1.819
 6709SOL     OW21025   3.719   6.841   1.796
 6709SOL    HW121026   3.819   6.831   1.798
 6709SOL    HW221027   3.695   6.935   1.772
 6710SOL     OW21028   2.855   2.583   6.565
 6710SOL    HW121029   2.798   2.662   6.541
 6710SOL    HW221030   2.921   2.567   6.491
 6711SOL     OW21031   5.227   3.728   6.551
 6711SOL    HW121032   5.287   3.660   6.594
 6711SOL    HW221033   5.157   3.682   6.497
 6712SOL     OW21034   3.664   5.523   0.443
 6712SOL    HW121035   3.715   5.458   0.499
 6712SOL    HW221036   3.698   5.520   0.349
 6713SOL     OW21037   2.059   2.472   1.508
 6713SOL    HW121038   2.088   2.394   1.564
 6713SOL    HW221039   2.124   2.484   1.433
 6714SOL     OW21040   5.429   0.611   4.245
 6714SOL    HW121041   5.473   0.528   4.211
 6714SOL    HW221042   5.475   0.642   4.328
 6715SOL     OW21043   0.467   2.085   0.796
 6715SOL    HW121044   0.538   2.139   0.841
 6715SOL    HW221045   0.457   2.114   0.701
 6716SOL     OW21046   2.038   6.323   1.123
 6716SOL    HW121047   1.965   6.369   1.173
 6716SOL    HW221048   2.104   6.284   1.187
 6717SOL     OW21049   4.046   2.561   0.543
 6717SOL    HW121050   4.000   2.474   0.563
 6717SOL    HW221051   3.978   2.634   0.539
 6718SOL     OW21052   3.926   6.904   6.985
 6718SOL    HW121053   3.913   6.997   7.019
 6718SOL    HW221054   3.849   6.847   7.013
 6719SOL     OW21055   0.268   5.873   5.262
 6719SOL    HW121056   0.214   5.809   5.315
 6719SOL    HW221057   0.352   5.894   5.311
 6720SOL     OW21058   2.355   5.223   1.737
 6720SOL    HW121059   2.431   5.235   1.800
 6720SOL    HW221060   2.291   5.156   1.773
 6721SOL     OW21061   4.974   6.625   4.062
 6721SOL    HW121062   4.912   6.554   4.028
 6721SOL    HW221063   4.980   6.699   3.996
 6722SOL     OW21064   4.355   3.421   6.564
 6722SOL    HW121065   4.370   3.508   6.610
 6722SOL    HW221066   4.272   3.426   6.508
 6723SOL     OW21067   2.917   6.416   3.777
 6723SOL    HW121068   2.912   6.482   3.852
 6723SOL    HW221069   2.923   6.465   3.690
 6724SOL     OW21070   3.010   4.606   5.413
 6724SOL    HW121071   2.966   4.562   5.335
 6724SOL    HW221072   3.040   4.536   5.478
 6725SOL     OW21073   0.683   5.116   2.658
 6725SOL    HW121074   0.688   5.213   2.633
 6725SOL    HW221075   0.629   5.106   2.741
 6726SOL     OW21076   2.276   2.776   4.434
 6726SOL    HW121077   2.348   2.706   4.433
 6726SOL    HW221078   2.205   2.750   4.500
 6727SOL     OW21079   4.324   3.366   5.742
 6727SOL    HW121080   4.288   3.455   5.771
 6727SOL    HW221081   4.339   3.309   5.823
 6728SOL     OW21082   3.933   1.796   3.986
 6728SOL    HW121083   3.978   1.707   3.983
 6728SOL    HW221084   3.834   1.784   3.979
 6729SOL     OW21085   6.369   0.737   2.703
 6729SOL    HW121086   6.274   0.747   2.676
 6729SOL    HW221087   6.379   0.760   2.800
 6730SOL     OW21088   2.606   0.918   0.065
 6730SOL    HW121089   2.659   0.885   7.012
 6730SOL    HW221090   2.665   0.921   0.146
 6731SOL     OW21091   2.634   4.672   1.531
 6731SOL    HW121092   2.546   4.687   1.576
 6731SOL    HW221093   2.673   4.586   1.564
 6732SOL     OW21094   2.785   6.130   0.895
 6732SOL    HW121095   2.807   6.148   0.799
 6732SOL    HW221096   2.717   6.056   0.901
 6733SOL     OW21097   4.942   6.025   4.921
 6733SOL    HW121098   4.882   6.101   4.894
 6733SOL    HW221099   4.968   5.973   4.840
 6734SOL     OW21100   1.896   3.161   5.594
 6734SOL    HW121101   1.873   3.101   5.517
 6734SOL    HW221102   1.994   3.181   5.592
 6735SOL     OW21103   6.842   5.167   5.422
 6735SOL    HW121104   6.832   5.078   5.466
 6735SOL    HW221105   6.916   5.163   5.354
 6736SOL     OW21106   2.289   2.864   1.721
 6736SOL    HW121107   2.294   2.772   1.683
 6736SOL    HW221108   2.347   2.926   1.667
 6737SOL     OW21109   2.540   1.668   2.424
 6737SOL    HW121110   2.532   1.645   2.521
 6737SOL    HW221111   2.511   1.589   2.369
 6738SOL     OW21112   2.305   1.272   2.682
 6738SOL    HW121113   2.291   1.316   2.593
 6738SOL    HW221114   2.381   1.208   2.675
 6739SOL     OW21115   3.566   6.408   4.803
 6739SOL    HW121116   3.572   6.311   4.829
 6739SOL    HW221117   3.538   6.414   4.707
 6740SOL     OW21118   1.723   1.726   3.718
 6740SOL    HW121119   1.671   1.709   3.802
 6740SOL    HW221120   1.662   1.723   3.640
 6741SOL     OW21121   6.684   0.551   5.921
 6741SOL    HW121122   6.650   0.557   5.828
 6741SOL    HW221123   6.759   0.615   5.934
 6742SOL     OW21124   6.175   5.969   5.204
 6742SOL    HW121125   6.209   6.052   5.248
 6742SOL    HW221126   6.167   5.896   5.272
 6743SOL     OW21127   3.843   3.248   1.602
 6743SOL    HW121128   3.929   3.281   1.562
 6743SOL    HW221129   3.821   3.159   1.562
 6744SOL     OW21130   4.697   4.973   5.951
 6744SOL    HW121131   4.656   5.002   5.864
 6744SOL    HW221132   4.795   4.990   5.949
 6745SOL     OW21133   1.939   5.074   3.699
 6745SOL    HW121134   2.036   5.063   3.719
 6745SOL    HW221135   1.887   5.002   3.744
 6746SOL     OW21136   0.439   2.143   1.291
 6746SOL    HW121137   0.486   2.207   1.231
 6746SOL    HW221138   0.347   2.177   1.311
 6747SOL     OW21139   5.262   6.256   5.078
 6747SOL    HW121140   5.287   6.162   5.101
 6747SOL    HW221141   5.318   6.288   5.002
 6748SOL     OW21142   1.211   0.470   2.485
 6748SOL    HW121143   1.226   0.528   2.405
 6748SOL    HW221144   1.200   0.375   2.455
 6749SOL     OW21145   4.590   0.387   0.134
 6749SOL    HW121146   4.513   0.352   0.186
 6749SOL    HW221147   4.561   0.465   0.078
 6750SOL     OW21148   2.564   2.491   4.941
 6750SOL    HW121149   2.614   2.571   4.909
 6750SOL    HW221150   2.510   2.516   5.021
 6751SOL     OW21151   2.627   2.237   4.610
 6751SOL    HW121152   2.671   2.257   4.698
 6751SOL    HW221153   2.690   2.183   4.553
 6752SOL     OW21154   5.873   3.108   0.685
 6752SOL    HW121155   5.778   3.141   0.692
 6752SOL    HW221156   5.918   3.152   0.608
 6753SOL     OW21157   4.427   2.570   6.588
 6753SOL    HW121158   4.515   2.604   6.554
 6753SOL    HW221159   4.443   2.502   6.660
 6754SOL     OW21160   6.138   1.134   6.450
 6754SOL    HW121161   6.182   1.060   6.400
 6754SOL    HW221162   6.077   1.184   6.389
 6755SOL     OW21163   4.847   1.849   3.957
 6755SOL    HW121164   4.783   1.925   3.972
 6755SOL    HW221165   4.881   1.852   3.863
 6756SOL     OW21166   4.882   5.238   4.399
 6756SOL    HW121167   4.963   5.197   4.440
 6756SOL    HW221168   4.904   5.268   4.306
 6757SOL     OW21169   5.785   5.906   1.884
 6757SOL    HW121170   5.845   5.846   1.936
 6757SOL    HW221171   5.820   6.000   1.887
 6758SOL     OW21172   5.316   2.470   2.097
 6758SOL    HW121173   5.356   2.378   2.105
 6758SOL    HW221174   5.337   2.508   2.008
 6759SOL     OW21175   0.674   5.367   3.235
 6759SOL    HW121176   0.638   5.459   3.244
 6759SOL    HW221177   0.764   5.361   3.277
 6760SOL     OW21178   6.542   3.943   3.819
 6760SOL    HW121179   6.495   3.885   3.886
 6760SOL    HW221180   6.619   3.892   3.781
 6761SOL     OW21181   4.522   2.389   5.425
 6761SOL    HW121182   4.523   2.409   5.328
 6761SOL    HW221183   4.582   2.453   5.474
 6762SOL     OW21184   6.167   4.719   3.623
 6762SOL    HW121185   6.106   4.784   3.669
 6762SOL    HW221186   6.229   4.679   3.689
 6763SOL     OW21187   6.350   6.847   5.638
 6763SOL    HW121188   6.348   6.813   5.732
 6763SOL    HW221189   6.431   6.812   5.591
 6764SOL     OW21190   2.703   4.229   6.701
 6764SOL    HW121191   2.688   4.275   6.789
 6764SOL    HW221192   2.762   4.285   6.643
 6765SOL     OW21193   5.756   4.198   2.282
 6765SOL    HW121194   5.852   4.211   2.305
 6765SOL    HW221195   5.723   4.276   2.230
 6766SOL     OW21196   1.891   0.468   5.945
 6766SOL    HW121197   1.941   0.395   5.899
 6766SOL    HW221198   1.842   0.522   5.876
 6767SOL     OW21199   6.894   2.961   6.661
 6767SOL    HW121200   6.853   2.870   6.662
 6767SOL    HW221201   6.847   3.020   6.727
 6768SOL     OW21202   6.479   0.702   3.963
 6768SOL    HW121203   6.415   0.686   4.038
 6768SOL    HW221204   6.522   0.615   3.937
 6769SOL     OW21205   2.093   2.801   5.399
 6769SOL    HW121206   2.096   2.900   5.385
 6769SOL    HW221207   2.059   2.757   5.316
 6770SOL     OW21208   0.523   1.363   3.326
 6770SOL    HW121209   0.443   1.376   3.385
 6770SOL    HW221210   0.592   1.310   3.376
 6771SOL     OW21211   3.872   2.132   3.370
 6771SOL    HW121212   3.921   2.213   3.401
 6771SOL    HW221213   3.915   2.097   3.286
 6772SOL     OW21214   6.988   1.530   1.724
 6772SOL    HW121215   0.047   1.487   1.691
 6772SOL    HW221216   6.917   1.460   1.735
 6773SOL     OW21217   1.328   6.618   1.244
 6773SOL    HW121218   1.301   6.701   1.195
 6773SOL    HW221219   1.260   6.598   1.315
 6774SOL     OW21220   1.952   2.079   5.092
 6774SOL    HW121221   2.027   2.126   5.044
 6774SOL    HW221222   1.977   2.067   5.188
 6775SOL     OW21223   0.940   2.068   4.609
 6775SOL    HW121224   0.916   2.104   4.519
 6775SOL    HW221225   1.037   2.043   4.609
 6776SOL     OW21226   3.509   4.133   2.694
 6776SOL    HW121227   3.601   4.107   2.665
 6776SOL    HW221228   3.441   4.086   2.638
 6777SOL     OW21229   6.185   5.473   6.995
 6777SOL    HW121230   6.160   5.498   0.063
 6777SOL    HW221231   6.266   5.416   6.996
 6778SOL     OW21232   6.153   4.718   2.698
 6778SOL    HW121233   6.129   4.680   2.609
 6778SOL    HW221234   6.225   4.662   2.740
 6779SOL     OW21235   5.328   3.528   5.729
 6779SOL    HW121236   5.276   3.458   5.776
 6779SOL    HW221237   5.358   3.494   5.640
 6780SOL     OW21238   2.876   2.291   3.155
 6780SOL    HW121239   2.955   2.276   3.215
 6780SOL    HW221240   2.898   2.261   3.063
 6781SOL     OW21241   0.273   1.756   3.477
 6781SOL    HW121242   0.354   1.710   3.441
 6781SOL    HW221243   0.214   1.783   3.401
 6782SOL     OW21244   6.647   1.504   2.524
 6782SOL    HW121245   6.597   1.418   2.507
 6782SOL    HW221246   6.648   1.523   2.622
 6783SOL     OW21247   1.622   4.898   5.693
 6783SOL    HW121248   1.714   4.923   5.724
 6783SOL    HW221249   1.618   4.905   5.594
 6784SOL     OW21250   2.215   3.699   1.713
 6784SOL    HW121251   2.255   3.637   1.781
 6784SOL    HW221252   2.143   3.651   1.663
 6785SOL     OW21253   5.521   6.218   4.925
 6785SOL    HW121254   5.571   6.261   5.000
 6785SOL    HW221255   5.510   6.120   4.944
 6786SOL     OW21256   5.670   1.992   6.090
 6786SOL    HW121257   5.646   1.963   6.182
 6786SOL    HW221258   5.589   2.030   6.044
 6787SOL     OW21259   3.922   2.039   6.909
 6787SOL    HW121260   3.880   1.966   6.856
 6787SOL    HW221261   3.882   2.127   6.882
 6788SOL     OW21262   6.740   4.409   2.717
 6788SOL    HW121263   6.661   4.363   2.758
 6788SOL    HW221264   6.819   4.349   2.720
 6789SOL     OW21265   5.668   3.789   3.614
 6789SOL    HW121266   5.568   3.793   3.622
 6789SOL    HW221267   5.703   3.880   3.593
 6790SOL     OW21268   0.437   4.889   6.290
 6790SOL    HW121269   0.523   4.892   6.239
 6790SOL    HW221270   0.416   4.794   6.315
 6791SOL     OW21271   3.252   0.729   3.062
 6791SOL    HW121272   3.262   0.731   2.962
 6791SOL    HW221273   3.280   0.817   3.100
 6792SOL     OW21274   4.059   0.161   5.174
 6792SOL    HW121275   3.969   0.205   5.172
 6792SOL    HW221276   4.064   0.092   5.102
 6793SOL     OW21277   1.971   3.683   6.565
 6793SOL    HW121278   1.948   3.729   6.651
 6793SOL    HW221279   1.947   3.586   6.572
 6794SOL     OW21280   4.928   2.028   5.439
 6794SOL    HW121281   4.944   2.112   5.388
 6794SOL    HW221282   4.851   2.040   5.502
 6795SOL     OW21283   0.743   0.318   1.140
 6795SOL    HW121284   0.722   0.350   1.048
 6795SOL    HW221285   0.690   0.370   1.207
 6796SOL     OW21286   5.917   1.159   2.469
 6796SOL    HW121287   5.890   1.242   2.420
 6796SOL    HW221288   5.968   1.184   2.552
 6797SOL     OW21289   0.892   2.335   1.292
 6797SOL    HW121290   0.847   2.357   1.379
 6797SOL    HW221291   0.955   2.259   1.306
 6798SOL     OW21292   5.560   6.861   1.533
 6798SOL    HW121293   5.612   6.840   1.451
 6798SOL    HW221294   5.611   6.927   1.589
 6799SOL     OW21295   6.613   1.016   3.314
 6799SOL    HW121296   6.575   0.924   3.299
 6799SOL    HW221297   6.632   1.028   3.412
 6800SOL     OW21298   6.874   2.060   1.329
 6800SOL    HW121299   6.795   2.004   1.357
 6800SOL    HW221300   6.845   2.155   1.317
 6801SOL     OW21301   0.986   6.135   6.246
 6801SOL    HW121302   0.906   6.192   6.265
 6801SOL    HW221303   1.060   6.193   6.213
 6802SOL     OW21304   3.445   4.888   2.156
 6802SOL    HW121305   3.387   4.937   2.091
 6802SOL    HW221306   3.489   4.810   2.110
 6803SOL     OW21307   5.462   4.964   5.753
 6803SOL    HW121308   5.462   5.051   5.802
 6803SOL    HW221309   5.374   4.919   5.766
 6804SOL     OW21310   3.672   4.929   3.092
 6804SOL    HW121311   3.737   4.990   3.137
 6804SOL    HW221312   3.586   4.927   3.144
 6805SOL     OW21313   6.951   4.651   4.770
 6805SOL    HW121314   7.005   4.731   4.742
 6805SOL    HW221315   6.879   4.635   4.702
 6806SOL     OW21316   6.785   1.896   2.093
 6806SOL    HW121317   6.861   1.832   2.105
 6806SOL    HW221318   6.811   1.966   2.026
 6807SOL     OW21319   3.253   3.811   2.211
 6807SOL    HW121320   3.269   3.761   2.126
 6807SOL    HW221321   3.341   3.845   2.246
 6808SOL     OW21322   3.195   1.273   4.284
 6808SOL    HW121323   3.118   1.322   4.244
 6808SOL    HW221324   3.261   1.249   4.212
 6809SOL     OW21325   5.668   3.565   0.291
 6809SOL    HW121326   5.653   3.518   0.378
 6809SOL    HW221327   5.584   3.560   0.236
 6810SOL     OW21328   2.686   0.625   4.535
 6810SOL    HW121329   2.622   0.699   4.554
 6810SOL    HW221330   2.748   0.653   4.461
 6811SOL     OW21331   6.345   1.329   0.609
 6811SOL    HW121332   6.282   1.254   0.627
 6811SOL    HW221333   6.427   1.317   0.665
 6812SOL     OW21334   3.748   4.238   5.191
 6812SOL    HW121335   3.665   4.225   5.137
 6812SOL    HW221336   3.821   4.179   5.155
 6813SOL     OW21337   6.376   3.585   1.801
 6813SOL    HW121338   6.452   3.585   1.866
 6813SOL    HW221339   6.292   3.612   1.847
 6814SOL     OW21340   5.234   1.190   6.634
 6814SOL    HW121341   5.225   1.219   6.729
 6814SOL    HW221342   5.322   1.221   6.598
 6815SOL     OW21343   1.212   5.014   6.145
 6815SOL    HW121344   1.233   4.956   6.066
 6815SOL    HW221345   1.148   5.086   6.118
 6816SOL     OW21346   0.056   0.750   3.164
 6816SOL    HW121347   6.987   0.780   3.151
 6816SOL    HW221348   0.091   0.709   3.080
 6817SOL     OW21349   4.168   2.036   1.744
 6817SOL    HW121350   4.068   2.035   1.738
 6817SOL    HW221351   4.198   2.112   1.801
 6818SOL     OW21352   1.649   0.141   5.363
 6818SOL    HW121353   1.575   0.205   5.385
 6818SOL    HW221354   1.667   0.144   5.265
 6819SOL     OW21355   4.770   4.315   1.606
 6819SOL    HW121356   4.685   4.310   1.554
 6819SOL    HW221357   4.763   4.261   1.689
 6820SOL     OW21358   2.782   5.448   2.019
 6820SOL    HW121359   2.832   5.455   1.933
 6820SOL    HW221360   2.822   5.509   2.087
 6821SOL     OW21361   3.933   2.699   5.305
 6821SOL    HW121362   3.998   2.628   5.278
 6821SOL    HW221363   3.842   2.658   5.314
 6822SOL     OW21364   6.285   2.740   6.296
 6822SOL    HW121365   6.356   2.718   6.362
 6822SOL    HW221366   6.273   2.663   6.233
 6823SOL     OW21367   5.906   2.149   4.934
 6823SOL    HW121368   5.960   2.230   4.954
 6823SOL    HW221369   5.899   2.093   5.017
 6824SOL     OW21370   1.321   0.236   5.734
 6824SOL    HW121371   1.362   0.150   5.704
 6824SOL    HW221372   1.349   0.255   5.828
 6825SOL     OW21373   5.293   4.780   0.775
 6825SOL    HW121374   5.340   4.861   0.811
 6825SOL    HW221375   5.321   4.765   0.680
 6826SOL     OW21376   6.424   5.171   4.380
 6826SOL    HW121377   6.405   5.190   4.283
 6826SOL    HW221378   6.338   5.159   4.429
 6827SOL     OW21379   4.708   5.893   4.430
 6827SOL    HW121380   4.624   5.921   4.384
 6827SOL    HW221381   4.701   5.797   4.458
 6828SOL     OW21382   2.746   2.355   2.661
 6828SOL    HW121383   2.832   2.308   2.639
 6828SOL    HW221384   2.751   2.391   2.755
 6829SOL     OW21385   3.856   6.650   3.532
 6829SOL    HW121386   3.833   6.642   3.629
 6829SOL    HW221387   3.955   6.657   3.522
 6830SOL     OW21388   5.081   6.524   3.060
 6830SOL    HW121389   5.009   6.477   3.009
 6830SOL    HW221390   5.122   6.461   3.126
 6831SOL     OW21391   1.481   1.977   6.153
 6831SOL    HW121392   1.386   2.007   6.162
 6831SOL    HW221393   1.527   2.032   6.083
 6832SOL     OW21394   3.225   2.963   0.033
 6832SOL    HW121395   3.243   2.866   0.015
 6832SOL    HW221396   3.305   3.004   0.078
 6833SOL     OW21397   3.516   4.937   5.845
 6833SOL    HW121398   3.555   4.966   5.932
 6833SOL    HW221399   3.519   4.837   5.838
 6834SOL     OW21400   5.603   6.595   0.637
 6834SOL    HW121401   5.698   6.581   0.666
 6834SOL    HW221402   5.547   6.620   0.716
 6835SOL     OW21403   2.844   1.785   5.219
 6835SOL    HW121404   2.866   1.700   5.171
 6835SOL    HW221405   2.928   1.827   5.252
 6836SOL     OW21406   2.475   4.505   6.367
 6836SOL    HW121407   2.479   4.490   6.268
 6836SOL    HW221408   2.511   4.596   6.388
 6837SOL     OW21409   0.632   0.519   1.966
 6837SOL    HW121410   0.630   0.437   2.022
 6837SOL    HW221411   0.539   0.552   1.951
 6838SOL     OW21412   2.990   3.868   5.133
 6838SOL    HW121413   2.915   3.868   5.200
 6838SOL    HW221414   3.002   3.960   5.097
 6839SOL     OW21415   6.180   3.106   4.812
 6839SOL    HW121416   6.227   3.190   4.789
 6839SOL    HW221417   6.094   3.127   4.859
 6840SOL     OW21418   2.265   6.809   4.948
 6840SOL    HW121419   2.281   6.862   4.865
 6840SOL    HW221420   2.168   6.810   4.970
 6841SOL     OW21421   4.721   6.142   0.889
 6841SOL    HW121422   4.681   6.194   0.813
 6841SOL    HW221423   4.663   6.150   0.969
 6842SOL     OW21424   0.587   3.819   5.341
 6842SOL    HW121425   0.493   3.799   5.372
 6842SOL    HW221426   0.625   3.893   5.397
 6843SOL     OW21427   4.004   2.180   2.158
 6843SOL    HW121428   3.960   2.229   2.083
 6843SOL    HW221429   3.934   2.136   2.214
 6844SOL     OW21430   4.322   5.008   3.985
 6844SOL    HW121431   4.405   4.957   3.963
 6844SOL    HW221432   4.243   4.947   3.982
 6845SOL     OW21433   4.488   4.727   1.458
 6845SOL    HW121434   4.490   4.669   1.539
 6845SOL    HW221435   4.402   4.777   1.455
 6846SOL     OW21436   2.955   3.249   3.226
 6846SOL    HW121437   2.995   3.201   3.149
 6846SOL    HW221438   2.941   3.345   3.202
 6847SOL     OW21439   5.979   3.491   2.170
 6847SOL    HW121440   6.045   3.474   2.243
 6847SOL    HW221441   5.970   3.408   2.114
 6848SOL     OW21442   0.743   6.726   3.067
 6848SOL    HW121443   0.656   6.677   3.053
 6848SOL    HW221444   0.810   6.693   3.000
 6849SOL     OW21445   3.177   6.630   4.015
 6849SOL    HW121446   3.191   6.531   4.013
 6849SOL    HW221447   3.193   6.668   3.923
 6850SOL     OW21448   5.285   2.787   2.328
 6850SOL    HW121449   5.344   2.851   2.280
 6850SOL    HW221450   5.338   2.708   2.357
 6851SOL     OW21451   1.134   5.766   5.605
 6851SOL    HW121452   1.151   5.852   5.653
 6851SOL    HW221453   1.083   5.784   5.520
 6852SOL     OW21454   6.926   4.682   2.204
 6852SOL    HW121455   6.990   4.729   2.144
 6852SOL    HW221456   6.950   4.701   2.300
 6853SOL     OW21457   0.876   3.429   5.838
 6853SOL    HW121458   0.868   3.332   5.863
 6853SOL    HW221459   0.954   3.442   5.777
 6854SOL     OW21460   6.584   1.824   6.217
 6854SOL    HW121461   6.661   1.863   6.267
 6854SOL    HW221462   6.607   1.816   6.120
 6855SOL     OW21463   2.943   6.067   1.316
 6855SOL    HW121464   2.872   6.041   1.383
 6855SOL    HW221465   3.026   6.093   1.365
 6856SOL     OW21466   6.747   3.341   4.791
 6856SOL    HW121467   6.834   3.294   4.780
 6856SOL    HW221468   6.763   3.439   4.801
 6857SOL     OW21469   4.048   1.595   5.478
 6857SOL    HW121470   4.015   1.579   5.571
 6857SOL    HW221471   4.108   1.520   5.450
 6858SOL     OW21472   3.931   3.497   4.686
 6858SOL    HW121473   3.979   3.500   4.598
 6858SOL    HW221474   3.917   3.590   4.719
 6859SOL     OW21475   3.938   6.966   0.941
 6859SOL    HW121476   3.903   6.884   0.986
 6859SOL    HW221477   3.865   7.010   0.890
 6860SOL     OW21478   5.180   3.314   6.608
 6860SOL    HW121479   5.233   3.250   6.664
 6860SOL    HW221480   5.112   3.263   6.556
 6861SOL     OW21481   6.414   4.858   0.142
 6861SOL    HW121482   6.426   4.876   0.044
 6861SOL    HW221483   6.479   4.915   0.193
 6862SOL     OW21484   3.534   5.607   3.969
 6862SOL    HW121485   3.455   5.580   4.024
 6862SOL    HW221486   3.589   5.526   3.947
 6863SOL     OW21487   5.669   2.718   3.983
 6863SOL    HW121488   5.639   2.655   4.054
 6863SOL    HW221489   5.746   2.679   3.933
 6864SOL     OW21490   4.176   6.257   5.078
 6864SOL    HW121491   4.187   6.191   5.003
 6864SOL    HW221492   4.205   6.215   5.164
 6865SOL     OW21493   6.474   4.932   4.098
 6865SOL    HW121494   6.417   4.950   4.178
 6865SOL    HW221495   6.518   4.844   4.108
 6866SOL     OW21496   6.954   3.031   2.134
 6866SOL    HW121497   6.879   2.978   2.094
 6866SOL    HW221498   0.011   3.023   2.077
 6867SOL     OW21499   1.759   4.138   3.037
 6867SOL    HW121500   1.789   4.048   3.005
 6867SOL    HW221501   1.828   4.175   3.099
 6868SOL     OW21502   1.761   5.429   5.358
 6868SOL    HW121503   1.793   5.524   5.352
 6868SOL    HW221504   1.702   5.419   5.437
 6869SOL     OW21505   5.898   3.465   5.457
 6869SOL    HW121506   5.895   3.510   5.368
 6869SOL    HW221507   5.933   3.372   5.447
 6870SOL     OW21508   5.615   3.502   2.819
 6870SOL    HW121509   5.658   3.469   2.902
 6870SOL    HW221510   5.664   3.466   2.739
 6871SOL     OW21511   5.051   5.723   1.284
 6871SOL    HW121512   5.094   5.646   1.330
 6871SOL    HW221513   5.047   5.704   1.186
 6872SOL     OW21514   2.363   3.548   6.299
 6872SOL    HW121515   2.398   3.469   6.249
 6872SOL    HW221516   2.407   3.631   6.267
 6873SOL     OW21517   5.611   3.297   5.749
 6873SOL    HW121518   5.596   3.200   5.730
 6873SOL    HW221519   5.551   3.326   5.824
 6874SOL     OW21520   0.490   2.458   5.491
 6874SOL    HW121521   0.586   2.476   5.513
 6874SOL    HW221522   0.432   2.525   5.538
 6875SOL     OW21523   2.578   1.928   3.814
 6875SOL    HW121524   2.564   2.020   3.778
 6875SOL    HW221525   2.515   1.864   3.770
 6876SOL     OW21526   4.131   6.116   6.752
 6876SOL    HW121527   4.213   6.074   6.712
 6876SOL    HW221528   4.143   6.215   6.756
 6877SOL     OW21529   2.470   4.163   7.012
 6877SOL    HW121530   2.450   4.259   6.991
 6877SOL    HW221531   2.554   4.157   0.040
 6878SOL     OW21532   1.981   1.686   5.425
 6878SOL    HW121533   2.060   1.743   5.402
 6878SOL    HW221534   1.915   1.690   5.350
 6879SOL     OW21535   1.525   2.404   6.546
 6879SOL    HW121536   1.543   2.371   6.453
 6879SOL    HW221537   1.453   2.473   6.543
 6880SOL     OW21538   2.103   4.185   5.124
 6880SOL    HW121539   2.068   4.111   5.182
 6880SOL    HW221540   2.186   4.154   5.077
 6881SOL     OW21541   6.784   4.274   1.884
 6881SOL    HW121542   6.878   4.243   1.868
 6881SOL    HW221543   6.786   4.358   1.938
 6882SOL     OW21544   1.884   0.239   5.740
 6882SOL    HW121545   1.941   0.311   5.700
 6882SOL    HW221546   1.790   0.273   5.749
 6883SOL     OW21547   3.752   6.909   1.192
 6883SOL    HW121548   3.714   6.867   1.109
 6883SOL    HW221549   3.779   7.003   1.173
 6884SOL     OW21550   2.215   5.000   4.083
 6884SOL    HW121551   2.183   5.088   4.118
 6884SOL    HW221552   2.218   4.934   4.158
 6885SOL     OW21553   2.971   5.526   4.720
 6885SOL    HW121554   3.036   5.452   4.735
 6885SOL    HW221555   3.006   5.611   4.760
 6886SOL     OW21556   5.982   1.457   2.871
 6886SOL    HW121557   5.903   1.441   2.930
 6886SOL    HW221558   5.955   1.515   2.794
 6887SOL     OW21559   6.116   0.732   4.644
 6887SOL    HW121560   6.210   0.714   4.613
 6887SOL    HW221561   6.082   0.653   4.694
 6888SOL     OW21562   5.382   6.863   4.502
 6888SOL    HW121563   5.374   6.962   4.496
 6888SOL    HW221564   5.305   6.820   4.454
 6889SOL     OW21565   1.552   4.624   5.788
 6889SOL    HW121566   1.510   4.576   5.712
 6889SOL    HW221567   1.554   4.722   5.769
 6890SOL     OW21568   1.965   0.172   1.192
 6890SOL    HW121569   2.023   0.115   1.135
 6890SOL    HW221570   1.869   0.150   1.174
 6891SOL     OW21571   1.652   4.598   4.389
 6891SOL    HW121572   1.648   4.499   4.405
 6891SOL    HW221573   1.686   4.615   4.296
 6892SOL     OW21574   3.375   1.073   3.871
 6892SOL    HW121575   3.282   1.053   3.843
 6892SOL    HW221576   3.426   0.988   3.880
 6893SOL     OW21577   4.640   5.425   2.571
 6893SOL    HW121578   4.650   5.501   2.506
 6893SOL    HW221579   4.555   5.375   2.550
 6894SOL     OW21580   6.597   4.882   6.362
 6894SOL    HW121581   6.646   4.952   6.310
 6894SOL    HW221582   6.639   4.793   6.345
 6895SOL     OW21583   3.346   5.618   6.839
 6895SOL    HW121584   3.251   5.596   6.818
 6895SOL    HW221585   3.376   5.567   6.919
 6896SOL     OW21586   3.606   0.413   2.950
 6896SOL    HW121587   3.579   0.467   3.030
 6896SOL    HW221588   3.608   0.316   2.975
 6897SOL     OW21589   3.237   3.340   0.294
 6897SOL    HW121590   3.257   3.430   0.255
 6897SOL    HW221591   3.214   3.277   0.220
 6898SOL     OW21592   4.239   2.232   2.042
 6898SOL    HW121593   4.150   2.198   2.073
 6898SOL    HW221594   4.227   2.287   1.960
 6899SOL     OW21595   4.817   5.885   6.448
 6899SOL    HW121596   4.842   5.834   6.530
 6899SOL    HW221597   4.892   5.945   6.422
 6900SOL     OW21598   4.947   0.550   6.091
 6900SOL    HW121599   5.043   0.563   6.116
 6900SOL    HW221600   4.936   0.560   5.992
 6901SOL     OW21601   1.484   0.405   6.299
 6901SOL    HW121602   1.508   0.472   6.228
 6901SOL    HW221603   1.429   0.450   6.369
 6902SOL     OW21604   6.660   5.891   0.882
 6902SOL    HW121605   6.666   5.857   0.789
 6902SOL    HW221606   6.628   5.819   0.943
 6903SOL     OW21607   4.524   4.307   0.848
 6903SOL    HW121608   4.433   4.327   0.811
 6903SOL    HW221609   4.528   4.339   0.943
 6904SOL     OW21610   6.944   1.291   3.042
 6904SOL    HW121611   6.861   1.274   2.990
 6904SOL    HW221612   6.920   1.330   3.131
 6905SOL     OW21613   5.599   6.118   1.154
 6905SOL    HW121614   5.669   6.173   1.107
 6905SOL    HW221615   5.508   6.144   1.122
 6906SOL     OW21616   4.387   0.773   3.415
 6906SOL    HW121617   4.350   0.828   3.339
 6906SOL    HW221618   4.479   0.803   3.436
 6907SOL     OW21619   4.031   1.480   1.904
 6907SOL    HW121620   3.975   1.397   1.896
 6907SOL    HW221621   3.987   1.555   1.856
 6908SOL     OW21622   1.460   6.795   5.837
 6908SOL    HW121623   1.537   6.795   5.901
 6908SOL    HW221624   1.374   6.796   5.887
 6909SOL     OW21625   4.343   3.677   6.682
 6909SOL    HW121626   4.271   3.707   6.620
 6909SOL    HW221627   4.313   3.690   6.777
 6910SOL     OW21628   6.303   1.485   1.801
 6910SOL    HW121629   6.259   1.396   1.810
 6910SOL    HW221630   6.306   1.530   1.890
 6911SOL     OW21631   3.823   1.323   4.777
 6911SOL    HW121632   3.810   1.380   4.696
 6911SOL    HW221633   3.881   1.370   4.843
 6912SOL     OW21634   5.150   5.093   0.007
 6912SOL    HW121635   5.207   5.078   0.088
 6912SOL    HW221636   5.197   5.154   6.969
 6913SOL     OW21637   5.410   4.888   4.971
 6913SOL    HW121638   5.347   4.953   5.014
 6913SOL    HW221639   5.504   4.912   4.994
 6914SOL     OW21640   6.373   4.873   0.575
 6914SOL    HW121641   6.275   4.892   0.569
 6914SOL    HW221642   6.391   4.781   0.540
 6915SOL     OW21643   0.543   5.042   2.881
 6915SOL    HW121644   0.583   5.088   2.961
 6915SOL    HW221645   0.449   5.016   2.902
 6916SOL     OW21646   6.307   2.227   6.948
 6916SOL    HW121647   6.378   2.287   6.912
 6916SOL    HW221648   6.225   2.280   6.969
 6917SOL     OW21649   4.324   5.678   6.307
 6917SOL    HW121650   4.304   5.767   6.266
 6917SOL    HW221651   4.412   5.645   6.273
 6918SOL     OW21652   0.472   3.568   3.961
 6918SOL    HW121653   0.511   3.515   3.885
 6918SOL    HW221654   0.541   3.581   4.032
 6919SOL     OW21655   2.067   6.267   2.997
 6919SOL    HW121656   2.020   6.266   3.085
 6919SOL    HW221657   2.153   6.218   3.005
 6920SOL     OW21658   4.928   6.748   4.302
 6920SOL    HW121659   4.925   6.732   4.204
 6920SOL    HW221660   5.023   6.741   4.334
 6921SOL     OW21661   0.592   1.074   3.620
 6921SOL    HW121662   0.645   1.110   3.543
 6921SOL    HW221663   0.617   1.122   3.704
 6922SOL     OW21664   2.604   6.640   0.650
 6922SOL    HW121665   2.556   6.680   0.728
 6922SOL    HW221666   2.560   6.553   0.626
 6923SOL     OW21667   4.813   0.590   3.866
 6923SOL    HW121668   4.737   0.649   3.894
 6923SOL    HW221669   4.781   0.528   3.794
 6924SOL     OW21670   0.101   5.340   1.672
 6924SOL    HW121671   0.154   5.364   1.590
 6924SOL    HW221672   0.153   5.274   1.726
 6925SOL     OW21673   4.552   5.688   2.850
 6925SOL    HW121674   4.506   5.710   2.764
 6925SOL    HW221675   4.537   5.591   2.871
 6926SOL     OW21676   3.507   3.158   4.493
 6926SOL    HW121677   3.478   3.139   4.399
 6926SOL    HW221678   3.570   3.087   4.523
 6927SOL     OW21679   4.656   3.985   5.892
 6927SOL    HW121680   4.746   4.021   5.916
 6927SOL    HW221681   4.666   3.894   5.853
 6928SOL     OW21682   5.805   0.367   6.434
 6928SOL    HW121683   5.731   0.300   6.423
 6928SOL    HW221684   5.838   0.364   6.528
 6929SOL     OW21685   4.116   5.289   0.075
 6929SOL    HW121686   4.168   5.355   0.021
 6929SOL    HW221687   4.133   5.304   0.172
 6930SOL     OW21688   0.825   0.185   3.980
 6930SOL    HW121689   0.776   0.210   3.897
 6930SOL    HW221690   0.892   0.114   3.959
 6931SOL     OW21691   1.763   1.581   1.347
 6931SOL    HW121692   1.819   1.498   1.343
 6931SOL    HW221693   1.709   1.589   1.264
 6932SOL     OW21694   2.882   1.767   0.927
 6932SOL    HW121695   2.920   1.761   1.019
 6932SOL    HW221696   2.850   1.676   0.899
 6933SOL     OW21697   4.038   5.417   5.727
 6933SOL    HW121698   4.007   5.477   5.800
 6933SOL    HW221699   4.045   5.323   5.762
 6934SOL     OW21700   4.922   3.040   6.998
 6934SOL    HW121701   4.840   3.019   0.026
 6934SOL    HW221702   4.896   3.059   6.903
 6935SOL     OW21703   4.119   5.753   3.354
 6935SOL    HW121704   4.074   5.701   3.282
 6935SOL    HW221705   4.051   5.783   3.421
 6936SOL     OW21706   0.965   3.946   1.747
 6936SOL    HW121707   0.996   4.038   1.722
 6936SOL    HW221708   1.015   3.915   1.828
 6937SOL     OW21709   4.529   6.817   5.235
 6937SOL    HW121710   4.450   6.756   5.221
 6937SOL    HW221711   4.502   6.891   5.297
 6938SOL     OW21712   5.039   2.808   5.190
 6938SOL    HW121713   5.098   2.870   5.243
 6938SOL    HW221714   4.976   2.862   5.135
 6939SOL     OW21715   0.222   4.083   2.682
 6939SOL    HW121716   0.202   4.102   2.586
 6939SOL    HW221717   0.303   4.134   2.710
 6940SOL     OW21718   5.369   0.558   5.393
 6940SOL    HW121719   5.360   0.657   5.398
 6940SOL    HW221720   5.294   0.520   5.339
 6941SOL     OW21721   4.081   3.744   3.786
 6941SOL    HW121722   4.124   3.666   3.741
 6941SOL    HW221723   4.094   3.737   3.885
 6942SOL     OW21724   0.007   2.149   6.902
 6942SOL    HW121725   6.934   2.169   6.900
 6942SOL    HW221726   0.057   2.222   6.855
 6943SOL     OW21727   5.176   5.547   6.580
 6943SOL    HW121728   5.194   5.513   6.488
 6943SOL    HW221729   5.259   5.537   6.636
 6944SOL     OW21730   1.277   5.401   6.218
 6944SOL    HW121731   1.183   5.430   6.236
 6944SOL    HW221732   1.329   5.400   6.303
 6945SOL     OW21733   6.181   2.728   5.878
 6945SOL    HW121734   6.149   2.797   5.943
 6945SOL    HW221735   6.274   2.752   5.849
 6946SOL     OW21736   5.546   3.991   2.872
 6946SOL    HW121737   5.624   4.053   2.867
 6946SOL    HW221738   5.495   3.995   2.786
 6947SOL     OW21739   3.771   6.402   3.249
 6947SOL    HW121740   3.836   6.477   3.235
 6947SOL    HW221741   3.698   6.432   3.309
 6948SOL     OW21742   4.817   0.835   5.414
 6948SOL    HW121743   4.775   0.902   5.354
 6948SOL    HW221744   4.751   0.763   5.435
 6949SOL     OW21745   5.229   0.129   2.680
 6949SOL    HW121746   5.285   0.211   2.670
 6949SOL    HW221747   5.158   0.127   2.610
 6950SOL     OW21748   2.180   0.722   3.200
 6950SOL    HW121749   2.120   0.679   3.267
 6950SOL    HW221750   2.274   0.691   3.215
 6951SOL     OW21751   6.354   5.426   6.139
 6951SOL    HW121752   6.342   5.368   6.058
 6951SOL    HW221753   6.264   5.447   6.178
 6952SOL     OW21754   0.635   5.028   5.327
 6952SOL    HW121755   0.566   5.094   5.295
 6952SOL    HW221756   0.598   4.935   5.318
 6953SOL     OW21757   4.785   1.285   5.451
 6953SOL    HW121758   4.754   1.217   5.385
 6953SOL    HW221759   4.786   1.246   5.543
 6954SOL     OW21760   6.695   3.470   3.535
 6954SOL    HW121761   6.695   3.557   3.584
 6954SOL    HW221762   6.786   3.452   3.500
 6955SOL     OW21763   6.433   5.746   1.585
 6955SOL    HW121764   6.524   5.706   1.570
 6955SOL    HW221765   6.375   5.679   1.632
 6956SOL     OW21766   4.303   5.284   1.124
 6956SOL    HW121767   4.397   5.316   1.121
 6956SOL    HW221768   4.301   5.191   1.163
 6957SOL     OW21769   0.255   4.504   1.720
 6957SOL    HW121770   0.324   4.526   1.789
 6957SOL    HW221771   0.257   4.571   1.647
 6958SOL     OW21772   3.212   3.015   6.554
 6958SOL    HW121773   3.150   3.078   6.602
 6958SOL    HW221774   3.284   2.984   6.617
 6959SOL     OW21775   3.242   1.622   4.501
 6959SOL    HW121776   3.261   1.648   4.406
 6959SOL    HW221777   3.157   1.569   4.505
 6960SOL     OW21778   0.783   4.651   6.598
 6960SOL    HW121779   0.688   4.626   6.617
 6960SOL    HW221780   0.834   4.657   6.684
 6961SOL     OW21781   1.063   0.752   3.116
 6961SOL    HW121782   1.138   0.763   3.051
 6961SOL    HW221783   0.990   0.818   3.093
 6962SOL     OW21784   5.068   4.069   1.374
 6962SOL    HW121785   5.108   3.993   1.323
 6962SOL    HW221786   5.027   4.034   1.459
 6963SOL     OW21787   6.955   4.659   1.740
 6963SOL    HW121788   7.020   4.654   1.665
 6963SOL    HW221789   6.877   4.600   1.720
 6964SOL     OW21790   4.516   5.353   5.107
 6964SOL    HW121791   4.449   5.328   5.037
 6964SOL    HW221792   4.544   5.448   5.093
 6965SOL     OW21793   0.137   3.009   5.510
 6965SOL    HW121794   0.092   3.093   5.542
 6965SOL    HW221795   0.228   3.031   5.477
 6966SOL     OW21796   4.705   2.280   3.305
 6966SOL    HW121797   4.646   2.199   3.305
 6966SOL    HW221798   4.692   2.331   3.390
 6967SOL     OW21799   1.293   1.140   5.959
 6967SOL    HW121800   1.251   1.154   6.049
 6967SOL    HW221801   1.386   1.175   5.960
 6968SOL     OW21802   5.059   5.857   1.902
 6968SOL    HW121803   5.122   5.864   1.979
 6968SOL    HW221804   5.101   5.895   1.820
 6969SOL     OW21805   3.013   1.968   0.663
 6969SOL    HW121806   3.013   1.983   0.564
 6969SOL    HW221807   2.948   1.895   0.685
 6970SOL     OW21808   5.399   4.055   0.247
 6970SOL    HW121809   5.375   3.983   0.311
 6970SOL    HW221810   5.317   4.081   0.194
 6971SOL     OW21811   5.454   1.228   1.311
 6971SOL    HW121812   5.360   1.240   1.344
 6971SOL    HW221813   5.487   1.315   1.272
 6972SOL     OW21814   5.352   5.046   3.955
 6972SOL    HW121815   5.278   5.009   3.899
 6972SOL    HW221816   5.390   4.973   4.011
 6973SOL     OW21817   1.962   4.261   3.473
 6973SOL    HW121818   2.003   4.351   3.455
 6973SOL    HW221819   2.034   4.192   3.471
 6974SOL     OW21820   3.385   3.717   4.497
 6974SOL    HW121821   3.337   3.778   4.434
 6974SOL    HW221822   3.319   3.657   4.541
 6975SOL     OW21823   4.329   0.710   5.760
 6975SOL    HW121824   4.344   0.757   5.847
 6975SOL    HW221825   4.314   0.612   5.778
 6976SOL     OW21826   2.166   4.820   6.768
 6976SOL    HW121827   2.095   4.842   6.701
 6976SOL    HW221828   2.147   4.868   6.853
 6977SOL     OW21829   3.423   1.823   2.675
 6977SOL    HW121830   3.424   1.730   2.710
 6977SOL    HW221831   3.368   1.827   2.592
 6978SOL     OW21832   0.168   0.521   1.878
 6978SOL    HW121833   0.184   0.438   1.824
 6978SOL    HW221834   0.095   0.574   1.835
 6979SOL     OW21835   0.572   5.038   2.420
 6979SOL    HW121836   0.476   5.052   2.444
 6979SOL    HW221837   0.629   5.051   2.500
 6980SOL     OW21838   2.823   1.016   4.283
 6980SOL    HW121839   2.727   1.014   4.256
 6980SOL    HW221840   2.842   1.101   4.334
 6981SOL     OW21841   1.963   5.434   0.220
 6981SOL    HW121842   1.871   5.424   0.183
 6981SOL    HW221843   1.991   5.349   0.264
 6982SOL     OW21844   0.482   6.861   4.855
 6982SOL    HW121845   0.513   6.951   4.824
 6982SOL    HW221846   0.439   6.813   4.779
 6983SOL     OW21847   6.761   0.563   4.127
 6983SOL    HW121848   6.724   0.649   4.162
 6983SOL    HW221849   6.710   0.535   4.046
 6984SOL     OW21850   2.075   1.375   5.929
 6984SOL    HW121851   2.122   1.299   5.975
 6984SOL    HW221852   1.987   1.391   5.972
 6985SOL     OW21853   4.848   5.872   2.207
 6985SOL    HW121854   4.842   5.799   2.139
 6985SOL    HW221855   4.933   5.864   2.258
 6986SOL     OW21856   2.278   6.480   6.145
 6986SOL    HW121857   2.212   6.526   6.205
 6986SOL    HW221858   2.360   6.458   6.197
 6987SOL     OW21859   0.521   3.738   6.583
 6987SOL    HW121860   0.501   3.720   6.487
 6987SOL    HW221861   0.564   3.828   6.592
 6988SOL     OW21862   5.439   1.407   3.580
 6988SOL    HW121863   5.347   1.404   3.540
 6988SOL    HW221864   5.507   1.383   3.511
 6989SOL     OW21865   1.428   1.923   3.429
 6989SOL    HW121866   1.488   1.845   3.442
 6989SOL    HW221867   1.473   2.006   3.460
 6990SOL     OW21868   3.507   3.260   0.349
 6990SOL    HW121869   3.410   3.283   0.338
 6990SOL    HW221870   3.535   3.280   0.443
 6991SOL     OW21871   2.895   4.803   5.944
 6991SOL    HW121872   2.893   4.706   5.968
 6991SOL    HW221873   2.928   4.856   6.022
 6992SOL     OW21874   5.725   6.690   3.833
 6992SOL    HW121875   5.633   6.710   3.799
 6992SOL    HW221876   5.765   6.773   3.871
 6993SOL     OW21877   0.290   0.059   2.859
 6993SOL    HW121878   0.198   0.073   2.823
 6993SOL    HW221879   0.352   0.126   2.818
 6994SOL     OW21880   2.017   3.303   6.421
 6994SOL    HW121881   2.113   3.317   6.445
 6994SOL    HW221882   2.011   3.242   6.342
 6995SOL     OW21883   5.837   5.348   3.433
 6995SOL    HW121884   5.875   5.309   3.349
 6995SOL    HW221885   5.837   5.448   3.425
 6996SOL     OW21886   2.575   0.392   5.478
 6996SOL    HW121887   2.531   0.344   5.554
 6996SOL    HW221888   2.557   0.342   5.393
 6997SOL     OW21889   4.807   0.015   4.739
 6997SOL    HW121890   4.775   0.007   4.644
 6997SOL    HW221891   4.734   0.054   4.795
 6998SOL     OW21892   1.252   3.126   2.747
 6998SOL    HW121893   1.212   3.075   2.671
 6998SOL    HW221894   1.248   3.224   2.726
 6999SOL     OW21895   3.292   1.543   5.719
 6999SOL    HW121896   3.341   1.561   5.635
 6999SOL    HW221897   3.237   1.623   5.744
 7000SOL     OW21898   0.874   6.268   2.400
 7000SOL    HW121899   0.904   6.177   2.373
 7000SOL    HW221900   0.864   6.326   2.318
 7001SOL     OW21901   2.414   3.291   5.630
 7001SOL    HW121902   2.439   3.290   5.533
 7001SOL    HW221903   2.395   3.384   5.659
 7002SOL     OW21904   1.111   5.097   3.226
 7002SOL    HW121905   1.074   5.028   3.164
 7002SOL    HW221906   1.146   5.053   3.308
 7003SOL     OW21907   3.235   6.443   1.071
 7003SOL    HW121908   3.306   6.476   1.008
 7003SOL    HW221909   3.156   6.412   1.017
 7004SOL     OW21910   1.507   4.141   1.037
 7004SOL    HW121911   1.589   4.102   0.996
 7004SOL    HW221912   1.427   4.109   0.986
 7005SOL     OW21913   5.341   5.965   6.516
 7005SOL    HW121914   5.372   6.045   6.566
 7005SOL    HW221915   5.294   5.994   6.432
 7006SOL     OW21916   4.621   4.423   5.053
 7006SOL    HW121917   4.661   4.510   5.025
 7006SOL    HW221918   4.522   4.429   5.051
 7007SOL     OW21919   4.451   6.215   3.442
 7007SOL    HW121920   4.359   6.180   3.427
 7007SOL    HW221921   4.466   6.296   3.385
 7008SOL     OW21922   1.623   5.178   3.950
 7008SOL    HW121923   1.557   5.158   3.877
 7008SOL    HW221924   1.574   5.184   4.038
 7009SOL     OW21925   0.219   4.827   2.522
 7009SOL    HW121926   0.192   4.923   2.516
 7009SOL    HW221927   0.286   4.816   2.595
 7010SOL     OW21928   3.670   4.991   6.378
 7010SOL    HW121929   3.727   5.021   6.455
 7010SOL    HW221930   3.668   4.891   6.375
 7011SOL     OW21931   2.946   0.341   5.846
 7011SOL    HW121932   2.879   0.292   5.901
 7011SOL    HW221933   2.906   0.424   5.809
 7012SOL     OW21934   1.666   0.585   1.662
 7012SOL    HW121935   1.619   0.588   1.750
 7012SOL    HW221936   1.606   0.541   1.595
 7013SOL     OW21937   1.216   6.959   1.702
 7013SOL    HW121938   1.201   6.865   1.672
 7013SOL    HW221939   1.195   7.022   1.627
 7014SOL     OW21940   2.898   4.044   1.158
 7014SOL    HW121941   2.912   4.066   1.062
 7014SOL    HW221942   2.836   4.111   1.199
 7015SOL     OW21943   5.011   2.495   2.469
 7015SOL    HW121944   4.972   2.440   2.394
 7015SOL    HW221945   4.978   2.589   2.462
 7016SOL     OW21946   4.214   4.859   1.380
 7016SOL    HW121947   4.114   4.856   1.380
 7016SOL    HW221948   4.245   4.928   1.315
 7017SOL     OW21949   2.852   1.961   3.308
 7017SOL    HW121950   2.924   1.908   3.353
 7017SOL    HW221951   2.799   2.010   3.377
 7018SOL     OW21952   0.695   4.706   5.022
 7018SOL    HW121953   0.765   4.715   5.092
 7018SOL    HW221954   0.619   4.651   5.058
 7019SOL     OW21955   2.544   5.646   0.033
 7019SOL    HW121956   2.643   5.643   0.047
 7019SOL    HW221957   2.507   5.729   0.075
 7020SOL     OW21958   6.205   6.579   6.925
 7020SOL    HW121959   6.237   6.615   7.012
 7020SOL    HW221960   6.220   6.647   6.853
 7021SOL     OW21961   2.480   1.243   6.017
 7021SOL    HW121962   2.572   1.204   6.006
 7021SOL    HW221963   2.447   1.274   5.928
 7022SOL     OW21964   5.297   4.055   6.897
 7022SOL    HW121965   5.273   3.968   6.853
 7022SOL    HW221966   5.397   4.066   6.894
 7023SOL     OW21967   6.475   3.505   2.230
 7023SOL    HW121968   6.564   3.548   2.239
 7023SOL    HW221969   6.404   3.575   2.221
 7024SOL     OW21970   1.463   5.861   0.541
 7024SOL    HW121971   1.463   5.953   0.581
 7024SOL    HW221972   1.519   5.861   0.458
 7025SOL     OW21973   2.886   2.647   6.850
 7025SOL    HW121974   2.891   2.637   6.751
 7025SOL    HW221975   2.941   2.725   6.879
 7026SOL     OW21976   3.958   1.543   1.135
 7026SOL    HW121977   3.964   1.517   1.232
 7026SOL    HW221978   4.050   1.561   1.100
 7027SOL     OW21979   3.969   6.246   4.303
 7027SOL    HW121980   4.028   6.166   4.290
 7027SOL    HW221981   4.025   6.329   4.298
 7028SOL     OW21982   4.251   6.459   3.949
 7028SOL    HW121983   4.255   6.546   3.900
 7028SOL    HW221984   4.277   6.385   3.888
 7029SOL     OW21985   3.419   0.308   6.960
 7029SOL    HW121986   3.396   0.359   6.878
 7029SOL    HW221987   3.402   0.211   6.945
 7030SOL     OW21988   0.643   3.823   4.774
 7030SOL    HW121989   0.629   3.819   4.675
 7030SOL    HW221990   0.738   3.800   4.796
 7031SOL     OW21991   1.598   5.717   4.322
 7031SOL    HW121992   1.665   5.761   4.262
 7031SOL    HW221993   1.621   5.620   4.333
 7032SOL     OW21994   6.096   0.725   2.595
 7032SOL    HW121995   6.008   0.759   2.628
 7032SOL    HW221996   6.093   0.719   2.495
 7033SOL     OW21997   0.076   1.372   3.637
 7033SOL    HW121998   0.117   1.331   3.556
 7033SOL    HW221999   0.147   1.415   3.692
 7034SOL     OW22000   6.605   6.982   2.773
 7034SOL    HW122001   6.635   6.988   2.678
 7034SOL    HW222002   6.634   6.895   2.812
 7035SOL     OW22003   6.676   5.551   2.514
 7035SOL    HW122004   6.710   5.645   2.510
 7035SOL    HW222005   6.709   5.508   2.598
 7036SOL     OW22006   6.820   5.046   2.248
 7036SOL    HW122007   6.841   5.018   2.341
 7036SOL    HW222008   6.897   5.098   2.211
 7037SOL     OW22009   1.092   6.136   5.783
 7037SOL    HW122010   1.094   6.109   5.687
 7037SOL    HW222011   1.153   6.077   5.835
 7038SOL     OW22012   0.774   4.545   4.195
 7038SOL    HW122013   0.717   4.515   4.271
 7038SOL    HW222014   0.721   4.603   4.134
 7039SOL     OW22015   3.694   1.123   5.939
 7039SOL    HW122016   3.791   1.099   5.936
 7039SOL    HW222017   3.647   1.082   5.861
 7040SOL     OW22018   4.804   2.251   6.476
 7040SOL    HW122019   4.815   2.324   6.407
 7040SOL    HW222020   4.890   2.240   6.526
 7041SOL     OW22021   1.620   2.041   3.147
 7041SOL    HW122022   1.684   1.977   3.103
 7041SOL    HW222023   1.552   2.071   3.080
 7042SOL     OW22024   3.541   6.148   6.195
 7042SOL    HW122025   3.472   6.080   6.168
 7042SOL    HW222026   3.506   6.203   6.271
 7043SOL     OW22027   2.420   1.799   3.066
 7043SOL    HW122028   2.398   1.703   3.081
 7043SOL    HW222029   2.515   1.816   3.091
 7044SOL     OW22030   4.589   4.837   2.802
 7044SOL    HW122031   4.661   4.903   2.822
 7044SOL    HW222032   4.612   4.787   2.719
 7045SOL     OW22033   5.744   5.769   1.220
 7045SOL    HW122034   5.825   5.772   1.280
 7045SOL    HW222035   5.772   5.744   1.128
 7046SOL     OW22036   3.742   0.685   4.368
 7046SOL    HW122037   3.696   0.681   4.456
 7046SOL    HW222038   3.741   0.594   4.326
 7047SOL     OW22039   1.235   1.097   4.457
 7047SOL    HW122040   1.234   1.001   4.486
 7047SOL    HW222041   1.236   1.102   4.357
 7048SOL     OW22042   6.708   5.841   0.596
 7048SOL    HW122043   6.627   5.838   0.537
 7048SOL    HW222044   6.768   5.915   0.566
 7049SOL     OW22045   2.434   1.322   0.741
 7049SOL    HW122046   2.379   1.245   0.710
 7049SOL    HW222047   2.524   1.289   0.771
 7050SOL     OW22048   3.017   4.024   4.776
 7050SOL    HW122049   3.052   4.057   4.864
 7050SOL    HW222050   2.932   4.071   4.753
 7051SOL     OW22051   0.139   0.223   1.821
 7051SOL    HW122052   0.064   0.220   1.887
 7051SOL    HW222053   0.101   0.226   1.728
 7052SOL     OW22054   0.124   2.397   3.868
 7052SOL    HW122055   0.175   2.466   3.817
 7052SOL    HW222056   0.169   2.380   3.956
 7053SOL     OW22057   0.626   4.327   6.835
 7053SOL    HW122058   0.541   4.357   6.791
 7053SOL    HW222059   0.608   4.246   6.891
 7054SOL     OW22060   6.282   6.302   1.937
 7054SOL    HW122061   6.239   6.212   1.945
 7054SOL    HW222062   6.290   6.326   1.840
 7055SOL     OW22063   4.584   0.676   4.053
 7055SOL    HW122064   4.663   0.737   4.039
 7055SOL    HW222065   4.545   0.651   3.965
 7056SOL     OW22066   5.383   4.917   3.677
 7056SOL    HW122067   5.311   4.882   3.737
 7056SOL    HW222068   5.341   4.962   3.598
 7057SOL     OW22069   6.975   5.704   3.485
 7057SOL    HW122070   7.002   5.794   3.519
 7057SOL    HW222071   6.876   5.694   3.494
 7058SOL     OW22072   0.822   5.336   5.817
 7058SOL    HW122073   0.852   5.422   5.775
 7058SOL    HW222074   0.832   5.342   5.916
 7059SOL     OW22075   1.202   0.129   2.279
 7059SOL    HW122076   1.145   0.070   2.221
 7059SOL    HW222077   1.296   0.095   2.278
 7060SOL     OW22078   3.358   6.201   1.729
 7060SOL    HW122079   3.386   6.219   1.635
 7060SOL    HW222080   3.354   6.103   1.745
 7061SOL     OW22081   0.468   0.597   2.978
 7061SOL    HW122082   0.429   0.686   2.955
 7061SOL    HW222083   0.396   0.535   3.007
 7062SOL     OW22084   5.389   1.933   4.990
 7062SOL    HW122085   5.327   1.898   4.920
 7062SOL    HW222086   5.360   1.898   5.080
 7063SOL     OW22087   2.154   6.517   1.474
 7063SOL    HW122088   2.082   6.512   1.543
 7063SOL    HW222089   2.136   6.450   1.402
 7064SOL     OW22090   3.677   2.103   1.402
 7064SOL    HW122091   3.663   2.089   1.500
 7064SOL    HW222092   3.648   2.195   1.377
 7065SOL     OW22093   4.659   3.631   1.665
 7065SOL    HW122094   4.732   3.564   1.672
 7065SOL    HW222095   4.695   3.723   1.684
 7066SOL     OW22096   4.260   6.672   0.325
 7066SOL    HW122097   4.195   6.681   0.250
 7066SOL    HW222098   4.353   6.678   0.290
 7067SOL     OW22099   0.712   3.856   5.678
 7067SOL    HW122100   0.758   3.908   5.751
 7067SOL    HW222101   0.678   3.919   5.609
 7068SOL     OW22102   1.514   1.426   3.507
 7068SOL    HW122103   1.468   1.381   3.431
 7068SOL    HW222104   1.525   1.361   3.582
 7069SOL     OW22105   0.641   4.267   5.619
 7069SOL    HW122106   0.544   4.268   5.598
 7069SOL    HW222107   0.655   4.301   5.712
 7070SOL     OW22108   6.439   4.740   5.381
 7070SOL    HW122109   6.342   4.727   5.400
 7070SOL    HW222110   6.457   4.718   5.285
 7071SOL     OW22111   1.642   5.743   5.383
 7071SOL    HW122112   1.573   5.687   5.429
 7071SOL    HW222113   1.606   5.835   5.369
 7072SOL     OW22114   6.940   6.477   6.424
 7072SOL    HW122115   7.003   6.536   6.474
 7072SOL    HW222116   6.981   6.386   6.412
 7073SOL     OW22117   0.599   0.815   5.225
 7073SOL    HW122118   0.590   0.772   5.136
 7073SOL    HW222119   0.529   0.779   5.287
 7074SOL     OW22120   3.233   1.712   1.844
 7074SOL    HW122121   3.333   1.714   1.847
 7074SOL    HW222122   3.197   1.747   1.931
 7075SOL     OW22123   1.898   5.859   4.450
 7075SOL    HW122124   1.894   5.766   4.487
 7075SOL    HW222125   1.918   5.855   4.352
 7076SOL     OW22126   3.619   1.889   6.339
 7076SOL    HW122127   3.628   1.827   6.416
 7076SOL    HW222128   3.689   1.867   6.271
 7077SOL     OW22129   2.324   5.538   5.509
 7077SOL    HW122130   2.299   5.538   5.412
 7077SOL    HW222131   2.410   5.588   5.520
 7078SOL     OW22132   5.831   0.501   3.433
 7078SOL    HW122133   5.860   0.558   3.510
 7078SOL    HW222134   5.908   0.487   3.370
 7079SOL     OW22135   6.134   6.513   5.843
 7079SOL    HW122136   6.070   6.492   5.917
 7079SOL    HW222137   6.136   6.611   5.827
 7080SOL     OW22138   4.096   2.242   3.795
 7080SOL    HW122139   4.153   2.271   3.718
 7080SOL    HW222140   4.141   2.268   3.880
 7081SOL     OW22141   3.276   1.260   5.743
 7081SOL    HW122142   3.224   1.226   5.821
 7081SOL    HW222143   3.278   1.359   5.744
 7082SOL     OW22144   5.777   1.486   6.746
 7082SOL    HW122145   5.687   1.511   6.780
 7082SOL    HW222146   5.844   1.495   6.820
 7083SOL     OW22147   3.426   0.252   5.782
 7083SOL    HW122148   3.512   0.300   5.763
 7083SOL    HW222149   3.388   0.217   5.696
 7084SOL     OW22150   6.845   6.416   5.700
 7084SOL    HW122151   6.866   6.502   5.747
 7084SOL    HW222152   6.929   6.380   5.658
 7085SOL     OW22153   2.244   2.466   2.568
 7085SOL    HW122154   2.235   2.376   2.611
 7085SOL    HW222155   2.215   2.460   2.473
 7086SOL     OW22156   5.611   0.760   6.556
 7086SOL    HW122157   5.644   0.770   6.649
 7086SOL    HW222158   5.675   0.804   6.492
 7087SOL     OW22159   0.860   3.550   4.545
 7087SOL    HW122160   0.950   3.506   4.546
 7087SOL    HW222161   0.865   3.635   4.493
 7088SOL     OW22162   5.391   3.184   4.232
 7088SOL    HW122163   5.402   3.101   4.287
 7088SOL    HW222164   5.449   3.177   4.151
 7089SOL     OW22165   3.820   2.032   6.645
 7089SOL    HW122166   3.879   2.049   6.566
 7089SOL    HW222167   3.821   2.113   6.705
 7090SOL     OW22168   2.168   2.249   4.974
 7090SOL    HW122169   2.228   2.170   4.978
 7090SOL    HW222170   2.192   2.314   5.046
 7091SOL     OW22171   0.031   0.944   0.711
 7091SOL    HW122172   0.072   0.856   0.686
 7091SOL    HW222173   7.016   0.987   0.630
 7092SOL     OW22174   3.595   4.176   1.308
 7092SOL    HW122175   3.502   4.161   1.339
 7092SOL    HW222176   3.611   4.125   1.224
 7093SOL     OW22177   3.644   3.874   4.772
 7093SOL    HW122178   3.544   3.869   4.769
 7093SOL    HW222179   3.672   3.955   4.824
 7094SOL     OW22180   1.064   6.677   5.601
 7094SOL    HW122181   1.146   6.731   5.587
 7094SOL    HW222182   0.985   6.725   5.563
 7095SOL     OW22183   1.091   3.058   6.644
 7095SOL    HW122184   1.048   3.148   6.656
 7095SOL    HW222185   1.168   3.066   6.581
 7096SOL     OW22186   4.251   2.301   4.063
 7096SOL    HW122187   4.297   2.213   4.048
 7096SOL    HW222188   4.303   2.355   4.129
 7097SOL     OW22189   0.466   0.957   1.882
 7097SOL    HW122190   0.393   0.890   1.892
 7097SOL    HW222191   0.491   0.994   1.971
 7098SOL     OW22192   1.802   5.974   6.391
 7098SOL    HW122193   1.856   6.025   6.324
 7098SOL    HW222194   1.768   5.890   6.350
 7099SOL     OW22195   1.164   1.227   5.155
 7099SOL    HW122196   1.089   1.184   5.205
 7099SOL    HW222197   1.144   1.324   5.143
 7100SOL     OW22198   5.107   3.851   0.993
 7100SOL    HW122199   5.126   3.788   0.917
 7100SOL    HW222200   5.023   3.901   0.973
 7101SOL     OW22201   3.162   0.610   4.935
 7101SOL    HW122202   3.128   0.517   4.922
 7101SOL    HW222203   3.123   0.648   5.019
 7102SOL     OW22204   3.873   1.397   0.711
 7102SOL    HW122205   3.842   1.377   0.618
 7102SOL    HW222206   3.824   1.338   0.775
 7103SOL     OW22207   3.203   6.379   0.447
 7103SOL    HW122208   3.237   6.460   0.398
 7103SOL    HW222209   3.222   6.297   0.393
 7104SOL     OW22210   1.837   2.476   3.202
 7104SOL    HW122211   1.931   2.512   3.203
 7104SOL    HW222212   1.814   2.442   3.294
 7105SOL     OW22213   3.474   3.470   4.392
 7105SOL    HW122214   3.434   3.561   4.401
 7105SOL    HW222215   3.442   3.428   4.308
 7106SOL     OW22216   3.723   3.332   4.650
 7106SOL    HW122217   3.798   3.396   4.639
 7106SOL    HW222218   3.756   3.239   4.634
 7107SOL     OW22219   3.138   0.988   0.788
 7107SOL    HW122220   3.112   1.080   0.816
 7107SOL    HW222221   3.140   0.928   0.868
 7108SOL     OW22222   4.968   6.133   1.022
 7108SOL    HW122223   4.935   6.086   1.104
 7108SOL    HW222224   4.890   6.157   0.965
 7109SOL     OW22225   3.513   0.408   6.016
 7109SOL    HW122226   3.477   0.365   5.933
 7109SOL    HW222227   3.461   0.376   6.095
 7110SOL     OW22228   4.513   5.082   4.228
 7110SOL    HW122229   4.433   5.142   4.223
 7110SOL    HW222230   4.484   4.987   4.217
 7111SOL     OW22231   2.076   3.089   4.123
 7111SOL    HW122232   2.129   3.157   4.072
 7111SOL    HW222233   2.135   3.013   4.148
 7112SOL     OW22234   1.180   6.598   4.104
 7112SOL    HW122235   1.264   6.595   4.049
 7112SOL    HW222236   1.180   6.521   4.168
 7113SOL     OW22237   3.721   4.123   4.527
 7113SOL    HW122238   3.759   4.039   4.488
 7113SOL    HW222239   3.667   4.171   4.457
 7114SOL     OW22240   4.201   1.290   2.086
 7114SOL    HW122241   4.149   1.360   2.134
 7114SOL    HW222242   4.252   1.234   2.151
 7115SOL     OW22243   4.539   1.337   1.684
 7115SOL    HW122244   4.521   1.435   1.686
 7115SOL    HW222245   4.633   1.320   1.714
 7116SOL     OW22246   5.236   3.607   3.551
 7116SOL    HW122247   5.138   3.599   3.568
 7116SOL    HW222248   5.255   3.590   3.454
 7117SOL     OW22249   6.201   6.257   2.347
 7117SOL    HW122250   6.156   6.174   2.313
 7117SOL    HW222251   6.254   6.235   2.429
 7118SOL     OW22252   5.477   3.566   0.816
 7118SOL    HW122253   5.516   3.658   0.813
 7118SOL    HW222254   5.473   3.535   0.911
 7119SOL     OW22255   6.077   1.330   2.627
 7119SOL    HW122256   6.049   1.394   2.699
 7119SOL    HW222257   6.173   1.347   2.603
 7120SOL     OW22258   4.888   1.588   3.878
 7120SOL    HW122259   4.947   1.563   3.954
 7120SOL    HW222260   4.834   1.669   3.903
 7121SOL     OW22261   2.388   6.777   3.961
 7121SOL    HW122262   2.396   6.846   4.033
 7121SOL    HW222263   2.448   6.700   3.982
 7122SOL     OW22264   6.665   1.176   6.983
 7122SOL    HW122265   6.617   1.104   0.008
 7122SOL    HW222266   6.653   1.161   6.885
 7123SOL     OW22267   3.301   5.512   1.780
 7123SOL    HW122268   3.242   5.432   1.784
 7123SOL    HW222269   3.359   5.516   1.862
 7124SOL     OW22270   0.289   5.474   6.691
 7124SOL    HW122271   0.343   5.520   6.621
 7124SOL    HW222272   0.343   5.400   6.732
 7125SOL     OW22273   6.418   6.595   2.424
 7125SOL    HW122274   6.323   6.592   2.393
 7125SOL    HW222275   6.423   6.643   2.512
 7126SOL     OW22276   1.979   4.323   0.402
 7126SOL    HW122277   2.021   4.276   0.324
 7126SOL    HW222278   1.890   4.281   0.421
 7127SOL     OW22279   3.359   5.874   4.583
 7127SOL    HW122280   3.291   5.908   4.648
 7127SOL    HW222281   3.348   5.923   4.496
 7128SOL     OW22282   3.413   4.370   1.096
 7128SOL    HW122283   3.351   4.367   1.174
 7128SOL    HW222284   3.442   4.277   1.072
 7129SOL     OW22285   3.126   0.510   1.313
 7129SOL    HW122286   3.033   0.472   1.311
 7129SOL    HW222287   3.127   0.592   1.369
 7130SOL     OW22288   2.644   4.989   3.480
 7130SOL    HW122289   2.714   4.927   3.516
 7130SOL    HW222290   2.592   4.942   3.408
 7131SOL     OW22291   2.552   1.299   2.512
 7131SOL    HW122292   2.545   1.367   2.585
 7131SOL    HW222293   2.607   1.222   2.543
 7132SOL     OW22294   3.803   3.997   2.876
 7132SOL    HW122295   3.753   4.057   2.813
 7132SOL    HW222296   3.852   3.927   2.824
 7133SOL     OW22297   4.541   5.456   2.990
 7133SOL    HW122298   4.513   5.378   3.045
 7133SOL    HW222299   4.626   5.494   3.027
 7134SOL     OW22300   5.976   5.882   3.834
 7134SOL    HW122301   5.884   5.871   3.796
 7134SOL    HW222302   6.003   5.978   3.827
 7135SOL     OW22303   1.472   1.147   4.155
 7135SOL    HW122304   1.475   1.117   4.060
 7135SOL    HW222305   1.556   1.120   4.202
 7136SOL     OW22306   1.612   1.014   0.535
 7136SOL    HW122307   1.622   0.997   0.633
 7136SOL    HW222308   1.678   1.084   0.507
 7137SOL     OW22309   4.565   0.677   4.338
 7137SOL    HW122310   4.571   0.685   4.238
 7137SOL    HW222311   4.657   0.679   4.377
 7138SOL     OW22312   2.914   3.655   1.036
 7138SOL    HW122313   2.929   3.560   1.008
 7138SOL    HW222314   2.822   3.684   1.008
 7139SOL     OW22315   4.435   3.149   1.580
 7139SOL    HW122316   4.337   3.140   1.599
 7139SOL    HW222317   4.487   3.105   1.653
 7140SOL     OW22318   6.434   4.620   5.135
 7140SOL    HW122319   6.486   4.670   5.065
 7140SOL    HW222320   6.352   4.582   5.094
 7141SOL     OW22321   2.719   0.174   0.914
 7141SOL    HW122322   2.716   0.222   1.001
 7141SOL    HW222323   2.783   0.098   0.920
 7142SOL     OW22324   4.161   6.075   3.908
 7142SOL    HW122325   4.250   6.081   3.955
 7142SOL    HW222326   4.100   6.017   3.960
 7143SOL     OW22327   1.595   4.019   6.530
 7143SOL    HW122328   1.671   3.969   6.489
 7143SOL    HW222329   1.560   4.086   6.464
 7144SOL     OW22330   1.082   2.030   3.028
 7144SOL    HW122331   1.112   1.952   3.083
 7144SOL    HW222332   1.136   2.110   3.052
 7145SOL     OW22333   4.711   6.861   6.691
 7145SOL    HW122334   4.660   6.939   6.654
 7145SOL    HW222335   4.658   6.820   6.766
 7146SOL     OW22336   2.832   6.793   0.651
 7146SOL    HW122337   2.908   6.748   0.603
 7146SOL    HW222338   2.746   6.751   0.623
 7147SOL     OW22339   6.817   0.700   3.081
 7147SOL    HW122340   6.842   0.647   2.999
 7147SOL    HW222341   6.780   0.789   3.053
 7148SOL     OW22342   1.369   6.318   1.763
 7148SOL    HW122343   1.366   6.406   1.811
 7148SOL    HW222344   1.437   6.322   1.691
 7149SOL     OW22345   6.509   1.283   3.285
 7149SOL    HW122346   6.553   1.205   3.329
 7149SOL    HW222347   6.420   1.299   3.327
 7150SOL     OW22348   5.149   2.475   0.358
 7150SOL    HW122349   5.083   2.419   0.409
 7150SOL    HW222350   5.211   2.415   0.309
 7151SOL     OW22351   1.942   5.873   1.539
 7151SOL    HW122352   1.978   5.894   1.448
 7151SOL    HW222353   1.974   5.783   1.568
 7152SOL     OW22354   0.967   2.876   4.487
 7152SOL    HW122355   1.026   2.927   4.424
 7152SOL    HW222356   0.872   2.882   4.455
 7153SOL     OW22357   4.542   1.046   4.745
 7153SOL    HW122358   4.605   0.973   4.718
 7153SOL    HW222359   4.520   1.102   4.666
 7154SOL     OW22360   4.115   6.003   4.268
 7154SOL    HW122361   4.128   5.924   4.328
 7154SOL    HW222362   4.079   5.971   4.180
 7155SOL     OW22363   1.420   6.799   2.207
 7155SOL    HW122364   1.367   6.828   2.126
 7155SOL    HW222365   1.454   6.880   2.255
 7156SOL     OW22366   6.542   5.512   5.358
 7156SOL    HW122367   6.603   5.589   5.340
 7156SOL    HW222368   6.536   5.454   5.277
 7157SOL     OW22369   5.405   5.366   0.479
 7157SOL    HW122370   5.367   5.453   0.511
 7157SOL    HW222371   5.338   5.318   0.423
 7158SOL     OW22372   0.235   6.746   3.410
 7158SOL    HW122373   0.304   6.800   3.361
 7158SOL    HW222374   0.251   6.755   3.509
 7159SOL     OW22375   0.468   5.158   0.567
 7159SOL    HW122376   0.376   5.165   0.605
 7159SOL    HW222377   0.535   5.150   0.642
 7160SOL     OW22378   6.472   0.376   2.063
 7160SOL    HW122379   6.375   0.398   2.066
 7160SOL    HW222380   6.517   0.431   1.993
 7161SOL     OW22381   3.577   2.868   4.104
 7161SOL    HW122382   3.663   2.907   4.136
 7161SOL    HW222383   3.573   2.873   4.004
 7162SOL     OW22384   3.875   4.939   3.996
 7162SOL    HW122385   3.801   4.928   4.063
 7162SOL    HW222386   3.895   5.037   3.984
 7163SOL     OW22387   3.201   0.334   3.638
 7163SOL    HW122388   3.288   0.293   3.610
 7163SOL    HW222389   3.177   0.301   3.729
 7164SOL     OW22390   2.120   1.229   3.715
 7164SOL    HW122391   2.190   1.165   3.683
 7164SOL    HW222392   2.085   1.282   3.638
 7165SOL     OW22393   5.337   0.987   0.782
 7165SOL    HW122394   5.334   1.017   0.878
 7165SOL    HW222395   5.392   1.050   0.729
 7166SOL     OW22396   4.937   4.919   0.812
 7166SOL    HW122397   4.877   4.846   0.847
 7166SOL    HW222398   4.952   4.987   0.884
 7167SOL     OW22399   4.751   3.594   5.436
 7167SOL    HW122400   4.739   3.583   5.338
 7167SOL    HW222401   4.664   3.620   5.478
 7168SOL     OW22402   1.284   0.840   4.025
 7168SOL    HW122403   1.347   0.800   4.091
 7168SOL    HW222404   1.326   0.920   3.983
 7169SOL     OW22405   1.647   3.248   6.180
 7169SOL    HW122406   1.719   3.213   6.240
 7169SOL    HW222407   1.578   3.296   6.234
 7170SOL     OW22408   5.148   4.615   3.380
 7170SOL    HW122409   5.130   4.557   3.300
 7170SOL    HW222410   5.231   4.669   3.363
 7171SOL     OW22411   4.101   2.940   5.534
 7171SOL    HW122412   4.136   2.856   5.494
 7171SOL    HW222413   4.018   2.920   5.586
 7172SOL     OW22414   1.691   6.865   0.475
 7172SOL    HW122415   1.694   6.877   0.574
 7172SOL    HW222416   1.661   6.951   0.432
 7173SOL     OW22417   0.032   6.243   4.832
 7173SOL    HW122418   0.067   6.333   4.858
 7173SOL    HW222419   0.108   6.182   4.810
 7174SOL     OW22420   2.088   5.670   0.259
 7174SOL    HW122421   2.029   5.590   0.266
 7174SOL    HW222422   2.053   5.742   0.318
 7175SOL     OW22423   5.119   4.050   0.064
 7175SOL    HW122424   5.169   4.058   7.003
 7175SOL    HW222425   5.107   3.954   0.087
 7176SOL     OW22426   6.569   4.212   1.454
 7176SOL    HW122427   6.484   4.244   1.412
 7176SOL    HW222428   6.639   4.283   1.445
 7177SOL     OW22429   0.862   5.929   3.426
 7177SOL    HW122430   0.879   5.899   3.520
 7177SOL    HW222431   0.764   5.922   3.406
 7178SOL     OW22432   0.883   3.100   4.879
 7178SOL    HW122433   0.799   3.109   4.825
 7178SOL    HW222434   0.939   3.026   4.842
 7179SOL     OW22435   2.998   3.769   5.533
 7179SOL    HW122436   2.924   3.794   5.471
 7179SOL    HW222437   3.072   3.727   5.481
 7180SOL     OW22438   0.410   6.276   1.433
 7180SOL    HW122439   0.461   6.299   1.350
 7180SOL    HW222440   0.312   6.279   1.413
 7181SOL     OW22441   4.540   0.731   1.490
 7181SOL    HW122442   4.508   0.711   1.583
 7181SOL    HW222443   4.534   0.830   1.474
 7182SOL     OW22444   2.529   4.405   5.342
 7182SOL    HW122445   2.586   4.410   5.424
 7182SOL    HW222446   2.493   4.313   5.331
 7183SOL     OW22447   1.998   5.067   3.226
 7183SOL    HW122448   1.957   5.159   3.230
 7183SOL    HW222449   2.059   5.062   3.147
 7184SOL     OW22450   1.628   6.559   4.159
 7184SOL    HW122451   1.587   6.469   4.142
 7184SOL    HW222452   1.728   6.550   4.164
 7185SOL     OW22453   4.417   2.994   6.994
 7185SOL    HW122454   4.449   2.905   6.960
 7185SOL    HW222455   4.365   3.040   6.921
 7186SOL     OW22456   6.559   5.932   5.168
 7186SOL    HW122457   6.507   6.017   5.177
 7186SOL    HW222458   6.581   5.897   5.259
 7187SOL     OW22459   1.573   4.123   1.741
 7187SOL    HW122460   1.668   4.102   1.765
 7187SOL    HW222461   1.566   4.219   1.714
 7188SOL     OW22462   4.897   0.501   2.067
 7188SOL    HW122463   4.945   0.497   1.979
 7188SOL    HW222464   4.873   0.596   2.088
 7189SOL     OW22465   6.990   1.175   5.190
 7189SOL    HW122466   6.949   1.171   5.281
 7189SOL    HW222467   0.029   1.252   5.185
 7190SOL     OW22468   5.866   4.163   3.262
 7190SOL    HW122469   5.908   4.072   3.267
 7190SOL    HW222470   5.902   4.212   3.183
 7191SOL     OW22471   1.407   3.472   2.592
 7191SOL    HW122472   1.464   3.441   2.516
 7191SOL    HW222473   1.465   3.497   2.669
 7192SOL     OW22474   2.610   4.723   6.477
 7192SOL    HW122475   2.692   4.689   6.522
 7192SOL    HW222476   2.635   4.784   6.402
 7193SOL     OW22477   3.633   1.529   4.403
 7193SOL    HW122478   3.547   1.575   4.380
 7193SOL    HW222479   3.656   1.464   4.331
 7194SOL     OW22480   2.510   2.110   1.835
 7194SOL    HW122481   2.466   2.199   1.825
 7194SOL    HW222482   2.605   2.122   1.862
 7195SOL     OW22483   0.359   5.441   0.748
 7195SOL    HW122484   0.274   5.491   0.760
 7195SOL    HW222485   0.340   5.343   0.741
 7196SOL     OW22486   3.115   3.395   2.899
 7196SOL    HW122487   3.179   3.466   2.930
 7196SOL    HW222488   3.059   3.430   2.825
 7197SOL     OW22489   6.800   1.879   4.815
 7197SOL    HW122490   6.835   1.966   4.848
 7197SOL    HW222491   6.848   1.804   4.860
 7198SOL     OW22492   1.536   6.763   6.243
 7198SOL    HW122493   1.600   6.783   6.168
 7198SOL    HW222494   1.508   6.849   6.286
 7199SOL     OW22495   0.162   7.025   2.468
 7199SOL    HW122496   0.242   6.966   2.474
 7199SOL    HW222497   0.079   6.969   2.472
 7200SOL     OW22498   2.336   1.258   1.544
 7200SOL    HW122499   2.374   1.245   1.452
 7200SOL    HW222500   2.237   1.248   1.542
 7201SOL     OW22501   1.446   5.019   4.156
 7201SOL    HW122502   1.391   5.058   4.230
 7201SOL    HW222503   1.387   5.002   4.077
 7202SOL     OW22504   4.332   0.455   6.299
 7202SOL    HW122505   4.288   0.540   6.326
 7202SOL    HW222506   4.277   0.377   6.328
 7203SOL     OW22507   5.676   0.771   6.816
 7203SOL    HW122508   5.697   0.807   6.907
 7203SOL    HW222509   5.668   0.671   6.821
 7204SOL     OW22510   5.978   1.137   3.090
 7204SOL    HW122511   6.061   1.175   3.048
 7204SOL    HW222512   5.984   1.146   3.189
 7205SOL     OW22513   1.849   5.365   3.283
 7205SOL    HW122514   1.854   5.368   3.383
 7205SOL    HW222515   1.792   5.288   3.255
 7206SOL     OW22516   6.782   1.247   0.709
 7206SOL    HW122517   6.782   1.232   0.808
 7206SOL    HW222518   6.821   1.337   0.689
 7207SOL     OW22519   3.144   6.386   1.327
 7207SOL    HW122520   3.157   6.390   1.228
 7207SOL    HW222521   3.155   6.292   1.358
 7208SOL     OW22522   3.303   0.153   5.525
 7208SOL    HW122523   3.209   0.142   5.555
 7208SOL    HW222524   3.308   0.145   5.425
 7209SOL     OW22525   4.150   3.432   3.947
 7209SOL    HW122526   4.173   3.419   3.850
 7209SOL    HW222527   4.061   3.391   3.965
 7210SOL     OW22528   4.452   1.006   3.767
 7210SOL    HW122529   4.461   0.950   3.685
 7210SOL    HW222530   4.407   1.092   3.744
 7211SOL     OW22531   1.333   5.645   4.206
 7211SOL    HW122532   1.427   5.629   4.235
 7211SOL    HW222533   1.313   5.743   4.207
 7212SOL     OW22534   5.863   5.944   4.298
 7212SOL    HW122535   5.871   6.044   4.301
 7212SOL    HW222536   5.951   5.904   4.275
 7213SOL     OW22537   5.930   0.790   5.839
 7213SOL    HW122538   5.880   0.874   5.821
 7213SOL    HW222539   5.925   0.730   5.759
 7214SOL     OW22540   1.950   5.234   5.294
 7214SOL    HW122541   2.038   5.254   5.337
 7214SOL    HW222542   1.887   5.310   5.311
 7215SOL     OW22543   0.407   3.984   4.228
 7215SOL    HW122544   0.310   3.961   4.219
 7215SOL    HW222545   0.449   3.993   4.138
 7216SOL     OW22546   2.497   0.390   0.352
 7216SOL    HW122547   2.420   0.437   0.394
 7216SOL    HW222548   2.514   0.427   0.261
 7217SOL     OW22549   0.919   3.274   2.527
 7217SOL    HW122550   0.910   3.297   2.430
 7217SOL    HW222551   0.842   3.218   2.556
 7218SOL     OW22552   4.324   2.298   5.679
 7218SOL    HW122553   4.249   2.351   5.640
 7218SOL    HW222554   4.328   2.315   5.778
 7219SOL     OW22555   4.456   6.290   3.019
 7219SOL    HW122556   4.527   6.237   2.972
 7219SOL    HW222557   4.371   6.237   3.022
 7220SOL     OW22558   6.790   1.082   2.235
 7220SOL    HW122559   6.809   1.158   2.298
 7220SOL    HW222560   6.713   1.028   2.269
 7221SOL     OW22561   5.297   3.788   5.735
 7221SOL    HW122562   5.231   3.809   5.807
 7221SOL    HW222563   5.314   3.689   5.733
 7222SOL     OW22564   0.078   5.809   1.134
 7222SOL    HW122565   7.014   5.848   1.159
 7222SOL    HW222566   0.064   5.735   1.068
 7223SOL     OW22567   3.435   1.719   6.226
 7223SOL    HW122568   3.512   1.776   6.254
 7223SOL    HW222569   3.468   1.630   6.195
 7224SOL     OW22570   5.601   0.322   4.776
 7224SOL    HW122571   5.569   0.388   4.845
 7224SOL    HW222572   5.534   0.248   4.769
 7225SOL     OW22573   2.115   6.103   0.210
 7225SOL    HW122574   2.131   6.069   0.303
 7225SOL    HW222575   2.179   6.178   0.191
 7226SOL     OW22576   0.567   6.917   0.443
 7226SOL    HW122577   0.542   7.005   0.485
 7226SOL    HW222578   0.645   6.878   0.493
 7227SOL     OW22579   0.185   2.617   6.523
 7227SOL    HW122580   0.193   2.615   6.423
 7227SOL    HW222581   0.197   2.710   6.556
 7228SOL     OW22582   0.298   0.349   2.103
 7228SOL    HW122583   0.238   0.332   2.181
 7228SOL    HW222584   0.253   0.412   2.039
 7229SOL     OW22585   1.107   0.300   4.129
 7229SOL    HW122586   1.027   0.303   4.188
 7229SOL    HW222587   1.094   0.229   4.059
 7230SOL     OW22588   4.924   4.767   3.349
 7230SOL    HW122589   4.998   4.721   3.398
 7230SOL    HW222590   4.885   4.838   3.407
 7231SOL     OW22591   5.981   1.266   5.702
 7231SOL    HW122592   5.984   1.263   5.602
 7231SOL    HW222593   5.958   1.358   5.732
 7232SOL     OW22594   3.958   4.836   2.456
 7232SOL    HW122595   3.876   4.876   2.497
 7232SOL    HW222596   3.962   4.860   2.359
 7233SOL     OW22597   0.561   2.814   5.666
 7233SOL    HW122598   0.502   2.767   5.732
 7233SOL    HW222599   0.542   2.913   5.670
 7234SOL     OW22600   6.212   1.803   1.895
 7234SOL    HW122601   6.296   1.823   1.844
 7234SOL    HW222602   6.196   1.874   1.964
 7235SOL     OW22603   5.365   3.445   5.458
 7235SOL    HW122604   5.282   3.405   5.420
 7235SOL    HW222605   5.436   3.375   5.466
 7236SOL     OW22606   3.723   0.767   3.100
 7236SOL    HW122607   3.704   0.800   3.008
 7236SOL    HW222608   3.654   0.699   3.126
 7237SOL     OW22609   5.725   6.314   5.963
 7237SOL    HW122610   5.812   6.300   5.916
 7237SOL    HW222611   5.741   6.355   6.053
 7238SOL     OW22612   2.445   2.120   2.240
 7238SOL    HW122613   2.419   2.138   2.335
 7238SOL    HW222614   2.365   2.089   2.189
 7239SOL     OW22615   2.884   1.412   2.114
 7239SOL    HW122616   2.785   1.413   2.129
 7239SOL    HW222617   2.910   1.491   2.058
 7240SOL     OW22618   2.606   4.738   0.201
 7240SOL    HW122619   2.558   4.709   0.118
 7240SOL    HW222620   2.559   4.701   0.281
 7241SOL     OW22621   3.335   6.779   5.278
 7241SOL    HW122622   3.292   6.831   5.204
 7241SOL    HW222623   3.309   6.818   5.366
 7242SOL     OW22624   6.096   4.108   6.633
 7242SOL    HW122625   6.012   4.124   6.685
 7242SOL    HW222626   6.114   4.009   6.628
 7243SOL     OW22627   0.515   5.669   0.641
 7243SOL    HW122628   0.559   5.608   0.576
 7243SOL    HW222629   0.451   5.618   0.698
 7244SOL     OW22630   5.598   1.790   1.205
 7244SOL    HW122631   5.539   1.818   1.280
 7244SOL    HW222632   5.691   1.775   1.239
 7245SOL     OW22633   0.260   1.962   4.320
 7245SOL    HW122634   0.309   1.992   4.238
 7245SOL    HW222635   0.252   1.862   4.319
 7246SOL     OW22636   6.945   6.577   5.221
 7246SOL    HW122637   6.919   6.482   5.200
 7246SOL    HW222638   6.907   6.603   5.310
 7247SOL     OW22639   2.886   5.853   2.300
 7247SOL    HW122640   2.869   5.865   2.398
 7247SOL    HW222641   2.853   5.763   2.272
 7248SOL     OW22642   4.033   1.084   4.736
 7248SOL    HW122643   4.046   1.178   4.766
 7248SOL    HW222644   3.938   1.071   4.709
 7249SOL     OW22645   6.105   4.991   6.931
 7249SOL    HW122646   6.053   5.039   7.002
 7249SOL    HW222647   6.162   5.056   6.882
 7250SOL     OW22648   3.028   4.794   6.328
 7250SOL    HW122649   2.991   4.841   6.248
 7250SOL    HW222650   3.051   4.860   6.399
 7251SOL     OW22651   5.822   0.051   5.148
 7251SOL    HW122652   5.800   6.999   5.088
 7251SOL    HW222653   5.739   0.083   5.193
 7252SOL     OW22654   3.514   2.946   5.019
 7252SOL    HW122655   3.420   2.915   5.004
 7252SOL    HW222656   3.515   3.046   5.026
 7253SOL     OW22657   4.148   6.338   1.189
 7253SOL    HW122658   4.216   6.297   1.251
 7253SOL    HW222659   4.060   6.344   1.236
 7254SOL     OW22660   4.476   6.462   4.437
 7254SOL    HW122661   4.505   6.539   4.495
 7254SOL    HW222662   4.551   6.395   4.432
 7255SOL     OW22663   3.030   3.894   2.591
 7255SOL    HW122664   2.979   3.979   2.604
 7255SOL    HW222665   3.019   3.861   2.498
 7256SOL     OW22666   4.392   4.606   3.788
 7256SOL    HW122667   4.308   4.650   3.758
 7256SOL    HW222668   4.408   4.524   3.732
 7257SOL     OW22669   6.397   3.092   3.219
 7257SOL    HW122670   6.436   3.142   3.297
 7257SOL    HW222671   6.297   3.085   3.230
 7258SOL     OW22672   3.448   0.034   4.788
 7258SOL    HW122673   3.417   0.049   4.694
 7258SOL    HW222674   3.544   0.060   4.796
 7259SOL     OW22675   2.249   4.573   6.830
 7259SOL    HW122676   2.241   4.672   6.816
 7259SOL    HW222677   2.159   4.535   6.853
 7260SOL     OW22678   3.511   2.097   2.728
 7260SOL    HW122679   3.584   2.080   2.661
 7260SOL    HW222680   3.456   2.014   2.737
 7261SOL     OW22681   1.904   3.684   1.737
 7261SOL    HW122682   1.851   3.763   1.769
 7261SOL    HW222683   1.899   3.611   1.804
 7262SOL     OW22684   5.965   1.364   4.832
 7262SOL    HW122685   6.042   1.382   4.770
 7262SOL    HW222686   5.946   1.446   4.887
 7263SOL     OW22687   2.188   5.798   2.102
 7263SOL    HW122688   2.284   5.818   2.123
 7263SOL    HW222689   2.169   5.822   2.007
 7264SOL     OW22690   0.492   0.194   5.547
 7264SOL    HW122691   0.425   0.264   5.572
 7264SOL    HW222692   0.577   0.239   5.518
 7265SOL     OW22693   4.520   4.703   5.858
 7265SOL    HW122694   4.473   4.694   5.946
 7265SOL    HW222695   4.616   4.725   5.873
 7266SOL     OW22696   4.988   0.751   1.926
 7266SOL    HW122697   4.927   0.758   2.005
 7266SOL    HW222698   5.042   0.834   1.919
 7267SOL     OW22699   0.009   4.201   3.894
 7267SOL    HW122700   6.936   4.184   3.900
 7267SOL    HW222701   0.059   4.117   3.915
 7268SOL     OW22702   3.488   0.131   1.418
 7268SOL    HW122703   3.518   0.036   1.407
 7268SOL    HW222704   3.464   0.148   1.513
 7269SOL     OW22705   1.543   5.951   2.380
 7269SOL    HW122706   1.530   5.864   2.427
 7269SOL    HW222707   1.453   5.994   2.364
 7270SOL     OW22708   3.131   1.312   2.628
 7270SOL    HW122709   3.117   1.217   2.600
 7270SOL    HW222710   3.170   1.364   2.552
 7271SOL     OW22711   6.887   3.399   3.371
 7271SOL    HW122712   6.915   3.315   3.324
 7271SOL    HW222713   6.931   3.478   3.327
 7272SOL     OW22714   6.064   2.254   2.217
 7272SOL    HW122715   6.036   2.349   2.202
 7272SOL    HW222716   6.066   2.235   2.316
 7273SOL     OW22717   5.407   4.436   0.363
 7273SOL    HW122718   5.383   4.395   0.275
 7273SOL    HW222719   5.329   4.428   0.425
 7274SOL     OW22720   6.184   4.850   5.589
 7274SOL    HW122721   6.258   4.914   5.609
 7274SOL    HW222722   6.216   4.783   5.523
 7275SOL     OW22723   6.978   7.013   0.299
 7275SOL    HW122724   0.007   6.985   0.378
 7275SOL    HW222725   6.933   6.933   0.259
 7276SOL     OW22726   2.493   2.618   3.986
 7276SOL    HW122727   2.443   2.698   3.952
 7276SOL    HW222728   2.448   2.583   4.068
 7277SOL     OW22729   4.972   1.998   4.747
 7277SOL    HW122730   4.879   2.003   4.711
 7277SOL    HW222731   5.008   2.090   4.759
 7278SOL     OW22732   2.883   1.441   2.588
 7278SOL    HW122733   2.960   1.399   2.636
 7278SOL    HW222734   2.871   1.396   2.499
 7279SOL     OW22735   5.629   4.958   1.134
 7279SOL    HW122736   5.728   4.948   1.142
 7279SOL    HW222737   5.585   4.903   1.205
 7280SOL     OW22738   6.179   2.549   5.441
 7280SOL    HW122739   6.108   2.481   5.461
 7280SOL    HW222740   6.226   2.524   5.356
 7281SOL     OW22741   3.791   6.010   2.412
 7281SOL    HW122742   3.718   5.994   2.479
 7281SOL    HW222743   3.802   5.929   2.355
 7282SOL     OW22744   6.644   4.678   2.666
 7282SOL    HW122745   6.689   4.592   2.686
 7282SOL    HW222746   6.618   4.681   2.569
 7283SOL     OW22747   4.154   4.887   2.953
 7283SOL    HW122748   4.066   4.861   2.914
 7283SOL    HW222749   4.226   4.874   2.885
 7284SOL     OW22750   6.796   1.606   3.139
 7284SOL    HW122751   6.771   1.666   3.216
 7284SOL    HW222752   6.880   1.639   3.097
 7285SOL     OW22753   4.924   2.885   1.849
 7285SOL    HW122754   4.839   2.928   1.878
 7285SOL    HW222755   4.984   2.873   1.929
 7286SOL     OW22756   0.613   1.496   1.884
 7286SOL    HW122757   0.513   1.501   1.889
 7286SOL    HW222758   0.640   1.461   1.794
 7287SOL     OW22759   1.662   2.580   3.881
 7287SOL    HW122760   1.698   2.525   3.956
 7287SOL    HW222761   1.709   2.556   3.797
 7288SOL     OW22762   2.690   2.419   2.929
 7288SOL    HW122763   2.617   2.371   2.978
 7288SOL    HW222764   2.777   2.405   2.976
 7289SOL     OW22765   5.723   2.309   1.185
 7289SOL    HW122766   5.683   2.376   1.123
 7289SOL    HW222767   5.785   2.355   1.249
 7290SOL     OW22768   3.501   1.406   5.468
 7290SOL    HW122769   3.480   1.501   5.443
 7290SOL    HW222770   3.431   1.345   5.431
 7291SOL     OW22771   4.412   1.056   0.508
 7291SOL    HW122772   4.313   1.052   0.492
 7291SOL    HW222773   4.455   1.116   0.439
 7292SOL     OW22774   2.586   0.408   2.512
 7292SOL    HW122775   2.612   0.462   2.432
 7292SOL    HW222776   2.639   0.323   2.513
 7293SOL     OW22777   0.990   0.497   4.997
 7293SOL    HW122778   0.999   0.462   4.904
 7293SOL    HW222779   0.967   0.595   4.994
 7294SOL     OW22780   2.427   6.068   2.672
 7294SOL    HW122781   2.448   6.154   2.719
 7294SOL    HW222782   2.332   6.069   2.640
 7295SOL     OW22783   5.767   5.677   2.212
 7295SOL    HW122784   5.775   5.716   2.304
 7295SOL    HW222785   5.670   5.663   2.190
 7296SOL     OW22786   4.896   4.703   2.303
 7296SOL    HW122787   4.944   4.741   2.223
 7296SOL    HW222788   4.963   4.660   2.364
 7297SOL     OW22789   4.048   6.421   1.640
 7297SOL    HW122790   4.137   6.456   1.612
 7297SOL    HW222791   3.979   6.493   1.627
 7298SOL     OW22792   4.399   5.482   0.176
 7298SOL    HW122793   4.386   5.500   0.078
 7298SOL    HW222794   4.419   5.384   0.189
 7299SOL     OW22795   1.293   2.570   6.551
 7299SOL    HW122796   1.193   2.558   6.545
 7299SOL    HW222797   1.317   2.662   6.522
 7300SOL     OW22798   0.472   5.323   2.204
 7300SOL    HW122799   0.508   5.317   2.297
 7300SOL    HW222800   0.485   5.415   2.168
 7301SOL     OW22801   5.333   0.851   5.447
 7301SOL    HW122802   5.321   0.950   5.437
 7301SOL    HW222803   5.247   0.810   5.477
 7302SOL     OW22804   4.987   1.390   5.742
 7302SOL    HW122805   4.992   1.434   5.832
 7302SOL    HW222806   4.895   1.355   5.727
 7303SOL     OW22807   1.826   1.352   1.760
 7303SOL    HW122808   1.898   1.362   1.829
 7303SOL    HW222809   1.814   1.438   1.710
 7304SOL     OW22810   2.618   5.837   1.687
 7304SOL    HW122811   2.531   5.800   1.721
 7304SOL    HW222812   2.623   5.935   1.708
 7305SOL     OW22813   6.493   1.739   0.493
 7305SOL    HW122814   6.576   1.762   0.443
 7305SOL    HW222815   6.449   1.660   0.449
 7306SOL     OW22816   1.958   2.479   1.841
 7306SOL    HW122817   1.995   2.510   1.929
 7306SOL    HW222818   1.963   2.553   1.774
 7307SOL     OW22819   2.146   0.341   1.688
 7307SOL    HW122820   2.061   0.325   1.737
 7307SOL    HW222821   2.127   0.352   1.590
 7308SOL     OW22822   5.019   0.877   3.524
 7308SOL    HW122823   5.082   0.834   3.460
 7308SOL    HW222824   4.992   0.967   3.488
 7309SOL     OW22825   2.121   5.398   3.378
 7309SOL    HW122826   2.029   5.373   3.351
 7309SOL    HW222827   2.118   5.446   3.466
 7310SOL     OW22828   2.641   2.439   6.352
 7310SOL    HW122829   2.567   2.386   6.393
 7310SOL    HW222830   2.655   2.522   6.405
 7311SOL     OW22831   6.955   6.432   6.829
 7311SOL    HW122832   6.998   6.508   6.782
 7311SOL    HW222833   6.869   6.408   6.783
 7312SOL     OW22834   6.745   2.086   3.756
 7312SOL    HW122835   6.765   2.184   3.745
 7312SOL    HW222836   6.692   2.054   3.677
 7313SOL     OW22837   3.020   0.777   2.092
 7313SOL    HW122838   3.080   0.724   2.033
 7313SOL    HW222839   3.064   0.791   2.181
 7314SOL     OW22840   0.851   3.851   6.692
 7314SOL    HW122841   0.904   3.888   6.616
 7314SOL    HW222842   0.755   3.875   6.681
 7315SOL     OW22843   1.462   4.091   2.411
 7315SOL    HW122844   1.537   4.139   2.456
 7315SOL    HW222845   1.449   4.128   2.319
 7316SOL     OW22846   3.259   1.923   0.779
 7316SOL    HW122847   3.300   1.832   0.787
 7316SOL    HW222848   3.171   1.915   0.733
 7317SOL     OW22849   4.102   1.273   1.206
 7317SOL    HW122850   4.125   1.284   1.303
 7317SOL    HW222851   4.131   1.354   1.155
 7318SOL     OW22852   4.162   6.370   0.212
 7318SOL    HW122853   4.211   6.425   0.145
 7318SOL    HW222854   4.191   6.274   0.206
 7319SOL     OW22855   5.786   4.760   6.953
 7319SOL    HW122856   5.713   4.795   7.013
 7319SOL    HW222857   5.769   4.790   6.859
 7320SOL     OW22858   7.023   2.748   1.647
 7320SOL    HW122859   0.082   2.697   1.665
 7320SOL    HW222860   0.020   2.836   1.605
 7321SOL     OW22861   1.888   0.432   6.771
 7321SOL    HW122862   1.923   0.496   6.840
 7321SOL    HW222863   1.831   0.363   6.816
 7322SOL     OW22864   0.673   2.910   2.694
 7322SOL    HW122865   0.634   2.818   2.707
 7322SOL    HW222866   0.683   2.955   2.782
 7323SOL     OW22867   0.991   2.615   1.477
 7323SOL    HW122868   0.981   2.580   1.384
 7323SOL    HW222869   1.066   2.679   1.481
 7324SOL     OW22870   5.620   4.758   3.345
 7324SOL    HW122871   5.646   4.663   3.326
 7324SOL    HW222872   5.522   4.769   3.330
 7325SOL     OW22873   4.590   1.279   5.891
 7325SOL    HW122874   4.598   1.373   5.924
 7325SOL    HW222875   4.525   1.276   5.815
 7326SOL     OW22876   3.620   0.137   0.157
 7326SOL    HW122877   3.631   0.145   0.058
 7326SOL    HW222878   3.528   0.165   0.183
 7327SOL     OW22879   0.663   3.681   3.713
 7327SOL    HW122880   0.608   3.598   3.717
 7327SOL    HW222881   0.760   3.657   3.700
 7328SOL     OW22882   4.333   4.693   4.795
 7328SOL    HW122883   4.238   4.721   4.781
 7328SOL    HW222884   4.337   4.624   4.868
 7329SOL     OW22885   2.947   3.284   1.189
 7329SOL    HW122886   2.977   3.191   1.212
 7329SOL    HW222887   2.914   3.286   1.095
 7330SOL     OW22888   2.741   3.053   1.777
 7330SOL    HW122889   2.767   3.065   1.681
 7330SOL    HW222890   2.777   3.129   1.831
 7331SOL     OW22891   5.065   0.858   3.249
 7331SOL    HW122892   5.125   0.781   3.228
 7331SOL    HW222893   5.005   0.876   3.171
 7332SOL     OW22894   3.363   5.460   5.844
 7332SOL    HW122895   3.283   5.430   5.897
 7332SOL    HW222896   3.384   5.390   5.775
 7333SOL     OW22897   0.262   1.951   0.952
 7333SOL    HW122898   0.306   1.862   0.947
 7333SOL    HW222899   0.315   2.018   0.899
 7334SOL     OW22900   2.537   0.046   4.409
 7334SOL    HW122901   2.547   0.066   4.507
 7334SOL    HW222902   2.446   0.007   4.393
 7335SOL     OW22903   6.263   3.055   2.003
 7335SOL    HW122904   6.199   3.038   2.078
 7335SOL    HW222905   6.320   2.974   1.989
 7336SOL     OW22906   1.865   6.848   2.342
 7336SOL    HW122907   1.840   6.886   2.253
 7336SOL    HW222908   1.785   6.804   2.383
 7337SOL     OW22909   1.965   2.067   3.570
 7337SOL    HW122910   1.891   2.060   3.502
 7337SOL    HW222911   1.929   2.047   3.661
 7338SOL     OW22912   5.644   3.014   1.353
 7338SOL    HW122913   5.660   2.980   1.446
 7338SOL    HW222914   5.713   3.083   1.330
 7339SOL     OW22915   6.076   4.959   4.486
 7339SOL    HW122916   6.008   5.003   4.427
 7339SOL    HW222917   6.105   5.024   4.556
 7340SOL     OW22918   2.226   0.248   0.646
 7340SOL    HW122919   2.310   0.240   0.700
 7340SOL    HW222920   2.179   0.333   0.670
 7341SOL     OW22921   5.842   5.042   4.317
 7341SOL    HW122922   5.858   5.096   4.234
 7341SOL    HW222923   5.821   4.948   4.291
 7342SOL     OW22924   0.422   6.001   0.364
 7342SOL    HW122925   0.376   6.070   0.420
 7342SOL    HW222926   0.358   5.929   0.340
 7343SOL     OW22927   5.747   3.642   2.310
 7343SOL    HW122928   5.799   3.576   2.256
 7343SOL    HW222929   5.709   3.597   2.391
 7344SOL     OW22930   1.466   7.010   0.129
 7344SOL    HW122931   1.435   0.050   0.060
 7344SOL    HW222932   1.387   6.961   0.167
 7345SOL     OW22933   3.742   5.683   6.895
 7345SOL    HW122934   3.673   5.749   6.866
 7345SOL    HW222935   3.767   5.700   6.990
 7346SOL     OW22936   3.950   4.659   1.712
 7346SOL    HW122937   4.016   4.592   1.677
 7346SOL    HW222938   3.985   4.751   1.699
 7347SOL     OW22939   6.370   1.575   3.370
 7347SOL    HW122940   6.395   1.634   3.293
 7347SOL    HW222941   6.327   1.630   3.441
 7348SOL     OW22942   1.314   1.760   3.148
 7348SOL    HW122943   1.214   1.763   3.146
 7348SOL    HW222944   1.350   1.833   3.206
 7349SOL     OW22945   3.426   1.240   0.897
 7349SOL    HW122946   3.405   1.160   0.954
 7349SOL    HW222947   3.443   1.210   0.803
 7350SOL     OW22948   2.430   1.533   3.077
 7350SOL    HW122949   2.368   1.491   3.011
 7350SOL    HW222950   2.523   1.500   3.060
 7351SOL     OW22951   4.171   4.064   6.601
 7351SOL    HW122952   4.149   4.135   6.534
 7351SOL    HW222953   4.122   4.084   6.686
 7352SOL     OW22954   0.746   1.230   2.273
 7352SOL    HW122955   0.705   1.321   2.280
 7352SOL    HW222956   0.813   1.218   2.346
 7353SOL     OW22957   5.201   2.190   5.079
 7353SOL    HW122958   5.227   2.235   4.993
 7353SOL    HW222959   5.163   2.100   5.059
 7354SOL     OW22960   5.761   4.594   5.940
 7354SOL    HW122961   5.835   4.557   5.883
 7354SOL    HW222962   5.789   4.593   6.036
 7355SOL     OW22963   1.828   5.447   1.983
 7355SOL    HW122964   1.787   5.531   1.947
 7355SOL    HW222965   1.928   5.455   1.982
 7356SOL     OW22966   5.827   1.474   5.785
 7356SOL    HW122967   5.843   1.545   5.853
 7356SOL    HW222968   5.785   1.514   5.703
 7357SOL     OW22969   6.263   1.587   0.208
 7357SOL    HW122970   6.339   1.625   0.156
 7357SOL    HW222971   6.287   1.496   0.241
 7358SOL     OW22972   3.109   1.004   3.774
 7358SOL    HW122973   3.054   0.948   3.712
 7358SOL    HW222974   3.103   0.967   3.867
 7359SOL     OW22975   4.015   3.158   3.725
 7359SOL    HW122976   4.108   3.163   3.762
 7359SOL    HW222977   4.020   3.133   3.628
 7360SOL     OW22978   0.491   2.916   5.053
 7360SOL    HW122979   0.553   2.958   5.119
 7360SOL    HW222980   0.462   2.826   5.088
 7361SOL     OW22981   5.333   6.146   2.380
 7361SOL    HW122982   5.306   6.229   2.331
 7361SOL    HW222983   5.387   6.170   2.460
 7362SOL     OW22984   2.181   6.071   6.109
 7362SOL    HW122985   2.187   6.143   6.040
 7362SOL    HW222986   2.132   5.992   6.071
 7363SOL     OW22987   4.774   3.148   6.188
 7363SOL    HW122988   4.791   3.065   6.241
 7363SOL    HW222989   4.711   3.207   6.238
 7364SOL     OW22990   4.290   6.752   1.568
 7364SOL    HW122991   4.252   6.844   1.558
 7364SOL    HW222992   4.278   6.721   1.662
 7365SOL     OW22993   3.481   0.368   2.618
 7365SOL    HW122994   3.453   0.284   2.572
 7365SOL    HW222995   3.403   0.404   2.670
 7366SOL     OW22996   0.861   5.505   7.011
 7366SOL    HW122997   0.914   5.422   0.007
 7366SOL    HW222998   0.779   5.480   6.959
 7367SOL     OW22999   4.836   3.967   0.930
 7367SOL    HW123000   4.737   3.977   0.917
 7367SOL    HW223001   4.863   4.009   1.016
 7368SOL     OW23002   3.233   3.602   4.879
 7368SOL    HW123003   3.163   3.645   4.822
 7368SOL    HW223004   3.190   3.536   4.941
 7369SOL     OW23005   4.707   3.676   0.103
 7369SOL    HW123006   4.726   3.650   0.197
 7369SOL    HW223007   4.792   3.670   0.049
 7370SOL     OW23008   2.229   6.746   0.841
 7370SOL    HW123009   2.304   6.703   0.892
 7370SOL    HW223010   2.152   6.762   0.902
 7371SOL     OW23011   2.385   5.131   4.855
 7371SOL    HW123012   2.360   5.190   4.931
 7371SOL    HW223013   2.303   5.109   4.802
 7372SOL     OW23014   3.669   0.379   5.688
 7372SOL    HW123015   3.765   0.390   5.713
 7372SOL    HW223016   3.660   0.384   5.588
 7373SOL     OW23017   3.950   0.747   1.870
 7373SOL    HW123018   3.891   0.731   1.791
 7373SOL    HW223019   3.913   0.823   1.923
 7374SOL     OW23020   1.641   2.813   6.363
 7374SOL    HW123021   1.711   2.778   6.301
 7374SOL    HW223022   1.674   2.897   6.405
 7375SOL     OW23023   1.512   0.575   3.955
 7375SOL    HW123024   1.565   0.497   3.989
 7375SOL    HW223025   1.415   0.556   3.966
 7376SOL     OW23026   2.195   3.723   6.906
 7376SOL    HW123027   2.289   3.718   6.872
 7376SOL    HW223028   2.142   3.787   6.850
 7377SOL     OW23029   4.607   4.293   1.393
 7377SOL    HW123030   4.566   4.378   1.358
 7377SOL    HW223031   4.701   4.286   1.361
 7378SOL     OW23032   6.620   1.397   4.884
 7378SOL    HW123033   6.686   1.355   4.822
 7378SOL    HW223034   6.654   1.393   4.978
 7379SOL     OW23035   3.807   1.487   2.197
 7379SOL    HW123036   3.710   1.508   2.214
 7379SOL    HW223037   3.816   1.389   2.181
 7380SOL     OW23038   0.204   3.506   6.343
 7380SOL    HW123039   0.152   3.548   6.270
 7380SOL    HW223040   0.295   3.548   6.348
 7381SOL     OW23041   5.318   2.029   1.301
 7381SOL    HW123042   5.237   2.064   1.349
 7381SOL    HW223043   5.350   2.097   1.235
 7382SOL     OW23044   6.935   5.779   4.253
 7382SOL    HW123045   6.890   5.785   4.342
 7382SOL    HW223046   6.955   5.872   4.221
 7383SOL     OW23047   6.770   6.096   3.172
 7383SOL    HW123048   6.734   6.185   3.145
 7383SOL    HW223049   6.866   6.089   3.144
 7384SOL     OW23050   5.274   0.139   2.384
 7384SOL    HW123051   5.346   0.162   2.450
 7384SOL    HW223052   5.185   0.152   2.426
 7385SOL     OW23053   4.916   6.185   1.520
 7385SOL    HW123054   4.913   6.207   1.617
 7385SOL    HW223055   4.990   6.121   1.502
 7386SOL     OW23056   0.980   2.236   5.283
 7386SOL    HW123057   0.994   2.279   5.194
 7386SOL    HW223058   1.017   2.143   5.281
 7387SOL     OW23059   4.197   6.113   3.422
 7387SOL    HW123060   4.115   6.135   3.369
 7387SOL    HW223061   4.170   6.067   3.507
 7388SOL     OW23062   6.319   4.871   3.436
 7388SOL    HW123063   6.269   4.957   3.427
 7388SOL    HW223064   6.269   4.809   3.497
 7389SOL     OW23065   1.551   4.176   6.297
 7389SOL    HW123066   1.565   4.135   6.207
 7389SOL    HW223067   1.556   4.276   6.289
 7390SOL     OW23068   1.287   0.119   5.323
 7390SOL    HW123069   1.234   0.177   5.261
 7390SOL    HW223070   1.366   0.170   5.356
 7391SOL     OW23071   6.027   3.202   6.674
 7391SOL    HW123072   5.956   3.184   6.742
 7391SOL    HW223073   6.100   3.134   6.682
 7392SOL     OW23074   1.262   4.500   4.284
 7392SOL    HW123075   1.216   4.588   4.295
 7392SOL    HW223076   1.312   4.498   4.198
 7393SOL     OW23077   0.457   4.189   2.696
 7393SOL    HW123078   0.526   4.131   2.740
 7393SOL    HW223079   0.480   4.201   2.600
 7394SOL     OW23080   3.959   3.652   6.710
 7394SOL    HW123081   4.029   3.709   6.666
 7394SOL    HW223082   3.922   3.700   6.789
 7395SOL     OW23083   0.737   0.455   0.659
 7395SOL    HW123084   0.804   0.382   0.672
 7395SOL    HW223085   0.756   0.503   0.574
 7396SOL     OW23086   0.836   0.059   6.335
 7396SOL    HW123087   0.928   0.060   6.374
 7396SOL    HW223088   0.838   0.010   6.248
 7397SOL     OW23089   5.947   5.032   5.023
 7397SOL    HW123090   5.977   5.010   4.931
 7397SOL    HW223091   6.025   5.063   5.078
 7398SOL     OW23092   4.514   4.382   3.677
 7398SOL    HW123093   4.588   4.374   3.743
 7398SOL    HW223094   4.550   4.371   3.584
 7399SOL     OW23095   5.110   3.828   5.955
 7399SOL    HW123096   5.029   3.776   5.929
 7399SOL    HW223097   5.140   3.801   6.047
 7400SOL     OW23098   2.780   5.713   6.782
 7400SOL    HW123099   2.761   5.793   6.839
 7400SOL    HW223100   2.715   5.711   6.706
 7401SOL     OW23101   0.204   2.151   3.758
 7401SOL    HW123102   0.169   2.241   3.783
 7401SOL    HW223103   0.192   2.088   3.835
 7402SOL     OW23104   2.648   0.583   3.837
 7402SOL    HW123105   2.734   0.543   3.869
 7402SOL    HW223106   2.602   0.628   3.913
 7403SOL     OW23107   1.913   3.910   2.919
 7403SOL    HW123108   2.010   3.883   2.926
 7403SOL    HW223109   1.888   3.917   2.823
 7404SOL     OW23110   1.378   0.167   1.910
 7404SOL    HW123111   1.310   0.122   1.853
 7404SOL    HW223112   1.470   0.138   1.882
 7405SOL     OW23113   2.978   5.122   5.960
 7405SOL    HW123114   2.921   5.084   6.033
 7405SOL    HW223115   3.075   5.109   5.983
 7406SOL     OW23116   0.687   4.549   1.636
 7406SOL    HW123117   0.670   4.457   1.601
 7406SOL    HW223118   0.622   4.613   1.595
 7407SOL     OW23119   1.312   6.378   6.408
 7407SOL    HW123120   1.248   6.397   6.482
 7407SOL    HW223121   1.406   6.386   6.443
 7408SOL     OW23122   1.835   4.680   5.767
 7408SOL    HW123123   1.736   4.666   5.778
 7408SOL    HW223124   1.872   4.610   5.706
 7409SOL     OW23125   2.068   5.611   5.153
 7409SOL    HW123126   2.042   5.681   5.219
 7409SOL    HW223127   2.167   5.603   5.150
 7410SOL     OW23128   6.798   5.087   1.318
 7410SOL    HW123129   6.734   5.047   1.252
 7410SOL    HW223130   6.753   5.163   1.365
 7411SOL     OW23131   3.702   6.120   5.067
 7411SOL    HW123132   3.702   6.129   4.968
 7411SOL    HW223133   3.758   6.193   5.107
 7412SOL     OW23134   0.943   1.754   0.232
 7412SOL    HW123135   0.844   1.760   0.244
 7412SOL    HW223136   0.965   1.775   0.137
 7413SOL     OW23137   6.242   4.107   4.966
 7413SOL    HW123138   6.174   4.040   4.937
 7413SOL    HW223139   6.332   4.079   4.932
 7414SOL     OW23140   6.706   0.103   2.283
 7414SOL    HW123141   6.668   0.051   2.206
 7414SOL    HW223142   6.747   0.188   2.249
 7415SOL     OW23143   1.751   2.857   3.679
 7415SOL    HW123144   1.773   2.826   3.771
 7415SOL    HW223145   1.677   2.924   3.683
 7416SOL     OW23146   3.502   0.791   3.939
 7416SOL    HW123147   3.595   0.789   3.976
 7416SOL    HW223148   3.437   0.782   4.014
 7417SOL     OW23149   1.221   6.272   0.119
 7417SOL    HW123150   1.308   6.313   0.091
 7417SOL    HW223151   1.238   6.186   0.167
 7418SOL     OW23152   1.774   3.488   0.795
 7418SOL    HW123153   1.793   3.396   0.831
 7418SOL    HW223154   1.835   3.507   0.719
 7419SOL     OW23155   6.320   0.967   4.802
 7419SOL    HW123156   6.399   0.947   4.860
 7419SOL    HW223157   6.238   0.927   4.844
 7420SOL     OW23158   6.774   5.988   1.709
 7420SOL    HW123159   6.760   5.897   1.748
 7420SOL    HW223160   6.698   6.047   1.735
 7421SOL     OW23161   4.021   3.587   1.267
 7421SOL    HW123162   4.095   3.652   1.281
 7421SOL    HW223163   4.005   3.534   1.351
 7422SOL     OW23164   0.288   3.266   0.324
 7422SOL    HW123165   0.302   3.178   0.369
 7422SOL    HW223166   0.362   3.329   0.350
 7423SOL     OW23167   1.735   5.142   6.587
 7423SOL    HW123168   1.745   5.236   6.617
 7423SOL    HW223169   1.648   5.131   6.538
 7424SOL     OW23170   5.557   0.914   4.268
 7424SOL    HW123171   5.477   0.973   4.256
 7424SOL    HW223172   5.554   0.872   4.359
 7425SOL     OW23173   3.712   5.480   5.714
 7425SOL    HW123174   3.714   5.502   5.812
 7425SOL    HW223175   3.791   5.523   5.669
 7426SOL     OW23176   1.291   1.072   6.618
 7426SOL    HW123177   1.197   1.103   6.626
 7426SOL    HW223178   1.295   0.972   6.626
 7427SOL     OW23179   4.100   5.137   4.916
 7427SOL    HW123180   4.048   5.196   4.978
 7427SOL    HW223181   4.082   5.165   4.822
 7428SOL     OW23182   3.594   2.325   6.254
 7428SOL    HW123183   3.660   2.255   6.226
 7428SOL    HW223184   3.502   2.287   6.253
 7429SOL     OW23185   0.223   0.376   2.814
 7429SOL    HW123186   0.311   0.335   2.839
 7429SOL    HW223187   0.161   0.305   2.781
 7430SOL     OW23188   6.233   3.949   5.367
 7430SOL    HW123189   6.169   3.904   5.305
 7430SOL    HW223190   6.282   3.880   5.420
 7431SOL     OW23191   0.907   4.345   1.965
 7431SOL    HW123192   0.859   4.430   1.985
 7431SOL    HW223193   0.844   4.268   1.970
 7432SOL     OW23194   0.388   6.341   5.353
 7432SOL    HW123195   0.410   6.433   5.320
 7432SOL    HW223196   0.294   6.319   5.329
 7433SOL     OW23197   6.170   5.408   0.565
 7433SOL    HW123198   6.208   5.322   0.600
 7433SOL    HW223199   6.076   5.419   0.597
 7434SOL     OW23200   3.517   1.196   6.118
 7434SOL    HW123201   3.572   1.203   6.201
 7434SOL    HW223202   3.574   1.166   6.042
 7435SOL     OW23203   2.757   6.325   0.606
 7435SOL    HW123204   2.814   6.384   0.662
 7435SOL    HW223205   2.662   6.355   0.611
 7436SOL     OW23206   4.803   2.898   0.407
 7436SOL    HW123207   4.898   2.924   0.419
 7436SOL    HW223208   4.746   2.981   0.401
 7437SOL     OW23209   0.910   5.917   5.837
 7437SOL    HW123210   0.965   5.995   5.868
 7437SOL    HW223211   0.875   5.867   5.916
 7438SOL     OW23212   6.500   4.635   1.763
 7438SOL    HW123213   6.589   4.590   1.758
 7438SOL    HW223214   6.471   4.641   1.859
 7439SOL     OW23215   2.099   0.045   3.685
 7439SOL    HW123216   2.049   0.114   3.633
 7439SOL    HW223217   2.066   0.045   3.779
 7440SOL     OW23218   1.390   2.747   4.199
 7440SOL    HW123219   1.322   2.675   4.202
 7440SOL    HW223220   1.478   2.712   4.233
 7441SOL     OW23221   5.647   1.217   4.190
 7441SOL    HW123222   5.714   1.151   4.157
 7441SOL    HW223223   5.599   1.180   4.269
 7442SOL     OW23224   1.073   0.782   6.374
 7442SOL    HW123225   1.012   0.828   6.309
 7442SOL    HW223226   1.058   0.818   6.466
 7443SOL     OW23227   0.510   1.135   6.765
 7443SOL    HW123228   0.604   1.144   6.798
 7443SOL    HW223229   0.465   1.224   6.766
 7444SOL     OW23230   0.770   3.185   6.475
 7444SOL    HW123231   0.792   3.089   6.462
 7444SOL    HW223232   0.820   3.220   6.555
 7445SOL     OW23233   5.209   1.571   1.838
 7445SOL    HW123234   5.302   1.540   1.854
 7445SOL    HW223235   5.164   1.509   1.773
 7446SOL     OW23236   6.437   4.021   0.881
 7446SOL    HW123237   6.416   4.098   0.821
 7446SOL    HW223238   6.520   3.975   0.849
 7447SOL     OW23239   1.295   3.971   6.256
 7447SOL    HW123240   1.232   4.018   6.317
 7447SOL    HW223241   1.356   4.037   6.213
 7448SOL     OW23242   6.527   0.271   5.797
 7448SOL    HW123243   6.595   0.209   5.839
 7448SOL    HW223244   6.519   0.353   5.853
 7449SOL     OW23245   5.572   2.003   2.172
 7449SOL    HW123246   5.545   1.921   2.122
 7449SOL    HW223247   5.660   1.987   2.218
 7450SOL     OW23248   4.599   1.959   2.933
 7450SOL    HW123249   4.621   1.892   2.862
 7450SOL    HW223250   4.642   1.933   3.019
 7451SOL     OW23251   2.370   0.700   4.325
 7451SOL    HW123252   2.331   0.630   4.385
 7451SOL    HW223253   2.307   0.719   4.250
 7452SOL     OW23254   1.838   6.536   4.912
 7452SOL    HW123255   1.850   6.437   4.909
 7452SOL    HW223256   1.747   6.557   4.947
 7453SOL     OW23257   5.311   6.448   4.430
 7453SOL    HW123258   5.245   6.491   4.491
 7453SOL    HW223259   5.283   6.354   4.411
 7454SOL     OW23260   0.864   3.549   1.307
 7454SOL    HW123261   0.812   3.463   1.307
 7454SOL    HW223262   0.809   3.621   1.265
 7455SOL     OW23263   4.624   2.740   0.533
 7455SOL    HW123264   4.617   2.788   0.620
 7455SOL    HW223265   4.687   2.790   0.472
 7456SOL     OW23266   1.885   3.519   4.842
 7456SOL    HW123267   1.829   3.560   4.769
 7456SOL    HW223268   1.885   3.419   4.831
 7457SOL     OW23269   6.259   0.946   5.467
 7457SOL    HW123270   6.240   0.876   5.537
 7457SOL    HW223271   6.210   1.030   5.489
 7458SOL     OW23272   2.528   1.022   0.699
 7458SOL    HW123273   2.621   0.992   0.718
 7458SOL    HW223274   2.471   1.005   0.779
 7459SOL     OW23275   4.374   0.757   4.668
 7459SOL    HW123276   4.316   0.801   4.600
 7459SOL    HW223277   4.327   0.676   4.706
 7460SOL     OW23278   0.603   4.509   0.475
 7460SOL    HW123279   0.645   4.435   0.527
 7460SOL    HW223280   0.657   4.527   0.392
 7461SOL     OW23281   5.217   1.094   4.526
 7461SOL    HW123282   5.121   1.120   4.535
 7461SOL    HW223283   5.275   1.169   4.558
 7462SOL     OW23284   2.040   2.071   2.516
 7462SOL    HW123285   2.108   2.034   2.454
 7462SOL    HW223286   1.961   2.105   2.463
 7463SOL     OW23287   4.057   3.512   2.171
 7463SOL    HW123288   4.141   3.565   2.171
 7463SOL    HW223289   4.067   3.432   2.231
 7464SOL     OW23290   5.063   6.007   0.685
 7464SOL    HW123291   5.088   6.001   0.782
 7464SOL    HW223292   4.978   5.958   0.669
 7465SOL     OW23293   3.203   0.066   1.933
 7465SOL    HW123294   3.104   0.078   1.923
 7465SOL    HW223295   3.237   0.129   2.003
 7466SOL     OW23296   0.413   0.616   0.040
 7466SOL    HW123297   0.412   0.561   0.123
 7466SOL    HW223298   0.380   0.562   6.988
 7467SOL     OW23299   0.369   1.704   0.886
 7467SOL    HW123300   0.462   1.683   0.914
 7467SOL    HW223301   0.334   1.629   0.829
 7468SOL     OW23302   5.980   1.656   2.664
 7468SOL    HW123303   6.012   1.666   2.570
 7468SOL    HW223304   5.985   1.744   2.711
 7469SOL     OW23305   1.163   0.802   0.829
 7469SOL    HW123306   1.240   0.760   0.781
 7469SOL    HW223307   1.078   0.760   0.799
 7470SOL     OW23308   6.990   2.184   2.418
 7470SOL    HW123309   0.019   2.237   2.484
 7470SOL    HW223310   0.016   2.102   2.393
 7471SOL     OW23311   6.093   6.795   5.837
 7471SOL    HW123312   6.082   6.882   5.789
 7471SOL    HW223313   6.003   6.753   5.852
 7472SOL     OW23314   3.589   0.397   3.820
 7472SOL    HW123315   3.520   0.325   3.822
 7472SOL    HW223316   3.593   0.442   3.909
 7473SOL     OW23317   6.885   3.848   4.215
 7473SOL    HW123318   6.832   3.932   4.227
 7473SOL    HW223319   6.830   3.769   4.240
 7474SOL     OW23320   3.901   0.947   3.224
 7474SOL    HW123321   3.836   1.022   3.231
 7474SOL    HW223322   3.864   0.875   3.165
 7475SOL     OW23323   3.868   1.161   1.114
 7475SOL    HW123324   3.817   1.164   1.201
 7475SOL    HW223325   3.960   1.198   1.128
 7476SOL     OW23326   3.580   6.467   4.238
 7476SOL    HW123327   3.587   6.565   4.255
 7476SOL    HW223328   3.661   6.436   4.188
 7477SOL     OW23329   4.059   1.550   4.026
 7477SOL    HW123330   3.976   1.498   4.003
 7477SOL    HW223331   4.076   1.543   4.125
 7478SOL     OW23332   2.121   4.551   0.526
 7478SOL    HW123333   2.057   4.604   0.581
 7478SOL    HW223334   2.073   4.477   0.480
 7479SOL     OW23335   4.696   0.754   6.432
 7479SOL    HW123336   4.611   0.709   6.460
 7479SOL    HW223337   4.772   0.688   6.438
 7480SOL     OW23338   6.473   5.721   1.004
 7480SOL    HW123339   6.434   5.715   0.912
 7480SOL    HW223340   6.504   5.631   1.033
 7481SOL     OW23341   5.744   5.093   0.755
 7481SOL    HW123342   5.719   5.179   0.801
 7481SOL    HW223343   5.721   5.100   0.658
 7482SOL     OW23344   4.734   1.016   2.667
 7482SOL    HW123345   4.730   0.958   2.749
 7482SOL    HW223346   4.715   0.960   2.586
 7483SOL     OW23347   3.459   0.959   4.811
 7483SOL    HW123348   3.549   1.001   4.822
 7483SOL    HW223349   3.388   1.029   4.820
 7484SOL     OW23350   2.064   6.276   2.258
 7484SOL    HW123351   2.003   6.197   2.260
 7484SOL    HW223352   2.095   6.296   2.352
 7485SOL     OW23353   2.971   5.897   6.193
 7485SOL    HW123354   2.944   5.817   6.247
 7485SOL    HW223355   2.993   5.868   6.100
 7486SOL     OW23356   2.976   6.367   5.618
 7486SOL    HW123357   2.996   6.274   5.647
 7486SOL    HW223358   2.959   6.368   5.519
 7487SOL     OW23359   3.283   6.058   4.401
 7487SOL    HW123360   3.268   5.985   4.335
 7487SOL    HW223361   3.198   6.076   4.450
 7488SOL     OW23362   3.827   0.104   5.923
 7488SOL    HW123363   3.783   0.148   6.002
 7488SOL    HW223364   3.850   0.174   5.855
 7489SOL     OW23365   4.932   2.781   3.959
 7489SOL    HW123366   4.937   2.871   3.915
 7489SOL    HW223367   4.862   2.783   4.031
 7490SOL     OW23368   5.504   0.869   1.257
 7490SOL    HW123369   5.495   0.955   1.206
 7490SOL    HW223370   5.518   0.889   1.354
 7491SOL     OW23371   6.448   5.913   6.257
 7491SOL    HW123372   6.503   5.977   6.202
 7491SOL    HW223373   6.504   5.873   6.328
 7492SOL     OW23374   1.661   2.695   4.984
 7492SOL    HW123375   1.672   2.787   4.945
 7492SOL    HW223376   1.751   2.652   4.993
 7493SOL     OW23377   5.650   3.396   6.732
 7493SOL    HW123378   5.587   3.457   6.684
 7493SOL    HW223379   5.744   3.426   6.716
 7494SOL     OW23380   5.372   0.221   2.148
 7494SOL    HW123381   5.285   0.237   2.103
 7494SOL    HW223382   5.356   0.184   2.240
 7495SOL     OW23383   1.834   2.083   0.895
 7495SOL    HW123384   1.884   2.067   0.980
 7495SOL    HW223385   1.889   2.050   0.818
 7496SOL     OW23386   0.773   5.091   6.235
 7496SOL    HW123387   0.790   5.188   6.252
 7496SOL    HW223388   0.817   5.036   6.306
 7497SOL     OW23389   1.672   4.294   2.587
 7497SOL    HW123390   1.686   4.310   2.684
 7497SOL    HW223391   1.759   4.307   2.538
 7498SOL     OW23392   3.689   1.918   4.774
 7498SOL    HW123393   3.748   1.992   4.805
 7498SOL    HW223394   3.660   1.935   4.680
 7499SOL     OW23395   5.679   0.151   4.403
 7499SOL    HW123396   5.752   0.219   4.394
 7499SOL    HW223397   5.692   0.080   4.333
 7500SOL     OW23398   4.586   6.060   2.008
 7500SOL    HW123399   4.596   6.035   2.104
 7500SOL    HW223400   4.676   6.078   1.969
 7501SOL     OW23401   0.457   4.246   3.909
 7501SOL    HW123402   0.365   4.220   3.937
 7501SOL    HW223403   0.515   4.165   3.904
 7502SOL     OW23404   2.672   0.989   5.148
 7502SOL    HW123405   2.673   0.901   5.100
 7502SOL    HW223406   2.583   1.003   5.191
 7503SOL     OW23407   3.253   1.052   0.124
 7503SOL    HW123408   3.262   1.136   0.177
 7503SOL    HW223409   3.229   1.074   0.030
 7504SOL     OW23410   3.906   6.656   3.230
 7504SOL    HW123411   3.839   6.665   3.303
 7504SOL    HW223412   3.965   6.737   3.228
 7505SOL     OW23413   1.874   1.559   5.003
 7505SOL    HW123414   1.891   1.587   4.908
 7505SOL    HW223415   1.909   1.467   5.018
 7506SOL     OW23416   3.617   0.941   2.434
 7506SOL    HW123417   3.547   0.871   2.442
 7506SOL    HW223418   3.704   0.906   2.470
 7507SOL     OW23419   0.709   6.116   5.820
 7507SOL    HW123420   0.777   6.154   5.882
 7507SOL    HW223421   0.714   6.016   5.823
 7508SOL     OW23422   6.045   6.984   2.712
 7508SOL    HW123423   6.061   6.913   2.779
 7508SOL    HW223424   6.097   6.964   2.629
 7509SOL     OW23425   4.961   3.242   6.007
 7509SOL    HW123426   4.917   3.293   5.933
 7509SOL    HW223427   4.890   3.204   6.067
 7510SOL     OW23428   3.605   4.232   4.954
 7510SOL    HW123429   3.546   4.291   4.899
 7510SOL    HW223430   3.693   4.221   4.908
 7511SOL     OW23431   1.548   0.571   1.920
 7511SOL    HW123432   1.555   0.485   1.971
 7511SOL    HW223433   1.588   0.645   1.974
 7512SOL     OW23434   2.788   2.781   1.682
 7512SOL    HW123435   2.697   2.744   1.667
 7512SOL    HW223436   2.784   2.858   1.746
 7513SOL     OW23437   1.766   1.896   6.847
 7513SOL    HW123438   1.787   1.994   6.840
 7513SOL    HW223439   1.707   1.869   6.771
 7514SOL     OW23440   2.621   5.458   2.362
 7514SOL    HW123441   2.582   5.497   2.446
 7514SOL    HW223442   2.559   5.388   2.327
 7515SOL     OW23443   6.668   6.727   2.386
 7515SOL    HW123444   6.720   6.692   2.464
 7515SOL    HW223445   6.579   6.683   2.382
 7516SOL     OW23446   0.665   0.815   3.686
 7516SOL    HW123447   0.624   0.898   3.646
 7516SOL    HW223448   0.646   0.812   3.784
 7517SOL     OW23449   0.212   3.810   0.692
 7517SOL    HW123450   0.113   3.802   0.684
 7517SOL    HW223451   0.247   3.865   0.616
 7518SOL     OW23452   4.726   5.560   4.255
 7518SOL    HW123453   4.702   5.468   4.223
 7518SOL    HW223454   4.700   5.570   4.351
 7519SOL     OW23455   1.560   6.129   4.367
 7519SOL    HW123456   1.494   6.196   4.334
 7519SOL    HW223457   1.641   6.130   4.308
 7520SOL     OW23458   1.584   6.598   3.680
 7520SOL    HW123459   1.523   6.654   3.624
 7520SOL    HW223460   1.640   6.658   3.738
 7521SOL     OW23461   4.919   4.333   4.946
 7521SOL    HW123462   4.987   4.350   4.875
 7521SOL    HW223463   4.829   4.365   4.915
 7522SOL     OW23464   2.339   1.221   1.059
 7522SOL    HW123465   2.363   1.264   1.146
 7522SOL    HW223466   2.272   1.277   1.010
 7523SOL     OW23467   6.033   0.267   6.180
 7523SOL    HW123468   6.089   0.303   6.105
 7523SOL    HW223469   5.941   0.307   6.175
 7524SOL     OW23470   0.568   1.983   5.332
 7524SOL    HW123471   0.640   2.053   5.326
 7524SOL    HW223472   0.528   1.985   5.424
 7525SOL     OW23473   1.426   0.961   0.300
 7525SOL    HW123474   1.483   0.982   0.379
 7525SOL    HW223475   1.401   1.045   0.252
 7526SOL     OW23476   3.697   2.953   4.484
 7526SOL    HW123477   3.725   2.903   4.565
 7526SOL    HW223478   3.765   2.939   4.411
 7527SOL     OW23479   5.249   4.219   3.121
 7527SOL    HW123480   5.199   4.188   3.202
 7527SOL    HW223481   5.281   4.140   3.069
 7528SOL     OW23482   4.995   2.704   0.318
 7528SOL    HW123483   4.912   2.689   0.373
 7528SOL    HW223484   5.064   2.636   0.343
 7529SOL     OW23485   3.591   0.897   5.355
 7529SOL    HW123486   3.563   0.855   5.269
 7529SOL    HW223487   3.653   0.836   5.404
 7530SOL     OW23488   0.166   4.014   2.341
 7530SOL    HW123489   0.212   3.941   2.391
 7530SOL    HW223490   0.107   4.065   2.403
 7531SOL     OW23491   3.981   1.902   3.689
 7531SOL    HW123492   3.956   1.908   3.786
 7531SOL    HW223493   4.064   1.955   3.672
 7532SOL     OW23494   5.099   5.857   2.341
 7532SOL    HW123495   5.139   5.774   2.379
 7532SOL    HW223496   5.159   5.894   2.271
 7533SOL     OW23497   3.457   1.547   4.651
 7533SOL    HW123498   3.522   1.527   4.578
 7533SOL    HW223499   3.369   1.573   4.612
 7534SOL     OW23500   4.489   6.543   4.843
 7534SOL    HW123501   4.422   6.487   4.796
 7534SOL    HW223502   4.581   6.515   4.816
 7535SOL     OW23503   2.672   2.527   6.103
 7535SOL    HW123504   2.763   2.568   6.096
 7535SOL    HW223505   2.660   2.490   6.196
 7536SOL     OW23506   4.333   5.333   4.927
 7536SOL    HW123507   4.244   5.371   4.950
 7536SOL    HW223508   4.325   5.235   4.909
 7537SOL     OW23509   2.289   4.735   5.619
 7537SOL    HW123510   2.214   4.669   5.616
 7537SOL    HW223511   2.376   4.687   5.624
 7538SOL     OW23512   2.935   3.492   3.107
 7538SOL    HW123513   2.867   3.498   3.034
 7538SOL    HW223514   3.022   3.460   3.070
 7539SOL     OW23515   2.026   2.805   5.125
 7539SOL    HW123516   2.075   2.733   5.075
 7539SOL    HW223517   2.090   2.877   5.150
 7540SOL     OW23518   2.802   1.298   6.891
 7540SOL    HW123519   2.749   1.330   6.970
 7540SOL    HW223520   2.761   1.335   6.807
 7541SOL     OW23521   6.157   2.158   5.095
 7541SOL    HW123522   6.153   2.160   4.995
 7541SOL    HW223523   6.249   2.133   5.125
 7542SOL     OW23524   1.387   6.748   5.556
 7542SOL    HW123525   1.452   6.784   5.489
 7542SOL    HW223526   1.403   6.792   5.645
 7543SOL     OW23527   3.867   3.527   0.926
 7543SOL    HW123528   3.777   3.556   0.960
 7543SOL    HW223529   3.907   3.463   0.992
 7544SOL     OW23530   2.053   2.404   2.994
 7544SOL    HW123531   1.959   2.421   3.023
 7544SOL    HW223532   2.066   2.439   2.901
 7545SOL     OW23533   5.471   6.723   3.742
 7545SOL    HW123534   5.407   6.715   3.820
 7545SOL    HW223535   5.423   6.698   3.658
 7546SOL     OW23536   4.971   0.800   6.764
 7546SOL    HW123537   5.015   0.760   6.683
 7546SOL    HW223538   4.935   0.890   6.741
 7547SOL     OW23539   3.670   0.233   0.675
 7547SOL    HW123540   3.625   0.322   0.679
 7547SOL    HW223541   3.616   0.171   0.619
 7548SOL     OW23542   2.579   2.271   1.393
 7548SOL    HW123543   2.651   2.262   1.324
 7548SOL    HW223544   2.614   2.239   1.481
 7549SOL     OW23545   5.206   2.165   2.987
 7549SOL    HW123546   5.221   2.256   2.949
 7549SOL    HW223547   5.111   2.137   2.969
 7550SOL     OW23548   2.125   6.108   2.661
 7550SOL    HW123549   2.105   6.043   2.587
 7550SOL    HW223550   2.138   6.058   2.747
 7551SOL     OW23551   4.980   3.168   6.478
 7551SOL    HW123552   4.895   3.216   6.497
 7551SOL    HW223553   4.981   3.138   6.382
 7552SOL     OW23554   2.929   5.191   4.246
 7552SOL    HW123555   2.873   5.274   4.251
 7552SOL    HW223556   2.897   5.125   4.314
 7553SOL     OW23557   3.739   5.624   5.923
 7553SOL    HW123558   3.701   5.715   5.942
 7553SOL    HW223559   3.790   5.592   6.003
 7554SOL     OW23560   5.606   1.569   0.301
 7554SOL    HW123561   5.665   1.495   0.269
 7554SOL    HW223562   5.590   1.559   0.399
 7555SOL     OW23563   0.131   6.195   5.284
 7555SOL    HW123564   0.065   6.155   5.220
 7555SOL    HW223565   0.217   6.144   5.279
 7556SOL     OW23566   0.432   2.826   4.294
 7556SOL    HW123567   0.481   2.862   4.215
 7556SOL    HW223568   0.488   2.757   4.340
 7557SOL     OW23569   5.145   4.091   5.964
 7557SOL    HW123570   5.131   4.114   6.061
 7557SOL    HW223571   5.120   3.996   5.949
 7558SOL     OW23572   1.693   3.656   3.280
 7558SOL    HW123573   1.758   3.727   3.255
 7558SOL    HW223574   1.671   3.601   3.199
 7559SOL     OW23575   0.542   4.588   0.975
 7559SOL    HW123576   0.512   4.650   0.904
 7559SOL    HW223577   0.465   4.565   1.034
 7560SOL     OW23578   5.226   6.697   0.548
 7560SOL    HW123579   5.235   6.615   0.491
 7560SOL    HW223580   5.282   6.770   0.510
 7561SOL     OW23581   6.431   3.428   0.648
 7561SOL    HW123582   6.521   3.447   0.609
 7561SOL    HW223583   6.407   3.333   0.629
 7562SOL     OW23584   5.001   6.689   5.215
 7562SOL    HW123585   5.051   6.773   5.237
 7562SOL    HW223586   5.066   6.618   5.186
 7563SOL     OW23587   2.803   0.731   2.447
 7563SOL    HW123588   2.732   0.692   2.388
 7563SOL    HW223589   2.803   0.683   2.535
 7564SOL     OW23590   4.887   0.132   2.950
 7564SOL    HW123591   4.978   0.171   2.936
 7564SOL    HW223592   4.897   0.040   2.989
 7565SOL     OW23593   4.704   4.914   0.072
 7565SOL    HW123594   4.785   4.922   0.130
 7565SOL    HW223595   4.726   4.945   7.004
 7566SOL     OW23596   0.741   6.061   4.529
 7566SOL    HW123597   0.695   6.126   4.469
 7566SOL    HW223598   0.794   5.996   4.474
 7567SOL     OW23599   3.076   4.874   6.713
 7567SOL    HW123600   3.017   4.937   6.661
 7567SOL    HW223601   3.103   4.917   6.799
 7568SOL     OW23602   5.138   5.459   3.383
 7568SOL    HW123603   5.200   5.427   3.454
 7568SOL    HW223604   5.094   5.381   3.339
 7569SOL     OW23605   3.793   5.725   0.130
 7569SOL    HW123606   3.714   5.770   0.171
 7569SOL    HW223607   3.800   5.632   0.166
 7570SOL     OW23608   5.407   5.577   4.000
 7570SOL    HW123609   5.471   5.531   4.061
 7570SOL    HW223610   5.335   5.621   4.054
 7571SOL     OW23611   5.713   4.332   1.513
 7571SOL    HW123612   5.619   4.298   1.507
 7571SOL    HW223613   5.712   4.432   1.515
 7572SOL     OW23614   3.272   0.802   4.473
 7572SOL    HW123615   3.231   0.890   4.500
 7572SOL    HW223616   3.213   0.757   4.407
 7573SOL     OW23617   0.347   6.248   4.353
 7573SOL    HW123618   0.308   6.200   4.274
 7573SOL    HW223619   0.446   6.251   4.345
 7574SOL     OW23620   5.470   6.881   3.342
 7574SOL    HW123621   5.496   6.917   3.432
 7574SOL    HW223622   5.399   6.938   3.302
 7575SOL     OW23623   4.055   1.256   5.447
 7575SOL    HW123624   3.976   1.314   5.427
 7575SOL    HW223625   4.073   1.196   5.369
 7576SOL     OW23626   5.809   2.995   0.298
 7576SOL    HW123627   5.871   2.964   0.226
 7576SOL    HW223628   5.784   2.917   0.355
 7577SOL     OW23629   6.238   1.209   4.697
 7577SOL    HW123630   6.246   1.294   4.749
 7577SOL    HW223631   6.267   1.132   4.754
 7578SOL     OW23632   1.993   5.329   4.554
 7578SOL    HW123633   2.005   5.391   4.631
 7578SOL    HW223634   2.081   5.291   4.527
 7579SOL     OW23635   3.671   1.600   2.709
 7579SOL    HW123636   3.696   1.688   2.750
 7579SOL    HW223637   3.712   1.526   2.763
 7580SOL     OW23638   1.751   4.350   2.847
 7580SOL    HW123639   1.832   4.408   2.847
 7580SOL    HW223640   1.758   4.283   2.922
 7581SOL     OW23641   5.004   1.530   0.895
 7581SOL    HW123642   4.992   1.433   0.915
 7581SOL    HW223643   5.002   1.544   0.796
 7582SOL     OW23644   3.411   1.339   1.156
 7582SOL    HW123645   3.446   1.432   1.148
 7582SOL    HW223646   3.408   1.296   1.066
 7583SOL     OW23647   5.667   3.100   2.010
 7583SOL    HW123648   5.606   3.021   2.015
 7583SOL    HW223649   5.761   3.070   2.026
 7584SOL     OW23650   2.564   6.638   1.611
 7584SOL    HW123651   2.533   6.631   1.516
 7584SOL    HW223652   2.573   6.734   1.637
 7585SOL     OW23653   1.367   4.926   6.479
 7585SOL    HW123654   1.274   4.892   6.470
 7585SOL    HW223655   1.428   4.850   6.501
 7586SOL     OW23656   2.810   0.255   2.917
 7586SOL    HW123657   2.778   0.228   2.826
 7586SOL    HW223658   2.809   0.175   2.977
 7587SOL     OW23659   1.099   1.569   6.371
 7587SOL    HW123660   1.011   1.611   6.393
 7587SOL    HW223661   1.171   1.637   6.377
 7588SOL     OW23662   0.329   4.892   3.182
 7588SOL    HW123663   0.425   4.901   3.156
 7588SOL    HW223664   0.277   4.855   3.105
 7589SOL     OW23665   5.841   5.938   0.574
 7589SOL    HW123666   5.843   6.005   0.648
 7589SOL    HW223667   5.772   5.965   0.507
 7590SOL     OW23668   2.523   1.512   5.942
 7590SOL    HW123669   2.484   1.443   6.003
 7590SOL    HW223670   2.605   1.476   5.899
 7591SOL     OW23671   6.697   4.964   6.689
 7591SOL    HW123672   6.720   5.059   6.709
 7591SOL    HW223673   6.763   4.926   6.624
 7592SOL     OW23674   6.399   5.067   6.595
 7592SOL    HW123675   6.378   5.010   6.516
 7592SOL    HW223676   6.448   5.013   6.664
 7593SOL     OW23677   4.765   2.246   0.106
 7593SOL    HW123678   4.779   2.298   0.190
 7593SOL    HW223679   4.763   2.149   0.127
 7594SOL     OW23680   0.940   5.895   3.998
 7594SOL    HW123681   0.952   5.897   3.899
 7594SOL    HW223682   0.941   5.800   4.030
 7595SOL     OW23683   0.012   3.118   6.376
 7595SOL    HW123684   0.093   3.134   6.432
 7595SOL    HW223685   0.031   3.149   6.282
 7596SOL     OW23686   5.169   4.505   1.619
 7596SOL    HW123687   5.133   4.481   1.709
 7596SOL    HW223688   5.093   4.515   1.554
 7597SOL     OW23689   4.115   5.189   1.698
 7597SOL    HW123690   4.167   5.193   1.783
 7597SOL    HW223691   4.066   5.275   1.684
 7598SOL     OW23692   7.020   0.108   3.028
 7598SOL    HW123693   7.013   0.041   2.955
 7598SOL    HW223694   0.028   0.063   3.111
 7599SOL     OW23695   6.478   1.823   3.219
 7599SOL    HW123696   6.464   1.757   3.146
 7599SOL    HW223697   6.576   1.832   3.237
 7600SOL     OW23698   1.456   0.837   2.078
 7600SOL    HW123699   1.469   0.925   2.123
 7600SOL    HW223700   1.533   0.777   2.099
 7601SOL     OW23701   1.468   5.936   4.222
 7601SOL    HW123702   1.504   5.845   4.247
 7601SOL    HW223703   1.496   6.002   4.292
 7602SOL     OW23704   1.550   4.038   4.653
 7602SOL    HW123705   1.522   4.054   4.747
 7602SOL    HW223706   1.625   4.100   4.629
 7603SOL     OW23707   0.906   6.141   1.071
 7603SOL    HW123708   0.867   6.180   1.154
 7603SOL    HW223709   1.002   6.167   1.063
 7604SOL     OW23710   4.192   6.095   4.622
 7604SOL    HW123711   4.230   6.066   4.710
 7604SOL    HW223712   4.210   6.193   4.609
 7605SOL     OW23713   0.215   4.493   6.993
 7605SOL    HW123714   0.283   4.482   0.041
 7605SOL    HW223715   0.126   4.512   0.009
 7606SOL     OW23716   6.572   2.848   2.458
 7606SOL    HW123717   6.662   2.886   2.434
 7606SOL    HW223718   6.569   2.829   2.556
 7607SOL     OW23719   4.953   0.075   6.295
 7607SOL    HW123720   4.880   0.117   6.241
 7607SOL    HW223721   4.923   7.009   6.325
 7608SOL     OW23722   2.981   3.383   4.107
 7608SOL    HW123723   2.946   3.477   4.106
 7608SOL    HW223724   3.049   3.372   4.035
 7609SOL     OW23725   0.978   3.771   3.874
 7609SOL    HW123726   0.999   3.824   3.791
 7609SOL    HW223727   0.977   3.674   3.851
 7610SOL     OW23728   5.298   0.152   0.796
 7610SOL    HW123729   5.331   0.058   0.800
 7610SOL    HW223730   5.339   0.206   0.869
 7611SOL     OW23731   1.311   1.802   6.959
 7611SOL    HW123732   1.397   1.803   7.009
 7611SOL    HW223733   1.312   1.873   6.889
 7612SOL     OW23734   3.732   2.138   4.094
 7612SOL    HW123735   3.785   2.089   4.025
 7612SOL    HW223736   3.657   2.188   4.051
 7613SOL     OW23737   5.136   0.888   1.569
 7613SOL    HW123738   5.040   0.914   1.561
 7613SOL    HW223739   5.144   0.799   1.612
 7614SOL     OW23740   3.782   1.860   1.123
 7614SOL    HW123741   3.725   1.938   1.098
 7614SOL    HW223742   3.724   1.785   1.155
 7615SOL     OW23743   3.645   5.603   6.233
 7615SOL    HW123744   3.720   5.553   6.189
 7615SOL    HW223745   3.562   5.596   6.177
 7616SOL     OW23746   6.667   4.087   3.331
 7616SOL    HW123747   6.580   4.043   3.354
 7616SOL    HW223748   6.724   4.022   3.280
 7617SOL     OW23749   3.009   5.126   3.535
 7617SOL    HW123750   2.932   5.112   3.472
 7617SOL    HW223751   3.032   5.223   3.539
 7618SOL     OW23752   1.635   2.125   6.596
 7618SOL    HW123753   1.607   2.220   6.579
 7618SOL    HW223754   1.709   2.124   6.663
 7619SOL     OW23755   6.228   3.504   5.334
 7619SOL    HW123756   6.141   3.512   5.383
 7619SOL    HW223757   6.213   3.456   5.247
 7620SOL     OW23758   4.198   6.940   0.555
 7620SOL    HW123759   4.134   6.941   0.479
 7620SOL    HW223760   4.167   7.003   0.626
 7621SOL     OW23761   1.809   1.046   1.051
 7621SOL    HW123762   1.856   1.097   0.979
 7621SOL    HW223763   1.865   1.046   1.134
 7622SOL     OW23764   4.021   3.351   1.126
 7622SOL    HW123765   4.026   3.267   1.181
 7622SOL    HW223766   4.016   3.430   1.187
 7623SOL     OW23767   4.475   6.447   6.129
 7623SOL    HW123768   4.492   6.352   6.103
 7623SOL    HW223769   4.463   6.453   6.228
 7624SOL     OW23770   1.015   1.360   2.777
 7624SOL    HW123771   1.030   1.445   2.827
 7624SOL    HW223772   1.020   1.378   2.678
 7625SOL     OW23773   5.316   0.419   1.201
 7625SOL    HW123774   5.278   0.486   1.138
 7625SOL    HW223775   5.248   0.395   1.270
 7626SOL     OW23776   1.319   6.500   4.695
 7626SOL    HW123777   1.284   6.471   4.784
 7626SOL    HW223778   1.367   6.424   4.652
 7627SOL     OW23779   0.006   2.925   0.821
 7627SOL    HW123780   0.059   2.926   0.906
 7627SOL    HW223781   7.013   3.018   0.791
 7628SOL     OW23782   3.118   1.554   0.901
 7628SOL    HW123783   3.210   1.583   0.875
 7628SOL    HW223784   3.060   1.549   0.819
 7629SOL     OW23785   6.857   5.772   2.831
 7629SOL    HW123786   6.767   5.809   2.855
 7629SOL    HW223787   6.904   5.836   2.770
 7630SOL     OW23788   6.727   0.372   2.209
 7630SOL    HW123789   6.719   0.458   2.259
 7630SOL    HW223790   6.668   0.375   2.128
 7631SOL     OW23791   0.880   1.625   4.462
 7631SOL    HW123792   0.924   1.665   4.543
 7631SOL    HW223793   0.795   1.581   4.488
 7632SOL     OW23794   4.483   2.296   1.269
 7632SOL    HW123795   4.555   2.345   1.319
 7632SOL    HW223796   4.411   2.360   1.244
 7633SOL     OW23797   5.530   3.206   6.586
 7633SOL    HW123798   5.458   3.175   6.648
 7633SOL    HW223799   5.596   3.262   6.636
 7634SOL     OW23800   2.189   0.455   2.174
 7634SOL    HW123801   2.279   0.463   2.132
 7634SOL    HW223802   2.139   0.542   2.163
 7635SOL     OW23803   2.626   5.458   5.869
 7635SOL    HW123804   2.620   5.419   5.777
 7635SOL    HW223805   2.604   5.387   5.937
 7636SOL     OW23806   1.067   0.770   4.162
 7636SOL    HW123807   1.156   0.776   4.116
 7636SOL    HW223808   0.997   0.812   4.105
 7637SOL     OW23809   1.391   6.323   4.261
 7637SOL    HW123810   1.435   6.333   4.171
 7637SOL    HW223811   1.450   6.362   4.332
 7638SOL     OW23812   5.218   5.491   1.890
 7638SOL    HW123813   5.287   5.562   1.899
 7638SOL    HW223814   5.217   5.456   1.797
 7639SOL     OW23815   0.963   1.471   5.118
 7639SOL    HW123816   0.906   1.403   5.162
 7639SOL    HW223817   0.922   1.562   5.129
 7640SOL     OW23818   2.271   2.068   0.757
 7640SOL    HW123819   2.320   2.012   0.823
 7640SOL    HW223820   2.334   2.099   0.686
 7641SOL     OW23821   6.127   3.935   2.383
 7641SOL    HW123822   6.039   3.915   2.340
 7641SOL    HW223823   6.174   3.849   2.403
 7642SOL     OW23824   2.242   1.923   2.398
 7642SOL    HW123825   2.284   1.900   2.310
 7642SOL    HW223826   2.291   1.876   2.471
 7643SOL     OW23827   4.695   2.538   2.680
 7643SOL    HW123828   4.715   2.445   2.650
 7643SOL    HW223829   4.628   2.579   2.618
 7644SOL     OW23830   0.410   2.958   3.318
 7644SOL    HW123831   0.389   2.863   3.341
 7644SOL    HW223832   0.336   3.017   3.349
 7645SOL     OW23833   4.722   4.571   6.945
 7645SOL    HW123834   4.649   4.505   6.964
 7645SOL    HW223835   4.698   4.625   6.865
 7646SOL     OW23836   2.184   2.053   2.110
 7646SOL    HW123837   2.177   2.074   2.012
 7646SOL    HW223838   2.093   2.032   2.146
 7647SOL     OW23839   1.822   4.018   1.451
 7647SOL    HW123840   1.902   4.026   1.390
 7647SOL    HW223841   1.744   3.986   1.398
 7648SOL     OW23842   4.198   1.675   3.694
 7648SOL    HW123843   4.198   1.677   3.594
 7648SOL    HW223844   4.231   1.762   3.729
 7649SOL     OW23845   2.610   0.607   2.270
 7649SOL    HW123846   2.532   0.668   2.260
 7649SOL    HW223847   2.672   0.619   2.192
 7650SOL     OW23848   6.694   3.768   1.959
 7650SOL    HW123849   6.691   3.669   1.950
 7650SOL    HW223850   6.711   3.810   1.870
 7651SOL     OW23851   3.316   0.450   6.722
 7651SOL    HW123852   3.338   0.522   6.656
 7651SOL    HW223853   3.233   0.403   6.693
 7652SOL     OW23854   0.101   3.943   3.376
 7652SOL    HW123855   0.090   3.993   3.461
 7652SOL    HW223856   0.145   3.855   3.394
 7653SOL     OW23857   2.553   1.728   1.606
 7653SOL    HW123858   2.569   1.824   1.584
 7653SOL    HW223859   2.524   1.719   1.701
 7654SOL     OW23860   5.215   3.002   4.060
 7654SOL    HW123861   5.265   3.056   4.128
 7654SOL    HW223862   5.279   2.950   4.004
 7655SOL     OW23863   2.838   6.691   4.868
 7655SOL    HW123864   2.927   6.738   4.868
 7655SOL    HW223865   2.851   6.594   4.888
 7656SOL     OW23866   7.010   6.119   5.071
 7656SOL    HW123867   0.008   6.175   4.991
 7656SOL    HW223868   0.006   6.023   5.052
 7657SOL     OW23869   3.126   2.015   3.499
 7657SOL    HW123870   3.166   1.944   3.441
 7657SOL    HW223871   3.198   2.066   3.545
 7658SOL     OW23872   4.271   1.080   5.854
 7658SOL    HW123873   4.237   1.147   5.921
 7658SOL    HW223874   4.199   1.061   5.787
 7659SOL     OW23875   6.253   6.561   0.725
 7659SOL    HW123876   6.232   6.464   0.736
 7659SOL    HW223877   6.173   6.615   0.751
 7660SOL     OW23878   5.495   5.797   2.834
 7660SOL    HW123879   5.549   5.801   2.918
 7660SOL    HW223880   5.490   5.702   2.802
 7661SOL     OW23881   6.418   2.994   3.677
 7661SOL    HW123882   6.440   2.913   3.623
 7661SOL    HW223883   6.318   3.003   3.684
 7662SOL     OW23884   1.208   3.568   2.375
 7662SOL    HW123885   1.269   3.537   2.449
 7662SOL    HW223886   1.187   3.665   2.388
 7663SOL     OW23887   0.863   4.917   6.418
 7663SOL    HW123888   0.962   4.902   6.415
 7663SOL    HW223889   0.819   4.838   6.459
 7664SOL     OW23890   2.636   6.245   3.572
 7664SOL    HW123891   2.729   6.273   3.596
 7664SOL    HW223892   2.583   6.231   3.655
 7665SOL     OW23893   2.838   0.731   4.339
 7665SOL    HW123894   2.925   0.682   4.328
 7665SOL    HW223895   2.856   0.829   4.347
 7666SOL     OW23896   1.202   0.257   0.932
 7666SOL    HW123897   1.265   0.325   0.969
 7666SOL    HW223898   1.172   0.196   1.005
 7667SOL     OW23899   4.957   6.978   6.774
 7667SOL    HW123900   5.042   6.948   6.732
 7667SOL    HW223901   4.880   6.952   6.716
 7668SOL     OW23902   3.755   4.372   1.175
 7668SOL    HW123903   3.854   4.365   1.180
 7668SOL    HW223904   3.713   4.307   1.238
 7669SOL     OW23905   4.381   0.237   3.883
 7669SOL    HW123906   4.350   0.319   3.833
 7669SOL    HW223907   4.473   0.213   3.852
 7670SOL     OW23908   1.263   5.598   0.508
 7670SOL    HW123909   1.351   5.587   0.555
 7670SOL    HW223910   1.198   5.645   0.568
 7671SOL     OW23911   5.990   1.885   4.353
 7671SOL    HW123912   6.001   1.808   4.416
 7671SOL    HW223913   6.077   1.904   4.308
 7672SOL     OW23914   5.480   0.730   3.841
 7672SOL    HW123915   5.459   0.780   3.756
 7672SOL    HW223916   5.440   0.779   3.919
 7673SOL     OW23917   0.457   5.157   1.004
 7673SOL    HW123918   0.506   5.099   1.069
 7673SOL    HW223919   0.425   5.101   0.927
 7674SOL     OW23920   6.579   1.917   4.679
 7674SOL    HW123921   6.662   1.895   4.731
 7674SOL    HW223922   6.527   1.986   4.728
 7675SOL     OW23923   4.636   0.056   2.079
 7675SOL    HW123924   4.734   0.065   2.064
 7675SOL    HW223925   4.616   6.988   2.112
 7676SOL     OW23926   1.386   0.643   6.454
 7676SOL    HW123927   1.297   0.687   6.469
 7676SOL    HW223928   1.447   0.706   6.406
 7677SOL     OW23929   1.893   3.695   2.540
 7677SOL    HW123930   1.866   3.684   2.444
 7677SOL    HW223931   1.859   3.618   2.593
 7678SOL     OW23932   0.501   0.747   0.858
 7678SOL    HW123933   0.544   0.783   0.776
 7678SOL    HW223934   0.568   0.693   0.910
 7679SOL     OW23935   0.925   5.410   4.893
 7679SOL    HW123936   0.948   5.489   4.949
 7679SOL    HW223937   0.996   5.396   4.824
 7680SOL     OW23938   3.002   3.938   0.079
 7680SOL    HW123939   3.060   4.007   0.122
 7680SOL    HW223940   3.026   3.848   0.114
 7681SOL     OW23941   2.672   1.656   0.162
 7681SOL    HW123942   2.699   1.665   0.066
 7681SOL    HW223943   2.735   1.595   0.209
 7682SOL     OW23944   3.377   0.197   1.660
 7682SOL    HW123945   3.344   0.291   1.673
 7682SOL    HW223946   3.300   0.134   1.667
 7683SOL     OW23947   6.109   2.000   3.043
 7683SOL    HW123948   6.073   2.047   3.123
 7683SOL    HW223949   6.202   1.969   3.061
 7684SOL     OW23950   4.407   2.017   6.132
 7684SOL    HW123951   4.403   2.117   6.143
 7684SOL    HW223952   4.484   1.994   6.072
 7685SOL     OW23953   3.665   2.787   0.713
 7685SOL    HW123954   3.577   2.781   0.761
 7685SOL    HW223955   3.668   2.870   0.658
 7686SOL     OW23956   4.573   6.825   3.726
 7686SOL    HW123957   4.668   6.838   3.753
 7686SOL    HW223958   4.517   6.809   3.807
 7687SOL     OW23959   5.122   5.586   5.507
 7687SOL    HW123960   5.072   5.654   5.454
 7687SOL    HW223961   5.060   5.512   5.534
 7688SOL     OW23962   6.727   6.449   4.922
 7688SOL    HW123963   6.680   6.517   4.979
 7688SOL    HW223964   6.722   6.477   4.826
 7689SOL     OW23965   4.555   6.708   4.526
 7689SOL    HW123966   4.655   6.720   4.527
 7689SOL    HW223967   4.513   6.774   4.587
 7690SOL     OW23968   5.589   4.483   3.344
 7690SOL    HW123969   5.639   4.457   3.426
 7690SOL    HW223970   5.503   4.432   3.339
 7691SOL     OW23971   5.121   2.617   3.869
 7691SOL    HW123972   5.112   2.539   3.931
 7691SOL    HW223973   5.042   2.677   3.879
 7692SOL     OW23974   1.771   6.191   2.077
 7692SOL    HW123975   1.799   6.282   2.107
 7692SOL    HW223976   1.817   6.122   2.132
 7693SOL     OW23977   3.989   1.152   5.977
 7693SOL    HW123978   4.034   1.161   5.888
 7693SOL    HW223979   3.988   1.241   6.024
 7694SOL     OW23980   6.603   4.696   4.074
 7694SOL    HW123981   6.553   4.612   4.054
 7694SOL    HW223982   6.689   4.673   4.119
 7695SOL     OW23983   4.283   6.930   0.875
 7695SOL    HW123984   4.262   6.847   0.823
 7695SOL    HW223985   4.221   7.004   0.846
 7696SOL     OW23986   0.150   2.424   4.659
 7696SOL    HW123987   0.053   2.447   4.664
 7696SOL    HW223988   0.202   2.483   4.721
 7697SOL     OW23989   1.984   1.469   3.268
 7697SOL    HW123990   2.080   1.442   3.259
 7697SOL    HW223991   1.979   1.558   3.312
 7698SOL     OW23992   6.997   2.992   4.746
 7698SOL    HW123993   6.971   3.088   4.746
 7698SOL    HW223994   6.966   2.948   4.661
 7699SOL     OW23995   2.723   5.857   1.017
 7699SOL    HW123996   2.710   5.834   0.921
 7699SOL    HW223997   2.781   5.788   1.061
 7700SOL     OW23998   4.655   6.439   5.040
 7700SOL    HW123999   4.660   6.507   4.967
 7700SOL    HW224000   4.568   6.448   5.089
 7701SOL     OW24001   0.473   1.540   4.942
 7701SOL    HW124002   0.498   1.616   4.882
 7701SOL    HW224003   0.553   1.509   4.992
 7702SOL     OW24004   3.410   5.699   5.677
 7702SOL    HW124005   3.352   5.774   5.708
 7702SOL    HW224006   3.398   5.620   5.738
 7703SOL     OW24007   0.392   1.462   5.434
 7703SOL    HW124008   0.428   1.393   5.370
 7703SOL    HW224009   0.332   1.525   5.384
 7704SOL     OW24010   4.603   4.257   6.690
 7704SOL    HW124011   4.517   4.214   6.719
 7704SOL    HW224012   4.584   4.321   6.615
 7705SOL     OW24013   3.595   5.353   5.064
 7705SOL    HW124014   3.545   5.274   5.099
 7705SOL    HW224015   3.589   5.428   5.131
 7706SOL     OW24016   6.141   0.669   5.063
 7706SOL    HW124017   6.056   0.676   5.115
 7706SOL    HW224018   6.218   0.661   5.127
 7707SOL     OW24019   6.806   5.550   6.524
 7707SOL    HW124020   6.906   5.554   6.525
 7707SOL    HW224021   6.776   5.456   6.507
 7708SOL     OW24022   4.768   6.435   3.987
 7708SOL    HW124023   4.700   6.467   3.921
 7708SOL    HW224024   4.831   6.373   3.942
 7709SOL     OW24025   4.696   2.334   1.458
 7709SOL    HW124026   4.779   2.356   1.508
 7709SOL    HW224027   4.633   2.284   1.518
 7710SOL     OW24028   2.875   0.304   0.701
 7710SOL    HW124029   2.788   0.291   0.654
 7710SOL    HW224030   2.858   0.314   0.799
 7711SOL     OW24031   5.509   6.349   5.611
 7711SOL    HW124032   5.455   6.432   5.601
 7711SOL    HW224033   5.543   6.321   5.521
 7712SOL     OW24034   6.209   5.013   0.930
 7712SOL    HW124035   6.120   4.984   0.894
 7712SOL    HW224036   6.237   4.951   1.003
 7713SOL     OW24037   1.599   4.326   6.679
 7713SOL    HW124038   1.538   4.268   6.733
 7713SOL    HW224039   1.569   4.421   6.685
 7714SOL     OW24040   5.819   4.254   3.972
 7714SOL    HW124041   5.858   4.193   3.903
 7714SOL    HW224042   5.873   4.249   4.056
 7715SOL     OW24043   5.394   0.123   1.425
 7715SOL    HW124044   5.306   0.120   1.378
 7715SOL    HW224045   5.444   0.038   1.407
 7716SOL     OW24046   4.952   2.192   2.796
 7716SOL    HW124047   4.861   2.214   2.762
 7716SOL    HW224048   5.019   2.254   2.755
 7717SOL     OW24049   2.953   1.590   5.566
 7717SOL    HW124050   3.041   1.610   5.522
 7717SOL    HW224051   2.920   1.671   5.613
 7718SOL     OW24052   2.708   0.867   3.248
 7718SOL    HW124053   2.745   0.786   3.293
 7718SOL    HW224054   2.658   0.841   3.166
 7719SOL     OW24055   6.747   2.209   4.114
 7719SOL    HW124056   6.771   2.271   4.039
 7719SOL    HW224057   6.739   2.116   4.078
 7720SOL     OW24058   6.339   6.497   1.051
 7720SOL    HW124059   6.410   6.464   0.989
 7720SOL    HW224060   6.324   6.595   1.038
 7721SOL     OW24061   2.430   4.329   3.608
 7721SOL    HW124062   2.407   4.288   3.520
 7721SOL    HW224063   2.395   4.271   3.682
 7722SOL     OW24064   6.300   4.576   3.827
 7722SOL    HW124065   6.392   4.558   3.863
 7722SOL    HW224066   6.267   4.495   3.778
 7723SOL     OW24067   6.822   3.305   0.379
 7723SOL    HW124068   6.905   3.330   0.429
 7723SOL    HW224069   6.847   3.273   0.287
 7724SOL     OW24070   1.240   4.676   0.972
 7724SOL    HW124071   1.141   4.669   0.980
 7724SOL    HW224072   1.263   4.720   0.885
 7725SOL     OW24073   6.016   2.691   3.301
 7725SOL    HW124074   5.981   2.765   3.245
 7725SOL    HW224075   6.112   2.673   3.277
 7726SOL     OW24076   0.785   4.320   2.794
 7726SOL    HW124077   0.878   4.353   2.782
 7726SOL    HW224078   0.753   4.279   2.709
 7727SOL     OW24079   6.595   2.644   3.308
 7727SOL    HW124080   6.657   2.706   3.357
 7727SOL    HW224081   6.632   2.625   3.217
 7728SOL     OW24082   1.872   3.167   3.072
 7728SOL    HW124083   1.895   3.234   3.142
 7728SOL    HW224084   1.851   3.079   3.116
 7729SOL     OW24085   5.095   2.443   1.246
 7729SOL    HW124086   5.130   2.537   1.237
 7729SOL    HW224087   4.996   2.443   1.233
 7730SOL     OW24088   4.864   6.968   2.554
 7730SOL    HW124089   4.892   6.918   2.636
 7730SOL    HW224090   4.786   6.922   2.512
 7731SOL     OW24091   5.921   1.472   7.001
 7731SOL    HW124092   6.017   1.478   6.976
 7731SOL    HW224093   5.901   1.537   0.050
 7732SOL     OW24094   4.416   5.857   0.039
 7732SOL    HW124095   4.461   5.808   6.989
 7732SOL    HW224096   4.340   5.911   0.003
 7733SOL     OW24097   3.537   0.642   1.397
 7733SOL    HW124098   3.499   0.673   1.310
 7733SOL    HW224099   3.473   0.662   1.471
 7734SOL     OW24100   1.436   2.456   3.995
 7734SOL    HW124101   1.396   2.504   4.073
 7734SOL    HW224102   1.518   2.506   3.964
 7735SOL     OW24103   5.433   4.544   6.625
 7735SOL    HW124104   5.407   4.577   6.716
 7735SOL    HW224105   5.360   4.486   6.589
 7736SOL     OW24106   5.668   4.421   0.154
 7736SOL    HW124107   5.628   4.332   0.177
 7736SOL    HW224108   5.700   4.466   0.237
 7737SOL     OW24109   4.721   1.770   0.749
 7737SOL    HW124110   4.785   1.780   0.826
 7737SOL    HW224111   4.628   1.763   0.784
 7738SOL     OW24112   2.796   5.556   0.417
 7738SOL    HW124113   2.754   5.645   0.397
 7738SOL    HW224114   2.768   5.489   0.348
 7739SOL     OW24115   0.701   2.485   1.466
 7739SOL    HW124116   0.724   2.558   1.530
 7739SOL    HW224117   0.641   2.419   1.510
 7740SOL     OW24118   0.409   6.871   2.550
 7740SOL    HW124119   0.338   6.883   2.619
 7740SOL    HW224120   0.493   6.839   2.594
 7741SOL     OW24121   1.458   6.012   3.970
 7741SOL    HW124122   1.460   6.111   3.956
 7741SOL    HW224123   1.437   5.991   4.066
 7742SOL     OW24124   6.096   2.146   3.297
 7742SOL    HW124125   6.177   2.098   3.331
 7742SOL    HW224126   6.124   2.226   3.244
 7743SOL     OW24127   4.594   2.593   4.697
 7743SOL    HW124128   4.682   2.552   4.721
 7743SOL    HW224129   4.520   2.533   4.726
 7744SOL     OW24130   6.590   0.074   3.717
 7744SOL    HW124131   6.561   0.088   3.622
 7744SOL    HW224132   6.593   7.001   3.737
 7745SOL     OW24133   3.496   2.544   5.868
 7745SOL    HW124134   3.585   2.529   5.911
 7745SOL    HW224135   3.483   2.641   5.851
 7746SOL     OW24136   1.627   0.683   0.043
 7746SOL    HW124137   1.684   0.759   0.075
 7746SOL    HW224138   1.565   0.655   0.116
 7747SOL     OW24139   5.142   6.324   0.939
 7747SOL    HW124140   5.083   6.251   0.976
 7747SOL    HW224141   5.143   6.317   0.839
 7748SOL     OW24142   2.468   4.439   6.084
 7748SOL    HW124143   2.375   4.429   6.121
 7748SOL    HW224144   2.469   4.408   5.989
 7749SOL     OW24145   5.563   3.016   5.692
 7749SOL    HW124146   5.594   2.933   5.738
 7749SOL    HW224147   5.594   3.016   5.598
 7750SOL     OW24148   0.083   6.007   1.839
 7750SOL    HW124149   0.092   6.040   1.745
 7750SOL    HW224150   0.089   5.907   1.839
 7751SOL     OW24151   0.865   2.585   2.016
 7751SOL    HW124152   0.941   2.522   2.002
 7751SOL    HW224153   0.814   2.596   1.930
 7752SOL     OW24154   4.525   1.298   4.265
 7752SOL    HW124155   4.570   1.315   4.177
 7752SOL    HW224156   4.525   1.200   4.284
 7753SOL     OW24157   2.694   1.516   5.474
 7753SOL    HW124158   2.782   1.514   5.521
 7753SOL    HW224159   2.670   1.611   5.452
 7754SOL     OW24160   4.289   6.454   1.997
 7754SOL    HW124161   4.330   6.363   2.003
 7754SOL    HW224162   4.332   6.514   2.064
 7755SOL     OW24163   1.557   4.349   5.995
 7755SOL    HW124164   1.481   4.403   5.957
 7755SOL    HW224165   1.582   4.386   6.084
 7756SOL     OW24166   3.275   5.932   1.595
 7756SOL    HW124167   3.344   5.902   1.530
 7756SOL    HW224168   3.295   5.894   1.686
 7757SOL     OW24169   0.140   4.641   2.816
 7757SOL    HW124170   0.112   4.579   2.890
 7757SOL    HW224171   0.133   4.594   2.728
 7758SOL     OW24172   1.594   0.585   5.454
 7758SOL    HW124173   1.550   0.655   5.398
 7758SOL    HW224174   1.693   0.594   5.448
 7759SOL     OW24175   3.144   2.104   6.704
 7759SOL    HW124176   3.222   2.164   6.684
 7759SOL    HW224177   3.155   2.065   6.795
 7760SOL     OW24178   4.427   3.198   1.320
 7760SOL    HW124179   4.369   3.126   1.284
 7760SOL    HW224180   4.456   3.174   1.412
 7761SOL     OW24181   4.981   5.927   4.451
 7761SOL    HW124182   4.885   5.953   4.462
 7761SOL    HW224183   4.987   5.848   4.391
 7762SOL     OW24184   6.459   0.487   2.986
 7762SOL    HW124185   6.538   0.428   2.966
 7762SOL    HW224186   6.485   0.582   2.974
 7763SOL     OW24187   2.495   6.984   4.683
 7763SOL    HW124188   2.556   6.906   4.680
 7763SOL    HW224189   2.510   0.011   4.767
 7764SOL     OW24190   3.096   4.142   5.517
 7764SOL    HW124191   3.040   4.107   5.591
 7764SOL    HW224192   3.159   4.071   5.486
 7765SOL     OW24193   6.786   2.929   4.270
 7765SOL    HW124194   6.810   2.930   4.173
 7765SOL    HW224195   6.755   3.019   4.298
 7766SOL     OW24196   6.682   3.934   6.741
 7766SOL    HW124197   6.743   3.892   6.674
 7766SOL    HW224198   6.591   3.891   6.734
 7767SOL     OW24199   2.696   1.086   3.078
 7767SOL    HW124200   2.599   1.095   3.054
 7767SOL    HW224201   2.706   1.018   3.151
 7768SOL     OW24202   4.896   5.367   2.967
 7768SOL    HW124203   4.833   5.375   3.044
 7768SOL    HW224204   4.845   5.341   2.884
 7769SOL     OW24205   3.212   2.535   5.370
 7769SOL    HW124206   3.199   2.467   5.298
 7769SOL    HW224207   3.189   2.626   5.335
 7770SOL     OW24208   2.104   3.269   4.642
 7770SOL    HW124209   2.167   3.196   4.618
 7770SOL    HW224210   2.102   3.337   4.568
 7771SOL     OW24211   2.822   2.131   6.391
 7771SOL    HW124212   2.733   2.174   6.375
 7771SOL    HW224213   2.846   2.074   6.313
 7772SOL     OW24214   5.032   0.159   1.788
 7772SOL    HW124215   5.062   0.064   1.802
 7772SOL    HW224216   5.111   0.216   1.765
 7773SOL     OW24217   3.332   6.360   7.020
 7773SOL    HW124218   3.357   6.281   0.052
 7773SOL    HW224219   3.243   6.395   0.025
 7774SOL     OW24220   4.374   1.741   2.699
 7774SOL    HW124221   4.335   1.707   2.784
 7774SOL    HW224222   4.313   1.808   2.658
 7775SOL     OW24223   3.305   0.653   6.928
 7775SOL    HW124224   3.396   0.693   6.932
 7775SOL    HW224225   3.307   0.571   6.871
 7776SOL     OW24226   1.852   1.141   4.802
 7776SOL    HW124227   1.834   1.208   4.730
 7776SOL    HW224228   1.766   1.110   4.841
 7777SOL     OW24229   5.305   5.086   3.449
 7777SOL    HW124230   5.338   5.177   3.475
 7777SOL    HW224231   5.219   5.095   3.398
 7778SOL     OW24232   6.025   5.018   2.967
 7778SOL    HW124233   5.975   4.952   2.911
 7778SOL    HW224234   6.004   5.111   2.937
 7779SOL     OW24235   3.581   5.897   2.558
 7779SOL    HW124236   3.519   5.916   2.482
 7779SOL    HW224237   3.536   5.919   2.645
 7780SOL     OW24238   6.036   5.666   4.611
 7780SOL    HW124239   5.989   5.628   4.532
 7780SOL    HW224240   5.991   5.635   4.695
 7781SOL     OW24241   1.982   2.438   0.738
 7781SOL    HW124242   1.976   2.344   0.704
 7781SOL    HW224243   1.928   2.448   0.821
 7782SOL     OW24244   5.518   4.060   3.968
 7782SOL    HW124245   5.592   4.126   3.960
 7782SOL    HW224246   5.557   3.969   3.983
 7783SOL     OW24247   1.017   0.347   5.340
 7783SOL    HW124248   1.062   0.361   5.428
 7783SOL    HW224249   1.084   0.314   5.273
 7784SOL     OW24250   2.197   2.830   2.843
 7784SOL    HW124251   2.238   2.908   2.890
 7784SOL    HW224252   2.243   2.746   2.871
 7785SOL     OW24253   0.502   6.525   2.511
 7785SOL    HW124254   0.477   6.535   2.415
 7785SOL    HW224255   0.598   6.549   2.524
 7786SOL     OW24256   4.463   0.144   6.121
 7786SOL    HW124257   4.444   0.116   6.215
 7786SOL    HW224258   4.412   0.227   6.100
 7787SOL     OW24259   2.504   2.531   1.361
 7787SOL    HW124260   2.530   2.436   1.373
 7787SOL    HW224261   2.520   2.582   1.446
 7788SOL     OW24262   6.999   4.351   1.469
 7788SOL    HW124263   0.034   4.288   1.518
 7788SOL    HW224264   7.021   4.445   1.495
 7789SOL     OW24265   3.789   1.470   6.196
 7789SOL    HW124266   3.727   1.436   6.267
 7789SOL    HW224267   3.742   1.473   6.108
 7790SOL     OW24268   4.834   4.513   1.811
 7790SOL    HW124269   4.786   4.456   1.743
 7790SOL    HW224270   4.769   4.544   1.880
 7791SOL     OW24271   2.703   4.723   2.502
 7791SOL    HW124272   2.789   4.703   2.455
 7791SOL    HW224273   2.673   4.643   2.554
 7792SOL     OW24274   1.031   2.059   2.367
 7792SOL    HW124275   1.000   2.076   2.274
 7792SOL    HW224276   1.117   2.008   2.365
 7793SOL     OW24277   4.722   0.805   5.977
 7793SOL    HW124278   4.645   0.861   5.948
 7793SOL    HW224279   4.690   0.732   6.037
 7794SOL     OW24280   0.469   6.560   3.399
 7794SOL    HW124281   0.424   6.575   3.487
 7794SOL    HW224282   0.545   6.624   3.390
 7795SOL     OW24283   3.386   5.994   6.472
 7795SOL    HW124284   3.436   5.909   6.487
 7795SOL    HW224285   3.306   5.977   6.416
 7796SOL     OW24286   3.977   3.300   6.415
 7796SOL    HW124287   3.889   3.281   6.371
 7796SOL    HW224288   3.961   3.341   6.505
 7797SOL     OW24289   1.322   6.328   2.679
 7797SOL    HW124290   1.419   6.354   2.682
 7797SOL    HW224291   1.269   6.393   2.734
 7798SOL     OW24292   1.214   3.213   0.513
 7798SOL    HW124293   1.237   3.301   0.554
 7798SOL    HW224294   1.209   3.143   0.584
 7799SOL     OW24295   2.439   5.837   3.719
 7799SOL    HW124296   2.490   5.829   3.633
 7799SOL    HW224297   2.398   5.928   3.726
 7800SOL     OW24298   0.504   6.622   1.766
 7800SOL    HW124299   0.436   6.561   1.806
 7800SOL    HW224300   0.483   6.716   1.791
 7801SOL     OW24301   1.879   2.494   2.348
 7801SOL    HW124302   1.958   2.554   2.340
 7801SOL    HW224303   1.812   2.517   2.277
 7802SOL     OW24304   0.349   3.914   4.615
 7802SOL    HW124305   0.371   4.006   4.648
 7802SOL    HW224306   0.426   3.878   4.562
 7803SOL     OW24307   4.117   2.518   5.676
 7803SOL    HW124308   4.035   2.467   5.651
 7803SOL    HW224309   4.099   2.570   5.760
 7804SOL     OW24310   3.080   1.874   5.312
 7804SOL    HW124311   3.053   1.943   5.380
 7804SOL    HW224312   3.092   1.918   5.223
 7805SOL     OW24313   5.829   2.706   0.423
 7805SOL    HW124314   5.858   2.619   0.464
 7805SOL    HW224315   5.743   2.692   0.374
 7806SOL     OW24316   0.008   2.764   5.527
 7806SOL    HW124317   0.035   2.719   5.443
 7806SOL    HW224318   0.059   2.849   5.538
 7807SOL     OW24319   2.614   4.786   6.162
 7807SOL    HW124320   2.559   4.719   6.112
 7807SOL    HW224321   2.564   4.873   6.168
 7808SOL     OW24322   4.988   3.389   3.233
 7808SOL    HW124323   4.942   3.354   3.314
 7808SOL    HW224324   4.945   3.475   3.204
 7809SOL     OW24325   4.809   5.130   3.399
 7809SOL    HW124326   4.730   5.189   3.382
 7809SOL    HW224327   4.785   5.061   3.467
 7810SOL     OW24328   3.577   6.649   5.446
 7810SOL    HW124329   3.640   6.724   5.466
 7810SOL    HW224330   3.513   6.679   5.375
 7811SOL     OW24331   1.259   5.633   3.190
 7811SOL    HW124332   1.192   5.573   3.146
 7811SOL    HW224333   1.243   5.727   3.163
 7812SOL     OW24334   2.964   1.847   6.392
 7812SOL    HW124335   3.048   1.793   6.385
 7812SOL    HW224336   2.969   1.925   6.329
 7813SOL     OW24337   5.419   0.707   0.784
 7813SOL    HW124338   5.412   0.806   0.777
 7813SOL    HW224339   5.420   0.667   0.692
 7814SOL     OW24340   6.826   3.208   1.894
 7814SOL    HW124341   6.743   3.212   1.950
 7814SOL    HW224342   6.903   3.248   1.945
 7815SOL     OW24343   5.610   3.723   5.228
 7815SOL    HW124344   5.511   3.713   5.228
 7815SOL    HW224345   5.634   3.812   5.189
 7816SOL     OW24346   0.791   1.167   5.026
 7816SOL    HW124347   0.776   1.104   4.950
 7816SOL    HW224348   0.863   1.130   5.085
 7817SOL     OW24349   2.934   3.149   6.428
 7817SOL    HW124350   2.969   3.238   6.458
 7817SOL    HW224351   2.867   3.115   6.494
 7818SOL     OW24352   5.967   0.995   2.270
 7818SOL    HW124353   6.024   1.042   2.203
 7818SOL    HW224354   5.945   1.057   2.345
 7819SOL     OW24355   1.357   3.716   3.781
 7819SOL    HW124356   1.409   3.737   3.698
 7819SOL    HW224357   1.294   3.792   3.801
 7820SOL     OW24358   2.151   6.873   6.409
 7820SOL    HW124359   2.110   6.786   6.435
 7820SOL    HW224360   2.104   6.910   6.328
 7821SOL     OW24361   5.440   5.606   6.673
 7821SOL    HW124362   5.469   5.629   6.766
 7821SOL    HW224363   5.474   5.675   6.609
 7822SOL     OW24364   1.617   1.098   4.922
 7822SOL    HW124365   1.615   1.198   4.925
 7822SOL    HW224366   1.590   1.066   4.831
 7823SOL     OW24367   1.770   3.333   5.963
 7823SOL    HW124368   1.736   3.334   6.058
 7823SOL    HW224369   1.829   3.412   5.948
 7824SOL     OW24370   5.249   2.615   3.065
 7824SOL    HW124371   5.203   2.623   3.154
 7824SOL    HW224372   5.320   2.685   3.059
 7825SOL     OW24373   3.430   3.594   2.311
 7825SOL    HW124374   3.363   3.545   2.255
 7825SOL    HW224375   3.383   3.647   2.381
 7826SOL     OW24376   6.784   0.637   0.682
 7826SOL    HW124377   6.780   0.555   0.739
 7826SOL    HW224378   6.692   0.667   0.659
 7827SOL     OW24379   5.419   4.915   1.553
 7827SOL    HW124380   5.499   4.974   1.564
 7827SOL    HW224381   5.445   4.820   1.573
 7828SOL     OW24382   0.320   6.531   0.647
 7828SOL    HW124383   0.409   6.487   0.633
 7828SOL    HW224384   0.319   6.619   0.599
 7829SOL     OW24385   4.118   2.624   1.670
 7829SOL    HW124386   4.086   2.531   1.652
 7829SOL    HW224387   4.042   2.680   1.702
 7830SOL     OW24388   6.290   2.645   6.667
 7830SOL    HW124389   6.287   2.678   6.761
 7830SOL    HW224390   6.239   2.708   6.608
 7831SOL     OW24391   1.730   3.165   6.970
 7831SOL    HW124392   1.772   3.243   7.017
 7831SOL    HW224393   1.647   3.138   7.020
 7832SOL     OW24394   2.618   2.576   5.439
 7832SOL    HW124395   2.709   2.608   5.468
 7832SOL    HW224396   2.573   2.648   5.387
 7833SOL     OW24397   0.480   6.752   0.157
 7833SOL    HW124398   0.411   6.810   0.202
 7833SOL    HW224399   0.562   6.749   0.213
 7834SOL     OW24400   0.725   0.580   1.284
 7834SOL    HW124401   0.643   0.617   1.327
 7834SOL    HW224402   0.800   0.580   1.350
 7835SOL     OW24403   2.182   2.582   5.052
 7835SOL    HW124404   2.276   2.611   5.035
 7835SOL    HW224405   2.182   2.499   5.107
 7836SOL     OW24406   2.181   6.739   0.218
 7836SOL    HW124407   2.261   6.771   0.168
 7836SOL    HW224408   2.107   6.805   0.209
 7837SOL     OW24409   6.348   6.919   2.806
 7837SOL    HW124410   6.322   6.995   2.746
 7837SOL    HW224411   6.448   6.913   2.810
 7838SOL     OW24412   3.717   0.107   4.028
 7838SOL    HW124413   3.690   0.192   3.982
 7838SOL    HW224414   3.751   0.129   4.120
 7839SOL     OW24415   6.336   4.544   4.472
 7839SOL    HW124416   6.344   4.503   4.562
 7839SOL    HW224417   6.374   4.636   4.474
 7840SOL     OW24418   5.921   3.152   4.922
 7840SOL    HW124419   5.908   3.118   5.015
 7840SOL    HW224420   5.846   3.120   4.864
 7841SOL     OW24421   0.853   1.709   6.491
 7841SOL    HW124422   0.773   1.688   6.434
 7841SOL    HW224423   0.866   1.808   6.494
 7842SOL     OW24424   2.817   1.002   2.840
 7842SOL    HW124425   2.794   1.070   2.909
 7842SOL    HW224426   2.913   0.976   2.850
 7843SOL     OW24427   5.325   3.416   0.589
 7843SOL    HW124428   5.306   3.351   0.662
 7843SOL    HW224429   5.352   3.504   0.629
 7844SOL     OW24430   4.391   1.093   3.488
 7844SOL    HW124431   4.309   1.113   3.543
 7844SOL    HW224432   4.366   1.094   3.391
 7845SOL     OW24433   6.865   1.620   3.902
 7845SOL    HW124434   6.933   1.598   3.972
 7845SOL    HW224435   6.803   1.542   3.891
 7846SOL     OW24436   2.827   6.834   2.472
 7846SOL    HW124437   2.907   6.807   2.420
 7846SOL    HW224438   2.850   6.838   2.569
 7847SOL     OW24439   6.838   0.652   0.400
 7847SOL    HW124440   6.827   0.561   0.361
 7847SOL    HW224441   6.854   0.644   0.499
 7848SOL     OW24442   5.169   4.077   1.812
 7848SOL    HW124443   5.248   4.081   1.751
 7848SOL    HW224444   5.182   4.003   1.878
 7849SOL     OW24445   6.564   3.899   5.329
 7849SOL    HW124446   6.493   3.829   5.330
 7849SOL    HW224447   6.630   3.881   5.402
 7850SOL     OW24448   1.405   0.829   4.795
 7850SOL    HW124449   1.445   0.756   4.850
 7850SOL    HW224450   1.337   0.878   4.849
 7851SOL     OW24451   5.588   6.808   6.895
 7851SOL    HW124452   5.498   6.811   6.853
 7851SOL    HW224453   5.652   6.760   6.835
 7852SOL     OW24454   2.462   6.230   0.374
 7852SOL    HW124455   2.441   6.254   0.279
 7852SOL    HW224456   2.482   6.132   0.379
 7853SOL     OW24457   2.644   3.153   0.332
 7853SOL    HW124458   2.740   3.174   0.316
 7853SOL    HW224459   2.634   3.109   0.421
 7854SOL     OW24460   3.557   4.158   2.250
 7854SOL    HW124461   3.528   4.238   2.197
 7854SOL    HW224462   3.626   4.108   2.198
 7855SOL     OW24463   4.414   6.169   5.679
 7855SOL    HW124464   4.500   6.188   5.726
 7855SOL    HW224465   4.339   6.212   5.728
 7856SOL     OW24466   5.284   3.408   6.034
 7856SOL    HW124467   5.333   3.492   6.014
 7856SOL    HW224468   5.298   3.383   6.129
 7857SOL     OW24469   6.881   1.565   5.608
 7857SOL    HW124470   6.912   1.595   5.517
 7857SOL    HW224471   6.794   1.517   5.599
 7858SOL     OW24472   6.363   3.882   2.889
 7858SOL    HW124473   6.316   3.919   2.969
 7858SOL    HW224474   6.440   3.825   2.919
 7859SOL     OW24475   1.244   5.756   6.825
 7859SOL    HW124476   1.153   5.715   6.832
 7859SOL    HW224477   1.236   5.856   6.829
 7860SOL     OW24478   4.107   6.758   2.089
 7860SOL    HW124479   4.010   6.766   2.113
 7860SOL    HW224480   4.161   6.749   2.172
 7861SOL     OW24481   4.746   4.693   0.327
 7861SOL    HW124482   4.699   4.668   0.242
 7861SOL    HW224483   4.791   4.612   0.364
 7862SOL     OW24484   3.089   4.594   1.670
 7862SOL    HW124485   3.168   4.644   1.708
 7862SOL    HW224486   3.046   4.541   1.743
 7863SOL     OW24487   6.561   5.806   2.021
 7863SOL    HW124488   6.582   5.902   2.039
 7863SOL    HW224489   6.634   5.766   1.965
 7864SOL     OW24490   0.375   5.227   4.778
 7864SOL    HW124491   0.444   5.196   4.713
 7864SOL    HW224492   0.383   5.325   4.792
 7865SOL     OW24493   3.242   6.958   3.555
 7865SOL    HW124494   3.156   7.005   3.575
 7865SOL    HW224495   3.304   7.021   3.509
 7866SOL     OW24496   2.598   2.195   4.255
 7866SOL    HW124497   2.629   2.290   4.260
 7866SOL    HW224498   2.670   2.134   4.288
 7867SOL     OW24499   5.976   4.372   1.879
 7867SOL    HW124500   5.990   4.337   1.787
 7867SOL    HW224501   5.986   4.298   1.945
 7868SOL     OW24502   5.485   6.439   0.444
 7868SOL    HW124503   5.395   6.472   0.418
 7868SOL    HW224504   5.523   6.498   0.515
 7869SOL     OW24505   0.657   3.367   1.868
 7869SOL    HW124506   0.607   3.393   1.951
 7869SOL    HW224507   0.737   3.425   1.857
 7870SOL     OW24508   6.980   5.691   3.869
 7870SOL    HW124509   6.915   5.676   3.943
 7870SOL    HW224510   6.956   5.774   3.820
 7871SOL     OW24511   4.972   3.045   3.214
 7871SOL    HW124512   5.001   3.131   3.172
 7871SOL    HW224513   4.974   2.972   3.146
 7872SOL     OW24514   0.157   3.171   3.070
 7872SOL    HW124515   0.123   3.259   3.038
 7872SOL    HW224516   0.081   3.105   3.073
 7873SOL     OW24517   0.268   5.013   5.445
 7873SOL    HW124518   0.178   5.021   5.488
 7873SOL    HW224519   0.334   4.976   5.511
 7874SOL     OW24520   5.819   1.406   0.879
 7874SOL    HW124521   5.862   1.441   0.962
 7874SOL    HW224522   5.879   1.338   0.836
 7875SOL     OW24523   4.120   3.069   6.306
 7875SOL    HW124524   4.037   3.015   6.319
 7875SOL    HW224525   4.098   3.166   6.317
 7876SOL     OW24526   6.206   0.249   3.465
 7876SOL    HW124527   6.277   0.295   3.412
 7876SOL    HW224528   6.221   0.265   3.563
 7877SOL     OW24529   6.777   2.065   2.568
 7877SOL    HW124530   6.728   2.116   2.639
 7877SOL    HW224531   6.853   2.120   2.533
 7878SOL     OW24532   4.894   3.683   1.915
 7878SOL    HW124533   4.965   3.735   1.867
 7878SOL    HW224534   4.889   3.590   1.877
 7879SOL     OW24535   5.005   0.463   4.013
 7879SOL    HW124536   4.939   0.503   3.949
 7879SOL    HW224537   5.093   0.510   4.003
 7880SOL     OW24538   0.411   7.023   6.517
 7880SOL    HW124539   0.327   6.974   6.495
 7880SOL    HW224540   0.488   6.980   6.470
 7881SOL     OW24541   0.059   4.914   4.442
 7881SOL    HW124542   0.018   4.979   4.377
 7881SOL    HW224543   7.020   4.895   4.516
 7882SOL     OW24544   6.661   3.964   3.024
 7882SOL    HW124545   6.596   4.009   3.086
 7882SOL    HW224546   6.731   4.030   2.996
 7883SOL     OW24547   3.242   1.528   3.721
 7883SOL    HW124548   3.210   1.433   3.719
 7883SOL    HW224549   3.166   1.588   3.745
 7884SOL     OW24550   0.548   4.367   4.571
 7884SOL    HW124551   0.619   4.302   4.545
 7884SOL    HW224552   0.569   4.404   4.662
 7885SOL     OW24553   6.074   5.428   3.063
 7885SOL    HW124554   6.037   5.472   3.145
 7885SOL    HW224555   6.013   5.354   3.034
 7886SOL     OW24556   4.766   2.841   2.397
 7886SOL    HW124557   4.769   2.940   2.378
 7886SOL    HW224558   4.856   2.811   2.428
 7887SOL     OW24559   3.079   3.350   0.587
 7887SOL    HW124560   2.984   3.331   0.610
 7887SOL    HW224561   3.102   3.305   0.500
 7888SOL     OW24562   5.358   2.005   4.139
 7888SOL    HW124563   5.289   1.940   4.109
 7888SOL    HW224564   5.369   2.076   4.069
 7889SOL     OW24565   5.962   4.953   0.873
 7889SOL    HW124566   5.903   5.020   0.828
 7889SOL    HW224567   5.912   4.909   0.948
 7890SOL     OW24568   1.161   3.495   4.562
 7890SOL    HW124569   1.179   3.410   4.512
 7890SOL    HW224570   1.177   3.480   4.660
 7891SOL     OW24571   0.686   1.906   4.504
 7891SOL    HW124572   0.742   1.923   4.585
 7891SOL    HW224573   0.603   1.962   4.507
 7892SOL     OW24574   1.044   2.670   5.718
 7892SOL    HW124575   0.977   2.742   5.700
 7892SOL    HW224576   1.044   2.604   5.643
 7893SOL     OW24577   6.003   0.628   0.747
 7893SOL    HW124578   5.916   0.618   0.795
 7893SOL    HW224579   6.024   0.545   0.696
 7894SOL     OW24580   3.001   1.355   6.578
 7894SOL    HW124581   2.909   1.365   6.616
 7894SOL    HW224582   2.994   1.320   6.484
 7895SOL     OW24583   4.236   6.504   3.308
 7895SOL    HW124584   4.335   6.500   3.294
 7895SOL    HW224585   4.190   6.487   3.221
 7896SOL     OW24586   3.237   1.976   1.049
 7896SOL    HW124587   3.148   1.980   1.095
 7896SOL    HW224588   3.223   1.958   0.952
 7897SOL     OW24589   3.796   4.017   6.984
 7897SOL    HW124590   3.824   4.027   0.054
 7897SOL    HW224591   3.769   3.922   6.967
 7898SOL     OW24592   5.669   0.439   4.162
 7898SOL    HW124593   5.656   0.435   4.062
 7898SOL    HW224594   5.588   0.401   4.207
 7899SOL     OW24595   5.302   4.366   2.108
 7899SOL    HW124596   5.363   4.439   2.077
 7899SOL    HW224597   5.219   4.366   2.051
 7900SOL     OW24598   0.689   3.879   0.750
 7900SOL    HW124599   0.696   3.931   0.835
 7900SOL    HW224600   0.778   3.874   0.706
 7901SOL     OW24601   6.028   1.396   6.105
 7901SOL    HW124602   6.124   1.407   6.131
 7901SOL    HW224603   6.018   1.316   6.046
 7902SOL     OW24604   0.519   6.578   3.080
 7902SOL    HW124605   0.447   6.518   3.044
 7902SOL    HW224606   0.516   6.576   3.180
 7903SOL     OW24607   2.434   2.212   5.175
 7903SOL    HW124608   2.521   2.258   5.160
 7903SOL    HW224609   2.449   2.113   5.174
 7904SOL     OW24610   5.308   0.667   1.756
 7904SOL    HW124611   5.356   0.752   1.777
 7904SOL    HW224612   5.337   0.596   1.821
 7905SOL     OW24613   5.404   0.548   0.528
 7905SOL    HW124614   5.360   0.575   0.443
 7905SOL    HW224615   5.459   0.466   0.513
 7906SOL     OW24616   1.911   5.444   0.968
 7906SOL    HW124617   1.944   5.350   0.958
 7906SOL    HW224618   1.851   5.449   1.048
 7907SOL     OW24619   6.297   0.427   3.215
 7907SOL    HW124620   6.222   0.374   3.176
 7907SOL    HW224621   6.359   0.456   3.142
 7908SOL     OW24622   6.824   0.612   7.012
 7908SOL    HW124623   6.886   0.679   0.028
 7908SOL    HW224624   6.730   0.632   0.018
 7909SOL     OW24625   5.589   4.008   2.219
 7909SOL    HW124626   5.509   4.067   2.226
 7909SOL    HW224627   5.671   4.059   2.244
 7910SOL     OW24628   2.012   3.820   0.770
 7910SOL    HW124629   1.950   3.852   0.699
 7910SOL    HW224630   2.094   3.780   0.728
 7911SOL     OW24631   0.939   4.060   1.011
 7911SOL    HW124632   0.870   4.131   1.026
 7911SOL    HW224633   0.967   4.021   1.099
 7912SOL     OW24634   5.807   5.599   0.419
 7912SOL    HW124635   5.847   5.515   0.381
 7912SOL    HW224636   5.843   5.614   0.511
 7913SOL     OW24637   0.718   3.712   1.051
 7913SOL    HW124638   0.685   3.805   1.030
 7913SOL    HW224639   0.640   3.652   1.068
 7914SOL     OW24640   6.177   5.356   4.908
 7914SOL    HW124641   6.247   5.288   4.885
 7914SOL    HW224642   6.096   5.341   4.851
 7915SOL     OW24643   3.723   6.789   3.038
 7915SOL    HW124644   3.649   6.767   3.101
 7915SOL    HW224645   3.800   6.726   3.053
 7916SOL     OW24646   1.728   0.668   4.377
 7916SOL    HW124647   1.738   0.589   4.317
 7916SOL    HW224648   1.817   0.692   4.417
 7917SOL     OW24649   4.001   3.347   0.756
 7917SOL    HW124650   3.923   3.307   0.709
 7917SOL    HW224651   3.972   3.430   0.804
 7918SOL     OW24652   2.611   1.164   4.895
 7918SOL    HW124653   2.532   1.109   4.922
 7918SOL    HW224654   2.637   1.225   4.970
 7919SOL     OW24655   1.520   5.931   2.819
 7919SOL    HW124656   1.485   5.866   2.887
 7919SOL    HW224657   1.444   5.982   2.779
 7920SOL     OW24658   5.054   6.880   0.826
 7920SOL    HW124659   5.145   6.864   0.789
 7920SOL    HW224660   5.015   6.794   0.858
 7921SOL     OW24661   4.820   1.379   1.957
 7921SOL    HW124662   4.819   1.302   1.893
 7921SOL    HW224663   4.726   1.401   1.984
 7922SOL     OW24664   0.406   5.491   1.221
 7922SOL    HW124665   0.380   5.570   1.277
 7922SOL    HW224666   0.450   5.523   1.137
 7923SOL     OW24667   3.904   1.509   0.192
 7923SOL    HW124668   3.935   1.581   0.131
 7923SOL    HW224669   3.958   1.426   0.178
 7924SOL     OW24670   6.157   0.037   0.455
 7924SOL    HW124671   6.119   0.036   0.362
 7924SOL    HW224672   6.097   7.010   0.516
 7925SOL     OW24673   1.940   6.409   0.662
 7925SOL    HW124674   1.941   6.314   0.632
 7925SOL    HW224675   1.877   6.461   0.605
 7926SOL     OW24676   4.057   5.757   6.437
 7926SOL    HW124677   3.961   5.778   6.458
 7926SOL    HW224678   4.062   5.672   6.385
 7927SOL     OW24679   4.524   6.697   1.668
 7927SOL    HW124680   4.455   6.738   1.608
 7927SOL    HW224681   4.486   6.685   1.759
 7928SOL     OW24682   6.616   1.411   3.077
 7928SOL    HW124683   6.574   1.386   3.165
 7928SOL    HW224684   6.693   1.473   3.094
 7929SOL     OW24685   3.766   4.461   5.654
 7929SOL    HW124686   3.702   4.388   5.630
 7929SOL    HW224687   3.745   4.543   5.601
 7930SOL     OW24688   4.287   5.930   5.344
 7930SOL    HW124689   4.250   6.015   5.380
 7930SOL    HW224690   4.227   5.896   5.271
 7931SOL     OW24691   3.157   2.268   0.558
 7931SOL    HW124692   3.130   2.183   0.511
 7931SOL    HW224693   3.098   2.343   0.527
 7932SOL     OW24694   0.756   5.424   2.060
 7932SOL    HW124695   0.797   5.357   2.122
 7932SOL    HW224696   0.687   5.476   2.110
 7933SOL     OW24697   0.473   0.841   6.116
 7933SOL    HW124698   0.446   0.923   6.166
 7933SOL    HW224699   0.403   0.770   6.128
 7934SOL     OW24700   0.935   4.665   1.004
 7934SOL    HW124701   0.897   4.720   0.930
 7934SOL    HW224702   0.872   4.665   1.082
 7935SOL     OW24703   5.588   2.932   2.516
 7935SOL    HW124704   5.516   2.875   2.555
 7935SOL    HW224705   5.584   2.927   2.416
 7936SOL     OW24706   3.222   5.866   4.207
 7936SOL    HW124707   3.174   5.778   4.194
 7936SOL    HW224708   3.208   5.923   4.126
 7937SOL     OW24709   3.019   6.765   6.815
 7937SOL    HW124710   3.115   6.768   6.842
 7937SOL    HW224711   2.995   6.671   6.788
 7938SOL     OW24712   3.492   6.500   4.540
 7938SOL    HW124713   3.525   6.590   4.569
 7938SOL    HW224714   3.537   6.474   4.454
 7939SOL     OW24715   0.632   1.654   4.556
 7939SOL    HW124716   0.645   1.745   4.514
 7939SOL    HW224717   0.562   1.604   4.504
 7940SOL     OW24718   4.782   0.780   3.403
 7940SOL    HW124719   4.767   0.701   3.343
 7940SOL    HW224720   4.880   0.794   3.415
 7941SOL     OW24721   3.861   6.644   1.614
 7941SOL    HW124722   3.771   6.623   1.654
 7941SOL    HW224723   3.898   6.727   1.656
 7942SOL     OW24724   1.620   4.439   1.469
 7942SOL    HW124725   1.706   4.469   1.428
 7942SOL    HW224726   1.555   4.417   1.397
 7943SOL     OW24727   1.423   6.013   6.260
 7943SOL    HW124728   1.429   6.104   6.219
 7943SOL    HW224729   1.505   5.961   6.238
 7944SOL     OW24730   1.910   2.838   0.823
 7944SOL    HW124731   1.888   2.837   0.921
 7944SOL    HW224732   1.887   2.750   0.783
 7945SOL     OW24733   5.641   4.712   2.856
 7945SOL    HW124734   5.673   4.665   2.938
 7945SOL    HW224735   5.593   4.647   2.797
 7946SOL     OW24736   3.773   1.314   5.403
 7946SOL    HW124737   3.699   1.372   5.434
 7946SOL    HW224738   3.771   1.306   5.304
 7947SOL     OW24739   1.439   3.287   5.410
 7947SOL    HW124740   1.531   3.277   5.447
 7947SOL    HW224741   1.442   3.275   5.311
 7948SOL     OW24742   1.132   4.626   2.280
 7948SOL    HW124743   1.188   4.570   2.342
 7948SOL    HW224744   1.191   4.674   2.216
 7949SOL     OW24745   3.378   5.123   6.649
 7949SOL    HW124746   3.400   5.149   6.744
 7949SOL    HW224747   3.346   5.028   6.648
 7950SOL     OW24748   5.955   5.179   5.392
 7950SOL    HW124749   6.043   5.170   5.438
 7950SOL    HW224750   5.964   5.244   5.316
 7951SOL     OW24751   2.965   5.557   3.085
 7951SOL    HW124752   2.877   5.512   3.072
 7951SOL    HW224753   2.972   5.591   3.179
 7952SOL     OW24754   4.653   3.279   6.917
 7952SOL    HW124755   4.603   3.356   6.957
 7952SOL    HW224756   4.596   3.234   6.849
 7953SOL     OW24757   2.621   1.039   1.098
 7953SOL    HW124758   2.583   0.977   1.029
 7953SOL    HW224759   2.546   1.084   1.147
 7954SOL     OW24760   3.584   3.332   0.071
 7954SOL    HW124761   3.591   3.341   0.171
 7954SOL    HW224762   3.519   3.399   0.036
 7955SOL     OW24763   1.572   0.697   6.675
 7955SOL    HW124764   1.588   0.613   6.727
 7955SOL    HW224765   1.502   0.679   6.605
 7956SOL     OW24766   6.496   6.332   0.891
 7956SOL    HW124767   6.581   6.282   0.909
 7956SOL    HW224768   6.419   6.272   0.911
 7957SOL     OW24769   4.578   0.709   5.440
 7957SOL    HW124770   4.594   0.759   5.355
 7957SOL    HW224771   4.480   0.706   5.459
 7958SOL     OW24772   5.639   2.447   6.990
 7958SOL    HW124773   5.722   2.400   6.960
 7958SOL    HW224774   5.592   2.391   0.034
 7959SOL     OW24775   5.175   1.262   6.001
 7959SOL    HW124776   5.200   1.224   5.912
 7959SOL    HW224777   5.213   1.206   6.074
 7960SOL     OW24778   0.418   0.653   5.445
 7960SOL    HW124779   0.370   0.574   5.408
 7960SOL    HW224780   0.359   0.700   5.511
 7961SOL     OW24781   6.886   0.404   0.292
 7961SOL    HW124782   6.964   0.440   0.240
 7961SOL    HW224783   6.916   0.326   0.346
 7962SOL     OW24784   6.228   6.959   5.380
 7962SOL    HW124785   6.241   6.922   5.473
 7962SOL    HW224786   6.147   6.918   5.339
 7963SOL     OW24787   0.235   5.048   5.168
 7963SOL    HW124788   0.314   5.080   5.116
 7963SOL    HW224789   0.265   5.007   5.254
 7964SOL     OW24790   6.235   3.662   2.515
 7964SOL    HW124791   6.195   3.684   2.604
 7964SOL    HW224792   6.325   3.706   2.507
 7965SOL     OW24793   3.918   1.698   6.514
 7965SOL    HW124794   3.844   1.670   6.453
 7965SOL    HW224795   3.883   1.762   6.583
 7966SOL     OW24796   4.854   3.884   5.127
 7966SOL    HW124797   4.774   3.931   5.164
 7966SOL    HW224798   4.835   3.786   5.120
 7967SOL     OW24799   1.309   4.899   2.639
 7967SOL    HW124800   1.313   4.802   2.664
 7967SOL    HW224801   1.233   4.913   2.575
 7968SOL     OW24802   6.363   2.085   4.086
 7968SOL    HW124803   6.425   2.008   4.070
 7968SOL    HW224804   6.391   2.132   4.170
 7969SOL     OW24805   4.675   5.493   6.812
 7969SOL    HW124806   4.666   5.472   6.715
 7969SOL    HW224807   4.722   5.417   6.858
 7970SOL     OW24808   6.078   2.570   2.498
 7970SOL    HW124809   5.983   2.540   2.490
 7970SOL    HW224810   6.085   2.665   2.469
 7971SOL     OW24811   3.119   1.097   0.548
 7971SOL    HW124812   3.125   1.047   0.634
 7971SOL    HW224813   3.208   1.136   0.526
 7972SOL     OW24814   3.994   3.513   3.027
 7972SOL    HW124815   4.023   3.598   3.072
 7972SOL    HW224816   4.069   3.478   2.971
 7973SOL     OW24817   6.786   3.732   2.915
 7973SOL    HW124818   6.740   3.808   2.960
 7973SOL    HW224819   6.881   3.726   2.946
 7974SOL     OW24820   6.383   2.039   5.220
 7974SOL    HW124821   6.380   1.942   5.246
 7974SOL    HW224822   6.478   2.069   5.214
 7975SOL     OW24823   5.232   0.590   0.999
 7975SOL    HW124824   5.290   0.639   0.935
 7975SOL    HW224825   5.154   0.551   0.950
 7976SOL     OW24826   0.675   0.193   6.511
 7976SOL    HW124827   0.737   0.144   6.450
 7976SOL    HW224828   0.687   0.159   6.605
 7977SOL     OW24829   5.439   6.089   2.691
 7977SOL    HW124830   5.504   6.165   2.685
 7977SOL    HW224831   5.482   6.013   2.739
 7978SOL     OW24832   0.322   4.941   0.867
 7978SOL    HW124833   0.290   4.919   0.959
 7978SOL    HW224834   0.299   4.866   0.805
 7979SOL     OW24835   1.283   3.247   4.709
 7979SOL    HW124836   1.249   3.241   4.803
 7979SOL    HW224837   1.381   3.263   4.709
 7980SOL     OW24838   4.199   4.903   6.675
 7980SOL    HW124839   4.115   4.887   6.726
 7980SOL    HW224840   4.179   4.962   6.597
 7981SOL     OW24841   1.557   4.577   3.460
 7981SOL    HW124842   1.531   4.501   3.519
 7981SOL    HW224843   1.629   4.631   3.504
 7982SOL     OW24844   0.969   1.707   6.019
 7982SOL    HW124845   1.051   1.762   6.034
 7982SOL    HW224846   0.939   1.717   5.924
 7983SOL     OW24847   4.851   0.857   1.525
 7983SOL    HW124848   4.798   0.844   1.609
 7983SOL    HW224849   4.790   0.847   1.446
 7984SOL     OW24850   1.364   1.957   2.036
 7984SOL    HW124851   1.346   2.037   1.980
 7984SOL    HW224852   1.428   1.981   2.109
 7985SOL     OW24853   2.043   2.028   5.400
 7985SOL    HW124854   1.950   2.008   5.430
 7985SOL    HW224855   2.108   1.979   5.458
 7986SOL     OW24856   2.523   1.283   3.590
 7986SOL    HW124857   2.537   1.276   3.491
 7986SOL    HW224858   2.532   1.378   3.619
 7987SOL     OW24859   1.589   3.455   1.008
 7987SOL    HW124860   1.639   3.473   0.923
 7987SOL    HW224861   1.491   3.455   0.989
 7988SOL     OW24862   0.560   1.835   0.739
 7988SOL    HW124863   0.486   1.768   0.743
 7988SOL    HW224864   0.524   1.927   0.754
 7989SOL     OW24865   1.137   4.772   0.446
 7989SOL    HW124866   1.066   4.841   0.461
 7989SOL    HW224867   1.136   4.706   0.521
 7990SOL     OW24868   3.013   5.225   5.475
 7990SOL    HW124869   2.951   5.201   5.400
 7990SOL    HW224870   3.019   5.149   5.540
 7991SOL     OW24871   5.381   1.621   4.724
 7991SOL    HW124872   5.308   1.621   4.793
 7991SOL    HW224873   5.469   1.636   4.769
 7992SOL     OW24874   2.703   0.640   0.630
 7992SOL    HW124875   2.669   0.685   0.548
 7992SOL    HW224876   2.772   0.697   0.674
 7993SOL     OW24877   6.631   5.851   1.359
 7993SOL    HW124878   6.698   5.915   1.321
 7993SOL    HW224879   6.643   5.846   1.458
 7994SOL     OW24880   5.194   0.638   3.143
 7994SOL    HW124881   5.285   0.639   3.102
 7994SOL    HW224882   5.200   0.611   3.239
 7995SOL     OW24883   0.151   4.678   1.513
 7995SOL    HW124884   0.074   4.688   1.449
 7995SOL    HW224885   0.184   4.768   1.541
 7996SOL     OW24886   3.703   0.596   2.729
 7996SOL    HW124887   3.760   0.545   2.664
 7996SOL    HW224888   3.697   0.545   2.815
 7997SOL     OW24889   0.825   2.151   0.142
 7997SOL    HW124890   0.792   2.245   0.150
 7997SOL    HW224891   0.837   2.112   0.233
 7998SOL     OW24892   2.759   0.997   0.284
 7998SOL    HW124893   2.763   1.024   0.380
 7998SOL    HW224894   2.839   1.035   0.236
 7999SOL     OW24895   1.227   1.107   5.395
 7999SOL    HW124896   1.219   1.166   5.315
 7999SOL    HW224897   1.182   1.151   5.473
 8000SOL     OW24898   5.635   5.593   6.913
 8000SOL    HW124899   5.567   5.588   6.985
 8000SOL    HW224900   5.676   5.503   6.899
 8001SOL     OW24901   4.890   0.291   1.296
 8001SOL    HW124902   4.843   0.230   1.233
 8001SOL    HW224903   4.853   0.384   1.287
 8002SOL     OW24904   0.854   6.833   5.486
 8002SOL    HW124905   0.778   6.874   5.537
 8002SOL    HW224906   0.859   6.875   5.395
 8003SOL     OW24907   2.434   6.596   3.258
 8003SOL    HW124908   2.450   6.504   3.293
 8003SOL    HW224909   2.363   6.593   3.188
 8004SOL     OW24910   0.935   3.253   3.971
 8004SOL    HW124911   1.029   3.220   3.984
 8004SOL    HW224912   0.937   3.342   3.925
 8005SOL     OW24913   2.483   0.398   3.602
 8005SOL    HW124914   2.418   0.397   3.526
 8005SOL    HW224915   2.526   0.308   3.610
 8006SOL     OW24916   3.464   4.528   5.365
 8006SOL    HW124917   3.433   4.622   5.372
 8006SOL    HW224918   3.561   4.526   5.343
 8007SOL     OW24919   5.972   1.060   7.001
 8007SOL    HW124920   5.962   1.119   6.921
 8007SOL    HW224921   5.988   1.116   0.057
 8008SOL     OW24922   4.983   6.597   6.272
 8008SOL    HW124923   4.940   6.564   6.188
 8008SOL    HW224924   4.914   6.609   6.343
 8009SOL     OW24925   5.222   1.320   6.860
 8009SOL    HW124926   5.183   1.251   6.921
 8009SOL    HW224927   5.293   1.371   6.909
 8010SOL     OW24928   2.450   2.777   5.334
 8010SOL    HW124929   2.464   2.851   5.267
 8010SOL    HW224930   2.378   2.803   5.398
 8011SOL     OW24931   4.025   1.879   2.043
 8011SOL    HW124932   4.107   1.845   2.089
 8011SOL    HW224933   4.020   1.979   2.052
 8012SOL     OW24934   0.931   2.914   5.455
 8012SOL    HW124935   1.027   2.888   5.454
 8012SOL    HW224936   0.910   2.969   5.373
 8013SOL     OW24937   2.043   2.658   3.207
 8013SOL    HW124938   2.123   2.645   3.148
 8013SOL    HW224939   2.073   2.698   3.294
 8014SOL     OW24940   1.802   1.082   2.689
 8014SOL    HW124941   1.771   0.992   2.718
 8014SOL    HW224942   1.802   1.144   2.768
 8015SOL     OW24943   1.936   0.106   5.382
 8015SOL    HW124944   1.957   0.031   5.320
 8015SOL    HW224945   1.838   0.111   5.398
 8016SOL     OW24946   4.605   1.464   5.300
 8016SOL    HW124947   4.570   1.406   5.227
 8016SOL    HW224948   4.655   1.408   5.367
 8017SOL     OW24949   6.559   6.847   0.579
 8017SOL    HW124950   6.484   6.868   0.642
 8017SOL    HW224951   6.570   6.748   0.572
 8018SOL     OW24952   4.395   1.775   6.911
 8018SOL    HW124953   4.305   1.801   6.876
 8018SOL    HW224954   4.433   1.702   6.854
 8019SOL     OW24955   3.175   2.979   0.983
 8019SOL    HW124956   3.243   2.975   0.909
 8019SOL    HW224957   3.104   2.912   0.966
 8020SOL     OW24958   0.231   0.396   5.067
 8020SOL    HW124959   0.196   0.446   4.988
 8020SOL    HW224960   0.325   0.367   5.049
 8021SOL     OW24961   1.629   2.257   2.449
 8021SOL    HW124962   1.609   2.218   2.538
 8021SOL    HW224963   1.727   2.256   2.433
 8022SOL     OW24964   4.568   1.433   2.000
 8022SOL    HW124965   4.518   1.446   2.086
 8022SOL    HW224966   4.536   1.498   1.932
 8023SOL     OW24967   4.567   5.949   3.466
 8023SOL    HW124968   4.520   6.028   3.427
 8023SOL    HW224969   4.519   5.865   3.437
 8024SOL     OW24970   2.174   6.584   6.413
 8024SOL    HW124971   2.258   6.610   6.459
 8024SOL    HW224972   2.124   6.517   6.468
 8025SOL     OW24973   1.912   5.036   1.364
 8025SOL    HW124974   1.966   5.035   1.448
 8025SOL    HW224975   1.839   4.968   1.370
 8026SOL     OW24976   0.888   6.003   6.901
 8026SOL    HW124977   0.817   5.933   6.912
 8026SOL    HW224978   0.872   6.052   6.816
 8027SOL     OW24979   3.528   6.705   6.726
 8027SOL    HW124980   3.509   6.651   6.808
 8027SOL    HW224981   3.610   6.760   6.740
 8028SOL     OW24982   3.009   5.797   4.975
 8028SOL    HW124983   2.979   5.719   5.029
 8028SOL    HW224984   3.107   5.813   4.991
 8029SOL     OW24985   6.373   0.537   0.807
 8029SOL    HW124986   6.443   0.541   0.879
 8029SOL    HW224987   6.334   0.445   0.804
 8030SOL     OW24988   0.109   4.389   0.620
 8030SOL    HW124989   0.116   4.457   0.547
 8030SOL    HW224990   0.196   4.382   0.668
 8031SOL     OW24991   6.976   0.890   2.439
 8031SOL    HW124992   0.037   0.850   2.471
 8031SOL    HW224993   6.981   0.905   2.341
 8032SOL     OW24994   5.565   2.692   1.468
 8032SOL    HW124995   5.593   2.597   1.481
 8032SOL    HW224996   5.629   2.752   1.516
 8033SOL     OW24997   4.261   3.855   1.038
 8033SOL    HW124998   4.212   3.941   1.049
 8033SOL    HW224999   4.359   3.874   1.032
 8034SOL     OW25000   5.877   0.397   5.383
 8034SOL    HW125001   5.907   0.354   5.298
 8034SOL    HW225002   5.834   0.328   5.442
 8035SOL     OW25003   5.393   1.611   2.989
 8035SOL    HW125004   5.446   1.594   3.072
 8035SOL    HW225005   5.320   1.543   2.980
 8036SOL     OW25006   6.435   3.152   3.471
 8036SOL    HW125007   6.433   3.090   3.550
 8036SOL    HW225008   6.515   3.212   3.478
 8037SOL     OW25009   0.542   2.543   6.062
 8037SOL    HW125010   0.598   2.534   5.980
 8037SOL    HW225011   0.457   2.492   6.050
 8038SOL     OW25012   6.679   5.837   2.566
 8038SOL    HW125013   6.582   5.830   2.542
 8038SOL    HW225014   6.687   5.871   2.660
 8039SOL     OW25015   1.362   1.962   5.182
 8039SOL    HW125016   1.303   1.991   5.107
 8039SOL    HW225017   1.424   1.890   5.151
 8040SOL     OW25018   1.880   5.193   6.316
 8040SOL    HW125019   1.830   5.175   6.401
 8040SOL    HW225020   1.948   5.265   6.332
 8041SOL     OW25021   3.545   1.799   3.163
 8041SOL    HW125022   3.621   1.775   3.103
 8041SOL    HW225023   3.557   1.893   3.195
 8042SOL     OW25024   3.941   4.288   5.470
 8042SOL    HW125025   3.887   4.358   5.518
 8042SOL    HW225026   3.918   4.198   5.506
 8043SOL     OW25027   5.353   4.704   0.522
 8043SOL    HW125028   5.349   4.692   0.423
 8043SOL    HW225029   5.370   4.615   0.565
 8044SOL     OW25030   3.108   3.508   1.214
 8044SOL    HW125031   3.067   3.418   1.199
 8044SOL    HW225032   3.036   3.572   1.243
 8045SOL     OW25033   0.664   1.626   2.868
 8045SOL    HW125034   0.586   1.568   2.847
 8045SOL    HW225035   0.698   1.669   2.784
 8046SOL     OW25036   0.189   5.346   2.174
 8046SOL    HW125037   0.288   5.331   2.172
 8046SOL    HW225038   0.152   5.310   2.260
 8047SOL     OW25039   4.203   6.546   5.664
 8047SOL    HW125040   4.292   6.558   5.620
 8047SOL    HW225041   4.153   6.632   5.661
 8048SOL     OW25042   3.666   3.570   0.240
 8048SOL    HW125043   3.627   3.589   0.330
 8048SOL    HW225044   3.729   3.493   0.246
 8049SOL     OW25045   1.914   0.203   0.813
 8049SOL    HW125046   1.989   0.173   0.871
 8049SOL    HW225047   1.942   0.286   0.764
 8050SOL     OW25048   1.562   4.397   4.900
 8050SOL    HW125049   1.583   4.311   4.946
 8050SOL    HW225050   1.575   4.473   4.964
 8051SOL     OW25051   3.733   5.815   4.358
 8051SOL    HW125052   3.711   5.903   4.400
 8051SOL    HW225053   3.670   5.797   4.283
 8052SOL     OW25054   2.380   2.756   2.317
 8052SOL    HW125055   2.446   2.690   2.281
 8052SOL    HW225056   2.373   2.745   2.416
 8053SOL     OW25057   2.587   2.947   6.199
 8053SOL    HW125058   2.524   3.024   6.190
 8053SOL    HW225059   2.537   2.861   6.186
 8054SOL     OW25060   5.486   4.064   4.982
 8054SOL    HW125061   5.461   4.127   5.055
 8054SOL    HW225062   5.483   4.112   4.894
 8055SOL     OW25063   6.953   0.689   4.903
 8055SOL    HW125064   6.863   0.690   4.945
 8055SOL    HW225065   6.956   0.753   4.826
 8056SOL     OW25066   2.950   0.919   4.582
 8056SOL    HW125067   3.012   0.981   4.534
 8056SOL    HW225068   2.860   0.963   4.590
 8057SOL     OW25069   2.584   2.434   2.203
 8057SOL    HW125070   2.675   2.419   2.164
 8057SOL    HW225071   2.585   2.407   2.300
 8058SOL     OW25072   3.199   6.697   3.486
 8058SOL    HW125073   3.219   6.694   3.388
 8058SOL    HW225074   3.215   6.789   3.521
 8059SOL     OW25075   2.658   3.363   6.335
 8059SOL    HW125076   2.649   3.274   6.378
 8059SOL    HW225077   2.594   3.427   6.377
 8060SOL     OW25078   6.384   0.373   5.355
 8060SOL    HW125079   6.426   0.319   5.282
 8060SOL    HW225080   6.292   0.337   5.373
 8061SOL     OW25081   0.374   1.289   2.204
 8061SOL    HW125082   0.276   1.275   2.218
 8061SOL    HW225083   0.419   1.200   2.192
 8062SOL     OW25084   4.658   5.963   4.991
 8062SOL    HW125085   4.602   5.973   5.073
 8062SOL    HW225086   4.689   6.053   4.960
 8063SOL     OW25087   3.520   6.721   3.217
 8063SOL    HW125088   3.566   6.648   3.268
 8063SOL    HW225089   3.426   6.695   3.198
 8064SOL     OW25090   6.101   2.388   7.006
 8064SOL    HW125091   6.005   2.376   6.980
 8064SOL    HW225092   6.111   2.474   0.032
 8065SOL     OW25093   3.362   6.555   5.058
 8065SOL    HW125094   3.375   6.654   5.053
 8065SOL    HW225095   3.395   6.512   4.974
 8066SOL     OW25096   0.070   0.476   4.340
 8066SOL    HW125097   0.105   0.485   4.247
 8066SOL    HW225098   0.009   0.396   4.345
 8067SOL     OW25099   4.932   3.141   3.660
 8067SOL    HW125100   5.013   3.084   3.676
 8067SOL    HW225101   4.898   3.175   3.747
 8068SOL     OW25102   6.495   4.443   1.206
 8068SOL    HW125103   6.441   4.387   1.268
 8068SOL    HW225104   6.437   4.513   1.164
 8069SOL     OW25105   2.531   4.592   2.305
 8069SOL    HW125106   2.625   4.585   2.270
 8069SOL    HW225107   2.518   4.681   2.348
 8070SOL     OW25108   5.459   4.657   0.116
 8070SOL    HW125109   5.503   4.568   0.117
 8070SOL    HW225110   5.379   4.656   0.176
 8071SOL     OW25111   3.638   6.732   6.068
 8071SOL    HW125112   3.701   6.703   5.995
 8071SOL    HW225113   3.554   6.678   6.062
 8072SOL     OW25114   1.893   2.792   6.592
 8072SOL    HW125115   1.907   2.878   6.543
 8072SOL    HW225116   1.805   2.795   6.640
 8073SOL     OW25117   3.721   0.249   6.125
 8073SOL    HW125118   3.659   0.323   6.099
 8073SOL    HW225119   3.688   0.205   6.209
 8074SOL     OW25120   1.447   1.472   0.173
 8074SOL    HW125121   1.512   1.531   0.126
 8074SOL    HW225122   1.358   1.517   0.179
 8075SOL     OW25123   0.334   6.446   6.937
 8075SOL    HW125124   0.364   6.483   6.849
 8075SOL    HW225125   0.413   6.416   6.990
 8076SOL     OW25126   6.846   6.800   0.179
 8076SOL    HW125127   6.852   6.727   0.247
 8076SOL    HW225128   6.750   6.815   0.154
 8077SOL     OW25129   3.975   5.367   0.822
 8077SOL    HW125130   4.075   5.375   0.819
 8077SOL    HW225131   3.945   5.359   0.917
 8078SOL     OW25132   0.395   0.767   1.300
 8078SOL    HW125133   0.475   0.800   1.350
 8078SOL    HW225134   0.381   0.670   1.320
 8079SOL     OW25135   1.637   1.728   4.821
 8079SOL    HW125136   1.598   1.698   4.734
 8079SOL    HW225137   1.737   1.724   4.815
 8080SOL     OW25138   1.177   3.357   2.636
 8080SOL    HW125139   1.262   3.408   2.622
 8080SOL    HW225140   1.127   3.351   2.549
 8081SOL     OW25141   5.960   5.270   4.749
 8081SOL    HW125142   5.936   5.279   4.653
 8081SOL    HW225143   5.960   5.174   4.775
 8082SOL     OW25144   3.165   2.100   2.432
 8082SOL    HW125145   3.217   2.032   2.484
 8082SOL    HW225146   3.209   2.115   2.344
 8083SOL     OW25147   5.714   1.912   5.019
 8083SOL    HW125148   5.800   1.947   5.056
 8083SOL    HW225149   5.642   1.981   5.030
 8084SOL     OW25150   2.500   0.152   6.504
 8084SOL    HW125151   2.575   0.179   6.564
 8084SOL    HW225152   2.496   0.214   6.426
 8085SOL     OW25153   0.108   5.819   4.541
 8085SOL    HW125154   0.062   5.905   4.520
 8085SOL    HW225155   0.157   5.827   4.628
 8086SOL     OW25156   0.502   1.521   2.175
 8086SOL    HW125157   0.446   1.440   2.192
 8086SOL    HW225158   0.574   1.499   2.109
 8087SOL     OW25159   1.193   0.726   0.050
 8087SOL    HW125160   1.264   0.739   7.006
 8087SOL    HW225161   1.118   0.790   0.033
 8088SOL     OW25162   5.175   6.876   5.637
 8088SOL    HW125163   5.207   6.943   5.704
 8088SOL    HW225164   5.105   6.917   5.580
 8089SOL     OW25165   5.878   2.534   6.093
 8089SOL    HW125166   5.792   2.561   6.052
 8089SOL    HW225167   5.861   2.471   6.169
 8090SOL     OW25168   4.172   1.858   6.754
 8090SOL    HW125169   4.217   1.945   6.731
 8090SOL    HW225170   4.086   1.877   6.801
 8091SOL     OW25171   1.194   4.424   4.804
 8091SOL    HW125172   1.201   4.517   4.841
 8091SOL    HW225173   1.222   4.424   4.708
 8092SOL     OW25174   5.182   2.228   5.561
 8092SOL    HW125175   5.193   2.137   5.601
 8092SOL    HW225176   5.229   2.296   5.618
 8093SOL     OW25177   3.335   6.562   2.460
 8093SOL    HW125178   3.386   6.513   2.390
 8093SOL    HW225179   3.331   6.659   2.437
 8094SOL     OW25180   1.419   4.164   4.259
 8094SOL    HW125181   1.436   4.232   4.187
 8094SOL    HW225182   1.331   4.184   4.302
 8095SOL     OW25183   1.432   4.531   5.560
 8095SOL    HW125184   1.443   4.494   5.468
 8095SOL    HW225185   1.344   4.579   5.567
 8096SOL     OW25186   0.760   6.726   2.336
 8096SOL    HW125187   0.681   6.786   2.326
 8096SOL    HW225188   0.736   6.634   2.306
 8097SOL     OW25189   2.971   6.047   5.265
 8097SOL    HW125190   2.920   6.019   5.184
 8097SOL    HW225191   2.992   5.966   5.321
 8098SOL     OW25192   0.951   5.339   4.176
 8098SOL    HW125193   1.001   5.266   4.129
 8098SOL    HW225194   1.011   5.383   4.243
 8099SOL     OW25195   2.897   5.845   4.732
 8099SOL    HW125196   2.947   5.820   4.814
 8099SOL    HW225197   2.805   5.807   4.736
 8100SOL     OW25198   6.823   0.810   6.416
 8100SOL    HW125199   6.746   0.799   6.478
 8100SOL    HW225200   6.898   0.750   6.445
 8101SOL     OW25201   1.987   6.278   1.418
 8101SOL    HW125202   2.075   6.242   1.387
 8101SOL    HW225203   1.993   6.301   1.515
 8102SOL     OW25204   0.712   2.878   4.404
 8102SOL    HW125205   0.692   2.975   4.401
 8102SOL    HW225206   0.720   2.843   4.310
 8103SOL     OW25207   3.546   1.519   2.225
 8103SOL    HW125208   3.551   1.510   2.324
 8103SOL    HW225209   3.500   1.438   2.186
 8104SOL     OW25210   2.356   6.547   6.648
 8104SOL    HW125211   2.282   6.480   6.644
 8104SOL    HW225212   2.434   6.508   6.697
 8105SOL     OW25213   6.839   1.691   2.371
 8105SOL    HW125214   6.813   1.622   2.437
 8105SOL    HW225215   6.883   1.768   2.418
 8106SOL     OW25216   1.915   5.858   4.854
 8106SOL    HW125217   1.829   5.896   4.889
 8106SOL    HW225218   1.916   5.759   4.867
 8107SOL     OW25219   1.558   5.215   5.219
 8107SOL    HW125220   1.609   5.182   5.299
 8107SOL    HW225221   1.604   5.295   5.181
 8108SOL     OW25222   0.176   0.832   6.706
 8108SOL    HW125223   0.132   0.921   6.698
 8108SOL    HW225224   0.166   0.798   6.799
 8109SOL     OW25225   6.547   3.437   6.511
 8109SOL    HW125226   6.629   3.470   6.558
 8109SOL    HW225227   6.572   3.366   6.445
 8110SOL     OW25228   4.609   5.065   0.696
 8110SOL    HW125229   4.657   5.058   0.783
 8110SOL    HW225230   4.655   5.008   0.628
 8111SOL     OW25231   5.822   0.974   2.936
 8111SOL    HW125232   5.881   1.032   2.991
 8111SOL    HW225233   5.858   0.881   2.935
 8112SOL     OW25234   0.722   2.202   5.352
 8112SOL    HW125235   0.677   2.288   5.375
 8112SOL    HW225236   0.811   2.221   5.310
 8113SOL     OW25237   6.128   2.380   0.882
 8113SOL    HW125238   6.054   2.436   0.845
 8113SOL    HW225239   6.103   2.349   0.974
 8114SOL     OW25240   1.521   4.417   1.725
 8114SOL    HW125241   1.423   4.439   1.721
 8114SOL    HW225242   1.559   4.422   1.633
 8115SOL     OW25243   2.826   6.836   6.988
 8115SOL    HW125244   2.852   6.832   0.060
 8115SOL    HW225245   2.903   6.806   6.932
 8116SOL     OW25246   3.435   5.076   1.054
 8116SOL    HW125247   3.400   5.155   1.003
 8116SOL    HW225248   3.390   4.993   1.023
 8117SOL     OW25249   2.483   0.138   2.942
 8117SOL    HW125250   2.497   0.150   3.040
 8117SOL    HW225251   2.467   0.228   2.900
 8118SOL     OW25252   6.560   3.221   6.916
 8118SOL    HW125253   6.461   3.225   6.931
 8118SOL    HW225254   6.606   3.263   6.994
 8119SOL     OW25255   6.001   5.700   6.244
 8119SOL    HW125256   6.053   5.733   6.164
 8119SOL    HW225257   6.040   5.614   6.275
 8120SOL     OW25258   1.784   5.836   0.593
 8120SOL    HW125259   1.848   5.782   0.646
 8120SOL    HW225260   1.691   5.803   0.609
 8121SOL     OW25261   1.317   3.760   2.892
 8121SOL    HW125262   1.248   3.694   2.864
 8121SOL    HW225263   1.311   3.842   2.835
 8122SOL     OW25264   1.057   4.293   2.502
 8122SOL    HW125265   1.053   4.336   2.411
 8122SOL    HW225266   1.040   4.362   2.572
 8123SOL     OW25267   0.092   1.963   6.174
 8123SOL    HW125268   0.103   2.031   6.101
 8123SOL    HW225269   0.169   1.900   6.173
 8124SOL     OW25270   5.290   5.339   3.589
 8124SOL    HW125271   5.373   5.376   3.548
 8124SOL    HW225272   5.309   5.313   3.684
 8125SOL     OW25273   0.835   0.441   3.182
 8125SOL    HW125274   0.746   0.417   3.222
 8125SOL    HW225275   0.873   0.520   3.229
 8126SOL     OW25276   3.749   5.414   4.015
 8126SOL    HW125277   3.731   5.430   4.112
 8126SOL    HW225278   3.677   5.354   3.978
 8127SOL     OW25279   2.934   2.739   0.381
 8127SOL    HW125280   2.978   2.825   0.407
 8127SOL    HW225281   2.842   2.736   0.420
 8128SOL     OW25282   3.053   3.227   2.328
 8128SOL    HW125283   3.080   3.153   2.265
 8128SOL    HW225284   3.038   3.189   2.419
 8129SOL     OW25285   1.408   2.569   0.574
 8129SOL    HW125286   1.415   2.640   0.504
 8129SOL    HW225287   1.491   2.514   0.574
 8130SOL     OW25288   1.372   5.509   6.853
 8130SOL    HW125289   1.319   5.594   6.854
 8130SOL    HW225290   1.421   5.499   6.940
 8131SOL     OW25291   2.093   2.941   1.081
 8131SOL    HW125292   2.011   2.887   1.102
 8131SOL    HW225293   2.068   3.021   1.026
 8132SOL     OW25294   6.318   0.131   3.768
 8132SOL    HW125295   6.415   0.111   3.767
 8132SOL    HW225296   6.303   0.226   3.740
 8133SOL     OW25297   3.632   5.171   1.214
 8133SOL    HW125298   3.586   5.195   1.299
 8133SOL    HW225299   3.569   5.121   1.154
 8134SOL     OW25300   6.515   0.745   5.187
 8134SOL    HW125301   6.507   0.703   5.277
 8134SOL    HW225302   6.599   0.712   5.142
 8135SOL     OW25303   2.881   0.057   2.225
 8135SOL    HW125304   2.798   0.043   2.171
 8135SOL    HW225305   2.924   6.993   2.242
 8136SOL     OW25306   4.737   4.755   2.578
 8136SOL    HW125307   4.755   4.773   2.481
 8136SOL    HW225308   4.788   4.674   2.607
 8137SOL     OW25309   4.018   1.828   4.870
 8137SOL    HW125310   3.930   1.853   4.909
 8137SOL    HW225311   4.062   1.760   4.928
 8138SOL     OW25312   5.549   1.162   1.800
 8138SOL    HW125313   5.580   1.224   1.872
 8138SOL    HW225314   5.628   1.127   1.750
 8139SOL     OW25315   1.322   1.386   2.515
 8139SOL    HW125316   1.314   1.456   2.586
 8139SOL    HW225317   1.414   1.346   2.518
 8140SOL     OW25318   4.292   0.845   3.966
 8140SOL    HW125319   4.382   0.887   3.957
 8140SOL    HW225320   4.230   0.885   3.899
 8141SOL     OW25321   4.242   5.203   5.490
 8141SOL    HW125322   4.304   5.216   5.568
 8141SOL    HW225323   4.151   5.180   5.524
 8142SOL     OW25324   5.767   4.295   0.506
 8142SOL    HW125325   5.670   4.277   0.486
 8142SOL    HW225326   5.774   4.357   0.584
 8143SOL     OW25327   5.767   4.299   6.126
 8143SOL    HW125328   5.792   4.395   6.141
 8143SOL    HW225329   5.675   4.283   6.163
 8144SOL     OW25330   5.694   0.050   6.957
 8144SOL    HW125331   5.768   7.013   6.983
 8144SOL    HW225332   5.614   7.022   6.931
 8145SOL     OW25333   6.368   5.706   2.859
 8145SOL    HW125334   6.320   5.727   2.774
 8145SOL    HW225335   6.302   5.692   2.933
 8146SOL     OW25336   3.529   0.944   5.805
 8146SOL    HW125337   3.462   0.954   5.879
 8146SOL    HW225338   3.483   0.961   5.717
 8147SOL     OW25339   4.557   2.197   4.246
 8147SOL    HW125340   4.519   2.135   4.177
 8147SOL    HW225341   4.644   2.234   4.213
 8148SOL     OW25342   5.383   2.697   2.724
 8148SOL    HW125343   5.303   2.644   2.695
 8148SOL    HW225344   5.363   2.795   2.714
 8149SOL     OW25345   3.836   5.152   2.735
 8149SOL    HW125346   3.913   5.088   2.745
 8149SOL    HW225347   3.753   5.110   2.773
 8150SOL     OW25348   0.903   5.193   0.330
 8150SOL    HW125349   0.849   5.228   0.406
 8150SOL    HW225350   0.969   5.263   0.302
 8151SOL     OW25351   1.381   2.097   4.593
 8151SOL    HW125352   1.349   2.191   4.586
 8151SOL    HW225353   1.426   2.083   4.681
 8152SOL     OW25354   1.716   0.474   3.678
 8152SOL    HW125355   1.652   0.532   3.628
 8152SOL    HW225356   1.807   0.517   3.678
 8153SOL     OW25357   2.591   6.902   1.582
 8153SOL    HW125358   2.576   6.971   1.653
 8153SOL    HW225359   2.520   6.910   1.512
 8154SOL     OW25360   1.791   6.280   3.969
 8154SOL    HW125361   1.752   6.319   3.885
 8154SOL    HW225362   1.889   6.303   3.973
 8155SOL     OW25363   3.046   3.050   2.554
 8155SOL    HW125364   2.957   3.043   2.600
 8155SOL    HW225365   3.119   3.052   2.622
 8156SOL     OW25366   5.722   1.075   5.367
 8156SOL    HW125367   5.698   0.980   5.388
 8156SOL    HW225368   5.815   1.079   5.331
 8157SOL     OW25369   5.817   4.088   6.783
 8157SOL    HW125370   5.728   4.122   6.813
 8157SOL    HW225371   5.805   4.020   6.712
 8158SOL     OW25372   1.363   5.567   1.377
 8158SOL    HW125373   1.356   5.468   1.369
 8158SOL    HW225374   1.331   5.610   1.292
 8159SOL     OW25375   2.208   5.039   1.847
 8159SOL    HW125376   2.161   5.060   1.932
 8159SOL    HW225377   2.249   4.948   1.852
 8160SOL     OW25378   4.299   2.082   1.494
 8160SOL    HW125379   4.236   2.073   1.571
 8160SOL    HW225380   4.391   2.105   1.529
 8161SOL     OW25381   4.815   1.233   0.238
 8161SOL    HW125382   4.836   1.269   0.147
 8161SOL    HW225383   4.815   1.307   0.305
 8162SOL     OW25384   5.699   6.804   1.311
 8162SOL    HW125385   5.610   6.780   1.273
 8162SOL    HW225386   5.771   6.781   1.246
 8163SOL     OW25387   2.245   4.541   5.305
 8163SOL    HW125388   2.282   4.632   5.322
 8163SOL    HW225389   2.314   4.472   5.328
 8164SOL     OW25390   4.199   2.381   1.467
 8164SOL    HW125391   4.258   2.300   1.463
 8164SOL    HW225392   4.205   2.429   1.379
 8165SOL     OW25393   2.251   4.057   1.452
 8165SOL    HW125394   2.260   4.149   1.490
 8165SOL    HW225395   2.303   3.992   1.507
 8166SOL     OW25396   2.773   0.716   2.000
 8166SOL    HW125397   2.854   0.758   2.042
 8166SOL    HW225398   2.719   0.787   1.955
 8167SOL     OW25399   5.999   2.721   3.948
 8167SOL    HW125400   5.940   2.778   3.890
 8167SOL    HW225401   5.973   2.733   4.044
 8168SOL     OW25402   3.732   1.343   3.039
 8168SOL    HW125403   3.648   1.397   3.030
 8168SOL    HW225404   3.736   1.303   3.131
 8169SOL     OW25405   4.313   3.705   6.961
 8169SOL    HW125406   4.245   3.658   7.017
 8169SOL    HW225407   4.399   3.653   6.963
 8170SOL     OW25408   0.641   5.697   4.201
 8170SOL    HW125409   0.612   5.605   4.175
 8170SOL    HW225410   0.706   5.732   4.133
 8171SOL     OW25411   0.688   2.092   6.086
 8171SOL    HW125412   0.701   2.004   6.132
 8171SOL    HW225413   0.758   2.157   6.117
 8172SOL     OW25414   0.547   6.765   0.776
 8172SOL    HW125415   0.497   6.846   0.805
 8172SOL    HW225416   0.542   6.757   0.676
 8173SOL     OW25417   3.779   3.054   0.225
 8173SOL    HW125418   3.753   3.058   0.321
 8173SOL    HW225419   3.856   2.991   0.213
 8174SOL     OW25420   5.611   0.739   1.742
 8174SOL    HW125421   5.608   0.639   1.743
 8174SOL    HW225422   5.693   0.771   1.789
 8175SOL     OW25423   0.457   2.004   6.481
 8175SOL    HW125424   0.436   2.049   6.394
 8175SOL    HW225425   0.516   2.063   6.536
 8176SOL     OW25426   2.326   5.435   2.071
 8176SOL    HW125427   2.397   5.443   2.000
 8176SOL    HW225428   2.355   5.368   2.139
 8177SOL     OW25429   6.960   6.570   4.722
 8177SOL    HW125430   6.943   6.663   4.756
 8177SOL    HW225431   0.017   6.533   4.767
 8178SOL     OW25432   1.552   6.396   6.551
 8178SOL    HW125433   1.579   6.305   6.521
 8178SOL    HW225434   1.631   6.457   6.546
 8179SOL     OW25435   3.448   3.064   0.170
 8179SOL    HW125436   3.465   3.133   0.239
 8179SOL    HW225437   3.535   3.030   0.134
 8180SOL     OW25438   6.482   6.780   4.955
 8180SOL    HW125439   6.416   6.706   4.945
 8180SOL    HW225440   6.565   6.746   4.998
 8181SOL     OW25441   2.274   1.987   3.193
 8181SOL    HW125442   2.273   2.049   3.114
 8181SOL    HW225443   2.307   1.897   3.163
 8182SOL     OW25444   4.369   2.124   5.246
 8182SOL    HW125445   4.327   2.207   5.282
 8182SOL    HW225446   4.468   2.127   5.263
 8183SOL     OW25447   1.573   3.832   4.451
 8183SOL    HW125448   1.555   3.888   4.532
 8183SOL    HW225449   1.487   3.795   4.417
 8184SOL     OW25450   6.813   7.008   5.485
 8184SOL    HW125451   6.853   0.053   5.427
 8184SOL    HW225452   6.723   6.983   5.450
 8185SOL     OW25453   3.168   1.571   2.142
 8185SOL    HW125454   3.086   1.571   2.085
 8185SOL    HW225455   3.202   1.665   2.152
 8186SOL     OW25456   3.983   6.054   5.598
 8186SOL    HW125457   4.061   5.992   5.603
 8186SOL    HW225458   4.014   6.148   5.614
 8187SOL     OW25459   1.812   1.708   5.215
 8187SOL    HW125460   1.836   1.640   5.145
 8187SOL    HW225461   1.830   1.800   5.180
 8188SOL     OW25462   6.209   2.587   3.146
 8188SOL    HW125463   6.142   2.609   3.076
 8188SOL    HW225464   6.278   2.659   3.150
 8189SOL     OW25465   6.134   4.299   2.782
 8189SOL    HW125466   6.206   4.362   2.751
 8189SOL    HW225467   6.130   4.220   2.720
 8190SOL     OW25468   5.174   3.610   4.205
 8190SOL    HW125469   5.225   3.653   4.131
 8190SOL    HW225470   5.079   3.639   4.201
 8191SOL     OW25471   0.879   5.469   3.912
 8191SOL    HW125472   0.961   5.525   3.926
 8191SOL    HW225473   0.887   5.383   3.962
 8192SOL     OW25474   1.838   4.588   2.106
 8192SOL    HW125475   1.930   4.588   2.066
 8192SOL    HW225476   1.817   4.497   2.141
 8193SOL     OW25477   3.984   6.891   5.144
 8193SOL    HW125478   4.004   6.806   5.096
 8193SOL    HW225479   3.976   6.874   5.242
 8194SOL     OW25480   6.402   0.567   0.333
 8194SOL    HW125481   6.399   0.665   0.353
 8194SOL    HW225482   6.489   0.543   0.290
 8195SOL     OW25483   6.839   6.558   0.332
 8195SOL    HW125484   6.801   6.479   0.285
 8195SOL    HW225485   6.939   6.550   0.334
 8196SOL     OW25486   2.854   6.680   6.105
 8196SOL    HW125487   2.764   6.704   6.067
 8196SOL    HW225488   2.846   6.665   6.203
 8197SOL     OW25489   0.678   0.433   6.193
 8197SOL    HW125490   0.613   0.431   6.269
 8197SOL    HW225491   0.638   0.388   6.113
 8198SOL     OW25492   2.837   6.743   3.250
 8198SOL    HW125493   2.777   6.663   3.246
 8198SOL    HW225494   2.800   6.810   3.315
 8199SOL     OW25495   6.916   3.450   6.954
 8199SOL    HW125496   6.878   3.398   6.878
 8199SOL    HW225497   7.015   3.460   6.942
 8200SOL     OW25498   5.596   4.370   1.148
 8200SOL    HW125499   5.542   4.317   1.083
 8200SOL    HW225500   5.682   4.322   1.166
 8201SOL     OW25501   5.702   6.835   3.196
 8201SOL    HW125502   5.616   6.829   3.245
 8201SOL    HW225503   5.750   6.919   3.222
 8202SOL     OW25504   1.313   4.005   3.718
 8202SOL    HW125505   1.262   3.986   3.634
 8202SOL    HW225506   1.407   4.032   3.696
 8203SOL     OW25507   5.922   3.628   1.451
 8203SOL    HW125508   5.905   3.608   1.354
 8203SOL    HW225509   5.836   3.617   1.502
 8204SOL     OW25510   3.599   0.232   1.875
 8204SOL    HW125511   3.670   0.171   1.841
 8204SOL    HW225512   3.515   0.219   1.821
 8205SOL     OW25513   5.577   5.559   1.720
 8205SOL    HW125514   5.527   5.475   1.698
 8205SOL    HW225515   5.667   5.556   1.677
 8206SOL     OW25516   4.525   1.906   4.866
 8206SOL    HW125517   4.445   1.847   4.858
 8206SOL    HW225518   4.596   1.859   4.919
 8207SOL     OW25519   2.805   5.988   6.875
 8207SOL    HW125520   2.822   6.025   6.783
 8207SOL    HW225521   2.893   5.975   6.922
 8208SOL     OW25522   1.664   4.497   0.910
 8208SOL    HW125523   1.714   4.490   0.824
 8208SOL    HW225524   1.726   4.483   0.987
 8209SOL     OW25525   0.512   0.281   5.019
 8209SOL    HW125526   0.567   0.354   4.979
 8209SOL    HW225527   0.552   0.253   5.107
 8210SOL     OW25528   2.466   1.088   0.281
 8210SOL    HW125529   2.404   1.112   0.206
 8210SOL    HW225530   2.548   1.045   0.243
 8211SOL     OW25531   3.445   2.883   4.341
 8211SOL    HW125532   3.529   2.913   4.386
 8211SOL    HW225533   3.462   2.870   4.244
 8212SOL     OW25534   3.531   0.331   0.999
 8212SOL    HW125535   3.568   0.350   0.909
 8212SOL    HW225536   3.472   0.250   0.995
 8213SOL     OW25537   4.552   4.009   1.698
 8213SOL    HW125538   4.623   4.068   1.661
 8213SOL    HW225539   4.507   4.054   1.775
 8214SOL     OW25540   3.780   5.758   4.756
 8214SOL    HW125541   3.697   5.801   4.721
 8214SOL    HW225542   3.756   5.681   4.815
 8215SOL     OW25543   4.274   6.744   6.827
 8215SOL    HW125544   4.322   6.719   6.911
 8215SOL    HW225545   4.182   6.704   6.828
 8216SOL     OW25546   5.264   5.209   1.305
 8216SOL    HW125547   5.193   5.279   1.301
 8216SOL    HW225548   5.301   5.193   1.214
 8217SOL     OW25549   2.094   6.193   3.962
 8217SOL    HW125550   2.162   6.148   3.903
 8217SOL    HW225551   2.085   6.142   4.047
 8218SOL     OW25552   1.766   6.911   4.728
 8218SOL    HW125553   1.669   6.892   4.743
 8218SOL    HW225554   1.809   6.932   4.816
 8219SOL     OW25555   3.606   3.631   1.025
 8219SOL    HW125556   3.510   3.643   1.053
 8219SOL    HW225557   3.666   3.670   1.095
 8220SOL     OW25558   4.110   3.316   4.229
 8220SOL    HW125559   4.048   3.242   4.205
 8220SOL    HW225560   4.127   3.373   4.148
 8221SOL     OW25561   5.886   3.299   3.314
 8221SOL    HW125562   5.813   3.368   3.319
 8221SOL    HW225563   5.950   3.323   3.241
 8222SOL     OW25564   6.109   3.690   0.511
 8222SOL    HW125565   6.162   3.649   0.436
 8222SOL    HW225566   6.156   3.773   0.542
 8223SOL     OW25567   0.734   5.746   5.341
 8223SOL    HW125568   0.825   5.778   5.365
 8223SOL    HW225569   0.736   5.703   5.250
 8224SOL     OW25570   5.205   1.660   0.439
 8224SOL    HW125571   5.188   1.567   0.408
 8224SOL    HW225572   5.304   1.676   0.447
 8225SOL     OW25573   5.262   1.277   0.743
 8225SOL    HW125574   5.319   1.252   0.665
 8225SOL    HW225575   5.178   1.321   0.710
 8226SOL     OW25576   4.013   0.420   0.381
 8226SOL    HW125577   4.096   0.432   0.327
 8226SOL    HW225578   3.964   0.507   0.387
 8227SOL     OW25579   4.927   2.115   3.080
 8227SOL    HW125580   4.880   2.029   3.097
 8227SOL    HW225581   4.913   2.142   2.984
 8228SOL     OW25582   2.005   0.528   4.859
 8228SOL    HW125583   2.058   0.566   4.935
 8228SOL    HW225584   1.924   0.584   4.844
 8229SOL     OW25585   4.881   4.337   1.005
 8229SOL    HW125586   4.854   4.274   1.077
 8229SOL    HW225587   4.907   4.425   1.045
 8230SOL     OW25588   5.985   0.586   6.381
 8230SOL    HW125589   5.966   0.650   6.307
 8230SOL    HW225590   5.938   0.499   6.363
 8231SOL     OW25591   2.225   1.420   2.465
 8231SOL    HW125592   2.225   1.408   2.366
 8231SOL    HW225593   2.253   1.513   2.488
 8232SOL     OW25594   3.403   6.003   2.773
 8232SOL    HW125595   3.471   6.067   2.809
 8232SOL    HW225596   3.378   5.938   2.844
 8233SOL     OW25597   0.819   1.281   5.962
 8233SOL    HW125598   0.838   1.183   5.960
 8233SOL    HW225599   0.861   1.326   5.883
 8234SOL     OW25600   1.086   2.000   0.523
 8234SOL    HW125601   1.158   1.991   0.454
 8234SOL    HW225602   1.091   1.923   0.587
 8235SOL     OW25603   0.414   5.736   1.394
 8235SOL    HW125604   0.405   5.743   1.294
 8235SOL    HW225605   0.507   5.759   1.420
 8236SOL     OW25606   0.426   6.548   1.026
 8236SOL    HW125607   0.338   6.576   0.986
 8236SOL    HW225608   0.495   6.540   0.954
 8237SOL     OW25609   4.338   4.811   0.474
 8237SOL    HW125610   4.241   4.835   0.471
 8237SOL    HW225611   4.382   4.841   0.389
 8238SOL     OW25612   0.743   4.316   0.607
 8238SOL    HW125613   0.704   4.230   0.573
 8238SOL    HW225614   0.710   4.334   0.699
 8239SOL     OW25615   1.668   1.250   5.625
 8239SOL    HW125616   1.582   1.206   5.598
 8239SOL    HW225617   1.649   1.344   5.656
 8240SOL     OW25618   3.644   3.721   4.552
 8240SOL    HW125619   3.546   3.717   4.532
 8240SOL    HW225620   3.659   3.776   4.634
 8241SOL     OW25621   1.896   3.931   6.190
 8241SOL    HW125622   1.890   3.935   6.290
 8241SOL    HW225623   1.842   3.853   6.156
 8242SOL     OW25624   0.920   3.531   3.786
 8242SOL    HW125625   0.880   3.497   3.701
 8242SOL    HW225626   1.012   3.495   3.796
 8243SOL     OW25627   0.133   5.298   4.487
 8243SOL    HW125628   0.155   5.395   4.477
 8243SOL    HW225629   0.123   5.275   4.584
 8244SOL     OW25630   0.769   0.648   4.478
 8244SOL    HW125631   0.693   0.591   4.511
 8244SOL    HW225632   0.853   0.623   4.527
 8245SOL     OW25633   5.416   1.818   3.590
 8245SOL    HW125634   5.358   1.736   3.586
 8245SOL    HW225635   5.457   1.825   3.681
 8246SOL     OW25636   2.309   5.302   6.655
 8246SOL    HW125637   2.212   5.280   6.653
 8246SOL    HW225638   2.322   5.396   6.624
 8247SOL     OW25639   2.832   5.109   2.848
 8247SOL    HW125640   2.822   5.194   2.796
 8247SOL    HW225641   2.761   5.044   2.820
 8248SOL     OW25642   0.175   5.132   3.088
 8248SOL    HW125643   0.200   5.087   3.174
 8248SOL    HW225644   0.250   5.190   3.057
 8249SOL     OW25645   3.331   2.094   6.469
 8249SOL    HW125646   3.243   2.048   6.474
 8249SOL    HW225647   3.346   2.127   6.376
 8250SOL     OW25648   1.203   1.624   0.137
 8250SOL    HW125649   1.123   1.643   0.194
 8250SOL    HW225650   1.237   1.710   0.098
 8251SOL     OW25651   0.355   2.220   4.666
 8251SOL    HW125652   0.276   2.281   4.657
 8251SOL    HW225653   0.382   2.215   4.762
 8252SOL     OW25654   1.288   1.765   6.435
 8252SOL    HW125655   1.371   1.820   6.426
 8252SOL    HW225656   1.301   1.694   6.504
 8253SOL     OW25657   4.768   5.858   0.851
 8253SOL    HW125658   4.802   5.825   0.763
 8253SOL    HW225659   4.783   5.957   0.858
 8254SOL     OW25660   5.081   5.072   6.590
 8254SOL    HW125661   5.035   5.161   6.600
 8254SOL    HW225662   5.053   5.012   6.665
 8255SOL     OW25663   0.922   6.701   6.567
 8255SOL    HW125664   0.883   6.781   6.613
 8255SOL    HW225665   1.020   6.715   6.554
 8256SOL     OW25666   1.380   5.258   3.815
 8256SOL    HW125667   1.287   5.294   3.818
 8256SOL    HW225668   1.444   5.329   3.846
 8257SOL     OW25669   5.017   3.239   3.013
 8257SOL    HW125670   5.083   3.270   2.945
 8257SOL    HW225671   5.003   3.311   3.082
 8258SOL     OW25672   6.511   3.235   1.899
 8258SOL    HW125673   6.501   3.182   1.982
 8258SOL    HW225674   6.428   3.227   1.844
 8259SOL     OW25675   5.255   1.304   4.249
 8259SOL    HW125676   5.327   1.373   4.254
 8259SOL    HW225677   5.170   1.342   4.285
 8260SOL     OW25678   4.002   1.499   1.396
 8260SOL    HW125679   3.938   1.525   1.468
 8260SOL    HW225680   4.096   1.517   1.427
 8261SOL     OW25681   5.969   0.461   2.922
 8261SOL    HW125682   6.036   0.387   2.912
 8261SOL    HW225683   5.888   0.426   2.969
 8262SOL     OW25684   5.961   3.877   1.964
 8262SOL    HW125685   5.997   3.798   1.913
 8262SOL    HW225686   5.900   3.929   1.905
 8263SOL     OW25687   6.936   2.557   5.679
 8263SOL    HW125688   6.975   2.642   5.645
 8263SOL    HW225689   7.001   2.482   5.663
 8264SOL     OW25690   2.828   0.022   3.087
 8264SOL    HW125691   2.739   7.015   3.121
 8264SOL    HW225692   2.887   6.968   3.069
 8265SOL     OW25693   5.298   0.232   0.245
 8265SOL    HW125694   5.323   0.220   0.341
 8265SOL    HW225695   5.205   0.268   0.239
 8266SOL     OW25696   2.418   0.776   3.724
 8266SOL    HW125697   2.362   0.837   3.669
 8266SOL    HW225698   2.500   0.750   3.672
 8267SOL     OW25699   1.629   4.611   2.831
 8267SOL    HW125700   1.662   4.517   2.827
 8267SOL    HW225701   1.649   4.658   2.745
 8268SOL     OW25702   3.385   4.826   6.379
 8268SOL    HW125703   3.357   4.832   6.475
 8268SOL    HW225704   3.482   4.803   6.374
 8269SOL     OW25705   6.073   2.592   3.643
 8269SOL    HW125706   6.130   2.515   3.614
 8269SOL    HW225707   6.122   2.646   3.712
 8270SOL     OW25708   3.623   0.137   6.350
 8270SOL    HW125709   3.626   0.110   6.447
 8270SOL    HW225710   3.556   0.080   6.302
 8271SOL     OW25711   3.928   5.990   5.918
 8271SOL    HW125712   3.904   5.986   5.821
 8271SOL    HW225713   3.952   6.084   5.943
 8272SOL     OW25714   0.669   0.329   1.506
 8272SOL    HW125715   0.610   0.408   1.487
 8272SOL    HW225716   0.717   0.344   1.592
 8273SOL     OW25717   3.672   0.395   0.000
 8273SOL    HW125718   3.680   0.422   0.096
 8273SOL    HW225719   3.581   0.357   7.008
 8274SOL     OW25720   5.657   6.491   5.773
 8274SOL    HW125721   5.601   6.438   5.710
 8274SOL    HW225722   5.665   6.443   5.860
 8275SOL     OW25723   5.602   0.390   3.369
 8275SOL    HW125724   5.543   0.469   3.388
 8275SOL    HW225725   5.694   0.409   3.403
 8276SOL     OW25726   0.208   2.247   6.370
 8276SOL    HW125727   0.255   2.291   6.447
 8276SOL    HW225728   0.267   2.246   6.290
 8277SOL     OW25729   1.147   6.496   6.587
 8277SOL    HW125730   1.173   6.435   6.662
 8277SOL    HW225731   1.059   6.538   6.607
 8278SOL     OW25732   3.825   1.175   0.106
 8278SOL    HW125733   3.899   1.214   0.161
 8278SOL    HW225734   3.861   1.104   0.046
 8279SOL     OW25735   4.811   4.802   5.616
 8279SOL    HW125736   4.794   4.766   5.524
 8279SOL    HW225737   4.862   4.888   5.610
 8280SOL     OW25738   5.204   3.113   0.009
 8280SOL    HW125739   5.223   3.071   0.098
 8280SOL    HW225740   5.114   3.083   7.002
 8281SOL     OW25741   2.641   5.041   0.146
 8281SOL    HW125742   2.607   5.048   0.053
 8281SOL    HW225743   2.630   4.948   0.180
 8282SOL     OW25744   2.815   2.364   0.677
 8282SOL    HW125745   2.844   2.281   0.727
 8282SOL    HW225746   2.716   2.366   0.671
 8283SOL     OW25747   0.077   5.834   3.245
 8283SOL    HW125748   0.073   5.778   3.328
 8283SOL    HW225749   0.022   5.791   3.173
 8284SOL     OW25750   2.784   1.843   2.110
 8284SOL    HW125751   2.874   1.803   2.126
 8284SOL    HW225752   2.774   1.926   2.165
 8285SOL     OW25753   2.919   4.524   6.048
 8285SOL    HW125754   2.991   4.496   6.111
 8285SOL    HW225755   2.831   4.487   6.080
 8286SOL     OW25756   5.502   1.590   5.326
 8286SOL    HW125757   5.535   1.533   5.251
 8286SOL    HW225758   5.441   1.537   5.384
 8287SOL     OW25759   1.957   0.600   3.592
 8287SOL    HW125760   1.992   0.692   3.608
 8287SOL    HW225761   1.907   0.598   3.505
 8288SOL     OW25762   2.216   1.154   3.108
 8288SOL    HW125763   2.211   1.254   3.104
 8288SOL    HW225764   2.127   1.115   3.083
 8289SOL     OW25765   6.637   1.417   5.564
 8289SOL    HW125766   6.554   1.411   5.509
 8289SOL    HW225767   6.613   1.405   5.661
 8290SOL     OW25768   4.560   2.840   1.701
 8290SOL    HW125769   4.589   2.920   1.753
 8290SOL    HW225770   4.460   2.837   1.696
 8291SOL     OW25771   3.871   4.972   6.542
 8291SOL    HW125772   3.888   4.875   6.526
 8291SOL    HW225773   3.937   5.007   6.608
 8292SOL     OW25774   0.769   4.223   4.525
 8292SOL    HW125775   0.781   4.138   4.574
 8292SOL    HW225776   0.843   4.287   4.549
 8293SOL     OW25777   2.840   4.965   4.126
 8293SOL    HW125778   2.909   5.026   4.165
 8293SOL    HW225779   2.749   4.992   4.159
 8294SOL     OW25780   4.561   3.345   5.604
 8294SOL    HW125781   4.491   3.352   5.675
 8294SOL    HW225782   4.524   3.296   5.525
 8295SOL     OW25783   5.076   4.360   1.883
 8295SOL    HW125784   5.097   4.272   1.841
 8295SOL    HW225785   4.980   4.383   1.868
 8296SOL     OW25786   3.791   6.374   1.804
 8296SOL    HW125787   3.740   6.456   1.779
 8296SOL    HW225788   3.752   6.336   1.888
 8297SOL     OW25789   5.730   4.036   3.522
 8297SOL    HW125790   5.802   4.042   3.453
 8297SOL    HW225791   5.694   4.128   3.541
 8298SOL     OW25792   6.646   0.053   5.896
 8298SOL    HW125793   6.735   0.034   5.855
 8298SOL    HW225794   6.594   6.993   5.905
 8299SOL     OW25795   0.235   3.629   0.911
 8299SOL    HW125796   0.219   3.717   0.866
 8299SOL    HW225797   0.301   3.576   0.857
 8300SOL     OW25798   5.237   4.885   2.702
 8300SOL    HW125799   5.152   4.876   2.755
 8300SOL    HW225800   5.269   4.979   2.706
 8301SOL     OW25801   4.712   6.672   0.374
 8301SOL    HW125802   4.781   6.730   0.331
 8301SOL    HW225803   4.720   6.679   0.473
 8302SOL     OW25804   3.297   6.895   5.516
 8302SOL    HW125805   3.224   6.893   5.584
 8302SOL    HW225806   3.336   6.987   5.512
 8303SOL     OW25807   0.073   6.301   2.910
 8303SOL    HW125808   0.037   6.286   3.002
 8303SOL    HW225809   0.025   6.241   2.846
 8304SOL     OW25810   5.588   4.167   3.199
 8304SOL    HW125811   5.544   4.224   3.268
 8304SOL    HW225812   5.687   4.171   3.210
 8305SOL     OW25813   4.741   6.523   4.740
 8305SOL    HW125814   4.818   6.460   4.732
 8305SOL    HW225815   4.762   6.607   4.691
 8306SOL     OW25816   6.532   0.686   1.940
 8306SOL    HW125817   6.620   0.639   1.949
 8306SOL    HW225818   6.490   0.661   1.852
 8307SOL     OW25819   1.489   3.791   2.665
 8307SOL    HW125820   1.483   3.788   2.565
 8307SOL    HW225821   1.507   3.699   2.700
 8308SOL     OW25822   1.535   5.385   0.683
 8308SOL    HW125823   1.543   5.377   0.583
 8308SOL    HW225824   1.539   5.482   0.709
 8309SOL     OW25825   6.051   4.480   4.444
 8309SOL    HW125826   6.038   4.382   4.427
 8309SOL    HW225827   6.147   4.497   4.464
 8310SOL     OW25828   1.082   6.598   0.753
 8310SOL    HW125829   0.984   6.582   0.755
 8310SOL    HW225830   1.121   6.558   0.670
 8311SOL     OW25831   5.975   6.688   3.398
 8311SOL    HW125832   6.028   6.613   3.437
 8311SOL    HW225833   5.927   6.737   3.471
 8312SOL     OW25834   5.466   1.667   0.601
 8312SOL    HW125835   5.561   1.662   0.632
 8312SOL    HW225836   5.405   1.635   0.673
 8313SOL     OW25837   5.483   2.975   5.109
 8313SOL    HW125838   5.402   2.980   5.051
 8313SOL    HW225839   5.532   3.062   5.105
 8314SOL     OW25840   5.190   6.195   4.471
 8314SOL    HW125841   5.219   6.221   4.563
 8314SOL    HW225842   5.094   6.168   4.473
 8315SOL     OW25843   3.906   4.054   5.046
 8315SOL    HW125844   3.961   3.971   5.043
 8315SOL    HW225845   3.848   4.058   4.965
 8316SOL     OW25846   2.523   2.148   6.497
 8316SOL    HW125847   2.485   2.226   6.547
 8316SOL    HW225848   2.522   2.067   6.555
 8317SOL     OW25849   1.741   1.322   3.857
 8317SOL    HW125850   1.815   1.363   3.803
 8317SOL    HW225851   1.780   1.262   3.927
 8318SOL     OW25852   4.782   0.149   0.250
 8318SOL    HW125853   4.749   0.148   0.344
 8318SOL    HW225854   4.710   0.183   0.190
 8319SOL     OW25855   1.219   6.409   6.855
 8319SOL    HW125856   1.192   6.379   6.947
 8319SOL    HW225857   1.308   6.369   6.832
 8320SOL     OW25858   3.235   2.987   4.471
 8320SOL    HW125859   3.236   2.985   4.571
 8320SOL    HW225860   3.321   2.952   4.436
 8321SOL     OW25861   0.588   6.562   1.503
 8321SOL    HW125862   0.574   6.595   1.597
 8321SOL    HW225863   0.532   6.480   1.489
 8322SOL     OW25864   0.663   0.172   0.153
 8322SOL    HW125865   0.652   0.270   0.142
 8322SOL    HW225866   0.574   0.127   0.143
 8323SOL     OW25867   5.933   4.204   0.120
 8323SOL    HW125868   6.008   4.216   0.055
 8323SOL    HW225869   5.955   4.250   0.206
 8324SOL     OW25870   4.607   5.547   6.278
 8324SOL    HW125871   4.646   5.619   6.221
 8324SOL    HW225872   4.674   5.521   6.348
 8325SOL     OW25873   1.375   5.520   6.574
 8325SOL    HW125874   1.302   5.583   6.549
 8325SOL    HW225875   1.367   5.496   6.671
 8326SOL     OW25876   1.326   3.732   0.417
 8326SOL    HW125877   1.313   3.702   0.323
 8326SOL    HW225878   1.423   3.726   0.440
 8327SOL     OW25879   0.772   6.938   4.718
 8327SOL    HW125880   0.735   6.990   4.795
 8327SOL    HW225881   0.698   6.916   4.654
 8328SOL     OW25882   1.038   0.420   0.059
 8328SOL    HW125883   1.022   0.515   0.088
 8328SOL    HW225884   1.031   0.360   0.139
 8329SOL     OW25885   2.007   2.947   4.721
 8329SOL    HW125886   1.946   3.013   4.765
 8329SOL    HW225887   2.100   2.984   4.719
 8330SOL     OW25888   3.873   1.136   6.600
 8330SOL    HW125889   3.948   1.086   6.557
 8330SOL    HW225890   3.905   1.227   6.626
 8331SOL     OW25891   1.810   2.392   6.227
 8331SOL    HW125892   1.867   2.418   6.149
 8331SOL    HW225893   1.868   2.381   6.308
 8332SOL     OW25894   6.032   5.219   1.239
 8332SOL    HW125895   6.124   5.246   1.211
 8332SOL    HW225896   5.979   5.300   1.262
 8333SOL     OW25897   2.269   4.902   0.242
 8333SOL    HW125898   2.329   4.879   0.318
 8333SOL    HW225899   2.268   4.826   0.176
 8334SOL     OW25900   3.799   2.303   6.815
 8334SOL    HW125901   3.836   2.380   6.762
 8334SOL    HW225902   3.759   2.337   6.900
 8335SOL     OW25903   5.513   3.918   6.308
 8335SOL    HW125904   5.596   3.972   6.294
 8335SOL    HW225905   5.534   3.838   6.365
 8336SOL     OW25906   1.048   4.219   4.088
 8336SOL    HW125907   1.061   4.224   4.187
 8336SOL    HW225908   1.134   4.197   4.044
 8337SOL     OW25909   0.644   0.914   4.576
 8337SOL    HW125910   0.696   0.847   4.524
 8337SOL    HW225911   0.634   0.998   4.522
 8338SOL     OW25912   4.069   5.826   2.154
 8338SOL    HW125913   4.103   5.739   2.119
 8338SOL    HW225914   4.003   5.809   2.227
 8339SOL     OW25915   5.854   6.472   0.689
 8339SOL    HW125916   5.915   6.395   0.669
 8339SOL    HW225917   5.898   6.534   0.753
 8340SOL     OW25918   6.315   2.012   6.778
 8340SOL    HW125919   6.412   1.998   6.757
 8340SOL    HW225920   6.302   2.102   6.818
 8341SOL     OW25921   3.629   0.504   0.398
 8341SOL    HW125922   3.625   0.489   0.497
 8341SOL    HW225923   3.554   0.455   0.354
 8342SOL     OW25924   4.586   0.905   6.886
 8342SOL    HW125925   4.663   0.968   6.889
 8342SOL    HW225926   4.501   0.956   6.899
 8343SOL     OW25927   5.331   4.349   3.923
 8343SOL    HW125928   5.318   4.263   3.873
 8343SOL    HW225929   5.429   4.369   3.931
 8344SOL     OW25930   1.338   5.430   5.350
 8344SOL    HW125931   1.351   5.358   5.418
 8344SOL    HW225932   1.369   5.398   5.261
 8345SOL     OW25933   4.454   1.288   3.085
 8345SOL    HW125934   4.395   1.221   3.129
 8345SOL    HW225935   4.532   1.309   3.144
 8346SOL     OW25936   6.192   3.811   4.926
 8346SOL    HW125937   6.281   3.795   4.883
 8346SOL    HW225938   6.128   3.739   4.899
 8347SOL     OW25939   2.763   0.720   0.289
 8347SOL    HW125940   2.772   0.819   0.293
 8347SOL    HW225941   2.675   0.692   0.328
 8348SOL     OW25942   3.168   6.349   1.879
 8348SOL    HW125943   3.152   6.445   1.858
 8348SOL    HW225944   3.242   6.314   1.820
 8349SOL     OW25945   0.298   6.378   1.778
 8349SOL    HW125946   0.305   6.362   1.876
 8349SOL    HW225947   0.359   6.315   1.729
 8350SOL     OW25948   2.527   0.512   0.816
 8350SOL    HW125949   2.543   0.531   0.912
 8350SOL    HW225950   2.597   0.558   0.761
 8351SOL     OW25951   6.572   3.367   3.308
 8351SOL    HW125952   6.630   3.401   3.382
 8351SOL    HW225953   6.619   3.381   3.220
 8352SOL     OW25954   2.478   6.011   2.057
 8352SOL    HW125955   2.471   6.078   2.131
 8352SOL    HW225956   2.445   6.052   1.971
 8353SOL     OW25957   1.545   4.448   2.204
 8353SOL    HW125958   1.469   4.386   2.227
 8353SOL    HW225959   1.513   4.543   2.208
 8354SOL     OW25960   3.017   0.143   3.264
 8354SOL    HW125961   2.952   0.110   3.195
 8354SOL    HW225962   3.100   0.175   3.218
 8355SOL     OW25963   2.739   6.254   6.726
 8355SOL    HW125964   2.702   6.346   6.743
 8355SOL    HW225965   2.814   6.260   6.660
 8356SOL     OW25966   2.175   5.447   0.860
 8356SOL    HW125967   2.082   5.464   0.894
 8356SOL    HW225968   2.172   5.434   0.761
 8357SOL     OW25969   4.513   6.039   5.205
 8357SOL    HW125970   4.519   6.138   5.194
 8357SOL    HW225971   4.422   6.016   5.241
 8358SOL     OW25972   1.034   1.409   4.846
 8358SOL    HW125973   1.002   1.396   4.940
 8358SOL    HW225974   1.058   1.321   4.806
 8359SOL     OW25975   3.465   2.251   5.464
 8359SOL    HW125976   3.551   2.265   5.416
 8359SOL    HW225977   3.391   2.238   5.397
 8360SOL     OW25978   4.431   0.167   1.688
 8360SOL    HW125979   4.381   0.250   1.662
 8360SOL    HW225980   4.527   0.177   1.661
 8361SOL     OW25981   4.178   0.398   6.970
 8361SOL    HW125982   4.210   0.358   6.884
 8361SOL    HW225983   4.123   0.331   7.020
 8362SOL     OW25984   6.920   4.095   1.409
 8362SOL    HW125985   6.864   4.049   1.478
 8362SOL    HW225986   6.931   4.191   1.434
 8363SOL     OW25987   2.651   3.380   6.981
 8363SOL    HW125988   2.739   3.354   7.021
 8363SOL    HW225989   2.578   3.325   7.023
 8364SOL     OW25990   0.314   3.471   4.777
 8364SOL    HW125991   0.393   3.482   4.836
 8364SOL    HW225992   0.238   3.527   4.810
 8365SOL     OW25993   2.103   2.711   2.413
 8365SOL    HW125994   2.118   2.728   2.315
 8365SOL    HW225995   2.139   2.787   2.466
 8366SOL     OW25996   5.004   5.241   1.697
 8366SOL    HW125997   4.916   5.278   1.665
 8366SOL    HW225998   5.004   5.142   1.686
 8367SOL     OW25999   3.665   5.484   4.279
 8367SOL    HW126000   3.736   5.528   4.334
 8367SOL    HW226001   3.580   5.536   4.286
 8368SOL     OW26002   6.722   6.271   0.364
 8368SOL    HW126003   6.628   6.240   0.350
 8368SOL    HW226004   6.784   6.193   0.358
 8369SOL     OW26005   2.313   6.980   1.107
 8369SOL    HW126006   2.366   6.923   1.044
 8369SOL    HW226007   2.358   6.982   1.197
 8370SOL     OW26008   2.368   3.129   0.391
 8370SOL    HW126009   2.364   3.077   0.477
 8370SOL    HW226010   2.462   3.133   0.358
 8371SOL     OW26011   1.775   4.287   6.454
 8371SOL    HW126012   1.720   4.331   6.525
 8371SOL    HW226013   1.718   4.223   6.403
 8372SOL     OW26014   2.450   5.541   2.580
 8372SOL    HW126015   2.484   5.478   2.650
 8372SOL    HW226016   2.472   5.635   2.608
 8373SOL     OW26017   0.042   1.568   4.071
 8373SOL    HW126018   0.087   1.655   4.088
 8373SOL    HW226019   0.042   1.513   4.155
 8374SOL     OW26020   1.404   0.468   4.500
 8374SOL    HW126021   1.393   0.381   4.452
 8374SOL    HW226022   1.400   0.543   4.435
 8375SOL     OW26023   3.568   0.738   4.571
 8375SOL    HW126024   3.481   0.777   4.542
 8375SOL    HW226025   3.557   0.695   4.660
 8376SOL     OW26026   2.079   0.780   2.962
 8376SOL    HW126027   2.022   0.863   2.965
 8376SOL    HW226028   2.122   0.766   3.051
 8377SOL     OW26029   4.301   5.472   6.928
 8377SOL    HW126030   4.250   5.543   6.879
 8377SOL    HW226031   4.322   5.396   6.866
 8378SOL     OW26032   5.210   5.986   4.302
 8378SOL    HW126033   5.211   6.072   4.354
 8378SOL    HW226034   5.120   5.944   4.309
 8379SOL     OW26035   5.725   1.057   1.614
 8379SOL    HW126036   5.717   1.149   1.575
 8379SOL    HW226037   5.671   0.993   1.559
 8380SOL     OW26038   6.403   5.702   0.738
 8380SOL    HW126039   6.329   5.674   0.678
 8380SOL    HW226040   6.487   5.715   0.685
 8381SOL     OW26041   0.262   2.034   2.203
 8381SOL    HW126042   0.341   2.093   2.190
 8381SOL    HW226043   0.187   2.064   2.144
 8382SOL     OW26044   2.382   0.337   1.297
 8382SOL    HW126045   2.365   0.316   1.201
 8382SOL    HW226046   2.389   0.436   1.308
 8383SOL     OW26047   2.934   6.335   6.509
 8383SOL    HW126048   2.935   6.271   6.432
 8383SOL    HW226049   3.010   6.314   6.571
 8384SOL     OW26050   0.764   2.327   1.783
 8384SOL    HW126051   0.671   2.309   1.752
 8384SOL    HW226052   0.778   2.426   1.791
 8385SOL     OW26053   3.682   3.489   1.434
 8385SOL    HW126054   3.726   3.422   1.494
 8385SOL    HW226055   3.695   3.581   1.472
 8386SOL     OW26056   2.170   5.873   1.833
 8386SOL    HW126057   2.154   5.966   1.801
 8386SOL    HW226058   2.247   5.833   1.783
 8387SOL     OW26059   1.420   1.039   2.704
 8387SOL    HW126060   1.464   1.029   2.793
 8387SOL    HW226061   1.419   1.135   2.677
 8388SOL     OW26062   3.965   6.331   1.382
 8388SOL    HW126063   3.992   6.339   1.478
 8388SOL    HW226064   3.902   6.406   1.359
 8389SOL     OW26065   0.475   2.668   3.973
 8389SOL    HW126066   0.465   2.661   4.073
 8389SOL    HW226067   0.521   2.586   3.938
 8390SOL     OW26068   3.342   1.029   5.989
 8390SOL    HW126069   3.386   1.116   6.012
 8390SOL    HW226070   3.298   0.992   6.071
 8391SOL     OW26071   4.802   6.020   1.252
 8391SOL    HW126072   4.883   6.035   1.309
 8391SOL    HW226073   4.756   5.936   1.281
 8392SOL     OW26074   5.449   6.137   5.353
 8392SOL    HW126075   5.385   6.137   5.430
 8392SOL    HW226076   5.428   6.060   5.293
 8393SOL     OW26077   6.593   5.855   2.856
 8393SOL    HW126078   6.588   5.914   2.936
 8393SOL    HW226079   6.519   5.788   2.860
 8394SOL     OW26080   0.598   1.917   2.923
 8394SOL    HW126081   0.638   1.868   2.845
 8394SOL    HW226082   0.636   1.882   3.008
 8395SOL     OW26083   6.861   5.986   5.385
 8395SOL    HW126084   6.824   5.951   5.299
 8395SOL    HW226085   6.944   5.934   5.410
 8396SOL     OW26086   4.774   3.188   1.694
 8396SOL    HW126087   4.730   3.163   1.780
 8396SOL    HW226088   4.858   3.135   1.683
 8397SOL     OW26089   2.046   5.720   3.621
 8397SOL    HW126090   2.005   5.755   3.536
 8397SOL    HW226091   1.998   5.638   3.650
 8398SOL     OW26092   4.386   1.749   0.714
 8398SOL    HW126093   4.367   1.847   0.712
 8398SOL    HW226094   4.349   1.709   0.798
 8399SOL     OW26095   5.528   5.725   0.583
 8399SOL    HW126096   5.486   5.805   0.625
 8399SOL    HW226097   5.535   5.740   0.484
 8400SOL     OW26098   6.530   0.911   2.568
 8400SOL    HW126099   6.465   0.860   2.625
 8400SOL    HW226100   6.540   1.004   2.604
 8401SOL     OW26101   3.057   4.561   6.481
 8401SOL    HW126102   3.103   4.576   6.569
 8401SOL    HW226103   3.074   4.640   6.422
 8402SOL     OW26104   4.452   1.888   0.138
 8402SOL    HW126105   4.419   1.808   0.087
 8402SOL    HW226106   4.382   1.916   0.204
 8403SOL     OW26107   2.246   1.245   4.720
 8403SOL    HW126108   2.327   1.284   4.762
 8403SOL    HW226109   2.250   1.256   4.621
 8404SOL     OW26110   4.371   5.188   5.738
 8404SOL    HW126111   4.292   5.153   5.788
 8404SOL    HW226112   4.440   5.116   5.730
 8405SOL     OW26113   0.742   2.607   5.483
 8405SOL    HW126114   0.687   2.691   5.485
 8405SOL    HW226115   0.807   2.612   5.407
 8406SOL     OW26116   5.127   3.217   1.561
 8406SOL    HW126117   5.068   3.141   1.588
 8406SOL    HW226118   5.211   3.180   1.519
 8407SOL     OW26119   4.873   3.832   3.015
 8407SOL    HW126120   4.882   3.929   3.036
 8407SOL    HW226121   4.862   3.820   2.916
 8408SOL     OW26122   4.955   2.364   4.989
 8408SOL    HW126123   4.998   2.437   5.043
 8408SOL    HW226124   5.026   2.312   4.941
 8409SOL     OW26125   0.989   1.841   3.791
 8409SOL    HW126126   0.895   1.807   3.786
 8409SOL    HW226127   1.050   1.776   3.745
 8410SOL     OW26128   4.184   6.963   1.794
 8410SOL    HW126129   4.274   6.983   1.832
 8410SOL    HW226130   4.183   6.984   1.697
 8411SOL     OW26131   1.619   3.344   4.643
 8411SOL    HW126132   1.612   3.367   4.546
 8411SOL    HW226133   1.617   3.427   4.698
 8412SOL     OW26134   5.486   2.273   3.599
 8412SOL    HW126135   5.487   2.251   3.501
 8412SOL    HW226136   5.578   2.261   3.636
 8413SOL     OW26137   3.791   4.518   0.765
 8413SOL    HW126138   3.836   4.548   0.681
 8413SOL    HW226139   3.786   4.594   0.829
 8414SOL     OW26140   4.052   6.471   3.088
 8414SOL    HW126141   3.998   6.549   3.121
 8414SOL    HW226142   4.004   6.428   3.011
 8415SOL     OW26143   6.518   4.310   2.892
 8415SOL    HW126144   6.500   4.214   2.914
 8415SOL    HW226145   6.450   4.342   2.827
 8416SOL     OW26146   5.449   3.607   2.567
 8416SOL    HW126147   5.519   3.672   2.538
 8416SOL    HW226148   5.483   3.553   2.644
 8417SOL     OW26149   2.713   6.214   6.088
 8417SOL    HW126150   2.695   6.309   6.062
 8417SOL    HW226151   2.629   6.161   6.078
 8418SOL     OW26152   6.480   5.020   3.078
 8418SOL    HW126153   6.513   4.926   3.072
 8418SOL    HW226154   6.506   5.060   3.165
 8419SOL     OW26155   4.355   0.496   3.362
 8419SOL    HW126156   4.295   0.448   3.426
 8419SOL    HW226157   4.359   0.593   3.387
 8420SOL     OW26158   4.023   0.943   6.473
 8420SOL    HW126159   4.018   0.857   6.524
 8420SOL    HW226160   3.998   0.926   6.378
 8421SOL     OW26161   1.973   6.832   1.857
 8421SOL    HW126162   1.967   6.931   1.845
 8421SOL    HW226163   2.046   6.811   1.922
 8422SOL     OW26164   4.550   0.018   0.746
 8422SOL    HW126165   4.615   7.000   0.810
 8422SOL    HW226166   4.500   0.090   0.793
 8423SOL     OW26167   3.442   3.830   1.347
 8423SOL    HW126168   3.415   3.764   1.277
 8423SOL    HW226169   3.391   3.811   1.431
 8424SOL     OW26170   3.487   1.281   2.754
 8424SOL    HW126171   3.441   1.368   2.774
 8424SOL    HW226172   3.586   1.295   2.760
 8425SOL     OW26173   6.518   4.612   0.005
 8425SOL    HW126174   6.428   4.571   7.018
 8425SOL    HW226175   6.509   4.700   0.053
 8426SOL     OW26176   4.062   3.774   3.411
 8426SOL    HW126177   4.014   3.692   3.442
 8426SOL    HW226178   4.017   3.855   3.449
 8427SOL     OW26179   2.174   3.963   6.739
 8427SOL    HW126180   2.265   4.004   6.732
 8427SOL    HW226181   2.118   3.993   6.661
 8428SOL     OW26182   6.587   4.113   2.002
 8428SOL    HW126183   6.587   4.088   2.099
 8428SOL    HW226184   6.676   4.151   1.978
 8429SOL     OW26185   1.924   6.278   3.240
 8429SOL    HW126186   2.013   6.300   3.281
 8429SOL    HW226187   1.851   6.301   3.304
 8430SOL     OW26188   4.317   4.909   2.732
 8430SOL    HW126189   4.288   4.830   2.678
 8430SOL    HW226190   4.417   4.908   2.741
 8431SOL     OW26191   3.149   5.127   1.302
 8431SOL    HW126192   3.075   5.124   1.369
 8431SOL    HW226193   3.220   5.062   1.327
 8432SOL     OW26194   4.378   7.019   6.542
 8432SOL    HW126195   4.445   0.044   6.487
 8432SOL    HW226196   4.289   0.039   6.534
 8433SOL     OW26197   1.251   2.128   6.182
 8433SOL    HW126198   1.189   2.133   6.104
 8433SOL    HW226199   1.200   2.148   6.266
 8434SOL     OW26200   5.570   0.107   5.253
 8434SOL    HW126201   5.534   0.079   5.341
 8434SOL    HW226202   5.568   0.207   5.246
 8435SOL     OW26203   4.448   1.761   1.394
 8435SOL    HW126204   4.401   1.846   1.370
 8435SOL    HW226205   4.547   1.777   1.397
 8436SOL     OW26206   4.351   4.346   1.680
 8436SOL    HW126207   4.333   4.286   1.602
 8436SOL    HW226208   4.413   4.301   1.744
 8437SOL     OW26209   0.599   1.336   1.256
 8437SOL    HW126210   0.552   1.415   1.297
 8437SOL    HW226211   0.597   1.260   1.320
 8438SOL     OW26212   1.411   5.783   2.090
 8438SOL    HW126213   1.483   5.846   2.061
 8438SOL    HW226214   1.394   5.794   2.188
 8439SOL     OW26215   0.103   5.264   2.410
 8439SOL    HW126216   0.021   5.244   2.464
 8439SOL    HW226217   0.123   5.361   2.416
 8440SOL     OW26218   0.699   0.930   2.693
 8440SOL    HW126219   0.793   0.912   2.665
 8440SOL    HW226220   0.672   1.021   2.663
 8441SOL     OW26221   3.925   5.283   6.670
 8441SOL    HW126222   4.020   5.272   6.701
 8441SOL    HW226223   3.908   5.378   6.646
 8442SOL     OW26224   2.469   4.746   6.965
 8442SOL    HW126225   2.493   4.840   6.942
 8442SOL    HW226226   2.371   4.740   6.982
 8443SOL     OW26227   2.026   0.442   3.218
 8443SOL    HW126228   1.964   0.364   3.205
 8443SOL    HW226229   2.116   0.420   3.179
 8444SOL     OW26230   3.601   6.259   3.467
 8444SOL    HW126231   3.693   6.225   3.484
 8444SOL    HW226232   3.534   6.191   3.496
 8445SOL     OW26233   3.893   4.832   2.895
 8445SOL    HW126234   3.828   4.816   2.968
 8445SOL    HW226235   3.844   4.845   2.808
 8446SOL     OW26236   5.518   4.504   2.288
 8446SOL    HW126237   5.518   4.433   2.358
 8446SOL    HW226238   5.578   4.476   2.213
 8447SOL     OW26239   4.551   2.535   1.962
 8447SOL    HW126240   4.637   2.587   1.956
 8447SOL    HW226241   4.494   2.555   1.883
 8448SOL     OW26242   0.794   3.559   6.623
 8448SOL    HW126243   0.713   3.541   6.568
 8448SOL    HW226244   0.820   3.655   6.614
 8449SOL     OW26245   1.820   3.233   4.422
 8449SOL    HW126246   1.827   3.332   4.428
 8449SOL    HW226247   1.805   3.195   4.513
 8450SOL     OW26248   2.036   5.470   2.672
 8450SOL    HW126249   2.083   5.446   2.757
 8450SOL    HW226250   2.021   5.569   2.670
 8451SOL     OW26251   3.470   2.392   1.214
 8451SOL    HW126252   3.513   2.383   1.124
 8451SOL    HW226253   3.536   2.370   1.285
 8452SOL     OW26254   6.731   6.290   0.639
 8452SOL    HW126255   6.794   6.365   0.658
 8452SOL    HW226256   6.716   6.284   0.540
 8453SOL     OW26257   6.426   3.765   6.176
 8453SOL    HW126258   6.397   3.669   6.173
 8453SOL    HW226259   6.377   3.811   6.251
 8454SOL     OW26260   1.886   0.188   4.110
 8454SOL    HW126261   1.912   0.235   4.194
 8454SOL    HW226262   1.814   0.121   4.130
 8455SOL     OW26263   4.748   1.608   1.193
 8455SOL    HW126264   4.845   1.589   1.211
 8455SOL    HW226265   4.705   1.527   1.153
 8456SOL     OW26266   5.781   5.620   3.104
 8456SOL    HW126267   5.786   5.583   3.011
 8456SOL    HW226268   5.749   5.715   3.100
 8457SOL     OW26269   6.948   5.871   5.993
 8457SOL    HW126270   6.857   5.841   5.964
 8457SOL    HW226271   6.989   5.801   6.051
 8458SOL     OW26272   1.055   1.643   0.470
 8458SOL    HW126273   1.004   1.678   0.549
 8458SOL    HW226274   1.020   1.685   0.386
 8459SOL     OW26275   3.350   5.793   2.111
 8459SOL    HW126276   3.254   5.822   2.113
 8459SOL    HW226277   3.399   5.834   2.187
 8460SOL     OW26278   4.724   1.256   0.825
 8460SOL    HW126279   4.664   1.177   0.836
 8460SOL    HW226280   4.696   1.329   0.887
 8461SOL     OW26281   6.635   3.816   1.658
 8461SOL    HW126282   6.654   3.719   1.673
 8461SOL    HW226283   6.718   3.863   1.630
 8462SOL     OW26284   3.334   4.833   6.672
 8462SOL    HW126285   3.386   4.835   6.758
 8462SOL    HW226286   3.237   4.846   6.693
 8463SOL     OW26287   6.715   1.793   0.357
 8463SOL    HW126288   6.775   1.866   0.391
 8463SOL    HW226289   6.736   1.775   0.261
 8464SOL     OW26290   0.349   3.524   0.161
 8464SOL    HW126291   0.289   3.516   0.081
 8464SOL    HW226292   0.303   3.575   0.233
 8465SOL     OW26293   4.081   3.330   1.429
 8465SOL    HW126294   4.162   3.385   1.405
 8465SOL    HW226295   4.076   3.251   1.368
 8466SOL     OW26296   5.983   0.728   6.102
 8466SOL    HW126297   6.081   0.747   6.108
 8466SOL    HW226298   5.952   0.744   6.008
 8467SOL     OW26299   3.541   1.205   1.347
 8467SOL    HW126300   3.489   1.255   1.277
 8467SOL    HW226301   3.546   1.260   1.430
 8468SOL     OW26302   6.250   2.830   6.909
 8468SOL    HW126303   6.244   2.904   6.843
 8468SOL    HW226304   6.164   2.779   6.911
 8469SOL     OW26305   3.815   2.971   5.823
 8469SOL    HW126306   3.864   3.058   5.823
 8469SOL    HW226307   3.817   2.931   5.731
 8470SOL     OW26308   1.480   5.087   1.495
 8470SOL    HW126309   1.552   5.097   1.563
 8470SOL    HW226310   1.453   5.177   1.462
 8471SOL     OW26311   3.673   2.331   5.272
 8471SOL    HW126312   3.771   2.341   5.286
 8471SOL    HW226313   3.655   2.248   5.219
 8472SOL     OW26314   5.743   1.772   5.936
 8472SOL    HW126315   5.678   1.697   5.947
 8472SOL    HW226316   5.705   1.856   5.972
 8473SOL     OW26317   4.751   4.400   6.229
 8473SOL    HW126318   4.675   4.376   6.169
 8473SOL    HW226319   4.825   4.440   6.174
 8474SOL     OW26320   3.819   3.568   2.794
 8474SOL    HW126321   3.831   3.661   2.761
 8474SOL    HW226322   3.863   3.559   2.883
 8475SOL     OW26323   6.593   2.552   1.877
 8475SOL    HW126324   6.560   2.517   1.965
 8475SOL    HW226325   6.588   2.652   1.877
 8476SOL     OW26326   6.256   0.034   1.759
 8476SOL    HW126327   6.259   0.134   1.766
 8476SOL    HW226328   6.164   0.002   1.783
 8477SOL     OW26329   5.703   6.597   1.577
 8477SOL    HW126330   5.668   6.524   1.518
 8477SOL    HW226331   5.632   6.665   1.592
 8478SOL     OW26332   6.648   7.004   5.111
 8478SOL    HW126333   6.644   6.974   5.206
 8478SOL    HW226334   6.617   6.930   5.051
 8479SOL     OW26335   1.037   2.247   1.698
 8479SOL    HW126336   1.033   2.148   1.688
 8479SOL    HW226337   0.945   2.284   1.709
 8480SOL     OW26338   4.912   4.475   0.301
 8480SOL    HW126339   4.948   4.494   0.393
 8480SOL    HW226340   4.939   4.383   0.274
 8481SOL     OW26341   3.853   2.104   3.842
 8481SOL    HW126342   3.940   2.151   3.829
 8481SOL    HW226343   3.820   2.069   3.754
 8482SOL     OW26344   4.583   1.388   0.102
 8482SOL    HW126345   4.512   1.347   0.044
 8482SOL    HW226346   4.665   1.406   0.047
 8483SOL     OW26347   3.015   5.698   3.349
 8483SOL    HW126348   3.113   5.702   3.329
 8483SOL    HW226349   3.000   5.641   3.430
 8484SOL     OW26350   5.463   6.145   3.989
 8484SOL    HW126351   5.556   6.134   3.955
 8484SOL    HW226352   5.416   6.214   3.935
 8485SOL     OW26353   2.750   2.044   0.204
 8485SOL    HW126354   2.797   2.126   0.237
 8485SOL    HW226355   2.669   2.071   0.151
 8486SOL     OW26356   0.990   0.865   2.587
 8486SOL    HW126357   1.080   0.907   2.603
 8486SOL    HW226358   0.976   0.791   2.654
 8487SOL     OW26359   6.247   1.690   5.740
 8487SOL    HW126360   6.181   1.736   5.800
 8487SOL    HW226361   6.272   1.602   5.780
 8488SOL     OW26362   4.965   4.896   1.613
 8488SOL    HW126363   5.020   4.866   1.691
 8488SOL    HW226364   5.026   4.922   1.537
 8489SOL     OW26365   5.106   1.033   1.310
 8489SOL    HW126366   5.062   0.991   1.231
 8489SOL    HW226367   5.152   0.962   1.363
 8490SOL     OW26368   2.380   0.336   6.795
 8490SOL    HW126369   2.341   0.258   6.746
 8490SOL    HW226370   2.391   0.412   6.731
 8491SOL     OW26371   3.080   5.532   2.417
 8491SOL    HW126372   3.169   5.560   2.381
 8491SOL    HW226373   3.092   5.486   2.505
 8492SOL     OW26374   5.627   5.483   4.316
 8492SOL    HW126375   5.650   5.562   4.373
 8492SOL    HW226376   5.545   5.502   4.262
 8493SOL     OW26377   3.900   0.154   0.246
 8493SOL    HW126378   3.925   0.234   0.301
 8493SOL    HW226379   3.801   0.139   0.253
 8494SOL     OW26380   5.641   5.291   2.210
 8494SOL    HW126381   5.740   5.283   2.199
 8494SOL    HW226382   5.601   5.329   2.126
 8495SOL     OW26383   6.848   5.756   0.176
 8495SOL    HW126384   6.927   5.703   0.205
 8495SOL    HW226385   6.775   5.694   0.148
 8496SOL     OW26386   5.047   1.896   2.664
 8496SOL    HW126387   5.016   1.949   2.743
 8496SOL    HW226388   5.004   1.932   2.581
 8497SOL     OW26389   6.450   0.703   3.682
 8497SOL    HW126390   6.451   0.802   3.675
 8497SOL    HW226391   6.441   0.676   3.778
 8498SOL     OW26392   4.849   0.331   4.513
 8498SOL    HW126393   4.876   0.276   4.591
 8498SOL    HW226394   4.906   0.308   4.434
 8499SOL     OW26395   6.391   6.413   6.480
 8499SOL    HW126396   6.296   6.397   6.509
 8499SOL    HW226397   6.394   6.426   6.381
 8500SOL     OW26398   1.752   0.757   5.225
 8500SOL    HW126399   1.852   0.760   5.235
 8500SOL    HW226400   1.715   0.848   5.241
 8501SOL     OW26401   0.656   1.633   6.316
 8501SOL    HW126402   0.559   1.623   6.337
 8501SOL    HW226403   0.691   1.547   6.278
 8502SOL     OW26404   0.497   2.811   6.793
 8502SOL    HW126405   0.507   2.906   6.824
 8502SOL    HW226406   0.474   2.753   6.871
 8503SOL     OW26407   5.834   6.622   4.170
 8503SOL    HW126408   5.811   6.526   4.157
 8503SOL    HW226409   5.835   6.643   4.268
 8504SOL     OW26410   2.088   5.083   2.868
 8504SOL    HW126411   2.052   5.068   2.776
 8504SOL    HW226412   2.071   5.002   2.924
 8505SOL     OW26413   5.320   2.954   2.653
 8505SOL    HW126414   5.348   3.027   2.716
 8505SOL    HW226415   5.231   2.977   2.613
 8506SOL     OW26416   2.369   0.103   0.178
 8506SOL    HW126417   2.462   0.139   0.188
 8506SOL    HW226418   2.325   0.098   0.267
 8507SOL     OW26419   4.470   5.725   5.300
 8507SOL    HW126420   4.412   5.644   5.294
 8507SOL    HW226421   4.414   5.807   5.292
 8508SOL     OW26422   3.924   1.912   0.275
 8508SOL    HW126423   3.855   1.840   0.283
 8508SOL    HW226424   3.884   1.992   0.228
 8509SOL     OW26425   5.271   0.625   3.409
 8509SOL    HW126426   5.284   0.615   3.508
 8509SOL    HW226427   5.360   0.632   3.365
 8510SOL     OW26428   6.520   1.743   4.494
 8510SOL    HW126429   6.532   1.817   4.561
 8510SOL    HW226430   6.537   1.656   4.539
 8511SOL     OW26431   6.200   2.760   1.782
 8511SOL    HW126432   6.242   2.672   1.760
 8511SOL    HW226433   6.180   2.810   1.697
 8512SOL     OW26434   1.420   6.758   4.785
 8512SOL    HW126435   1.394   6.674   4.736
 8512SOL    HW226436   1.425   6.833   4.720
 8513SOL     OW26437   5.800   6.197   6.281
 8513SOL    HW126438   5.843   6.207   6.371
 8513SOL    HW226439   5.733   6.270   6.269
 8514SOL     OW26440   2.503   6.100   4.511
 8514SOL    HW126441   2.464   6.101   4.418
 8514SOL    HW226442   2.429   6.085   4.577
 8515SOL     OW26443   4.898   2.329   1.720
 8515SOL    HW126444   4.822   2.289   1.770
 8515SOL    HW226445   4.946   2.394   1.778
 8516SOL     OW26446   6.916   2.394   2.003
 8516SOL    HW126447   6.878   2.477   2.043
 8516SOL    HW226448   7.006   2.414   1.963
 8517SOL     OW26449   2.254   2.595   6.311
 8517SOL    HW126450   2.238   2.526   6.240
 8517SOL    HW226451   2.167   2.619   6.354
 8518SOL     OW26452   3.709   5.666   0.715
 8518SOL    HW126453   3.687   5.572   0.690
 8518SOL    HW226454   3.678   5.684   0.808
 8519SOL     OW26455   0.761   5.998   3.015
 8519SOL    HW126456   0.682   6.046   2.974
 8519SOL    HW226457   0.844   6.049   2.995
 8520SOL     OW26458   3.824   0.753   6.987
 8520SOL    HW126459   3.747   0.711   0.010
 8520SOL    HW226460   3.871   0.683   6.933
 8521SOL     OW26461   1.225   6.257   6.162
 8521SOL    HW126462   1.308   6.235   6.110
 8521SOL    HW226463   1.249   6.312   6.242
 8522SOL     OW26464   1.188   5.865   5.166
 8522SOL    HW126465   1.263   5.819   5.212
 8522SOL    HW226466   1.202   5.862   5.067
 8523SOL     OW26467   1.083   6.954   6.925
 8523SOL    HW126468   1.118   6.998   7.007
 8523SOL    HW226469   1.085   6.854   6.937
 8524SOL     OW26470   1.292   3.127   6.473
 8524SOL    HW126471   1.280   3.121   6.374
 8524SOL    HW226472   1.296   3.224   6.500
 8525SOL     OW26473   6.126   3.086   3.233
 8525SOL    HW126474   6.111   3.015   3.302
 8525SOL    HW226475   6.085   3.172   3.265
 8526SOL     OW26476   2.209   2.936   2.547
 8526SOL    HW126477   2.177   3.011   2.489
 8526SOL    HW226478   2.165   2.942   2.637
 8527SOL     OW26479   4.356   0.895   4.419
 8527SOL    HW126480   4.284   0.869   4.354
 8527SOL    HW226481   4.434   0.834   4.408
 8528SOL     OW26482   5.118   2.788   6.229
 8528SOL    HW126483   5.050   2.766   6.159
 8528SOL    HW226484   5.115   2.887   6.247
 8529SOL     OW26485   0.392   4.461   0.161
 8529SOL    HW126486   0.474   4.487   0.109
 8529SOL    HW226487   0.370   4.533   0.226
 8530SOL     OW26488   1.929   3.633   5.381
 8530SOL    HW126489   1.953   3.730   5.393
 8530SOL    HW226490   1.876   3.622   5.297
 8531SOL     OW26491   4.975   4.297   2.245
 8531SOL    HW126492   5.040   4.342   2.306
 8531SOL    HW226493   4.885   4.339   2.255
 8532SOL     OW26494   2.909   4.156   6.119
 8532SOL    HW126495   2.860   4.242   6.108
 8532SOL    HW226496   2.933   4.143   6.215
 8533SOL     OW26497   3.442   0.676   4.861
 8533SOL    HW126498   3.347   0.653   4.879
 8533SOL    HW226499   3.453   0.775   4.856
 8534SOL     OW26500   1.499   2.557   3.007
 8534SOL    HW126501   1.588   2.547   2.963
 8534SOL    HW226502   1.436   2.603   2.945
 8535SOL     OW26503   0.326   2.309   4.952
 8535SOL    HW126504   0.405   2.295   5.012
 8535SOL    HW226505   0.292   2.403   4.962
 8536SOL     OW26506   0.301   1.750   6.059
 8536SOL    HW126507   0.350   1.766   5.973
 8536SOL    HW226508   0.357   1.782   6.136
 8537SOL     OW26509   5.568   0.332   2.331
 8537SOL    HW126510   5.568   0.235   2.355
 8537SOL    HW226511   5.521   0.345   2.244
 8538SOL     OW26512   5.833   0.897   4.457
 8538SOL    HW126513   5.746   0.935   4.487
 8538SOL    HW226514   5.817   0.814   4.404
 8539SOL     OW26515   0.229   3.284   1.902
 8539SOL    HW126516   0.218   3.287   2.002
 8539SOL    HW226517   0.177   3.207   1.865
 8540SOL     OW26518   4.313   0.081   0.150
 8540SOL    HW126519   4.367   0.088   0.234
 8540SOL    HW226520   4.304   7.010   0.124
 8541SOL     OW26521   3.040   0.693   5.164
 8541SOL    HW126522   3.034   0.758   5.240
 8541SOL    HW226523   2.962   0.631   5.167
 8542SOL     OW26524   1.826   4.585   6.752
 8542SOL    HW126525   1.878   4.536   6.681
 8542SOL    HW226526   1.728   4.571   6.736
 8543SOL     OW26527   2.400   2.055   6.235
 8543SOL    HW126528   2.441   2.099   6.315
 8543SOL    HW226529   2.341   1.980   6.264
 8544SOL     OW26530   5.268   3.726   5.020
 8544SOL    HW126531   5.212   3.801   4.986
 8544SOL    HW226532   5.273   3.730   5.120
 8545SOL     OW26533   3.097   0.648   6.461
 8545SOL    HW126534   3.184   0.663   6.509
 8545SOL    HW226535   3.115   0.612   6.370
 8546SOL     OW26536   5.619   0.107   1.161
 8546SOL    HW126537   5.665   0.125   1.248
 8546SOL    HW226538   5.561   0.027   1.170
 8547SOL     OW26539   6.121   6.211   5.376
 8547SOL    HW126540   6.177   6.258   5.445
 8547SOL    HW226541   6.090   6.124   5.412
 8548SOL     OW26542   0.613   3.082   5.989
 8548SOL    HW126543   0.553   3.059   5.913
 8548SOL    HW226544   0.685   3.013   5.996
 8549SOL     OW26545   1.761   0.637   3.018
 8549SOL    HW126546   1.685   0.662   2.959
 8549SOL    HW226547   1.814   0.564   2.974
 8550SOL     OW26548   6.700   4.346   6.436
 8550SOL    HW126549   6.607   4.362   6.404
 8550SOL    HW226550   6.699   4.318   6.532
 8551SOL     OW26551   2.044   1.355   6.398
 8551SOL    HW126552   2.039   1.339   6.496
 8551SOL    HW226553   2.035   1.267   6.350
 8552SOL     OW26554   2.753   1.974   2.843
 8552SOL    HW126555   2.833   2.034   2.852
 8552SOL    HW226556   2.782   1.879   2.858
 8553SOL     OW26557   5.321   3.147   6.770
 8553SOL    HW126558   5.264   3.067   6.751
 8553SOL    HW226559   5.323   3.163   6.869
 8554SOL     OW26560   1.284   0.732   0.470
 8554SOL    HW126561   1.201   0.787   0.481
 8554SOL    HW226562   1.334   0.763   0.389
 8555SOL     OW26563   4.628   1.344   3.985
 8555SOL    HW126564   4.718   1.385   3.971
 8555SOL    HW226565   4.629   1.248   3.956
 8556SOL     OW26566   1.713   6.058   0.826
 8556SOL    HW126567   1.752   6.140   0.868
 8556SOL    HW226568   1.641   6.085   0.762
 8557SOL     OW26569   0.176   0.724   0.418
 8557SOL    HW126570   0.244   0.652   0.433
 8557SOL    HW226571   0.193   0.768   0.330
 8558SOL     OW26572   2.701   5.659   4.170
 8558SOL    HW126573   2.655   5.747   4.176
 8558SOL    HW226574   2.768   5.651   4.244
 8559SOL     OW26575   1.283   5.565   2.822
 8559SOL    HW126576   1.349   5.500   2.862
 8559SOL    HW226577   1.191   5.543   2.854
 8560SOL     OW26578   2.969   4.217   1.755
 8560SOL    HW126579   2.996   4.160   1.833
 8560SOL    HW226580   2.940   4.307   1.789
 8561SOL     OW26581   4.403   6.628   2.171
 8561SOL    HW126582   4.489   6.679   2.178
 8561SOL    HW226583   4.337   6.664   2.236
 8562SOL     OW26584   4.689   1.633   6.766
 8562SOL    HW126585   4.757   1.560   6.775
 8562SOL    HW226586   4.597   1.594   6.773
 8563SOL     OW26587   2.465   4.928   2.099
 8563SOL    HW126588   2.531   4.955   2.169
 8563SOL    HW226589   2.512   4.879   2.026
 8564SOL     OW26590   4.635   0.114   6.701
 8564SOL    HW126591   4.700   0.177   6.743
 8564SOL    HW226592   4.544   0.132   6.737
 8565SOL     OW26593   2.328   5.177   0.903
 8565SOL    HW126594   2.328   5.152   0.806
 8565SOL    HW226595   2.261   5.248   0.920
 8566SOL     OW26596   3.259   1.107   2.955
 8566SOL    HW126597   3.348   1.074   2.986
 8566SOL    HW226598   3.271   1.163   2.873
 8567SOL     OW26599   2.287   2.598   1.670
 8567SOL    HW126600   2.267   2.526   1.603
 8567SOL    HW226601   2.267   2.563   1.762
 8568SOL     OW26602   6.584   0.798   6.677
 8568SOL    HW126603   6.634   0.879   6.707
 8568SOL    HW226604   6.496   0.794   6.723
 8569SOL     OW26605   4.577   2.165   6.365
 8569SOL    HW126606   4.617   2.104   6.296
 8569SOL    HW226607   4.645   2.187   6.434
 8570SOL     OW26608   1.432   2.685   3.717
 8570SOL    HW126609   1.474   2.693   3.627
 8570SOL    HW226610   1.502   2.663   3.785
 8571SOL     OW26611   1.733   0.835   2.790
 8571SOL    HW126612   1.727   0.761   2.724
 8571SOL    HW226613   1.664   0.822   2.862
 8572SOL     OW26614   2.978   4.098   5.747
 8572SOL    HW126615   2.905   4.067   5.685
 8572SOL    HW226616   2.948   4.181   5.794
 8573SOL     OW26617   3.728   5.985   0.660
 8573SOL    HW126618   3.705   5.888   0.647
 8573SOL    HW226619   3.675   6.041   0.596
 8574SOL     OW26620   5.273   0.425   4.730
 8574SOL    HW126621   5.298   0.391   4.639
 8574SOL    HW226622   5.175   0.444   4.733
 8575SOL     OW26623   3.043   6.348   3.317
 8575SOL    HW126624   3.028   6.406   3.237
 8575SOL    HW226625   2.967   6.362   3.381
 8576SOL     OW26626   0.818   4.919   3.264
 8576SOL    HW126627   0.873   4.924   3.348
 8576SOL    HW226628   0.876   4.885   3.189
 8577SOL     OW26629   1.433   1.759   0.357
 8577SOL    HW126630   1.488   1.767   0.274
 8577SOL    HW226631   1.341   1.795   0.339
 8578SOL     OW26632   0.074   6.986   5.823
 8578SOL    HW126633   0.095   0.016   5.904
 8578SOL    HW226634   0.094   0.014   5.741
 8579SOL     OW26635   3.252   6.464   3.081
 8579SOL    HW126636   3.302   6.379   3.101
 8579SOL    HW226637   3.217   6.460   2.988
 8580SOL     OW26638   2.512   0.618   1.630
 8580SOL    HW126639   2.423   0.579   1.654
 8580SOL    HW226640   2.576   0.600   1.705
 8581SOL     OW26641   3.046   4.590   1.400
 8581SOL    HW126642   3.060   4.662   1.331
 8581SOL    HW226643   3.062   4.627   1.491
 8582SOL     OW26644   3.948   4.323   5.807
 8582SOL    HW126645   3.884   4.349   5.735
 8582SOL    HW226646   3.897   4.294   5.888
 8583SOL     OW26647   4.521   0.615   2.862
 8583SOL    HW126648   4.602   0.575   2.820
 8583SOL    HW226649   4.548   0.674   2.938
 8584SOL     OW26650   6.748   1.448   4.244
 8584SOL    HW126651   6.677   1.417   4.308
 8584SOL    HW226652   6.715   1.529   4.194
 8585SOL     OW26653   5.481   2.264   2.591
 8585SOL    HW126654   5.406   2.307   2.541
 8585SOL    HW226655   5.494   2.171   2.557
 8586SOL     OW26656   6.115   5.834   1.185
 8586SOL    HW126657   6.092   5.806   1.091
 8586SOL    HW226658   6.215   5.840   1.194
 8587SOL     OW26659   1.667   1.524   6.436
 8587SOL    HW126660   1.754   1.550   6.393
 8587SOL    HW226661   1.681   1.443   6.493
 8588SOL     OW26662   2.823   1.332   0.191
 8588SOL    HW126663   2.878   1.250   0.174
 8588SOL    HW226664   2.883   1.407   0.219
 8589SOL     OW26665   6.653   2.878   6.262
 8589SOL    HW126666   6.594   2.860   6.184
 8589SOL    HW226667   6.624   2.963   6.307
 8590SOL     OW26668   1.397   1.380   3.206
 8590SOL    HW126669   1.449   1.459   3.174
 8590SOL    HW226670   1.311   1.372   3.155
 8591SOL     OW26671   6.518   4.293   6.816
 8591SOL    HW126672   6.458   4.372   6.801
 8591SOL    HW226673   6.491   4.247   6.901
 8592SOL     OW26674   1.434   1.411   6.241
 8592SOL    HW126675   1.519   1.462   6.247
 8592SOL    HW226676   1.441   1.329   6.299
 8593SOL     OW26677   3.647   1.367   6.413
 8593SOL    HW126678   3.550   1.344   6.422
 8593SOL    HW226679   3.700   1.283   6.401
 8594SOL     OW26680   6.374   2.862   5.703
 8594SOL    HW126681   6.425   2.948   5.696
 8594SOL    HW226682   6.313   2.854   5.625
 8595SOL     OW26683   6.013   6.222   2.118
 8595SOL    HW126684   6.058   6.133   2.130
 8595SOL    HW226685   6.069   6.294   2.159
 8596SOL     OW26686   1.109   1.439   3.605
 8596SOL    HW126687   1.041   1.399   3.667
 8596SOL    HW226688   1.176   1.369   3.580
 8597SOL     OW26689   5.918   2.956   0.048
 8597SOL    HW126690   5.926   3.027   7.003
 8597SOL    HW226691   5.905   2.867   0.004
 8598SOL     OW26692   6.204   6.786   3.967
 8598SOL    HW126693   6.214   6.721   4.042
 8598SOL    HW226694   6.141   6.748   3.899
 8599SOL     OW26695   0.543   3.246   3.935
 8599SOL    HW126696   0.461   3.300   3.917
 8599SOL    HW226697   0.575   3.204   3.849
 8600SOL     OW26698   3.963   2.073   1.426
 8600SOL    HW126699   3.865   2.065   1.409
 8600SOL    HW226700   4.006   1.983   1.418
 8601SOL     OW26701   0.978   6.800   3.216
 8601SOL    HW126702   0.885   6.775   3.191
 8601SOL    HW226703   1.039   6.723   3.197
 8602SOL     OW26704   1.908   6.971   4.953
 8602SOL    HW126705   1.956   6.897   4.999
 8602SOL    HW226706   1.927   0.033   5.000
 8603SOL     OW26707   0.072   0.678   0.653
 8603SOL    HW126708   0.105   0.679   0.559
 8603SOL    HW226709   7.003   0.643   0.655
 8604SOL     OW26710   0.544   4.202   6.419
 8604SOL    HW126711   0.583   4.291   6.395
 8604SOL    HW226712   0.451   4.196   6.383
 8605SOL     OW26713   6.792   5.239   4.582
 8605SOL    HW126714   6.791   5.194   4.493
 8605SOL    HW226715   6.829   5.331   4.573
 8606SOL     OW26716   1.895   2.883   0.194
 8606SOL    HW126717   1.801   2.879   0.160
 8606SOL    HW226718   1.955   2.915   0.120
 8607SOL     OW26719   2.593   4.169   1.533
 8607SOL    HW126720   2.650   4.188   1.612
 8607SOL    HW226721   2.500   4.200   1.551
 8608SOL     OW26722   2.194   5.324   3.107
 8608SOL    HW126723   2.209   5.226   3.094
 8608SOL    HW226724   2.254   5.358   3.179
 8609SOL     OW26725   4.574   1.055   4.013
 8609SOL    HW126726   4.542   1.046   3.919
 8609SOL    HW226727   4.648   0.989   4.029
 8610SOL     OW26728   0.822   6.375   2.862
 8610SOL    HW126729   0.880   6.312   2.914
 8610SOL    HW226730   0.774   6.324   2.791
 8611SOL     OW26731   2.728   1.380   4.699
 8611SOL    HW126732   2.649   1.435   4.672
 8611SOL    HW226733   2.697   1.293   4.736
 8612SOL     OW26734   3.875   3.918   3.705
 8612SOL    HW126735   3.855   3.982   3.779
 8612SOL    HW226736   3.964   3.875   3.720
 8613SOL     OW26737   3.486   2.883   1.274
 8613SOL    HW126738   3.461   2.974   1.306
 8613SOL    HW226739   3.424   2.815   1.314
 8614SOL     OW26740   1.198   2.485   3.096
 8614SOL    HW126741   1.283   2.434   3.084
 8614SOL    HW226742   1.219   2.579   3.122
 8615SOL     OW26743   4.310   1.242   3.742
 8615SOL    HW126744   4.360   1.307   3.799
 8615SOL    HW226745   4.221   1.223   3.783
 8616SOL     OW26746   4.367   4.561   2.686
 8616SOL    HW126747   4.302   4.624   2.643
 8616SOL    HW226748   4.435   4.532   2.619
 8617SOL     OW26749   3.630   0.022   3.619
 8617SOL    HW126750   3.718   0.067   3.630
 8617SOL    HW226751   3.631   6.960   3.670
 8618SOL     OW26752   5.712   4.070   0.926
 8618SOL    HW126753   5.789   4.087   0.865
 8618SOL    HW226754   5.644   4.143   0.916
 8619SOL     OW26755   5.084   4.556   0.804
 8619SOL    HW126756   5.151   4.629   0.819
 8619SOL    HW226757   5.123   4.468   0.833
 8620SOL     OW26758   1.915   0.248   4.381
 8620SOL    HW126759   1.836   0.239   4.441
 8620SOL    HW226760   1.999   0.250   4.435
 8621SOL     OW26761   5.123   2.771   1.322
 8621SOL    HW126762   5.056   2.708   1.359
 8621SOL    HW226763   5.191   2.793   1.392
 8622SOL     OW26764   6.459   4.659   2.857
 8622SOL    HW126765   6.483   4.675   2.953
 8622SOL    HW226766   6.534   4.690   2.798
 8623SOL     OW26767   0.423   3.536   4.514
 8623SOL    HW126768   0.421   3.553   4.612
 8623SOL    HW226769   0.330   3.516   4.482
 8624SOL     OW26770   2.772   4.025   5.566
 8624SOL    HW126771   2.735   3.960   5.631
 8624SOL    HW226772   2.796   3.978   5.481
 8625SOL     OW26773   3.644   2.218   5.904
 8625SOL    HW126774   3.545   2.230   5.903
 8625SOL    HW226775   3.677   2.209   5.810
 8626SOL     OW26776   4.286   4.379   0.761
 8626SOL    HW126777   4.279   4.462   0.705
 8626SOL    HW226778   4.197   4.357   0.800
 8627SOL     OW26779   1.981   0.487   2.418
 8627SOL    HW126780   1.985   0.461   2.322
 8627SOL    HW226781   2.071   0.473   2.460
 8628SOL     OW26782   0.817   6.572   0.735
 8628SOL    HW126783   0.757   6.639   0.691
 8628SOL    HW226784   0.771   6.534   0.815
 8629SOL     OW26785   6.737   6.956   4.627
 8629SOL    HW126786   6.786   0.015   4.653
 8629SOL    HW226787   6.721   6.957   4.529
 8630SOL     OW26788   5.080   2.856   2.086
 8630SOL    HW126789   5.100   2.774   2.141
 8630SOL    HW226790   5.018   2.915   2.136
 8631SOL     OW26791   3.188   6.768   0.169
 8631SOL    HW126792   3.103   6.778   0.220
 8631SOL    HW226793   3.252   6.709   0.219
 8632SOL     OW26794   4.925   4.898   6.100
 8632SOL    HW126795   4.916   4.846   6.184
 8632SOL    HW226796   5.022   4.910   6.078
 8633SOL     OW26797   5.550   3.688   6.453
 8633SOL    HW126798   5.512   3.611   6.504
 8633SOL    HW226799   5.600   3.748   6.516
 8634SOL     OW26800   5.128   4.136   0.516
 8634SOL    HW126801   5.035   4.158   0.544
 8634SOL    HW226802   5.141   4.161   0.420
 8635SOL     OW26803   5.733   2.526   6.355
 8635SOL    HW126804   5.637   2.534   6.331
 8635SOL    HW226805   5.772   2.617   6.369
 8636SOL     OW26806   5.212   6.571   1.280
 8636SOL    HW126807   5.140   6.617   1.331
 8636SOL    HW226808   5.243   6.491   1.331
 8637SOL     OW26809   2.028   1.752   6.963
 8637SOL    HW126810   2.078   1.682   6.911
 8637SOL    HW226811   1.948   1.782   6.910
 8638SOL     OW26812   4.819   2.453   4.753
 8638SOL    HW126813   4.865   2.411   4.831
 8638SOL    HW226814   4.884   2.461   4.677
 8639SOL     OW26815   3.475   3.988   6.647
 8639SOL    HW126816   3.512   4.068   6.599
 8639SOL    HW226817   3.548   3.946   6.702
 8640SOL     OW26818   2.386   3.641   1.442
 8640SOL    HW126819   2.451   3.716   1.443
 8640SOL    HW226820   2.360   3.618   1.536
 8641SOL     OW26821   4.329   5.959   2.330
 8641SOL    HW126822   4.269   5.920   2.261
 8641SOL    HW226823   4.425   5.942   2.305
 8642SOL     OW26824   0.413   5.857   3.852
 8642SOL    HW126825   0.449   5.917   3.781
 8642SOL    HW226826   0.446   5.764   3.837
 8643SOL     OW26827   4.110   6.614   0.779
 8643SOL    HW126828   4.163   6.579   0.856
 8643SOL    HW226829   4.171   6.638   0.704
 8644SOL     OW26830   6.098   1.783   0.011
 8644SOL    HW126831   6.154   1.862   0.037
 8644SOL    HW226832   6.056   1.744   0.094
 8645SOL     OW26833   6.000   3.416   2.535
 8645SOL    HW126834   6.054   3.408   2.618
 8645SOL    HW226835   6.059   3.445   2.459
 8646SOL     OW26836   0.219   1.843   5.013
 8646SOL    HW126837   0.186   1.922   5.064
 8646SOL    HW226838   0.312   1.821   5.042
 8647SOL     OW26839   2.237   4.968   2.230
 8647SOL    HW126840   2.195   5.031   2.164
 8647SOL    HW226841   2.321   4.930   2.191
 8648SOL     OW26842   5.211   5.619   0.560
 8648SOL    HW126843   5.130   5.633   0.503
 8648SOL    HW226844   5.288   5.670   0.522
 8649SOL     OW26845   4.147   0.234   1.487
 8649SOL    HW126846   4.051   0.259   1.502
 8649SOL    HW226847   4.206   0.306   1.522
 8650SOL     OW26848   1.922   7.010   4.527
 8650SOL    HW126849   1.887   0.078   4.513
 8650SOL    HW226850   1.869   6.964   4.598
 8651SOL     OW26851   3.599   2.094   0.770
 8651SOL    HW126852   3.566   2.136   0.854
 8651SOL    HW226853   3.577   1.996   0.771
 8652SOL     OW26854   1.358   3.489   3.517
 8652SOL    HW126855   1.421   3.561   3.488
 8652SOL    HW226856   1.406   3.423   3.574
 8653SOL     OW26857   0.061   1.607   6.029
 8653SOL    HW126858   0.140   1.659   6.061
 8653SOL    HW226859   7.008   1.626   6.089
 8654SOL     OW26860   0.738   4.225   1.738
 8654SOL    HW126861   0.720   4.197   1.832
 8654SOL    HW226862   0.835   4.249   1.729
 8655SOL     OW26863   0.793   0.494   5.249
 8655SOL    HW126864   0.869   0.443   5.288
 8655SOL    HW226865   0.797   0.489   5.149
 8656SOL     OW26866   4.754   0.113   1.100
 8656SOL    HW126867   4.676   0.064   1.063
 8656SOL    HW226868   4.810   0.149   1.025
 8657SOL     OW26869   4.657   1.496   2.910
 8657SOL    HW126870   4.641   1.435   2.832
 8657SOL    HW226871   4.668   1.590   2.877
 8658SOL     OW26872   7.008   4.822   0.899
 8658SOL    HW126873   7.011   4.863   0.990
 8658SOL    HW226874   0.041   4.741   0.896
 8659SOL     OW26875   4.299   1.144   2.295
 8659SOL    HW126876   4.354   1.226   2.312
 8659SOL    HW226877   4.241   1.126   2.374
 8660SOL     OW26878   6.664   3.971   1.335
 8660SOL    HW126879   6.638   4.061   1.371
 8660SOL    HW226880   6.594   3.904   1.359
 8661SOL     OW26881   6.817   3.235   3.054
 8661SOL    HW126882   6.858   3.145   3.070
 8661SOL    HW226883   6.884   3.295   3.010
 8662SOL     OW26884   2.537   4.827   3.271
 8662SOL    HW126885   2.513   4.730   3.269
 8662SOL    HW226886   2.625   4.840   3.225
 8663SOL     OW26887   3.688   5.764   3.050
 8663SOL    HW126888   3.710   5.763   2.953
 8663SOL    HW226889   3.753   5.822   3.099
 8664SOL     OW26890   3.052   5.651   4.156
 8664SOL    HW126891   3.080   5.575   4.097
 8664SOL    HW226892   3.009   5.615   4.238
 8665SOL     OW26893   5.340   3.065   6.265
 8665SOL    HW126894   5.373   3.159   6.270
 8665SOL    HW226895   5.418   3.002   6.264
 8666SOL     OW26896   4.532   6.382   2.535
 8666SOL    HW126897   4.506   6.390   2.439
 8666SOL    HW226898   4.606   6.447   2.554
 8667SOL     OW26899   5.184   1.942   3.781
 8667SOL    HW126900   5.203   2.025   3.729
 8667SOL    HW226901   5.163   1.867   3.718
 8668SOL     OW26902   4.760   2.681   5.319
 8668SOL    HW126903   4.798   2.588   5.323
 8668SOL    HW226904   4.700   2.690   5.240
 8669SOL     OW26905   5.955   6.278   5.794
 8669SOL    HW126906   6.045   6.303   5.829
 8669SOL    HW226907   5.955   6.182   5.768
 8670SOL     OW26908   6.211   4.320   5.716
 8670SOL    HW126909   6.115   4.301   5.691
 8670SOL    HW226910   6.256   4.234   5.741
 8671SOL     OW26911   6.962   1.848   2.552
 8671SOL    HW126912   6.906   1.930   2.566
 8671SOL    HW226913   0.022   1.873   2.507
 8672SOL     OW26914   0.728   1.222   3.439
 8672SOL    HW126915   0.754   1.156   3.368
 8672SOL    HW226916   0.809   1.271   3.471
 8673SOL     OW26917   0.868   1.425   1.135
 8673SOL    HW126918   0.785   1.382   1.171
 8673SOL    HW226919   0.926   1.354   1.094
 8674SOL     OW26920   6.515   4.699   3.346
 8674SOL    HW126921   6.461   4.783   3.347
 8674SOL    HW226922   6.457   4.621   3.372
 8675SOL     OW26923   3.660   1.734   5.907
 8675SOL    HW126924   3.746   1.769   5.869
 8675SOL    HW226925   3.589   1.736   5.835
 8676SOL     OW26926   5.499   0.798   0.482
 8676SOL    HW126927   5.474   0.703   0.504
 8676SOL    HW226928   5.598   0.805   0.476
 8677SOL     OW26929   1.610   6.510   5.964
 8677SOL    HW126930   1.562   6.511   6.051
 8677SOL    HW226931   1.545   6.488   5.891
 8678SOL     OW26932   1.677   1.324   1.124
 8678SOL    HW126933   1.622   1.291   1.201
 8678SOL    HW226934   1.724   1.247   1.081
 8679SOL     OW26935   2.184   1.266   4.460
 8679SOL    HW126936   2.226   1.243   4.372
 8679SOL    HW226937   2.088   1.290   4.445
 8680SOL     OW26938   6.424   2.004   6.419
 8680SOL    HW126939   6.433   1.948   6.337
 8680SOL    HW226940   6.341   2.059   6.414
 8681SOL     OW26941   5.563   5.703   1.961
 8681SOL    HW126942   5.604   5.779   1.910
 8681SOL    HW226943   5.561   5.621   1.904
 8682SOL     OW26944   1.100   0.877   1.076
 8682SOL    HW126945   1.009   0.917   1.086
 8682SOL    HW226946   1.114   0.851   0.980
 8683SOL     OW26947   2.014   4.280   4.481
 8683SOL    HW126948   2.101   4.232   4.487
 8683SOL    HW226949   2.013   4.355   4.547
 8684SOL     OW26950   1.142   3.829   4.957
 8684SOL    HW126951   1.100   3.758   5.013
 8684SOL    HW226952   1.141   3.916   5.008
 8685SOL     OW26953   5.075   2.542   5.178
 8685SOL    HW126954   5.011   2.485   5.228
 8685SOL    HW226955   5.045   2.638   5.181
 8686SOL     OW26956   6.994   5.538   2.740
 8686SOL    HW126957   6.971   5.633   2.761
 8686SOL    HW226958   6.918   5.479   2.767
 8687SOL     OW26959   6.030   3.182   4.471
 8687SOL    HW126960   5.933   3.161   4.458
 8687SOL    HW226961   6.085   3.105   4.440
 8688SOL     OW26962   0.998   4.575   6.391
 8688SOL    HW126963   1.086   4.581   6.437
 8688SOL    HW226964   0.925   4.592   6.457
 8689SOL     OW26965   4.859   3.831   6.842
 8689SOL    HW126966   4.803   3.778   6.778
 8689SOL    HW226967   4.933   3.875   6.792
 8690SOL     OW26968   1.798   2.411   3.676
 8690SOL    HW126969   1.760   2.404   3.583
 8690SOL    HW226970   1.792   2.322   3.721
 8691SOL     OW26971   2.931   2.355   5.370
 8691SOL    HW126972   3.007   2.379   5.309
 8691SOL    HW226973   2.962   2.359   5.464
 8692SOL     OW26974   4.176   1.839   5.706
 8692SOL    HW126975   4.201   1.753   5.661
 8692SOL    HW226976   4.226   1.915   5.663
 8693SOL     OW26977   6.702   0.034   6.208
 8693SOL    HW126978   6.699   0.092   6.127
 8693SOL    HW226979   6.621   0.051   6.264
 8694SOL     OW26980   5.719   3.021   4.229
 8694SOL    HW126981   5.700   3.111   4.268
 8694SOL    HW226982   5.765   3.031   4.141
 8695SOL     OW26983   3.771   4.210   6.003
 8695SOL    HW126984   3.762   4.118   5.966
 8695SOL    HW226985   3.819   4.206   6.091
 8696SOL     OW26986   3.331   5.746   6.378
 8696SOL    HW126987   3.237   5.710   6.376
 8696SOL    HW226988   3.386   5.692   6.442
 8697SOL     OW26989   1.581   3.647   5.680
 8697SOL    HW126990   1.568   3.565   5.736
 8697SOL    HW226991   1.578   3.622   5.583
 8698SOL     OW26992   5.661   5.714   5.240
 8698SOL    HW126993   5.652   5.628   5.191
 8698SOL    HW226994   5.631   5.701   5.335
 8699SOL     OW26995   1.861   3.434   0.102
 8699SOL    HW126996   1.932   3.448   0.033
 8699SOL    HW226997   1.901   3.448   0.193
 8700SOL     OW26998   0.800   0.065   4.975
 8700SOL    HW126999   0.707   0.101   4.962
 8700SOL    HW227000   0.860   0.100   4.903
 8701SOL     OW27001   1.070   2.642   0.119
 8701SOL    HW127002   1.152   2.620   0.068
 8701SOL    HW227003   0.991   2.641   0.058
 8702SOL     OW27004   5.824   4.623   1.516
 8702SOL    HW127005   5.805   4.711   1.561
 8702SOL    HW227006   5.915   4.591   1.541
 8703SOL     OW27007   2.792   4.801   1.339
 8703SOL    HW127008   2.789   4.730   1.269
 8703SOL    HW227009   2.749   4.767   1.423
 8704SOL     OW27010   0.780   1.655   3.914
 8704SOL    HW127011   0.716   1.671   3.990
 8704SOL    HW227012   0.873   1.645   3.950
 8705SOL     OW27013   4.023   2.909   0.222
 8705SOL    HW127014   3.991   2.822   0.184
 8705SOL    HW227015   4.122   2.906   0.233
 8706SOL     OW27016   4.821   3.556   6.632
 8706SOL    HW127017   4.770   3.481   6.590
 8706SOL    HW227018   4.758   3.629   6.658
 8707SOL     OW27019   1.990   1.931   4.811
 8707SOL    HW127020   1.929   2.002   4.777
 8707SOL    HW227021   2.047   1.968   4.884
 8708SOL     OW27022   6.080   2.116   1.818
 8708SOL    HW127023   6.023   2.079   1.891
 8708SOL    HW227024   6.026   2.121   1.733
 8709SOL     OW27025   6.761   0.337   5.565
 8709SOL    HW127026   6.815   0.290   5.636
 8709SOL    HW227027   6.673   0.290   5.554
 8710SOL     OW27028   2.298   1.060   3.586
 8710SOL    HW127029   2.391   1.098   3.586
 8710SOL    HW227030   2.269   1.043   3.492
 8711SOL     OW27031   1.943   0.552   1.900
 8711SOL    HW127032   1.854   0.596   1.906
 8711SOL    HW227033   2.007   0.598   1.962
 8712SOL     OW27034   1.809   3.092   5.848
 8712SOL    HW127035   1.860   3.105   5.763
 8712SOL    HW227036   1.795   3.180   5.893
 8713SOL     OW27037   0.621   4.852   2.016
 8713SOL    HW127038   0.678   4.908   1.955
 8713SOL    HW227039   0.530   4.892   2.022
 8714SOL     OW27040   7.009   6.406   0.076
 8714SOL    HW127041   0.063   6.461   0.102
 8714SOL    HW227042   6.979   6.432   7.009
 8715SOL     OW27043   2.259   3.066   1.296
 8715SOL    HW127044   2.257   2.978   1.343
 8715SOL    HW227045   2.218   3.056   1.205
 8716SOL     OW27046   6.765   6.376   1.667
 8716SOL    HW127047   6.788   6.311   1.594
 8716SOL    HW227048   6.749   6.326   1.752
 8717SOL     OW27049   2.595   4.372   0.821
 8717SOL    HW127050   2.622   4.290   0.872
 8717SOL    HW227051   2.495   4.378   0.820
 8718SOL     OW27052   2.714   4.613   6.884
 8718SOL    HW127053   2.734   4.594   6.788
 8718SOL    HW227054   2.625   4.657   6.892
 8719SOL     OW27055   4.049   0.376   5.545
 8719SOL    HW127056   4.140   0.416   5.549
 8719SOL    HW227057   3.983   0.447   5.519
 8720SOL     OW27058   6.646   4.488   5.165
 8720SOL    HW127059   6.556   4.531   5.157
 8720SOL    HW227060   6.637   4.389   5.149
 8721SOL     OW27061   0.269   6.742   6.137
 8721SOL    HW127062   0.241   6.765   6.044
 8721SOL    HW227063   0.345   6.800   6.164
 8722SOL     OW27064   3.962   1.207   1.489
 8722SOL    HW127065   4.027   1.185   1.561
 8722SOL    HW227066   3.944   1.306   1.489
 8723SOL     OW27067   4.606   6.841   2.191
 8723SOL    HW127068   4.604   6.839   2.291
 8723SOL    HW227069   4.690   6.798   2.158
 8724SOL     OW27070   4.142   0.963   4.960
 8724SOL    HW127071   4.238   0.937   4.963
 8724SOL    HW227072   4.117   0.990   4.867
 8725SOL     OW27073   0.128   6.373   3.743
 8725SOL    HW127074   0.199   6.313   3.779
 8725SOL    HW227075   0.159   6.415   3.658
 8726SOL     OW27076   0.565   0.914   0.618
 8726SOL    HW127077   0.492   0.976   0.592
 8726SOL    HW227078   0.644   0.966   0.651
 8727SOL     OW27079   4.425   4.984   6.353
 8727SOL    HW127080   4.491   4.998   6.426
 8727SOL    HW227081   4.433   5.057   6.285
 8728SOL     OW27082   6.878   0.424   3.503
 8728SOL    HW127083   6.969   0.463   3.515
 8728SOL    HW227084   6.856   0.419   3.405
 8729SOL     OW27085   3.561   6.052   6.695
 8729SOL    HW127086   3.482   6.092   6.741
 8729SOL    HW227087   3.559   6.075   6.598
 8730SOL     OW27088   4.631   5.020   2.141
 8730SOL    HW127089   4.623   4.999   2.044
 8730SOL    HW227090   4.726   5.039   2.164
 8731SOL     OW27091   1.083   1.356   3.163
 8731SOL    HW127092   1.122   1.296   3.233
 8731SOL    HW227093   0.989   1.379   3.187
 8732SOL     OW27094   5.444   6.177   0.530
 8732SOL    HW127095   5.363   6.150   0.479
 8732SOL    HW227096   5.471   6.269   0.504
 8733SOL     OW27097   6.462   5.256   1.820
 8733SOL    HW127098   6.517   5.180   1.787
 8733SOL    HW227099   6.390   5.221   1.881
 8734SOL     OW27100   0.115   3.569   2.179
 8734SOL    HW127101   0.175   3.616   2.116
 8734SOL    HW227102   0.164   3.549   2.264
 8735SOL     OW27103   1.541   3.926   5.845
 8735SOL    HW127104   1.490   3.844   5.822
 8735SOL    HW227105   1.601   3.950   5.769
 8736SOL     OW27106   1.136   6.035   2.985
 8736SOL    HW127107   1.118   6.057   2.889
 8736SOL    HW227108   1.086   5.953   3.011
 8737SOL     OW27109   1.870   6.450   6.734
 8737SOL    HW127110   1.855   6.499   6.648
 8737SOL    HW227111   1.939   6.499   6.788
 8738SOL     OW27112   1.085   3.343   3.477
 8738SOL    HW127113   1.144   3.272   3.515
 8738SOL    HW227114   1.115   3.433   3.509
 8739SOL     OW27115   5.493   4.274   5.168
 8739SOL    HW127116   5.511   4.271   5.266
 8739SOL    HW227117   5.398   4.303   5.153
 8740SOL     OW27118   3.191   1.584   4.803
 8740SOL    HW127119   3.200   1.520   4.727
 8740SOL    HW227120   3.173   1.533   4.887
 8741SOL     OW27121   0.899   0.080   2.726
 8741SOL    HW127122   0.917   0.163   2.779
 8741SOL    HW227123   0.848   0.015   2.782
 8742SOL     OW27124   3.108   1.896   2.754
 8742SOL    HW127125   3.191   1.865   2.709
 8742SOL    HW227126   3.083   1.987   2.719
 8743SOL     OW27127   1.110   1.668   1.485
 8743SOL    HW127128   1.188   1.606   1.479
 8743SOL    HW227129   1.025   1.616   1.483
 8744SOL     OW27130   3.062   4.535   6.753
 8744SOL    HW127131   3.136   4.475   6.782
 8744SOL    HW227132   3.041   4.600   6.826
 8745SOL     OW27133   5.955   1.670   6.111
 8745SOL    HW127134   6.003   1.582   6.113
 8745SOL    HW227135   5.861   1.655   6.081
 8746SOL     OW27136   4.419   4.885   4.379
 8746SOL    HW127137   4.325   4.876   4.347
 8746SOL    HW227138   4.464   4.795   4.374
 8747SOL     OW27139   0.329   1.123   1.683
 8747SOL    HW127140   0.280   1.060   1.622
 8747SOL    HW227141   0.363   1.072   1.762
 8748SOL     OW27142   0.534   2.387   3.898
 8748SOL    HW127143   0.593   2.438   3.835
 8748SOL    HW227144   0.522   2.294   3.864
 8749SOL     OW27145   3.079   1.241   5.182
 8749SOL    HW127146   2.986   1.255   5.215
 8749SOL    HW227147   3.080   1.169   5.113
 8750SOL     OW27148   3.889   2.908   6.282
 8750SOL    HW127149   3.822   2.981   6.293
 8750SOL    HW227150   3.845   2.819   6.294
 8751SOL     OW27151   0.901   5.804   1.846
 8751SOL    HW127152   0.968   5.848   1.787
 8751SOL    HW227153   0.904   5.846   1.937
 8752SOL     OW27154   5.388   3.517   6.631
 8752SOL    HW127155   5.339   3.430   6.627
 8752SOL    HW227156   5.404   3.542   6.727
 8753SOL     OW27157   2.503   2.659   7.000
 8753SOL    HW127158   2.475   2.749   0.007
 8753SOL    HW227159   2.535   2.604   0.052
 8754SOL     OW27160   2.459   5.282   0.599
 8754SOL    HW127161   2.484   5.366   0.648
 8754SOL    HW227162   2.506   5.204   0.639
 8755SOL     OW27163   6.868   2.479   2.480
 8755SOL    HW127164   6.817   2.430   2.551
 8755SOL    HW227165   6.860   2.429   2.393
 8756SOL     OW27166   1.812   1.739   2.901
 8756SOL    HW127167   1.712   1.735   2.898
 8756SOL    HW227168   1.842   1.776   2.989
 8757SOL     OW27169   5.198   6.530   5.124
 8757SOL    HW127170   5.279   6.546   5.180
 8757SOL    HW227171   5.184   6.432   5.114
 8758SOL     OW27172   3.236   6.497   4.673
 8758SOL    HW127173   3.217   6.595   4.676
 8758SOL    HW227174   3.317   6.481   4.616
 8759SOL     OW27175   5.536   1.161   0.670
 8759SOL    HW127176   5.579   1.230   0.612
 8759SOL    HW227177   5.606   1.113   0.722
 8760SOL     OW27178   2.359   2.494   4.211
 8760SOL    HW127179   2.417   2.504   4.291
 8760SOL    HW227180   2.269   2.460   4.239
 8761SOL     OW27181   4.955   0.898   2.291
 8761SOL    HW127182   4.945   0.866   2.385
 8761SOL    HW227183   4.998   0.988   2.291
 8762SOL     OW27184   1.209   4.738   2.928
 8762SOL    HW127185   1.280   4.705   2.867
 8762SOL    HW227186   1.245   4.811   2.986
 8763SOL     OW27187   0.702   1.052   6.325
 8763SOL    HW127188   0.638   1.024   6.397
 8763SOL    HW227189   0.657   1.121   6.267
 8764SOL     OW27190   3.061   4.731   5.719
 8764SOL    HW127191   3.146   4.706   5.765
 8764SOL    HW227192   2.987   4.735   5.786
 8765SOL     OW27193   5.124   0.498   5.189
 8765SOL    HW127194   5.036   0.525   5.228
 8765SOL    HW227195   5.125   0.399   5.173
 8766SOL     OW27196   5.083   5.285   5.435
 8766SOL    HW127197   5.007   5.272   5.372
 8766SOL    HW227198   5.166   5.309   5.383
 8767SOL     OW27199   3.003   0.942   4.064
 8767SOL    HW127200   2.972   0.848   4.048
 8767SOL    HW227201   2.940   0.988   4.127
 8768SOL     OW27202   6.731   2.248   6.834
 8768SOL    HW127203   6.710   2.341   6.865
 8768SOL    HW227204   6.688   2.232   6.745
 8769SOL     OW27205   6.220   0.778   0.827
 8769SOL    HW127206   6.284   0.703   0.808
 8769SOL    HW227207   6.130   0.754   0.791
 8770SOL     OW27208   4.771   4.081   1.180
 8770SOL    HW127209   4.682   4.123   1.159
 8770SOL    HW227210   4.766   4.036   1.269
 8771SOL     OW27211   0.514   3.640   0.430
 8771SOL    HW127212   0.460   3.652   0.347
 8771SOL    HW227213   0.611   3.656   0.409
 8772SOL     OW27214   5.961   6.570   3.941
 8772SOL    HW127215   5.881   6.601   3.890
 8772SOL    HW227216   5.956   6.603   4.036
 8773SOL     OW27217   0.173   1.766   3.725
 8773SOL    HW127218   0.075   1.767   3.705
 8773SOL    HW227219   0.224   1.757   3.639
 8774SOL     OW27220   1.519   1.227   0.880
 8774SOL    HW127221   1.542   1.159   0.810
 8774SOL    HW227222   1.551   1.195   0.969
 8775SOL     OW27223   5.235   1.744   4.233
 8775SOL    HW127224   5.231   1.795   4.318
 8775SOL    HW227225   5.326   1.703   4.222
 8776SOL     OW27226   4.151   3.300   0.535
 8776SOL    HW127227   4.209   3.380   0.522
 8776SOL    HW227228   4.099   3.310   0.620
 8777SOL     OW27229   1.086   2.425   3.503
 8777SOL    HW127230   1.149   2.454   3.575
 8777SOL    HW227231   1.053   2.505   3.454
 8778SOL     OW27232   3.977   4.908   6.836
 8778SOL    HW127233   3.913   4.832   6.844
 8778SOL    HW227234   3.952   4.980   6.900
 8779SOL     OW27235   3.709   4.939   3.480
 8779SOL    HW127236   3.773   4.918   3.407
 8779SOL    HW227237   3.757   4.935   3.568
 8780SOL     OW27238   5.715   5.357   3.746
 8780SOL    HW127239   5.808   5.369   3.781
 8780SOL    HW227240   5.712   5.276   3.687
 8781SOL     OW27241   3.311   6.711   2.019
 8781SOL    HW127242   3.379   6.642   1.992
 8781SOL    HW227243   3.345   6.802   1.995
 8782SOL     OW27244   5.091   1.372   1.711
 8782SOL    HW127245   5.179   1.330   1.690
 8782SOL    HW227246   5.017   1.312   1.680
 8783SOL     OW27247   4.910   3.358   5.049
 8783SOL    HW127248   4.869   3.448   5.031
 8783SOL    HW227249   5.007   3.369   5.072
 8784SOL     OW27250   5.565   6.926   0.643
 8784SOL    HW127251   5.482   6.912   0.697
 8784SOL    HW227252   5.549   6.898   0.549
 8785SOL     OW27253   0.828   5.395   6.381
 8785SOL    HW127254   0.738   5.359   6.405
 8785SOL    HW227255   0.896   5.322   6.382
 8786SOL     OW27256   4.466   2.126   1.934
 8786SOL    HW127257   4.384   2.150   1.987
 8786SOL    HW227258   4.536   2.196   1.948
 8787SOL     OW27259   3.420   6.903   1.165
 8787SOL    HW127260   3.461   6.870   1.250
 8787SOL    HW227261   3.485   6.890   1.089
 8788SOL     OW27262   0.586   0.516   4.279
 8788SOL    HW127263   0.633   0.475   4.201
 8788SOL    HW227264   0.651   0.565   4.336
 8789SOL     OW27265   6.825   2.948   4.939
 8789SOL    HW127266   6.846   2.909   5.030
 8789SOL    HW227267   6.910   2.965   4.890
 8790SOL     OW27268   5.740   2.982   6.146
 8790SOL    HW127269   5.809   2.911   6.161
 8790SOL    HW227270   5.670   2.976   6.218
 8791SOL     OW27271   3.955   5.192   6.046
 8791SOL    HW127272   3.906   5.190   5.959
 8791SOL    HW227273   4.053   5.207   6.029
 8792SOL     OW27274   5.510   5.226   1.066
 8792SOL    HW127275   5.446   5.201   0.993
 8792SOL    HW227276   5.532   5.144   1.120
 8793SOL     OW27277   6.791   5.111   4.354
 8793SOL    HW127278   6.880   5.119   4.309
 8793SOL    HW227279   6.718   5.115   4.285
 8794SOL     OW27280   0.424   0.692   2.238
 8794SOL    HW127281   0.365   0.749   2.295
 8794SOL    HW227282   0.496   0.652   2.294
 8795SOL     OW27283   1.649   5.314   6.191
 8795SOL    HW127284   1.581   5.277   6.254
 8795SOL    HW227285   1.740   5.307   6.232
 8796SOL     OW27286   6.726   3.764   3.394
 8796SOL    HW127287   6.769   3.771   3.484
 8796SOL    HW227288   6.636   3.807   3.397
 8797SOL     OW27289   4.696   6.872   4.189
 8797SOL    HW127290   4.734   6.846   4.278
 8797SOL    HW227291   4.754   6.941   4.146
 8798SOL     OW27292   3.674   6.141   5.920
 8798SOL    HW127293   3.636   6.202   5.990
 8798SOL    HW227294   3.740   6.191   5.865
 8799SOL     OW27295   1.440   5.555   1.855
 8799SOL    HW127296   1.533   5.583   1.834
 8799SOL    HW227297   1.424   5.565   1.953
 8800SOL     OW27298   6.759   5.618   5.945
 8800SOL    HW127299   6.677   5.652   5.992
 8800SOL    HW227300   6.735   5.540   5.888
 8801SOL     OW27301   6.105   2.800   5.313
 8801SOL    HW127302   6.137   2.718   5.362
 8801SOL    HW227303   6.100   2.781   5.215
 8802SOL     OW27304   1.151   6.500   5.980
 8802SOL    HW127305   1.159   6.409   6.021
 8802SOL    HW227306   1.137   6.492   5.882
 8803SOL     OW27307   6.613   0.067   6.625
 8803SOL    HW127308   6.619   6.993   6.641
 8803SOL    HW227309   6.567   0.084   6.538
 8804SOL     OW27310   1.631   6.621   2.793
 8804SOL    HW127311   1.556   6.590   2.851
 8804SOL    HW227312   1.650   6.552   2.723
 8805SOL     OW27313   5.019   5.079   2.960
 8805SOL    HW127314   4.981   5.163   2.921
 8805SOL    HW227315   5.101   5.101   3.012
 8806SOL     OW27316   2.009   0.625   0.705
 8806SOL    HW127317   2.082   0.602   0.769
 8806SOL    HW227318   2.019   0.572   0.621
 8807SOL     OW27319   4.927   2.611   1.430
 8807SOL    HW127320   4.912   2.631   1.527
 8807SOL    HW227321   4.877   2.528   1.405
 8808SOL     OW27322   2.246   2.537   0.649
 8808SOL    HW127323   2.154   2.499   0.661
 8808SOL    HW227324   2.256   2.619   0.705
 8809SOL     OW27325   0.713   3.824   2.629
 8809SOL    HW127326   0.789   3.836   2.692
 8809SOL    HW227327   0.643   3.767   2.672
 8810SOL     OW27328   0.740   0.687   6.132
 8810SOL    HW127329   0.655   0.739   6.118
 8810SOL    HW227330   0.717   0.595   6.163
 8811SOL     OW27331   3.507   5.367   2.524
 8811SOL    HW127332   3.415   5.372   2.564
 8811SOL    HW227333   3.559   5.448   2.551
 8812SOL     OW27334   5.145   1.689   6.430
 8812SOL    HW127335   5.140   1.774   6.483
 8812SOL    HW227336   5.236   1.648   6.440
 8813SOL     OW27337   2.545   4.585   3.586
 8813SOL    HW127338   2.529   4.648   3.662
 8813SOL    HW227339   2.517   4.492   3.613
 8814SOL     OW27340   5.400   6.709   6.461
 8814SOL    HW127341   5.493   6.741   6.443
 8814SOL    HW227342   5.362   6.669   6.377
 8815SOL     OW27343   5.852   1.826   6.864
 8815SOL    HW127344   5.802   1.778   6.936
 8815SOL    HW227345   5.940   1.857   6.899
 8816SOL     OW27346   0.755   6.446   5.005
 8816SOL    HW127347   0.794   6.430   4.914
 8816SOL    HW227348   0.750   6.544   5.022
 8817SOL     OW27349   1.440   3.317   3.742
 8817SOL    HW127350   1.403   3.226   3.722
 8817SOL    HW227351   1.433   3.335   3.840
 8818SOL     OW27352   1.582   0.189   4.333
 8818SOL    HW127353   1.487   0.218   4.338
 8818SOL    HW227354   1.589   0.110   4.271
 8819SOL     OW27355   5.487   4.234   6.196
 8819SOL    HW127356   5.483   4.136   6.178
 8819SOL    HW227357   5.496   4.249   6.294
 8820SOL     OW27358   3.144   0.270   4.477
 8820SOL    HW127359   3.068   0.313   4.429
 8820SOL    HW227360   3.220   0.334   4.485
 8821SOL     OW27361   0.394   4.480   6.785
 8821SOL    HW127362   0.339   4.491   6.868
 8821SOL    HW227363   0.343   4.426   6.718
 8822SOL     OW27364   6.482   0.029   4.179
 8822SOL    HW127365   6.527   0.089   4.113
 8822SOL    HW227366   6.384   0.029   4.163
 8823SOL     OW27367   4.168   0.850   2.625
 8823SOL    HW127368   4.141   0.944   2.605
 8823SOL    HW227369   4.215   0.811   2.545
 8824SOL     OW27370   2.440   1.112   2.325
 8824SOL    HW127371   2.343   1.106   2.346
 8824SOL    HW227372   2.487   1.164   2.396
 8825SOL     OW27373   0.139   6.284   0.284
 8825SOL    HW127374   0.158   6.378   0.312
 8825SOL    HW227375   0.100   6.284   0.192
 8826SOL     OW27376   1.062   3.734   0.472
 8826SOL    HW127377   1.161   3.729   0.456
 8826SOL    HW227378   1.022   3.642   0.462
 8827SOL     OW27379   3.950   6.395   2.310
 8827SOL    HW127380   3.961   6.337   2.229
 8827SOL    HW227381   4.036   6.399   2.361
 8828SOL     OW27382   3.465   3.320   6.248
 8828SOL    HW127383   3.452   3.236   6.301
 8828SOL    HW227384   3.380   3.374   6.250
 8829SOL     OW27385   6.817   1.275   2.465
 8829SOL    HW127386   6.844   1.217   2.543
 8829SOL    HW227387   6.796   1.367   2.497
 8830SOL     OW27388   2.924   1.388   3.721
 8830SOL    HW127389   2.909   1.321   3.793
 8830SOL    HW227390   2.977   1.347   3.646
 8831SOL     OW27391   0.215   2.405   2.179
 8831SOL    HW127392   0.174   2.434   2.265
 8831SOL    HW227393   0.181   2.314   2.155
 8832SOL     OW27394   5.990   0.972   4.220
 8832SOL    HW127395   5.938   0.939   4.298
 8832SOL    HW227396   6.076   1.012   4.252
 8833SOL     OW27397   3.247   2.694   1.043
 8833SOL    HW127398   3.198   2.673   1.128
 8833SOL    HW227399   3.337   2.731   1.064
 8834SOL     OW27400   5.068   3.041   5.506
 8834SOL    HW127401   5.120   3.018   5.588
 8834SOL    HW227402   4.975   3.005   5.515
 8835SOL     OW27403   6.621   0.870   5.887
 8835SOL    HW127404   6.703   0.852   5.833
 8835SOL    HW227405   6.640   0.851   5.983
 8836SOL     OW27406   4.316   1.760   1.054
 8836SOL    HW127407   4.290   1.802   1.141
 8836SOL    HW227408   4.414   1.772   1.039
 8837SOL     OW27409   5.436   6.911   1.178
 8837SOL    HW127410   5.363   6.977   1.161
 8837SOL    HW227411   5.410   6.821   1.141
 8838SOL     OW27412   0.446   4.059   2.992
 8838SOL    HW127413   0.507   4.082   3.068
 8838SOL    HW227414   0.362   4.114   2.999
 8839SOL     OW27415   4.940   5.685   3.080
 8839SOL    HW127416   4.914   5.697   2.984
 8839SOL    HW227417   5.031   5.646   3.085
 8840SOL     OW27418   7.012   1.177   1.234
 8840SOL    HW127419   6.992   1.198   1.138
 8840SOL    HW227420   0.086   1.173   1.247
 8841SOL     OW27421   2.939   1.182   1.285
 8841SOL    HW127422   2.944   1.083   1.273
 8841SOL    HW227423   3.024   1.224   1.254
 8842SOL     OW27424   3.791   3.581   4.354
 8842SOL    HW127425   3.723   3.622   4.415
 8842SOL    HW227426   3.883   3.598   4.391
 8843SOL     OW27427   2.821   4.648   6.613
 8843SOL    HW127428   2.882   4.717   6.652
 8843SOL    HW227429   2.874   4.568   6.586
 8844SOL     OW27430   4.488   1.679   5.135
 8844SOL    HW127431   4.588   1.691   5.137
 8844SOL    HW227432   4.466   1.582   5.146
 8845SOL     OW27433   0.297   5.040   2.314
 8845SOL    HW127434   0.382   5.059   2.266
 8845SOL    HW227435   0.228   5.008   2.249
 8846SOL     OW27436   5.570   4.730   3.752
 8846SOL    HW127437   5.524   4.815   3.730
 8846SOL    HW227438   5.578   4.720   3.851
 8847SOL     OW27439   2.267   2.161   2.987
 8847SOL    HW127440   2.232   2.206   2.905
 8847SOL    HW227441   2.337   2.219   3.029
 8848SOL     OW27442   4.016   1.888   0.913
 8848SOL    HW127443   4.084   1.826   0.873
 8848SOL    HW227444   3.957   1.836   0.975
 8849SOL     OW27445   2.647   5.184   4.749
 8849SOL    HW127446   2.720   5.118   4.767
 8849SOL    HW227447   2.558   5.139   4.761
 8850SOL     OW27448   3.058   1.463   1.655
 8850SOL    HW127449   3.065   1.504   1.746
 8850SOL    HW227450   2.988   1.512   1.602
 8851SOL     OW27451   0.030   5.085   2.877
 8851SOL    HW127452   0.009   4.987   2.882
 8851SOL    HW227453   0.079   5.112   2.960
 8852SOL     OW27454   5.143   2.734   5.612
 8852SOL    HW127455   5.198   2.712   5.531
 8852SOL    HW227456   5.133   2.833   5.620
 8853SOL     OW27457   4.429   1.186   5.640
 8853SOL    HW127458   4.476   1.138   5.566
 8853SOL    HW227459   4.416   1.124   5.718
 8854SOL     OW27460   1.678   1.761   6.626
 8854SOL    HW127461   1.653   1.784   6.531
 8854SOL    HW227462   1.773   1.732   6.629
 8855SOL     OW27463   6.293   5.156   6.259
 8855SOL    HW127464   6.332   5.237   6.216
 8855SOL    HW227465   6.297   5.165   6.359
 8856SOL     OW27466   5.658   0.922   4.757
 8856SOL    HW127467   5.724   0.996   4.742
 8856SOL    HW227468   5.571   0.947   4.715
 8857SOL     OW27469   6.772   2.384   3.621
 8857SOL    HW127470   6.791   2.314   3.553
 8857SOL    HW227471   6.675   2.407   3.618
 8858SOL     OW27472   0.508   3.298   6.744
 8858SOL    HW127473   0.519   3.395   6.765
 8858SOL    HW227474   0.411   3.273   6.754
 8859SOL     OW27475   1.961   5.935   5.895
 8859SOL    HW127476   1.893   5.865   5.872
 8859SOL    HW227477   2.047   5.915   5.847
 8860SOL     OW27478   1.685   2.029   2.745
 8860SOL    HW127479   1.687   2.125   2.716
 8860SOL    HW227480   1.773   2.004   2.783
 8861SOL     OW27481   4.066   3.348   0.039
 8861SOL    HW127482   4.103   3.335   6.972
 8861SOL    HW227483   4.112   3.287   0.103
 8862SOL     OW27484   5.543   1.482   4.559
 8862SOL    HW127485   5.514   1.479   4.464
 8862SOL    HW227486   5.465   1.506   4.617
 8863SOL     OW27487   2.052   5.676   5.659
 8863SOL    HW127488   2.102   5.745   5.607
 8863SOL    HW227489   2.106   5.592   5.665
 8864SOL     OW27490   1.315   2.384   6.769
 8864SOL    HW127491   1.238   2.329   6.737
 8864SOL    HW227492   1.339   2.450   6.698
 8865SOL     OW27493   3.099   2.271   6.201
 8865SOL    HW127494   3.122   2.363   6.169
 8865SOL    HW227495   3.056   2.277   6.291
 8866SOL     OW27496   3.188   6.266   4.841
 8866SOL    HW127497   3.092   6.238   4.836
 8866SOL    HW227498   3.200   6.354   4.795
 8867SOL     OW27499   6.996   3.130   3.416
 8867SOL    HW127500   0.000   3.087   3.502
 8867SOL    HW227501   6.898   3.112   3.402
 8868SOL     OW27502   4.206   3.989   7.013
 8868SOL    HW127503   4.186   3.980   0.085
 8868SOL    HW227504   4.273   3.919   6.986
 8869SOL     OW27505   5.251   2.674   3.652
 8869SOL    HW127506   5.334   2.626   3.625
 8869SOL    HW227507   5.231   2.656   3.748
 8870SOL     OW27508   4.119   1.045   0.611
 8870SOL    HW127509   4.156   1.125   0.659
 8870SOL    HW227510   4.075   0.984   0.676
 8871SOL     OW27511   2.459   2.248   3.442
 8871SOL    HW127512   2.366   2.278   3.421
 8871SOL    HW227513   2.500   2.208   3.360
 8872SOL     OW27514   1.352   3.888   4.201
 8872SOL    HW127515   1.423   3.958   4.198
 8872SOL    HW227516   1.277   3.918   4.259
 8873SOL     OW27517   0.409   5.196   4.406
 8873SOL    HW127518   0.450   5.143   4.481
 8873SOL    HW227519   0.313   5.215   4.428
 8874SOL     OW27520   3.331   0.774   0.647
 8874SOL    HW127521   3.395   0.731   0.711
 8874SOL    HW227522   3.280   0.846   0.694
 8875SOL     OW27523   1.951   2.567   4.380
 8875SOL    HW127524   1.874   2.509   4.407
 8875SOL    HW227525   1.980   2.621   4.459
 8876SOL     OW27526   0.645   0.497   4.920
 8876SOL    HW127527   0.697   0.511   4.835
 8876SOL    HW227528   0.586   0.576   4.936
 8877SOL     OW27529   2.476   0.132   4.904
 8877SOL    HW127530   2.520   0.117   4.992
 8877SOL    HW227531   2.377   0.133   4.916
 8878SOL     OW27532   6.703   4.190   6.679
 8878SOL    HW127533   6.696   4.092   6.696
 8878SOL    HW227534   6.625   4.238   6.719
 8879SOL     OW27535   5.431   6.464   6.023
 8879SOL    HW127536   5.508   6.401   6.029
 8879SOL    HW227537   5.364   6.430   5.956
 8880SOL     OW27538   6.848   4.998   4.978
 8880SOL    HW127539   6.810   4.921   5.028
 8880SOL    HW227540   6.774   5.053   4.939
 8881SOL     OW27541   6.550   1.176   1.142
 8881SOL    HW127542   6.549   1.148   1.238
 8881SOL    HW227543   6.562   1.275   1.136
 8882SOL     OW27544   5.482   1.754   6.371
 8882SOL    HW127545   5.579   1.774   6.362
 8882SOL    HW227546   5.466   1.703   6.456
 8883SOL     OW27547   6.688   1.038   5.285
 8883SOL    HW127548   6.711   0.947   5.321
 8883SOL    HW227549   6.590   1.045   5.271
 8884SOL     OW27550   6.509   0.581   6.182
 8884SOL    HW127551   6.589   0.639   6.166
 8884SOL    HW227552   6.467   0.556   6.095
 8885SOL     OW27553   5.381   3.536   1.833
 8885SOL    HW127554   5.440   3.614   1.812
 8885SOL    HW227555   5.323   3.558   1.911
 8886SOL     OW27556   3.060   0.108   6.124
 8886SOL    HW127557   2.979   0.072   6.079
 8886SOL    HW227558   3.122   0.148   6.056
 8887SOL     OW27559   2.818   1.351   0.559
 8887SOL    HW127560   2.763   1.348   0.643
 8887SOL    HW227561   2.759   1.340   0.480
 8888SOL     OW27562   3.377   1.967   2.246
 8888SOL    HW127563   3.398   2.029   2.170
 8888SOL    HW227564   3.462   1.929   2.282
 8889SOL     OW27565   3.838   6.461   4.809
 8889SOL    HW127566   3.817   6.420   4.721
 8889SOL    HW227567   3.754   6.496   4.851
 8890SOL     OW27568   1.465   5.209   4.548
 8890SOL    HW127569   1.441   5.277   4.617
 8890SOL    HW227570   1.381   5.166   4.514
 8891SOL     OW27571   4.504   2.912   6.332
 8891SOL    HW127572   4.594   2.891   6.293
 8891SOL    HW227573   4.440   2.837   6.310
 8892SOL     OW27574   1.929   6.901   2.882
 8892SOL    HW127575   1.986   6.983   2.885
 8892SOL    HW227576   1.987   6.820   2.888
 8893SOL     OW27577   0.489   1.587   1.300
 8893SOL    HW127578   0.392   1.590   1.276
 8893SOL    HW227579   0.532   1.674   1.275
 8894SOL     OW27580   4.078   2.658   6.469
 8894SOL    HW127581   4.118   2.575   6.430
 8894SOL    HW227582   4.047   2.718   6.395
 8895SOL     OW27583   0.849   6.874   1.984
 8895SOL    HW127584   0.804   6.904   2.068
 8895SOL    HW227585   0.945   6.903   1.985
 8896SOL     OW27586   1.987   4.113   4.739
 8896SOL    HW127587   1.941   4.162   4.813
 8896SOL    HW227588   2.078   4.084   4.770
 8897SOL     OW27589   1.379   2.698   1.657
 8897SOL    HW127590   1.340   2.745   1.577
 8897SOL    HW227591   1.439   2.760   1.706
 8898SOL     OW27592   5.420   3.677   4.319
 8898SOL    HW127593   5.427   3.578   4.309
 8898SOL    HW227594   5.369   3.716   4.242
 8899SOL     OW27595   1.551   4.641   0.322
 8899SOL    HW127596   1.526   4.550   0.354
 8899SOL    HW227597   1.640   4.637   0.277
 8900SOL     OW27598   5.732   2.242   3.714
 8900SOL    HW127599   5.812   2.220   3.658
 8900SOL    HW227600   5.725   2.177   3.789
 8901SOL     OW27601   1.859   0.450   2.832
 8901SOL    HW127602   1.957   0.466   2.845
 8901SOL    HW227603   1.829   0.376   2.893
 8902SOL     OW27604   1.455   5.151   6.581
 8902SOL    HW127605   1.419   5.067   6.540
 8902SOL    HW227606   1.401   5.173   6.663
 8903SOL     OW27607   2.027   1.694   3.450
 8903SOL    HW127608   2.089   1.772   3.445
 8903SOL    HW227609   2.022   1.662   3.545
 8904SOL     OW27610   0.869   6.243   3.400
 8904SOL    HW127611   0.863   6.143   3.394
 8904SOL    HW227612   0.777   6.281   3.413
 8905SOL     OW27613   2.540   3.806   5.354
 8905SOL    HW127614   2.483   3.846   5.282
 8905SOL    HW227615   2.494   3.726   5.392
 8906SOL     OW27616   6.283   6.401   5.497
 8906SOL    HW127617   6.212   6.467   5.473
 8906SOL    HW227618   6.365   6.420   5.442
 8907SOL     OW27619   3.254   2.855   5.689
 8907SOL    HW127620   3.344   2.842   5.646
 8907SOL    HW227621   3.227   2.951   5.680
 8908SOL     OW27622   0.795   2.790   1.582
 8908SOL    HW127623   0.876   2.758   1.533
 8908SOL    HW227624   0.733   2.834   1.518
 8909SOL     OW27625   2.040   0.828   6.619
 8909SOL    HW127626   2.034   0.799   6.714
 8909SOL    HW227627   1.962   0.790   6.568
 8910SOL     OW27628   3.031   3.889   6.722
 8910SOL    HW127629   2.952   3.935   6.763
 8910SOL    HW227630   3.008   3.858   6.629
 8911SOL     OW27631   3.993   2.214   4.150
 8911SOL    HW127632   4.067   2.268   4.109
 8911SOL    HW227633   3.908   2.231   4.100
 8912SOL     OW27634   4.524   2.571   6.114
 8912SOL    HW127635   4.497   2.617   6.030
 8912SOL    HW227636   4.483   2.618   6.193
 8913SOL     OW27637   5.257   4.267   1.433
 8913SOL    HW127638   5.223   4.339   1.493
 8913SOL    HW227639   5.182   4.206   1.409
 8914SOL     OW27640   3.471   1.782   4.822
 8914SOL    HW127641   3.551   1.839   4.800
 8914SOL    HW227642   3.468   1.704   4.759
 8915SOL     OW27643   1.830   4.020   2.080
 8915SOL    HW127644   1.807   4.117   2.073
 8915SOL    HW227645   1.762   3.973   2.136
 8916SOL     OW27646   7.021   3.264   2.580
 8916SOL    HW127647   0.003   3.204   2.501
 8916SOL    HW227648   6.939   3.241   2.633
 8917SOL     OW27649   6.127   6.103   6.863
 8917SOL    HW127650   6.225   6.107   6.846
 8917SOL    HW227651   6.111   6.063   6.953
 8918SOL     OW27652   5.675   5.145   6.371
 8918SOL    HW127653   5.577   5.129   6.378
 8918SOL    HW227654   5.718   5.068   6.323
 8919SOL     OW27655   2.952   5.317   1.052
 8919SOL    HW127656   2.906   5.230   1.034
 8919SOL    HW227657   2.936   5.343   1.147
 8920SOL     OW27658   6.003   5.725   5.431
 8920SOL    HW127659   5.915   5.678   5.438
 8920SOL    HW227660   6.057   5.704   5.512
 8921SOL     OW27661   1.684   0.057   3.837
 8921SOL    HW127662   1.678   0.053   3.937
 8921SOL    HW227663   1.608   0.007   3.797
 8922SOL     OW27664   0.368   4.180   0.155
 8922SOL    HW127665   0.381   4.198   0.252
 8922SOL    HW227666   0.352   4.266   0.106
 8923SOL     OW27667   2.234   4.412   6.196
 8923SOL    HW127668   2.137   4.425   6.177
 8923SOL    HW227669   2.247   4.388   6.292
 8924SOL     OW27670   2.609   5.667   5.505
 8924SOL    HW127671   2.658   5.691   5.422
 8924SOL    HW227672   2.640   5.725   5.580
 8925SOL     OW27673   0.088   6.974   2.136
 8925SOL    HW127674   0.093   6.919   2.219
 8925SOL    HW227675   7.019   6.975   2.102
 8926SOL     OW27676   5.380   2.420   0.758
 8926SOL    HW127677   5.338   2.486   0.821
 8926SOL    HW227678   5.472   2.452   0.734
 8927SOL     OW27679   2.380   2.537   4.684
 8927SOL    HW127680   2.436   2.500   4.758
 8927SOL    HW227681   2.288   2.497   4.688
 8928SOL     OW27682   0.728   6.603   5.635
 8928SOL    HW127683   0.753   6.507   5.624
 8928SOL    HW227684   0.792   6.660   5.583
 8929SOL     OW27685   5.881   3.691   3.470
 8929SOL    HW127686   5.904   3.597   3.496
 8929SOL    HW227687   5.787   3.711   3.501
 8930SOL     OW27688   1.061   5.103   4.811
 8930SOL    HW127689   1.124   5.028   4.791
 8930SOL    HW227690   1.002   5.078   4.887
 8931SOL     OW27691   4.542   1.234   0.326
 8931SOL    HW127692   4.566   1.291   0.247
 8931SOL    HW227693   4.587   1.270   0.408
 8932SOL     OW27694   6.962   0.242   6.674
 8932SOL    HW127695   6.969   0.330   6.627
 8932SOL    HW227696   6.982   0.168   6.610
 8933SOL     OW27697   1.598   0.655   5.023
 8933SOL    HW127698   1.656   0.685   5.098
 8933SOL    HW227699   1.502   0.666   5.048
 8934SOL     OW27700   3.067   5.910   2.864
 8934SOL    HW127701   3.092   5.972   2.791
 8934SOL    HW227702   3.146   5.854   2.889
 8935SOL     OW27703   4.967   2.542   3.311
 8935SOL    HW127704   4.963   2.455   3.261
 8935SOL    HW227705   4.886   2.597   3.289
 8936SOL     OW27706   1.102   5.516   2.153
 8936SOL    HW127707   1.200   5.502   2.159
 8936SOL    HW227708   1.058   5.486   2.237
 8937SOL     OW27709   5.441   0.083   4.122
 8937SOL    HW127710   5.516   0.026   4.157
 8937SOL    HW227711   5.431   0.163   4.181
 8938SOL     OW27712   6.256   1.348   0.967
 8938SOL    HW127713   6.350   1.312   0.966
 8938SOL    HW227714   6.235   1.384   1.058
 8939SOL     OW27715   0.226   2.919   3.729
 8939SOL    HW127716   0.203   2.930   3.826
 8939SOL    HW227717   0.326   2.919   3.719
 8940SOL     OW27718   6.831   2.999   1.139
 8940SOL    HW127719   6.860   2.903   1.136
 8940SOL    HW227720   6.859   3.040   1.226
 8941SOL     OW27721   4.370   2.763   1.280
 8941SOL    HW127722   4.303   2.799   1.345
 8941SOL    HW227723   4.462   2.784   1.312
 8942SOL     OW27724   5.743   4.798   4.284
 8942SOL    HW127725   5.763   4.750   4.370
 8942SOL    HW227726   5.755   4.735   4.207
 8943SOL     OW27727   4.997   4.224   0.246
 8943SOL    HW127728   4.965   4.154   0.310
 8943SOL    HW227729   5.039   4.179   0.167
 8944SOL     OW27730   5.530   5.949   4.929
 8944SOL    HW127731   5.462   5.895   4.980
 8944SOL    HW227732   5.613   5.895   4.916
 8945SOL     OW27733   5.753   4.095   5.374
 8945SOL    HW127734   5.685   4.163   5.400
 8945SOL    HW227735   5.843   4.138   5.365
 8946SOL     OW27736   5.428   1.230   5.018
 8946SOL    HW127737   5.514   1.272   4.989
 8946SOL    HW227738   5.433   1.131   5.004
 8947SOL     OW27739   1.882   5.402   6.916
 8947SOL    HW127740   1.972   5.442   6.931
 8947SOL    HW227741   1.813   5.474   6.921
 8948SOL     OW27742   6.838   0.615   2.818
 8948SOL    HW127743   6.807   0.674   2.743
 8948SOL    HW227744   6.836   0.520   2.788
 8949SOL     OW27745   3.474   6.195   0.651
 8949SOL    HW127746   3.401   6.198   0.720
 8949SOL    HW227747   3.555   6.241   0.686
 8950SOL     OW27748   4.854   4.207   0.575
 8950SOL    HW127749   4.866   4.275   0.647
 8950SOL    HW227750   4.844   4.252   0.486
 8951SOL     OW27751   2.187   1.593   4.585
 8951SOL    HW127752   2.243   1.575   4.666
 8951SOL    HW227753   2.218   1.677   4.541
 8952SOL     OW27754   1.840   3.802   3.872
 8952SOL    HW127755   1.938   3.787   3.858
 8952SOL    HW227756   1.826   3.849   3.960
 8953SOL     OW27757   1.195   4.878   2.060
 8953SOL    HW127758   1.220   4.887   1.963
 8953SOL    HW227759   1.203   4.967   2.104
 8954SOL     OW27760   1.885   5.013   5.713
 8954SOL    HW127761   1.883   5.111   5.735
 8954SOL    HW227762   1.925   5.000   5.623
 8955SOL     OW27763   5.612   2.629   4.231
 8955SOL    HW127764   5.676   2.706   4.236
 8955SOL    HW227765   5.543   2.638   4.303
 8956SOL     OW27766   0.956   5.650   6.474
 8956SOL    HW127767   0.901   5.592   6.414
 8956SOL    HW227768   0.901   5.728   6.503
 8957SOL     OW27769   0.626   6.337   3.437
 8957SOL    HW127770   0.581   6.262   3.485
 8957SOL    HW227771   0.561   6.411   3.422
 8958SOL     OW27772   1.632   3.996   5.565
 8958SOL    HW127773   1.704   4.065   5.575
 8958SOL    HW227774   1.668   3.918   5.514
 8959SOL     OW27775   0.364   3.019   2.860
 8959SOL    HW127776   0.334   3.083   2.930
 8959SOL    HW227777   0.457   2.987   2.881
 8960SOL     OW27778   4.986   4.280   3.560
 8960SOL    HW127779   4.928   4.352   3.599
 8960SOL    HW227780   5.082   4.308   3.564
 8961SOL     OW27781   2.322   0.097   5.504
 8961SOL    HW127782   2.240   0.066   5.553
 8961SOL    HW227783   2.303   0.097   5.405
 8962SOL     OW27784   0.399   5.914   1.852
 8962SOL    HW127785   0.309   5.951   1.877
 8962SOL    HW227786   0.392   5.815   1.840
 8963SOL     OW27787   4.654   6.248   4.394
 8963SOL    HW127788   4.693   6.185   4.461
 8963SOL    HW227789   4.670   6.213   4.302
 8964SOL     OW27790   0.660   3.142   4.403
 8964SOL    HW127791   0.674   3.179   4.311
 8964SOL    HW227792   0.671   3.214   4.471
 8965SOL     OW27793   3.821   5.466   0.203
 8965SOL    HW127794   3.905   5.413   0.201
 8965SOL    HW227795   3.748   5.417   0.155
 8966SOL     OW27796   5.224   5.095   5.868
 8966SOL    HW127797   5.174   5.164   5.816
 8966SOL    HW227798   5.301   5.139   5.915
 8967SOL     OW27799   2.822   0.156   3.893
 8967SOL    HW127800   2.778   0.140   3.981
 8967SOL    HW227801   2.788   0.090   3.826
 8968SOL     OW27802   4.020   4.869   2.179
 8968SOL    HW127803   3.930   4.908   2.163
 8968SOL    HW227804   4.055   4.827   2.095
 8969SOL     OW27805   0.414   1.121   2.812
 8969SOL    HW127806   0.444   1.040   2.863
 8969SOL    HW227807   0.473   1.134   2.733
 8970SOL     OW27808   1.782   0.663   4.822
 8970SOL    HW127809   1.721   0.672   4.900
 8970SOL    HW227810   1.741   0.603   4.754
 8971SOL     OW27811   4.085   5.360   0.334
 8971SOL    HW127812   4.060   5.453   0.363
 8971SOL    HW227813   4.170   5.334   0.379
 8972SOL     OW27814   6.504   4.415   0.309
 8972SOL    HW127815   6.582   4.441   0.252
 8972SOL    HW227816   6.428   4.386   0.250
 8973SOL     OW27817   1.283   2.901   3.254
 8973SOL    HW127818   1.360   2.949   3.212
 8973SOL    HW227819   1.200   2.956   3.245
 8974SOL     OW27820   2.303   4.267   4.790
 8974SOL    HW127821   2.311   4.201   4.865
 8974SOL    HW227822   2.289   4.217   4.704
 8975SOL     OW27823   0.185   6.333   5.891
 8975SOL    HW127824   0.259   6.326   5.958
 8975SOL    HW227825   0.133   6.248   5.889
 8976SOL     OW27826   6.860   6.640   1.690
 8976SOL    HW127827   6.836   6.543   1.692
 8976SOL    HW227828   6.955   6.652   1.720
 8977SOL     OW27829   6.676   5.131   5.865
 8977SOL    HW127830   6.773   5.109   5.859
 8977SOL    HW227831   6.629   5.059   5.916
 8978SOL     OW27832   5.537   5.775   6.474
 8978SOL    HW127833   5.452   5.826   6.481
 8978SOL    HW227834   5.613   5.833   6.502
 8979SOL     OW27835   1.100   5.179   5.710
 8979SOL    HW127836   1.165   5.110   5.740
 8979SOL    HW227837   1.018   5.135   5.675
 8980SOL     OW27838   3.609   0.560   5.263
 8980SOL    HW127839   3.517   0.573   5.300
 8980SOL    HW227840   3.658   0.490   5.316
 8981SOL     OW27841   4.152   3.222   0.269
 8981SOL    HW127842   4.168   3.281   0.348
 8981SOL    HW227843   4.160   3.127   0.296
 8982SOL     OW27844   0.607   1.476   1.600
 8982SOL    HW127845   0.534   1.416   1.568
 8982SOL    HW227846   0.679   1.481   1.531
 8983SOL     OW27847   1.108   6.958   2.075
 8983SOL    HW127848   1.199   6.951   2.033
 8983SOL    HW227849   1.100   6.892   2.150
 8984SOL     OW27850   6.280   0.413   3.999
 8984SOL    HW127851   6.308   0.488   4.059
 8984SOL    HW227852   6.361   0.373   3.957
 8985SOL     OW27853   4.615   2.810   0.795
 8985SOL    HW127854   4.596   2.905   0.820
 8985SOL    HW227855   4.643   2.759   0.877
 8986SOL     OW27856   0.408   5.404   0.073
 8986SOL    HW127857   0.330   5.358   0.030
 8986SOL    HW227858   0.375   5.478   0.132
 8987SOL     OW27859   2.124   0.766   1.632
 8987SOL    HW127860   2.180   0.712   1.695
 8987SOL    HW227861   2.028   0.740   1.642
 8988SOL     OW27862   1.492   5.791   1.648
 8988SOL    HW127863   1.549   5.741   1.712
 8988SOL    HW227864   1.532   5.881   1.630
 8989SOL     OW27865   5.126   1.294   2.030
 8989SOL    HW127866   5.095   1.278   1.936
 8989SOL    HW227867   5.224   1.279   2.037
 8990SOL     OW27868   3.668   0.456   1.566
 8990SOL    HW127869   3.604   0.495   1.500
 8990SOL    HW227870   3.620   0.437   1.651
 8991SOL     OW27871   2.226   2.518   0.337
 8991SOL    HW127872   2.198   2.440   0.393
 8991SOL    HW227873   2.146   2.558   0.293
 8992SOL     OW27874   0.237   4.138   0.598
 8992SOL    HW127875   0.167   4.204   0.622
 8992SOL    HW227876   0.198   4.065   0.541
 8993SOL     OW27877   6.163   3.357   4.257
 8993SOL    HW127878   6.123   3.294   4.323
 8993SOL    HW227879   6.182   3.445   4.301
 8994SOL     OW27880   0.942   5.318   3.297
 8994SOL    HW127881   0.999   5.251   3.251
 8994SOL    HW227882   0.971   5.328   3.392
 8995SOL     OW27883   2.093   3.870   4.890
 8995SOL    HW127884   2.187   3.902   4.909
 8995SOL    HW227885   2.097   3.786   4.836
 8996SOL     OW27886   1.152   4.039   2.139
 8996SOL    HW127887   1.162   3.994   2.227
 8996SOL    HW227888   1.223   4.006   2.077
 8997SOL     OW27889   4.710   1.689   5.416
 8997SOL    HW127890   4.700   1.602   5.367
 8997SOL    HW227891   4.722   1.671   5.513
 8998SOL     OW27892   1.378   2.841   6.476
 8998SOL    HW127893   1.340   2.924   6.435
 8998SOL    HW227894   1.477   2.840   6.466
 8999SOL     OW27895   6.504   1.270   4.068
 8999SOL    HW127896   6.475   1.179   4.039
 8999SOL    HW227897   6.504   1.275   4.168
 9000SOL     OW27898   3.332   4.037   0.707
 9000SOL    HW127899   3.261   3.967   0.715
 9000SOL    HW227900   3.299   4.123   0.743
 9001SOL     OW27901   1.654   5.011   3.502
 9001SOL    HW127902   1.733   5.015   3.563
 9001SOL    HW227903   1.680   5.044   3.411
 9002SOL     OW27904   5.257   4.855   5.452
 9002SOL    HW127905   5.344   4.904   5.445
 9002SOL    HW227906   5.266   4.780   5.518
 9003SOL     OW27907   5.827   2.798   6.437
 9003SOL    HW127908   5.732   2.827   6.420
 9003SOL    HW227909   5.876   2.796   6.350
 9004SOL     OW27910   4.452   6.592   1.164
 9004SOL    HW127911   4.531   6.533   1.151
 9004SOL    HW227912   4.376   6.559   1.107
 9005SOL     OW27913   4.945   1.673   3.033
 9005SOL    HW127914   5.028   1.709   2.990
 9005SOL    HW227915   4.944   1.573   3.025
 9006SOL     OW27916   0.911   5.934   1.252
 9006SOL    HW127917   0.989   5.905   1.307
 9006SOL    HW227918   0.940   6.005   1.188
 9007SOL     OW27919   2.527   6.720   4.473
 9007SOL    HW127920   2.524   6.820   4.476
 9007SOL    HW227921   2.511   6.684   4.565
 9008SOL     OW27922   6.434   4.280   2.315
 9008SOL    HW127923   6.445   4.266   2.414
 9008SOL    HW227924   6.381   4.205   2.276
 9009SOL     OW27925   3.417   6.569   0.871
 9009SOL    HW127926   3.500   6.541   0.919
 9009SOL    HW227927   3.409   6.669   0.872
 9010SOL     OW27928   1.216   6.429   4.928
 9010SOL    HW127929   1.145   6.370   4.967
 9010SOL    HW227930   1.194   6.525   4.949
 9011SOL     OW27931   4.525   2.025   1.234
 9011SOL    HW127932   4.437   1.980   1.224
 9011SOL    HW227933   4.512   2.122   1.258
 9012SOL     OW27934   6.972   5.672   1.604
 9012SOL    HW127935   7.010   5.744   1.546
 9012SOL    HW227936   0.012   5.651   1.678
 9013SOL     OW27937   5.953   5.685   3.564
 9013SOL    HW127938   5.899   5.733   3.632
 9013SOL    HW227939   6.050   5.690   3.589
 9014SOL     OW27940   3.140   0.964   1.530
 9014SOL    HW127941   3.093   0.970   1.442
 9014SOL    HW227942   3.129   1.051   1.579
 9015SOL     OW27943   0.273   1.061   5.328
 9015SOL    HW127944   0.209   1.052   5.404
 9015SOL    HW227945   0.265   0.982   5.267
 9016SOL     OW27946   6.312   6.084   6.506
 9016SOL    HW127947   6.395   6.062   6.453
 9016SOL    HW227948   6.233   6.040   6.463
 9017SOL     OW27949   6.954   2.994   3.084
 9017SOL    HW127950   6.972   2.911   3.137
 9017SOL    HW227951   6.952   2.970   2.986
 9018SOL     OW27952   3.680   2.618   5.327
 9018SOL    HW127953   3.667   2.518   5.329
 9018SOL    HW227954   3.604   2.660   5.278
 9019SOL     OW27955   2.096   0.031   0.986
 9019SOL    HW127956   2.037   6.979   0.961
 9019SOL    HW227957   2.181   7.022   1.025
 9020SOL     OW27958   0.590   5.094   3.215
 9020SOL    HW127959   0.664   5.032   3.240
 9020SOL    HW227960   0.617   5.188   3.236
 9021SOL     OW27961   6.733   5.719   5.274
 9021SOL    HW127962   6.743   5.752   5.180
 9021SOL    HW227963   6.812   5.661   5.297
 9022SOL     OW27964   3.292   0.720   0.388
 9022SOL    HW127965   3.309   0.730   0.487
 9022SOL    HW227966   3.354   0.779   0.338
 9023SOL     OW27967   3.483   3.487   3.363
 9023SOL    HW127968   3.465   3.392   3.391
 9023SOL    HW227969   3.402   3.523   3.316
 9024SOL     OW27970   1.730   6.698   0.249
 9024SOL    HW127971   1.710   6.766   0.320
 9024SOL    HW227972   1.761   6.745   0.166
 9025SOL     OW27973   6.030   4.449   0.748
 9025SOL    HW127974   6.048   4.350   0.744
 9025SOL    HW227975   6.071   4.486   0.831
 9026SOL     OW27976   3.230   2.915   4.975
 9026SOL    HW127977   3.211   2.987   5.042
 9026SOL    HW227978   3.207   2.826   5.014
 9027SOL     OW27979   1.739   3.191   3.629
 9027SOL    HW127980   1.672   3.261   3.605
 9027SOL    HW227981   1.819   3.234   3.671
 9028SOL     OW27982   2.804   4.989   4.764
 9028SOL    HW127983   2.774   4.894   4.760
 9028SOL    HW227984   2.874   4.998   4.835
 9029SOL     OW27985   5.220   6.124   2.913
 9029SOL    HW127986   5.301   6.127   2.853
 9029SOL    HW227987   5.199   6.029   2.935
 9030SOL     OW27988   2.721   1.009   1.667
 9030SOL    HW127989   2.789   0.963   1.724
 9030SOL    HW227990   2.681   1.085   1.718
 9031SOL     OW27991   2.696   6.715   6.339
 9031SOL    HW127992   2.701   6.643   6.408
 9031SOL    HW227993   2.600   6.738   6.322
 9032SOL     OW27994   2.063   1.608   1.818
 9032SOL    HW127995   2.072   1.686   1.879
 9032SOL    HW227996   2.076   1.523   1.870
 9033SOL     OW27997   1.597   4.009   2.761
 9033SOL    HW127998   1.545   3.930   2.728
 9033SOL    HW227999   1.641   3.985   2.848
 9034SOL     OW28000   3.346   6.656   6.084
 9034SOL    HW128001   3.249   6.634   6.097
 9034SOL    HW228002   3.369   6.646   5.987
 9035SOL     OW28003   7.010   1.448   4.297
 9035SOL    HW128004   0.021   1.381   4.363
 9035SOL    HW228005   6.913   1.431   4.280
 9036SOL     OW28006   1.467   2.017   5.434
 9036SOL    HW128007   1.494   1.927   5.467
 9036SOL    HW228008   1.434   2.010   5.339
 9037SOL     OW28009   2.024   4.133   6.585
 9037SOL    HW128010   2.071   4.198   6.645
 9037SOL    HW228011   1.930   4.122   6.615
 9038SOL     OW28012   5.116   6.222   5.687
 9038SOL    HW128013   5.199   6.170   5.667
 9038SOL    HW228014   5.123   6.313   5.644
 9039SOL     OW28015   2.195   5.715   5.914
 9039SOL    HW128016   2.243   5.784   5.858
 9039SOL    HW228017   2.123   5.672   5.860
 9040SOL     OW28018   1.991   1.463   2.576
 9040SOL    HW128019   1.927   1.388   2.562
 9040SOL    HW228020   2.081   1.436   2.542
 9041SOL     OW28021   2.116   3.232   0.302
 9041SOL    HW128022   2.196   3.180   0.332
 9041SOL    HW228023   2.125   3.255   0.205
 9042SOL     OW28024   2.768   4.714   4.002
 9042SOL    HW128025   2.808   4.793   4.047
 9042SOL    HW228026   2.785   4.719   3.903
 9043SOL     OW28027   0.288   2.312   5.703
 9043SOL    HW128028   0.363   2.333   5.640
 9043SOL    HW228029   0.321   2.251   5.775
 9044SOL     OW28030   6.266   6.010   0.551
 9044SOL    HW128031   6.331   6.085   0.550
 9044SOL    HW228032   6.197   6.026   0.622
 9045SOL     OW28033   2.906   6.642   3.972
 9045SOL    HW128034   3.000   6.665   3.998
 9045SOL    HW228035   2.857   6.726   3.947
 9046SOL     OW28036   3.372   3.882   4.792
 9046SOL    HW128037   3.277   3.872   4.760
 9046SOL    HW228038   3.372   3.891   4.891
 9047SOL     OW28039   0.811   4.849   4.576
 9047SOL    HW128040   0.757   4.819   4.654
 9047SOL    HW228041   0.879   4.780   4.553
 9048SOL     OW28042   0.668   3.358   4.554
 9048SOL    HW128043   0.582   3.406   4.536
 9048SOL    HW228044   0.735   3.423   4.591
 9049SOL     OW28045   5.260   5.467   6.344
 9049SOL    HW128046   5.333   5.517   6.299
 9049SOL    HW228047   5.195   5.433   6.276
 9050SOL     OW28048   0.104   5.109   6.151
 9050SOL    HW128049   0.124   5.183   6.216
 9050SOL    HW228050   0.061   5.148   6.069
 9051SOL     OW28051   5.102   6.307   6.585
 9051SOL    HW128052   5.201   6.312   6.573
 9051SOL    HW228053   5.077   6.357   6.668
 9052SOL     OW28054   1.975   5.177   5.022
 9052SOL    HW128055   1.951   5.190   5.118
 9052SOL    HW228056   1.892   5.157   4.969
 9053SOL     OW28057   3.067   2.227   3.810
 9053SOL    HW128058   3.162   2.211   3.784
 9053SOL    HW228059   3.056   2.212   3.908
 9054SOL     OW28060   2.847   0.498   1.351
 9054SOL    HW128061   2.807   0.578   1.396
 9054SOL    HW228062   2.783   0.422   1.357
 9055SOL     OW28063   1.198   2.843   3.826
 9055SOL    HW128064   1.228   2.919   3.883
 9055SOL    HW228065   1.278   2.793   3.792
 9056SOL     OW28066   5.243   0.334   3.305
 9056SOL    HW128067   5.146   0.356   3.304
 9056SOL    HW228068   5.261   0.257   3.245
 9057SOL     OW28069   5.258   5.481   6.024
 9057SOL    HW128070   5.335   5.452   6.081
 9057SOL    HW228071   5.213   5.401   5.985
 9058SOL     OW28072   1.539   3.035   4.443
 9058SOL    HW128073   1.501   3.114   4.490
 9058SOL    HW228074   1.470   2.963   4.437
 9059SOL     OW28075   0.483   1.508   2.706
 9059SOL    HW128076   0.529   1.545   2.625
 9059SOL    HW228077   0.384   1.509   2.691
 9060SOL     OW28078   0.615   4.293   1.503
 9060SOL    HW128079   0.631   4.245   1.589
 9060SOL    HW228080   0.520   4.280   1.475
 9061SOL     OW28081   5.393   4.727   2.023
 9061SOL    HW128082   5.426   4.656   1.960
 9061SOL    HW228083   5.470   4.765   2.074
 9062SOL     OW28084   0.406   5.709   3.444
 9062SOL    HW128085   0.356   5.637   3.396
 9062SOL    HW228086   0.412   5.687   3.541
 9063SOL     OW28087   3.862   1.225   1.956
 9063SOL    HW128088   3.857   1.205   2.054
 9063SOL    HW228089   3.919   1.156   1.912
 9064SOL     OW28090   0.495   4.873   3.582
 9064SOL    HW128091   0.465   4.811   3.510
 9064SOL    HW228092   0.463   4.966   3.562
 9065SOL     OW28093   2.342   5.006   5.598
 9065SOL    HW128094   2.307   4.912   5.594
 9065SOL    HW228095   2.354   5.033   5.693
 9066SOL     OW28096   5.013   5.020   5.514
 9066SOL    HW128097   5.036   5.117   5.504
 9066SOL    HW228098   5.096   4.967   5.527
 9067SOL     OW28099   0.005   0.175   4.398
 9067SOL    HW128100   0.098   0.138   4.397
 9067SOL    HW228101   6.992   0.172   4.306
 9068SOL     OW28102   4.824   6.718   4.552
 9068SOL    HW128103   4.851   6.733   4.457
 9068SOL    HW228104   4.880   6.775   4.612
 9069SOL     OW28105   4.862   1.884   1.865
 9069SOL    HW128106   4.873   1.788   1.893
 9069SOL    HW228107   4.778   1.894   1.812
 9070SOL     OW28108   1.581   1.668   5.806
 9070SOL    HW128109   1.547   1.751   5.762
 9070SOL    HW228110   1.670   1.643   5.766
 9071SOL     OW28111   5.122   1.848   5.473
 9071SOL    HW128112   5.052   1.915   5.446
 9071SOL    HW228113   5.097   1.808   5.561
 9072SOL     OW28114   4.970   1.011   2.967
 9072SOL    HW128115   4.963   1.101   3.009
 9072SOL    HW228116   5.066   0.991   2.949
 9073SOL     OW28117   4.501   0.951   6.352
 9073SOL    HW128118   4.571   0.881   6.370
 9073SOL    HW228119   4.526   1.001   6.269
 9074SOL     OW28120   1.801   6.761   1.653
 9074SOL    HW128121   1.854   6.797   1.730
 9074SOL    HW228122   1.842   6.793   1.567
 9075SOL     OW28123   6.491   0.130   1.128
 9075SOL    HW128124   6.570   0.189   1.109
 9075SOL    HW228125   6.524   0.044   1.167
 9076SOL     OW28126   6.833   0.642   2.174
 9076SOL    HW128127   6.764   0.650   2.245
 9076SOL    HW228128   6.866   0.734   2.149
 9077SOL     OW28129   6.487   1.311   6.106
 9077SOL    HW128130   6.469   1.408   6.120
 9077SOL    HW228131   6.402   1.259   6.116
 9078SOL     OW28132   5.567   6.160   6.947
 9078SOL    HW128133   5.630   6.176   6.871
 9078SOL    HW228134   5.620   6.148   0.007
 9079SOL     OW28135   1.067   0.504   6.369
 9079SOL    HW128136   1.052   0.603   6.367
 9079SOL    HW228137   1.021   0.466   6.449
 9080SOL     OW28138   6.190   3.753   0.996
 9080SOL    HW128139   6.273   3.705   0.968
 9080SOL    HW228140   6.113   3.690   0.995
 9081SOL     OW28141   3.529   2.092   0.511
 9081SOL    HW128142   3.549   2.179   0.464
 9081SOL    HW228143   3.549   2.102   0.608
 9082SOL     OW28144   2.968   5.734   5.600
 9082SOL    HW128145   2.936   5.639   5.603
 9082SOL    HW228146   3.053   5.742   5.652
 9083SOL     OW28147   4.471   4.917   0.235
 9083SOL    HW128148   4.557   4.912   0.185
 9083SOL    HW228149   4.395   4.896   0.173
 9084SOL     OW28150   0.830   2.826   5.689
 9084SOL    HW128151   0.873   2.854   5.603
 9084SOL    HW228152   0.731   2.818   5.676
 9085SOL     OW28153   2.533   5.130   6.634
 9085SOL    HW128154   2.495   5.037   6.636
 9085SOL    HW228155   2.459   5.196   6.625
 9086SOL     OW28156   6.966   4.174   0.419
 9086SOL    HW128157   6.971   4.128   0.508
 9086SOL    HW228158   6.877   4.156   0.377
 9087SOL     OW28159   5.925   1.337   1.728
 9087SOL    HW128160   6.010   1.287   1.712
 9087SOL    HW228161   5.868   1.333   1.646
 9088SOL     OW28162   6.599   0.318   0.512
 9088SOL    HW128163   6.550   0.233   0.533
 9088SOL    HW228164   6.605   0.329   0.412
 9089SOL     OW28165   4.455   5.863   3.925
 9089SOL    HW128166   4.424   5.777   3.884
 9089SOL    HW228167   4.459   5.934   3.855
 9090SOL     OW28168   5.749   6.440   4.944
 9090SOL    HW128169   5.652   6.419   4.934
 9090SOL    HW228170   5.768   6.529   4.902
 9091SOL     OW28171   2.399   1.920   0.953
 9091SOL    HW128172   2.432   1.828   0.935
 9091SOL    HW228173   2.466   1.971   1.007
 9092SOL     OW28174   1.173   6.457   5.711
 9092SOL    HW128175   1.128   6.532   5.663
 9092SOL    HW228176   1.188   6.381   5.647
 9093SOL     OW28177   1.661   5.403   0.236
 9093SOL    HW128178   1.620   5.312   0.245
 9093SOL    HW228179   1.612   5.455   0.166
 9094SOL     OW28180   0.191   6.036   2.074
 9094SOL    HW128181   0.256   6.112   2.082
 9094SOL    HW228182   0.138   6.046   1.991
 9095SOL     OW28183   4.170   3.497   6.354
 9095SOL    HW128184   4.192   3.508   6.257
 9095SOL    HW228185   4.098   3.429   6.365
 9096SOL     OW28186   5.840   2.639   2.743
 9096SOL    HW128187   5.753   2.593   2.732
 9096SOL    HW228188   5.830   2.736   2.721
 9097SOL     OW28189   1.329   3.941   6.600
 9097SOL    HW128190   1.427   3.938   6.583
 9097SOL    HW228191   1.310   4.006   6.673
 9098SOL     OW28192   3.706   3.794   1.997
 9098SOL    HW128193   3.782   3.731   2.010
 9098SOL    HW228194   3.724   3.851   1.917
 9099SOL     OW28195   2.261   3.476   1.302
 9099SOL    HW128196   2.257   3.390   1.353
 9099SOL    HW228197   2.304   3.546   1.359
 9100SOL     OW28198   0.779   3.155   0.959
 9100SOL    HW128199   0.763   3.163   0.860
 9100SOL    HW228200   0.847   3.223   0.987
 9101SOL     OW28201   1.573   2.674   2.535
 9101SOL    HW128202   1.520   2.724   2.604
 9101SOL    HW228203   1.670   2.683   2.555
 9102SOL     OW28204   4.197   5.430   2.316
 9102SOL    HW128205   4.129   5.368   2.355
 9102SOL    HW228206   4.289   5.390   2.327
 9103SOL     OW28207   6.827   3.803   0.573
 9103SOL    HW128208   6.873   3.891   0.589
 9103SOL    HW228209   6.843   3.773   0.479
 9104SOL     OW28210   4.796   6.410   1.387
 9104SOL    HW128211   4.768   6.485   1.446
 9104SOL    HW228212   4.876   6.364   1.426
 9105SOL     OW28213   1.513   0.875   6.362
 9105SOL    HW128214   1.598   0.881   6.414
 9105SOL    HW228215   1.527   0.912   6.271
 9106SOL     OW28216   5.793   5.004   0.066
 9106SOL    HW128217   5.862   4.933   0.053
 9106SOL    HW228218   5.705   4.961   0.086
 9107SOL     OW28219   3.460   0.077   0.576
 9107SOL    HW128220   3.385   0.013   0.562
 9107SOL    HW228221   3.439   0.164   0.531
 9108SOL     OW28222   4.819   4.704   5.881
 9108SOL    HW128223   4.822   4.743   5.790
 9108SOL    HW228224   4.833   4.776   5.949
 9109SOL     OW28225   2.676   2.438   3.536
 9109SOL    HW128226   2.624   2.371   3.485
 9109SOL    HW228227   2.769   2.404   3.551
 9110SOL     OW28228   1.837   4.653   3.631
 9110SOL    HW128229   1.931   4.667   3.598
 9110SOL    HW228230   1.819   4.715   3.706
 9111SOL     OW28231   4.011   4.332   1.414
 9111SOL    HW128232   4.040   4.270   1.341
 9111SOL    HW228233   3.960   4.281   1.483
 9112SOL     OW28234   1.019   4.459   2.748
 9112SOL    HW128235   1.003   4.415   2.837
 9112SOL    HW228236   1.008   4.558   2.758
 9113SOL     OW28237   5.021   0.395   0.493
 9113SOL    HW128238   5.021   0.493   0.472
 9113SOL    HW228239   5.017   0.343   0.408
 9114SOL     OW28240   2.217   4.334   2.217
 9114SOL    HW128241   2.211   4.240   2.184
 9114SOL    HW228242   2.240   4.395   2.141
 9115SOL     OW28243   1.743   5.149   4.310
 9115SOL    HW128244   1.646   5.160   4.289
 9115SOL    HW228245   1.792   5.233   4.286
 9116SOL     OW28246   6.399   1.648   6.695
 9116SOL    HW128247   6.437   1.739   6.679
 9116SOL    HW228248   6.394   1.598   6.608
 9117SOL     OW28249   6.195   2.923   6.069
 9117SOL    HW128250   6.211   3.021   6.075
 9117SOL    HW228251   6.241   2.877   6.145
 9118SOL     OW28252   6.097   6.907   1.131
 9118SOL    HW128253   6.180   6.852   1.140
 9118SOL    HW228254   6.119   7.003   1.148
 9119SOL     OW28255   5.845   0.725   1.918
 9119SOL    HW128256   5.888   0.775   1.843
 9119SOL    HW228257   5.903   0.649   1.946
 9120SOL     OW28258   5.734   1.874   5.676
 9120SOL    HW128259   5.757   1.829   5.762
 9120SOL    HW228260   5.674   1.952   5.694
 9121SOL     OW28261   0.523   2.725   5.237
 9121SOL    HW128262   0.579   2.644   5.225
 9121SOL    HW228263   0.576   2.797   5.282
 9122SOL     OW28264   1.608   3.179   2.653
 9122SOL    HW128265   1.694   3.230   2.655
 9122SOL    HW228266   1.576   3.164   2.746
 9123SOL     OW28267   2.760   6.502   5.501
 9123SOL    HW128268   2.785   6.410   5.532
 9123SOL    HW228269   2.665   6.521   5.525
 9124SOL     OW28270   6.368   5.893   5.447
 9124SOL    HW128271   6.465   5.894   5.474
 9124SOL    HW228272   6.337   5.798   5.440
 9125SOL     OW28273   4.782   4.112   3.638
 9125SOL    HW128274   4.696   4.140   3.595
 9125SOL    HW228275   4.858   4.160   3.593
 9126SOL     OW28276   6.079   1.124   1.537
 9126SOL    HW128277   6.092   1.160   1.445
 9126SOL    HW228278   6.032   1.036   1.531
 9127SOL     OW28279   5.695   0.113   6.015
 9127SOL    HW128280   5.709   0.195   6.071
 9127SOL    HW228281   5.766   0.046   6.036
 9128SOL     OW28282   3.750   1.010   5.163
 9128SOL    HW128283   3.695   0.994   5.245
 9128SOL    HW228284   3.701   1.072   5.102
 9129SOL     OW28285   1.716   2.974   6.770
 9129SOL    HW128286   1.731   3.009   6.678
 9129SOL    HW228287   1.718   3.050   6.835
 9130SOL     OW28288   6.875   4.798   6.911
 9130SOL    HW128289   6.829   4.717   6.876
 9130SOL    HW228290   6.873   4.798   7.011
 9131SOL     OW28291   0.485   4.574   5.101
 9131SOL    HW128292   0.497   4.506   5.173
 9131SOL    HW228293   0.388   4.582   5.079
 9132SOL     OW28294   6.757   4.147   3.886
 9132SOL    HW128295   6.680   4.084   3.876
 9132SOL    HW228296   6.728   4.225   3.943
 9133SOL     OW28297   2.522   4.569   0.423
 9133SOL    HW128298   2.614   4.535   0.444
 9133SOL    HW228299   2.479   4.602   0.507
 9134SOL     OW28300   3.416   6.147   0.122
 9134SOL    HW128301   3.512   6.168   0.137
 9134SOL    HW228302   3.370   6.135   0.211
 9135SOL     OW28303   0.127   6.700   2.025
 9135SOL    HW128304   0.196   6.673   2.093
 9135SOL    HW228305   0.110   6.798   2.033
 9136SOL     OW28306   5.119   5.319   5.738
 9136SOL    HW128307   5.176   5.365   5.670
 9136SOL    HW228308   5.023   5.326   5.710
 9137SOL     OW28309   5.185   1.286   1.274
 9137SOL    HW128310   5.191   1.309   1.177
 9137SOL    HW228311   5.141   1.197   1.285
 9138SOL     OW28312   5.960   5.284   6.300
 9138SOL    HW128313   5.861   5.271   6.309
 9138SOL    HW228314   6.002   5.198   6.270
 9139SOL     OW28315   2.956   1.446   5.987
 9139SOL    HW128316   3.050   1.480   5.973
 9139SOL    HW228317   2.929   1.463   6.081
 9140SOL     OW28318   6.678   2.415   2.945
 9140SOL    HW128319   6.585   2.444   2.923
 9140SOL    HW228320   6.675   2.348   3.019
 9141SOL     OW28321   5.286   6.967   6.399
 9141SOL    HW128322   5.348   7.022   6.343
 9141SOL    HW228323   5.322   6.874   6.407
 9142SOL     OW28324   0.321   3.161   5.256
 9142SOL    HW128325   0.344   3.208   5.171
 9142SOL    HW228326   0.223   3.142   5.259
 9143SOL     OW28327   4.502   3.502   0.023
 9143SOL    HW128328   4.547   3.577   0.070
 9143SOL    HW228329   4.435   3.460   0.083
 9144SOL     OW28330   2.180   6.129   6.417
 9144SOL    HW128331   2.142   6.106   6.327
 9144SOL    HW228332   2.154   6.060   6.484
 9145SOL     OW28333   0.245   5.193   0.715
 9145SOL    HW128334   0.236   5.132   0.794
 9145SOL    HW228335   0.154   5.218   0.682
 9146SOL     OW28336   5.103   2.191   1.356
 9146SOL    HW128337   5.043   2.133   1.300
 9146SOL    HW228338   5.137   2.267   1.300
 9147SOL     OW28339   5.348   6.692   4.267
 9147SOL    HW128340   5.331   6.603   4.308
 9147SOL    HW228341   5.441   6.696   4.231
 9148SOL     OW28342   6.297   6.426   2.158
 9148SOL    HW128343   6.277   6.374   2.075
 9148SOL    HW228344   6.282   6.368   2.238
 9149SOL     OW28345   4.660   2.622   3.921
 9149SOL    HW128346   4.577   2.613   3.865
 9149SOL    HW228347   4.737   2.579   3.874
 9150SOL     OW28348   4.489   6.426   3.266
 9150SOL    HW128349   4.588   6.444   3.270
 9150SOL    HW228350   4.468   6.381   3.179
 9151SOL     OW28351   1.457   3.798   2.394
 9151SOL    HW128352   1.445   3.893   2.422
 9151SOL    HW228353   1.367   3.758   2.376
 9152SOL     OW28354   2.629   5.882   4.290
 9152SOL    HW128355   2.625   5.975   4.252
 9152SOL    HW228356   2.681   5.884   4.376
 9153SOL     OW28357   1.892   2.853   0.462
 9153SOL    HW128358   1.857   2.767   0.500
 9153SOL    HW228359   1.887   2.849   0.362
 9154SOL     OW28360   2.895   6.049   6.524
 9154SOL    HW128361   2.797   6.033   6.524
 9154SOL    HW228362   2.943   5.965   6.549
 9155SOL     OW28363   2.185   3.563   0.131
 9155SOL    HW128364   2.176   3.631   0.057
 9155SOL    HW228365   2.177   3.471   0.092
 9156SOL     OW28366   3.151   2.619   1.494
 9156SOL    HW128367   3.160   2.718   1.483
 9156SOL    HW228368   3.065   2.598   1.540
 9157SOL     OW28369   5.927   4.600   5.648
 9157SOL    HW128370   5.996   4.640   5.709
 9157SOL    HW228371   5.943   4.502   5.639
 9158SOL     OW28372   6.513   3.456   4.302
 9158SOL    HW128373   6.544   3.428   4.393
 9158SOL    HW228374   6.558   3.400   4.232
 9159SOL     OW28375   0.014   6.096   3.177
 9159SOL    HW128376   0.104   6.139   3.171
 9159SOL    HW228377   0.024   5.998   3.195
 9160SOL     OW28378   6.891   6.799   4.831
 9160SOL    HW128379   6.932   6.881   4.872
 9160SOL    HW228380   6.817   6.826   4.770
 9161SOL     OW28381   4.838   4.051   4.908
 9161SOL    HW128382   4.836   3.990   4.987
 9161SOL    HW228383   4.873   4.141   4.935
 9162SOL     OW28384   5.180   2.255   3.476
 9162SOL    HW128385   5.225   2.166   3.469
 9162SOL    HW228386   5.116   2.266   3.400
 9163SOL     OW28387   2.040   3.293   3.654
 9163SOL    HW128388   2.049   3.330   3.747
 9163SOL    HW228389   2.074   3.199   3.653
 9164SOL     OW28390   2.675   0.937   6.694
 9164SOL    HW128391   2.577   0.920   6.699
 9164SOL    HW228392   2.720   0.902   6.777
 9165SOL     OW28393   6.289   0.973   6.249
 9165SOL    HW128394   6.275   1.028   6.167
 9165SOL    HW228395   6.273   0.877   6.227
 9166SOL     OW28396   4.685   6.417   1.150
 9166SOL    HW128397   4.741   6.416   1.233
 9166SOL    HW228398   4.647   6.326   1.134
 9167SOL     OW28399   1.958   2.950   6.010
 9167SOL    HW128400   2.056   2.952   5.991
 9167SOL    HW228401   1.912   3.017   5.952
 9168SOL     OW28402   1.838   6.589   5.825
 9168SOL    HW128403   1.748   6.570   5.864
 9168SOL    HW228404   1.850   6.536   5.741
 9169SOL     OW28405   6.736   0.874   4.717
 9169SOL    HW128406   6.682   0.884   4.800
 9169SOL    HW228407   6.828   0.911   4.731
 9170SOL     OW28408   0.273   5.089   6.796
 9170SOL    HW128409   0.245   5.130   6.882
 9170SOL    HW228410   0.352   5.138   6.760
 9171SOL     OW28411   3.070   5.490   0.220
 9171SOL    HW128412   3.046   5.533   0.307
 9171SOL    HW228413   3.146   5.540   0.178
 9172SOL     OW28414   3.596   0.455   4.772
 9172SOL    HW128415   3.522   0.516   4.800
 9172SOL    HW228416   3.677   0.510   4.751
 9173SOL     OW28417   5.589   4.813   4.570
 9173SOL    HW128418   5.658   4.885   4.564
 9173SOL    HW228419   5.630   4.726   4.542
 9174SOL     OW28420   6.249   3.917   0.542
 9174SOL    HW128421   6.320   3.849   0.563
 9174SOL    HW228422   6.293   3.999   0.503
 9175SOL     OW28423   2.163   6.473   4.884
 9175SOL    HW128424   2.088   6.426   4.930
 9175SOL    HW228425   2.182   6.560   4.930
 9176SOL     OW28426   2.346   1.242   5.623
 9176SOL    HW128427   2.369   1.339   5.624
 9176SOL    HW228428   2.425   1.189   5.593
 9177SOL     OW28429   1.506   5.312   4.226
 9177SOL    HW128430   1.557   5.384   4.179
 9177SOL    HW228431   1.408   5.332   4.220
 9178SOL     OW28432   2.197   5.153   0.606
 9178SOL    HW128433   2.229   5.059   0.618
 9178SOL    HW228434   2.275   5.214   0.595
 9179SOL     OW28435   2.740   5.384   4.222
 9179SOL    HW128436   2.656   5.382   4.168
 9179SOL    HW228437   2.726   5.438   4.305
 9180SOL     OW28438   6.237   2.393   3.480
 9180SOL    HW128439   6.324   2.405   3.432
 9180SOL    HW228440   6.163   2.389   3.413
 9181SOL     OW28441   4.450   2.406   2.979
 9181SOL    HW128442   4.443   2.307   2.973
 9181SOL    HW228443   4.540   2.432   3.014
 9182SOL     OW28444   2.989   0.187   2.514
 9182SOL    HW128445   2.890   0.172   2.520
 9182SOL    HW228446   3.034   0.101   2.489
 9183SOL     OW28447   5.459   5.962   0.233
 9183SOL    HW128448   5.535   5.990   0.292
 9183SOL    HW228449   5.495   5.908   0.157
 9184SOL     OW28450   5.202   1.526   0.068
 9184SOL    HW128451   5.124   1.582   0.041
 9184SOL    HW228452   5.183   1.481   0.156
 9185SOL     OW28453   4.495   6.934   4.755
 9185SOL    HW128454   4.508   0.006   4.776
 9185SOL    HW228455   4.538   6.878   4.826
 9186SOL     OW28456   5.881   1.094   3.835
 9186SOL    HW128457   5.818   1.048   3.897
 9186SOL    HW228458   5.959   1.034   3.815
 9187SOL     OW28459   2.760   0.292   1.671
 9187SOL    HW128460   2.763   0.369   1.735
 9187SOL    HW228461   2.849   0.281   1.627
 9188SOL     OW28462   1.992   6.653   2.203
 9188SOL    HW128463   1.950   6.723   2.261
 9188SOL    HW228464   2.063   6.695   2.147
 9189SOL     OW28465   5.533   5.751   2.453
 9189SOL    HW128466   5.501   5.769   2.360
 9189SOL    HW228467   5.585   5.830   2.487
 9190SOL     OW28468   1.368   5.064   0.450
 9190SOL    HW128469   1.303   5.124   0.497
 9190SOL    HW228470   1.322   5.017   0.375
 9191SOL     OW28471   6.177   0.878   5.756
 9191SOL    HW128472   6.087   0.883   5.801
 9191SOL    HW228473   6.238   0.944   5.799
 9192SOL     OW28474   0.684   4.045   5.460
 9192SOL    HW128475   0.746   4.063   5.384
 9192SOL    HW228476   0.680   4.125   5.520
 9193SOL     OW28477   4.593   4.422   0.484
 9193SOL    HW128478   4.636   4.503   0.523
 9193SOL    HW228479   4.624   4.410   0.390
 9194SOL     OW28480   3.080   0.963   3.439
 9194SOL    HW128481   3.118   0.929   3.353
 9194SOL    HW228482   3.068   1.062   3.433
 9195SOL     OW28483   1.838   2.148   4.422
 9195SOL    HW128484   1.936   2.143   4.437
 9195SOL    HW228485   1.815   2.103   4.336
 9196SOL     OW28486   4.108   0.427   4.624
 9196SOL    HW128487   4.032   0.438   4.689
 9196SOL    HW228488   4.091   0.485   4.545
 9197SOL     OW28489   1.300   4.247   1.421
 9197SOL    HW128490   1.318   4.151   1.399
 9197SOL    HW228491   1.260   4.252   1.512
 9198SOL     OW28492   6.318   5.387   5.580
 9198SOL    HW128493   6.255   5.333   5.636
 9198SOL    HW228494   6.295   5.375   5.484
 9199SOL     OW28495   1.074   3.757   6.260
 9199SOL    HW128496   1.046   3.697   6.186
 9199SOL    HW228497   1.134   3.829   6.224
 9200SOL     OW28498   2.469   0.247   0.784
 9200SOL    HW128499   2.481   0.346   0.779
 9200SOL    HW228500   2.555   0.203   0.811
 9201SOL     OW28501   0.633   3.110   0.362
 9201SOL    HW128502   0.599   3.201   0.384
 9201SOL    HW228503   0.658   3.106   0.265
 9202SOL     OW28504   2.383   7.006   3.455
 9202SOL    HW128505   2.306   6.955   3.417
 9202SOL    HW228506   2.392   6.986   3.552
 9203SOL     OW28507   0.469   5.579   6.503
 9203SOL    HW128508   0.401   5.621   6.443
 9203SOL    HW228509   0.502   5.494   6.462
 9204SOL     OW28510   4.627   2.721   6.499
 9204SOL    HW128511   4.590   2.799   6.449
 9204SOL    HW228512   4.661   2.752   6.588
 9205SOL     OW28513   6.112   4.089   2.602
 9205SOL    HW128514   6.049   4.027   2.649
 9205SOL    HW228515   6.146   4.045   2.519
 9206SOL     OW28516   3.818   5.495   1.259
 9206SOL    HW128517   3.838   5.553   1.179
 9206SOL    HW228518   3.831   5.548   1.342
 9207SOL     OW28519   4.153   4.584   0.159
 9207SOL    HW128520   4.241   4.605   0.117
 9207SOL    HW228521   4.122   4.663   0.213
 9208SOL     OW28522   6.022   4.168   4.173
 9208SOL    HW128523   6.103   4.176   4.115
 9208SOL    HW228524   6.050   4.172   4.269
 9209SOL     OW28525   2.921   0.646   0.075
 9209SOL    HW128526   3.017   0.672   0.084
 9209SOL    HW228527   2.866   0.696   0.141
 9210SOL     OW28528   6.790   1.209   2.794
 9210SOL    HW128529   6.697   1.201   2.757
 9210SOL    HW228530   6.848   1.139   2.753
 9211SOL     OW28531   6.716   2.624   4.298
 9211SOL    HW128532   6.763   2.703   4.261
 9211SOL    HW228533   6.618   2.644   4.307
 9212SOL     OW28534   4.028   5.049   4.261
 9212SOL    HW128535   4.017   5.145   4.288
 9212SOL    HW228536   4.016   5.040   4.162
 9213SOL     OW28537   5.788   2.751   5.260
 9213SOL    HW128538   5.850   2.738   5.337
 9213SOL    HW228539   5.695   2.763   5.295
 9214SOL     OW28540   0.187   5.511   5.602
 9214SOL    HW128541   0.239   5.596   5.592
 9214SOL    HW228542   0.191   5.460   5.516
 9215SOL     OW28543   1.305   2.283   0.330
 9215SOL    HW128544   1.339   2.252   0.419
 9215SOL    HW228545   1.302   2.206   0.267
 9216SOL     OW28546   2.718   0.243   3.307
 9216SOL    HW128547   2.720   0.243   3.407
 9216SOL    HW228548   2.788   0.305   3.273
 9217SOL     OW28549   0.252   0.752   5.630
 9217SOL    HW128550   0.197   0.820   5.678
 9217SOL    HW228551   0.258   0.669   5.685
 9218SOL     OW28552   3.814   6.247   0.507
 9218SOL    HW128553   3.745   6.218   0.441
 9218SOL    HW228554   3.894   6.188   0.500
 9219SOL     OW28555   0.638   2.649   0.184
 9219SOL    HW128556   0.552   2.670   0.230
 9219SOL    HW228557   0.646   2.706   0.102
 9220SOL     OW28558   2.723   6.408   1.640
 9220SOL    HW128559   2.691   6.360   1.721
 9220SOL    HW228560   2.650   6.467   1.604
 9221SOL     OW28561   3.338   0.439   4.184
 9221SOL    HW128562   3.247   0.437   4.143
 9221SOL    HW228563   3.329   0.447   4.284
 9222SOL     OW28564   2.671   0.234   6.922
 9222SOL    HW128565   2.576   0.262   6.911
 9222SOL    HW228566   2.722   0.305   6.970
 9223SOL     OW28567   1.536   1.763   5.086
 9223SOL    HW128568   1.595   1.758   5.167
 9223SOL    HW228569   1.591   1.745   5.005
 9224SOL     OW28570   3.124   5.249   4.807
 9224SOL    HW128571   3.218   5.251   4.840
 9224SOL    HW228572   3.115   5.184   4.732
 9225SOL     OW28573   3.483   6.983   6.206
 9225SOL    HW128574   3.426   7.022   6.134
 9225SOL    HW228575   3.575   6.965   6.170
 9226SOL     OW28576   5.490   6.421   1.717
 9226SOL    HW128577   5.535   6.489   1.774
 9226SOL    HW228578   5.432   6.467   1.649
 9227SOL     OW28579   0.759   5.191   2.980
 9227SOL    HW128580   0.734   5.240   3.063
 9227SOL    HW228581   0.856   5.205   2.961
 9228SOL     OW28582   1.140   0.613   5.706
 9228SOL    HW128583   1.056   0.633   5.755
 9228SOL    HW228584   1.187   0.699   5.683
 9229SOL     OW28585   1.422   5.687   4.550
 9229SOL    HW128586   1.463   5.680   4.459
 9229SOL    HW228587   1.477   5.748   4.607
 9230SOL     OW28588   5.930   0.318   2.571
 9230SOL    HW128589   5.922   0.260   2.653
 9230SOL    HW228590   5.993   0.275   2.506
 9231SOL     OW28591   2.127   3.735   4.092
 9231SOL    HW128592   2.131   3.807   4.161
 9231SOL    HW228593   2.049   3.676   4.111
 9232SOL     OW28594   3.369   5.431   0.985
 9232SOL    HW128595   3.284   5.461   0.943
 9232SOL    HW228596   3.353   5.409   1.081
 9233SOL     OW28597   5.687   4.984   1.530
 9233SOL    HW128598   5.706   4.979   1.432
 9233SOL    HW228599   5.753   4.929   1.579
 9234SOL     OW28600   3.359   5.563   4.182
 9234SOL    HW128601   3.361   5.607   4.271
 9234SOL    HW228602   3.299   5.483   4.186
 9235SOL     OW28603   1.729   2.359   3.414
 9235SOL    HW128604   1.755   2.264   3.394
 9235SOL    HW228605   1.635   2.375   3.381
 9236SOL     OW28606   3.580   4.138   5.423
 9236SOL    HW128607   3.661   4.104   5.375
 9236SOL    HW228608   3.519   4.182   5.358
 9237SOL     OW28609   2.040   4.494   4.663
 9237SOL    HW128610   2.041   4.491   4.763
 9237SOL    HW228611   2.134   4.490   4.628
 9238SOL     OW28612   4.185   2.135   6.320
 9238SOL    HW128613   4.225   2.187   6.395
 9238SOL    HW228614   4.258   2.093   6.266
 9239SOL     OW28615   0.541   3.926   1.257
 9239SOL    HW128616   0.447   3.962   1.262
 9239SOL    HW228617   0.555   3.859   1.329
 9240SOL     OW28618   5.616   1.346   0.487
 9240SOL    HW128619   5.633   1.423   0.549
 9240SOL    HW228620   5.700   1.321   0.440
 9241SOL     OW28621   6.420   5.708   6.056
 9241SOL    HW128622   6.367   5.628   6.085
 9241SOL    HW228623   6.414   5.779   6.126
 9242SOL     OW28624   6.607   5.323   0.351
 9242SOL    HW128625   6.625   5.421   0.350
 9242SOL    HW228626   6.508   5.308   0.347
 9243SOL     OW28627   6.132   5.821   3.043
 9243SOL    HW128628   6.070   5.895   3.070
 9243SOL    HW228629   6.162   5.771   3.124
 9244SOL     OW28630   4.468   5.467   6.053
 9244SOL    HW128631   4.432   5.553   6.017
 9244SOL    HW228632   4.482   5.475   6.152
 9245SOL     OW28633   1.288   5.258   2.426
 9245SOL    HW128634   1.291   5.253   2.525
 9245SOL    HW228635   1.377   5.287   2.391
 9246SOL     OW28636   5.700   4.541   3.620
 9246SOL    HW128637   5.651   4.619   3.659
 9246SOL    HW228638   5.798   4.560   3.620
 9247SOL     OW28639   0.426   6.878   3.217
 9247SOL    HW128640   0.448   6.882   3.120
 9247SOL    HW228641   0.500   6.832   3.266
 9248SOL     OW28642   2.167   2.682   5.919
 9248SOL    HW128643   2.222   2.693   5.836
 9248SOL    HW228644   2.088   2.624   5.899
 9249SOL     OW28645   5.464   2.615   5.654
 9249SOL    HW128646   5.475   2.700   5.602
 9249SOL    HW228647   5.509   2.540   5.604
 9250SOL     OW28648   5.128   4.306   4.754
 9250SOL    HW128649   5.220   4.276   4.729
 9250SOL    HW228650   5.061   4.240   4.719
 9251SOL     OW28651   3.717   2.071   3.611
 9251SOL    HW128652   3.635   2.026   3.577
 9251SOL    HW228653   3.760   2.123   3.537
 9252SOL     OW28654   6.657   0.764   4.279
 9252SOL    HW128655   6.682   0.749   4.375
 9252SOL    HW228656   6.671   0.860   4.256
 9253SOL     OW28657   4.248   6.085   5.909
 9253SOL    HW128658   4.236   6.008   5.846
 9253SOL    HW228659   4.210   6.168   5.868
 9254SOL     OW28660   6.077   3.839   1.606
 9254SOL    HW128661   6.016   3.914   1.633
 9254SOL    HW228662   6.051   3.807   1.515
 9255SOL     OW28663   5.058   2.840   0.102
 9255SOL    HW128664   5.029   2.791   0.184
 9255SOL    HW228665   4.986   2.904   0.074
 9256SOL     OW28666   3.987   4.946   3.386
 9256SOL    HW128667   4.044   4.950   3.468
 9256SOL    HW228668   4.018   4.870   3.329
 9257SOL     OW28669   0.811   4.131   2.568
 9257SOL    HW128670   0.802   4.032   2.577
 9257SOL    HW228671   0.901   4.152   2.531
 9258SOL     OW28672   3.857   3.042   3.914
 9258SOL    HW128673   3.911   3.093   3.846
 9258SOL    HW228674   3.777   3.002   3.870
 9259SOL     OW28675   1.286   2.401   0.941
 9259SOL    HW128676   1.211   2.336   0.947
 9259SOL    HW228677   1.249   2.494   0.941
 9260SOL     OW28678   5.074   2.269   5.318
 9260SOL    HW128679   5.123   2.249   5.402
 9260SOL    HW228680   5.128   2.240   5.239
 9261SOL     OW28681   4.543   0.417   6.454
 9261SOL    HW128682   4.480   0.436   6.379
 9261SOL    HW228683   4.591   0.331   6.437
 9262SOL     OW28684   6.178   2.341   5.690
 9262SOL    HW128685   6.165   2.412   5.759
 9262SOL    HW228686   6.103   2.275   5.695
 9263SOL     OW28687   6.415   3.841   1.290
 9263SOL    HW128688   6.397   3.914   1.223
 9263SOL    HW228689   6.333   3.824   1.343
 9264SOL     OW28690   6.201   3.674   0.180
 9264SOL    HW128691   6.166   3.766   0.197
 9264SOL    HW228692   6.289   3.680   0.134
 9265SOL     OW28693   3.483   1.156   0.375
 9265SOL    HW128694   3.502   1.121   0.284
 9265SOL    HW228695   3.483   1.256   0.373
 9266SOL     OW28696   2.762   6.430   3.316
 9266SOL    HW128697   2.675   6.384   3.297
 9266SOL    HW228698   2.816   6.434   3.233
 9267SOL     OW28699   0.112   3.987   5.476
 9267SOL    HW128700   0.082   4.005   5.383
 9267SOL    HW228701   0.088   4.065   5.535
 9268SOL     OW28702   0.760   6.522   2.587
 9268SOL    HW128703   0.756   6.423   2.578
 9268SOL    HW228704   0.852   6.549   2.615
 9269SOL     OW28705   2.937   2.005   7.005
 9269SOL    HW128706   2.879   2.010   0.062
 9269SOL    HW228707   2.965   2.098   6.979
 9270SOL     OW28708   5.394   6.604   5.568
 9270SOL    HW128709   5.420   6.665   5.493
 9270SOL    HW228710   5.338   6.655   5.634
 9271SOL     OW28711   1.746   6.025   1.233
 9271SOL    HW128712   1.842   6.016   1.257
 9271SOL    HW228713   1.698   5.939   1.252
 9272SOL     OW28714   3.194   4.506   6.217
 9272SOL    HW128715   3.187   4.606   6.214
 9272SOL    HW228716   3.181   4.474   6.310
 9273SOL     OW28717   5.110   5.976   3.568
 9273SOL    HW128718   5.087   5.886   3.530
 9273SOL    HW228719   5.079   5.981   3.663
 9274SOL     OW28720   5.707   1.877   6.424
 9274SOL    HW128721   5.799   1.846   6.400
 9274SOL    HW228722   5.687   1.852   6.519
 9275SOL     OW28723   0.536   0.868   0.046
 9275SOL    HW128724   0.574   0.910   6.988
 9275SOL    HW228725   0.503   0.776   0.024
 9276SOL     OW28726   2.392   5.004   4.384
 9276SOL    HW128727   2.352   4.928   4.436
 9276SOL    HW228728   2.326   5.080   4.380
 9277SOL     OW28729   3.909   3.790   0.398
 9277SOL    HW128730   3.904   3.690   0.387
 9277SOL    HW228731   3.998   3.814   0.437
 9278SOL     OW28732   1.848   1.156   4.039
 9278SOL    HW128733   1.864   1.125   4.133
 9278SOL    HW228734   1.934   1.153   3.988
 9279SOL     OW28735   4.757   0.786   2.112
 9279SOL    HW128736   4.812   0.819   2.189
 9279SOL    HW228737   4.660   0.800   2.132
 9280SOL     OW28738   1.634   0.341   3.988
 9280SOL    HW128739   1.705   0.281   3.953
 9280SOL    HW228740   1.544   0.300   3.971
 9281SOL     OW28741   3.278   3.311   0.770
 9281SOL    HW128742   3.202   3.339   0.712
 9281SOL    HW228743   3.254   3.328   0.866
 9282SOL     OW28744   5.201   2.382   4.146
 9282SOL    HW128745   5.242   2.306   4.095
 9282SOL    HW228746   5.141   2.346   4.218
 9283SOL     OW28747   6.420   1.281   2.441
 9283SOL    HW128748   6.431   1.218   2.365
 9283SOL    HW228749   6.345   1.344   2.421
 9284SOL     OW28750   3.950   4.564   6.682
 9284SOL    HW128751   3.911   4.478   6.648
 9284SOL    HW228752   4.002   4.546   6.765
 9285SOL     OW28753   5.329   2.688   0.552
 9285SOL    HW128754   5.285   2.615   0.500
 9285SOL    HW228755   5.262   2.730   0.614
 9286SOL     OW28756   6.162   0.223   5.383
 9286SOL    HW128757   6.177   0.125   5.394
 9286SOL    HW228758   6.105   0.239   5.302
 9287SOL     OW28759   3.543   5.584   1.271
 9287SOL    HW128760   3.632   5.538   1.272
 9287SOL    HW228761   3.473   5.519   1.240
 9288SOL     OW28762   3.827   1.099   5.577
 9288SOL    HW128763   3.903   1.160   5.599
 9288SOL    HW228764   3.775   1.138   5.501
 9289SOL     OW28765   4.044   1.919   2.405
 9289SOL    HW128766   3.958   1.877   2.436
 9289SOL    HW228767   4.041   2.018   2.425
 9290SOL     OW28768   4.155   1.398   4.715
 9290SOL    HW128769   4.224   1.398   4.642
 9290SOL    HW228770   4.093   1.475   4.702
 9291SOL     OW28771   2.213   0.712   5.698
 9291SOL    HW128772   2.292   0.701   5.638
 9291SOL    HW228773   2.152   0.782   5.660
 9292SOL     OW28774   6.499   3.132   5.814
 9292SOL    HW128775   6.434   3.158   5.743
 9292SOL    HW228776   6.487   3.192   5.893
 9293SOL     OW28777   6.387   4.219   0.687
 9293SOL    HW128778   6.373   4.307   0.731
 9293SOL    HW228779   6.349   4.221   0.595
 9294SOL     OW28780   3.870   6.426   6.115
 9294SOL    HW128781   3.784   6.398   6.156
 9294SOL    HW228782   3.946   6.393   6.171
 9295SOL     OW28783   5.267   1.638   3.409
 9295SOL    HW128784   5.361   1.618   3.380
 9295SOL    HW228785   5.225   1.701   3.344
 9296SOL     OW28786   6.853   6.601   6.195
 9296SOL    HW128787   6.901   6.540   6.132
 9296SOL    HW228788   6.872   6.573   6.289
 9297SOL     OW28789   0.089   0.502   1.538
 9297SOL    HW128790   0.169   0.446   1.559
 9297SOL    HW228791   0.089   0.525   1.441
 9298SOL     OW28792   1.806   6.290   5.995
 9298SOL    HW128793   1.790   6.263   5.900
 9298SOL    HW228794   1.753   6.372   6.015
 9299SOL     OW28795   1.295   3.262   4.320
 9299SOL    HW128796   1.246   3.319   4.254
 9299SOL    HW228797   1.238   3.184   4.346
 9300SOL     OW28798   6.465   4.791   4.569
 9300SOL    HW128799   6.518   4.875   4.578
 9300SOL    HW228800   6.392   4.790   4.638
 9301SOL     OW28801   4.835   4.545   3.204
 9301SOL    HW128802   4.870   4.625   3.253
 9301SOL    HW228803   4.904   4.513   3.140
 9302SOL     OW28804   2.306   2.837   3.889
 9302SOL    HW128805   2.217   2.793   3.881
 9302SOL    HW228806   2.306   2.900   3.966
 9303SOL     OW28807   3.441   5.922   0.609
 9303SOL    HW128808   3.451   6.020   0.626
 9303SOL    HW228809   3.379   5.882   0.676
 9304SOL     OW28810   4.437   4.132   0.522
 9304SOL    HW128811   4.510   4.075   0.559
 9304SOL    HW228812   4.467   4.227   0.518
 9305SOL     OW28813   4.976   1.510   1.439
 9305SOL    HW128814   5.000   1.556   1.353
 9305SOL    HW228815   5.050   1.449   1.465
 9306SOL     OW28816   0.452   5.101   5.033
 9306SOL    HW128817   0.429   5.149   4.948
 9306SOL    HW228818   0.548   5.075   5.031
 9307SOL     OW28819   1.091   2.797   0.849
 9307SOL    HW128820   1.150   2.776   0.927
 9307SOL    HW228821   1.050   2.713   0.815
 9308SOL     OW28822   0.782   4.387   1.305
 9308SOL    HW128823   0.735   4.344   1.382
 9308SOL    HW228824   0.880   4.369   1.312
 9309SOL     OW28825   3.869   5.399   5.313
 9309SOL    HW128826   3.925   5.476   5.282
 9309SOL    HW228827   3.803   5.430   5.381
 9310SOL     OW28828   4.188   5.889   6.188
 9310SOL    HW128829   4.126   5.867   6.112
 9310SOL    HW228830   4.134   5.905   6.271
 9311SOL     OW28831   6.251   4.488   0.951
 9311SOL    HW128832   6.234   4.569   1.007
 9311SOL    HW228833   6.213   4.407   0.996
 9312SOL     OW28834   2.331   4.442   0.770
 9312SOL    HW128835   2.278   4.474   0.848
 9312SOL    HW228836   2.285   4.363   0.729
 9313SOL     OW28837   7.004   0.967   1.403
 9313SOL    HW128838   6.957   0.890   1.361
 9313SOL    HW228839   6.980   1.051   1.355
 9314SOL     OW28840   4.394   5.078   6.715
 9314SOL    HW128841   4.484   5.063   6.675
 9314SOL    HW228842   4.348   4.990   6.726
 9315SOL     OW28843   6.395   0.365   4.932
 9315SOL    HW128844   6.414   0.332   5.024
 9315SOL    HW228845   6.453   0.317   4.866
 9316SOL     OW28846   4.394   5.797   4.928
 9316SOL    HW128847   4.464   5.852   4.882
 9316SOL    HW228848   4.431   5.706   4.947
 9317SOL     OW28849   6.045   6.354   2.566
 9317SOL    HW128850   6.065   6.333   2.470
 9317SOL    HW228851   6.073   6.278   2.624
 9318SOL     OW28852   6.788   1.258   4.694
 9318SOL    HW128853   6.823   1.348   4.667
 9318SOL    HW228854   6.863   1.200   4.724
 9319SOL     OW28855   0.725   2.839   6.216
 9319SOL    HW128856   0.724   2.881   6.125
 9319SOL    HW228857   0.679   2.751   6.213
 9320SOL     OW28858   4.060   1.944   6.096
 9320SOL    HW128859   4.075   2.012   6.024
 9320SOL    HW228860   4.143   1.890   6.110
 9321SOL     OW28861   6.286   0.092   2.210
 9321SOL    HW128862   6.377   0.116   2.176
 9321SOL    HW228863   6.252   0.013   2.160
 9322SOL     OW28864   6.809   6.223   6.014
 9322SOL    HW128865   6.900   6.184   5.997
 9322SOL    HW228866   6.765   6.245   5.927
 9323SOL     OW28867   1.457   0.346   5.431
 9323SOL    HW128868   1.529   0.415   5.442
 9323SOL    HW228869   1.368   0.387   5.449
 9324SOL     OW28870   1.562   5.156   0.256
 9324SOL    HW128871   1.502   5.121   0.328
 9324SOL    HW228872   1.576   5.086   0.187
 9325SOL     OW28873   5.027   2.009   1.073
 9325SOL    HW128874   4.929   2.028   1.087
 9325SOL    HW228875   5.074   2.094   1.049
 9326SOL     OW28876   2.774   6.735   1.109
 9326SOL    HW128877   2.760   6.779   1.198
 9326SOL    HW228878   2.780   6.636   1.123
 9327SOL     OW28879   5.058   6.935   2.954
 9327SOL    HW128880   5.039   6.877   3.033
 9327SOL    HW228881   5.155   6.927   2.931
 9328SOL     OW28882   4.020   1.361   6.142
 9328SOL    HW128883   3.926   1.387   6.163
 9328SOL    HW228884   4.081   1.395   6.213
 9329SOL     OW28885   0.340   3.456   2.838
 9329SOL    HW128886   0.311   3.430   2.930
 9329SOL    HW228887   0.356   3.374   2.783
 9330SOL     OW28888   0.219   5.803   0.325
 9330SOL    HW128889   0.220   5.709   0.359
 9330SOL    HW228890   0.151   5.855   0.376
 9331SOL     OW28891   0.394   1.074   6.259
 9331SOL    HW128892   0.447   1.148   6.217
 9331SOL    HW228893   0.414   1.069   6.356
 9332SOL     OW28894   3.292   4.113   2.902
 9332SOL    HW128895   3.386   4.113   2.868
 9332SOL    HW228896   3.239   4.182   2.852
 9333SOL     OW28897   5.370   4.003   1.015
 9333SOL    HW128898   5.284   3.987   0.966
 9333SOL    HW228899   5.416   3.916   1.029
 9334SOL     OW28900   3.717   6.936   3.346
 9334SOL    HW128901   3.644   6.918   3.280
 9334SOL    HW228902   3.682   6.925   3.439
 9335SOL     OW28903   1.457   1.170   6.378
 9335SOL    HW128904   1.398   1.169   6.459
 9335SOL    HW228905   1.496   1.079   6.364
 9336SOL     OW28906   3.446   6.255   6.419
 9336SOL    HW128907   3.439   6.317   6.497
 9336SOL    HW228908   3.402   6.168   6.440
 9337SOL     OW28909   5.055   0.566   2.685
 9337SOL    HW128910   5.041   0.665   2.681
 9337SOL    HW228911   5.076   0.532   2.593
 9338SOL     OW28912   4.478   0.510   2.258
 9338SOL    HW128913   4.538   0.465   2.191
 9338SOL    HW228914   4.387   0.520   2.219
 9339SOL     OW28915   5.977   0.037   0.249
 9339SOL    HW128916   5.883   0.011   0.274
 9339SOL    HW228917   6.005   7.012   0.167
 9340SOL     OW28918   5.325   3.693   5.310
 9340SOL    HW128919   5.343   3.630   5.385
 9340SOL    HW228920   5.321   3.786   5.345
 9341SOL     OW28921   1.545   6.051   6.919
 9341SOL    HW128922   1.483   6.106   6.863
 9341SOL    HW228923   1.493   6.001   6.988
 9342SOL     OW28924   2.514   0.411   4.411
 9342SOL    HW128925   2.550   0.503   4.429
 9342SOL    HW228926   2.546   0.349   4.482
 9343SOL     OW28927   6.082   4.599   3.986
 9343SOL    HW128928   6.119   4.569   4.074
 9343SOL    HW228929   6.156   4.610   3.920
 9344SOL     OW28930   4.654   5.810   1.335
 9344SOL    HW128931   4.705   5.801   1.420
 9344SOL    HW228932   4.588   5.734   1.327
 9345SOL     OW28933   6.306   2.782   2.044
 9345SOL    HW128934   6.254   2.755   1.963
 9345SOL    HW228935   6.389   2.726   2.049
 9346SOL     OW28936   5.871   1.019   0.987
 9346SOL    HW128937   5.838   0.971   1.068
 9346SOL    HW228938   5.969   1.003   0.976
 9347SOL     OW28939   1.843   5.317   1.329
 9347SOL    HW128940   1.885   5.226   1.329
 9347SOL    HW228941   1.768   5.318   1.262
 9348SOL     OW28942   4.334   5.577   0.960
 9348SOL    HW128943   4.415   5.636   0.971
 9348SOL    HW228944   4.275   5.587   1.040
 9349SOL     OW28945   0.641   0.114   2.330
 9349SOL    HW128946   0.694   0.138   2.412
 9349SOL    HW228947   0.629   0.195   2.273
 9350SOL     OW28948   0.600   2.389   5.789
 9350SOL    HW128949   0.639   2.481   5.784
 9350SOL    HW228950   0.659   2.325   5.739
 9351SOL     OW28951   3.566   1.578   6.855
 9351SOL    HW128952   3.525   1.488   6.839
 9351SOL    HW228953   3.516   1.647   6.803
 9352SOL     OW28954   2.786   3.691   0.133
 9352SOL    HW128955   2.733   3.698   0.048
 9352SOL    HW228956   2.745   3.620   0.191
 9353SOL     OW28957   0.760   4.978   1.803
 9353SOL    HW128958   0.791   4.896   1.754
 9353SOL    HW228959   0.681   5.017   1.756
 9354SOL     OW28960   6.506   2.719   6.446
 9354SOL    HW128961   6.567   2.657   6.496
 9354SOL    HW228962   6.557   2.763   6.371
 9355SOL     OW28963   1.178   1.941   4.534
 9355SOL    HW128964   1.262   1.986   4.565
 9355SOL    HW228965   1.191   1.905   4.442
 9356SOL     OW28966   4.195   6.882   1.239
 9356SOL    HW128967   4.294   6.871   1.229
 9356SOL    HW228968   4.155   6.907   1.151
 9357SOL     OW28969   1.160   2.189   6.665
 9357SOL    HW128970   1.216   2.113   6.698
 9357SOL    HW228971   1.153   2.183   6.565
 9358SOL     OW28972   7.010   4.112   2.519
 9358SOL    HW128973   6.930   4.065   2.481
 9358SOL    HW228974   6.996   4.128   2.617
 9359SOL     OW28975   1.910   6.119   6.179
 9359SOL    HW128976   2.003   6.084   6.171
 9359SOL    HW228977   1.891   6.181   6.103
 9360SOL     OW28978   1.494   6.993   6.636
 9360SOL    HW128979   1.557   0.046   6.640
 9360SOL    HW228980   1.510   6.934   6.715
 9361SOL     OW28981   1.729   6.377   3.705
 9361SOL    HW128982   1.680   6.463   3.714
 9361SOL    HW228983   1.664   6.301   3.706
 9362SOL     OW28984   1.969   1.100   1.923
 9362SOL    HW128985   2.029   1.022   1.944
 9362SOL    HW228986   1.931   1.089   1.831
 9363SOL     OW28987   3.070   5.262   2.555
 9363SOL    HW128988   3.100   5.170   2.579
 9363SOL    HW228989   3.085   5.277   2.457
 9364SOL     OW28990   2.407   2.506   2.000
 9364SOL    HW128991   2.477   2.486   2.068
 9364SOL    HW228992   2.394   2.605   1.994
 9365SOL     OW28993   3.389   1.851   4.285
 9365SOL    HW128994   3.313   1.898   4.331
 9365SOL    HW228995   3.358   1.814   4.198
 9366SOL     OW28996   3.477   5.657   0.865
 9366SOL    HW128997   3.412   5.672   0.791
 9366SOL    HW228998   3.452   5.574   0.915
 9367SOL     OW28999   5.020   6.694   1.469
 9367SOL    HW129000   5.082   6.764   1.504
 9367SOL    HW229001   4.961   6.733   1.398
 9368SOL     OW29002   3.983   0.554   2.653
 9368SOL    HW129003   4.079   0.579   2.662
 9368SOL    HW229004   3.974   0.454   2.653
 9369SOL     OW29005   1.221   5.656   6.389
 9369SOL    HW129006   1.129   5.676   6.425
 9369SOL    HW229007   1.221   5.673   6.290
 9370SOL     OW29008   4.157   1.485   4.307
 9370SOL    HW129009   4.224   1.453   4.374
 9370SOL    HW229010   4.101   1.557   4.347
 9371SOL     OW29011   3.733   5.670   1.513
 9371SOL    HW129012   3.710   5.758   1.553
 9371SOL    HW229013   3.663   5.603   1.537
 9372SOL     OW29014   4.684   0.232   1.539
 9372SOL    HW129015   4.774   0.204   1.506
 9372SOL    HW229016   4.619   0.233   1.463
 9373SOL     OW29017   5.861   2.130   6.712
 9373SOL    HW129018   5.806   2.143   6.629
 9373SOL    HW229019   5.872   2.032   6.729
 9374SOL     OW29020   0.671   4.843   6.160
 9374SOL    HW129021   0.734   4.917   6.182
 9374SOL    HW229022   0.721   4.756   6.156
 9375SOL     OW29023   6.797   1.950   6.574
 9375SOL    HW129024   6.809   2.048   6.589
 9375SOL    HW229025   6.859   1.919   6.502
 9376SOL     OW29026   2.076   3.479   2.312
 9376SOL    HW129027   2.121   3.481   2.222
 9376SOL    HW229028   1.977   3.488   2.299
 9377SOL     OW29029   1.810   5.475   2.355
 9377SOL    HW129030   1.849   5.491   2.264
 9377SOL    HW229031   1.861   5.403   2.401
 9378SOL     OW29032   3.647   1.077   3.568
 9378SOL    HW129033   3.723   1.140   3.551
 9378SOL    HW229034   3.561   1.128   3.572
 9379SOL     OW29035   3.658   6.128   4.796
 9379SOL    HW129036   3.747   6.119   4.751
 9379SOL    HW229037   3.589   6.152   4.728
 9380SOL     OW29038   4.127   5.504   6.253
 9380SOL    HW129039   4.157   5.419   6.295
 9380SOL    HW229040   4.185   5.579   6.285
 9381SOL     OW29041   5.347   1.271   4.696
 9381SOL    HW129042   5.433   1.290   4.744
 9381SOL    HW229043   5.272   1.314   4.745
 9382SOL     OW29044   3.579   0.482   4.070
 9382SOL    HW129045   3.640   0.448   4.142
 9382SOL    HW229046   3.485   0.482   4.104
 9383SOL     OW29047   4.996   3.959   3.725
 9383SOL    HW129048   5.066   3.953   3.654
 9383SOL    HW229049   4.927   4.026   3.698
 9384SOL     OW29050   1.722   6.947   2.097
 9384SOL    HW129051   1.711   0.018   2.074
 9384SOL    HW229052   1.656   6.892   2.045
 9385SOL     OW29053   4.139   1.401   3.580
 9385SOL    HW129054   4.198   1.321   3.576
 9385SOL    HW229055   4.183   1.472   3.635
 9386SOL     OW29056   4.177   5.863   5.088
 9386SOL    HW129057   4.237   5.818   5.022
 9386SOL    HW229058   4.105   5.913   5.039
 9387SOL     OW29059   3.339   2.371   0.321
 9387SOL    HW129060   3.253   2.329   0.346
 9387SOL    HW229061   3.399   2.376   0.401
 9388SOL     OW29062   2.115   6.870   4.219
 9388SOL    HW129063   2.024   6.843   4.251
 9388SOL    HW229064   2.169   6.787   4.200
 9389SOL     OW29065   3.990   5.198   2.421
 9389SOL    HW129066   3.987   5.137   2.499
 9389SOL    HW229067   3.941   5.157   2.344
 9390SOL     OW29068   5.102   4.634   5.594
 9390SOL    HW129069   5.091   4.566   5.521
 9390SOL    HW229070   5.022   4.693   5.596
 9391SOL     OW29071   0.910   6.259   4.351
 9391SOL    HW129072   0.938   6.219   4.264
 9391SOL    HW229073   0.958   6.214   4.426
 9392SOL     OW29074   5.274   4.031   2.935
 9392SOL    HW129075   5.250   4.087   2.856
 9392SOL    HW229076   5.370   4.005   2.930
 9393SOL     OW29077   3.095   6.584   6.062
 9393SOL    HW129078   3.002   6.622   6.067
 9393SOL    HW229079   3.089   6.484   6.060
 9394SOL     OW29080   5.118   0.102   1.334
 9394SOL    HW129081   5.126   0.024   1.273
 9394SOL    HW229082   5.042   0.159   1.305
 9395SOL     OW29083   2.803   1.729   0.608
 9395SOL    HW129084   2.710   1.725   0.573
 9395SOL    HW229085   2.813   1.666   0.685
 9396SOL     OW29086   1.400   6.210   6.750
 9396SOL    HW129087   1.341   6.141   6.708
 9396SOL    HW229088   1.449   6.259   6.678
 9397SOL     OW29089   4.153   0.230   6.402
 9397SOL    HW129090   4.103   0.158   6.450
 9397SOL    HW229091   4.089   0.285   6.348
 9398SOL     OW29092   6.547   1.888   6.662
 9398SOL    HW129093   6.644   1.885   6.636
 9398SOL    HW229094   6.494   1.930   6.588
 9399SOL     OW29095   2.067   2.722   3.939
 9399SOL    HW129096   2.022   2.758   4.021
 9399SOL    HW229097   2.050   2.624   3.932
 9400SOL     OW29098   5.344   0.972   0.370
 9400SOL    HW129099   5.385   0.980   0.279
 9400SOL    HW229100   5.402   0.915   0.428
 9401SOL     OW29101   0.933   1.739   2.414
 9401SOL    HW129102   0.888   1.828   2.405
 9401SOL    HW229103   0.979   1.716   2.328
 9402SOL     OW29104   1.228   5.671   3.643
 9402SOL    HW129105   1.175   5.586   3.641
 9402SOL    HW229106   1.293   5.671   3.566
 9403SOL     OW29107   6.512   1.867   2.163
 9403SOL    HW129108   6.607   1.891   2.143
 9403SOL    HW229109   6.510   1.783   2.217
 9404SOL     OW29110   2.069   3.291   1.091
 9404SOL    HW129111   2.043   3.297   0.994
 9404SOL    HW229112   2.169   3.290   1.098
 9405SOL     OW29113   0.223   4.718   5.420
 9405SOL    HW129114   0.174   4.743   5.337
 9405SOL    HW229115   0.265   4.800   5.460
 9406SOL     OW29116   0.171   2.799   6.922
 9406SOL    HW129117   0.170   2.842   6.831
 9406SOL    HW229118   0.115   2.853   6.985
 9407SOL     OW29119   1.935   4.988   5.442
 9407SOL    HW129120   1.916   5.073   5.393
 9407SOL    HW229121   1.986   4.926   5.382
 9408SOL     OW29122   6.542   4.922   5.048
 9408SOL    HW129123   6.603   4.844   5.036
 9408SOL    HW229124   6.576   4.980   5.123
 9409SOL     OW29125   6.401   4.939   2.441
 9409SOL    HW129126   6.406   4.839   2.442
 9409SOL    HW229127   6.480   4.976   2.392
 9410SOL     OW29128   3.942   0.381   1.575
 9410SOL    HW129129   3.983   0.464   1.537
 9410SOL    HW229130   3.843   0.386   1.567
 9411SOL     OW29131   3.627   3.120   3.613
 9411SOL    HW129132   3.656   3.211   3.643
 9411SOL    HW229133   3.690   3.086   3.543
 9412SOL     OW29134   6.735   0.118   1.346
 9412SOL    HW129135   6.647   0.088   1.382
 9412SOL    HW229136   6.736   0.217   1.337
 9413SOL     OW29137   4.160   5.049   3.631
 9413SOL    HW129138   4.241   5.036   3.574
 9413SOL    HW229139   4.168   5.135   3.682
 9414SOL     OW29140   2.287   1.809   4.811
 9414SOL    HW129141   2.337   1.723   4.813
 9414SOL    HW229142   2.242   1.820   4.722
 9415SOL     OW29143   3.926   0.883   2.233
 9415SOL    HW129144   3.907   0.859   2.328
 9415SOL    HW229145   3.910   0.981   2.220
 9416SOL     OW29146   6.630   5.402   6.275
 9416SOL    HW129147   6.565   5.375   6.346
 9416SOL    HW229148   6.587   5.467   6.212
 9417SOL     OW29149   3.630   5.910   1.570
 9417SOL    HW129150   3.603   5.956   1.655
 9417SOL    HW229151   3.674   5.975   1.508
 9418SOL     OW29152   3.380   2.004   4.703
 9418SOL    HW129153   3.394   1.916   4.748
 9418SOL    HW229154   3.435   2.009   4.620
 9419SOL     OW29155   2.564   3.026   6.890
 9419SOL    HW129156   2.571   2.933   6.854
 9419SOL    HW229157   2.616   3.032   6.976
 9420SOL     OW29158   5.201   3.390   6.976
 9420SOL    HW129159   5.216   3.295   7.003
 9420SOL    HW229160   5.121   3.396   6.917
 9421SOL     OW29161   3.544   6.535   5.792
 9421SOL    HW129162   3.629   6.494   5.758
 9421SOL    HW229163   3.553   6.635   5.792
 9422SOL     OW29164   2.066   5.938   4.641
 9422SOL    HW129165   2.019   5.899   4.561
 9422SOL    HW229166   2.014   5.917   4.723
 9423SOL     OW29167   4.094   5.660   3.086
 9423SOL    HW129168   4.029   5.591   3.054
 9423SOL    HW229169   4.145   5.697   3.009
 9424SOL     OW29170   5.729   0.512   4.569
 9424SOL    HW129171   5.671   0.458   4.631
 9424SOL    HW229172   5.795   0.452   4.524
 9425SOL     OW29173   6.746   4.869   0.561
 9425SOL    HW129174   6.764   4.772   0.543
 9425SOL    HW229175   6.830   4.912   0.595
 9426SOL     OW29176   0.008   2.581   6.054
 9426SOL    HW129177   0.025   2.485   6.077
 9426SOL    HW229178   6.942   2.607   6.087
 9427SOL     OW29179   3.800   5.939   3.280
 9427SOL    HW129180   3.804   5.963   3.377
 9427SOL    HW229181   3.705   5.932   3.251
 9428SOL     OW29182   6.499   0.056   6.378
 9428SOL    HW129183   6.475   0.146   6.341
 9428SOL    HW229184   6.416   0.003   6.394
 9429SOL     OW29185   2.115   2.378   4.293
 9429SOL    HW129186   2.066   2.450   4.341
 9429SOL    HW229187   2.132   2.302   4.355
 9430SOL     OW29188   0.577   2.371   4.581
 9430SOL    HW129189   0.517   2.300   4.618
 9430SOL    HW229190   0.595   2.352   4.484
 9431SOL     OW29191   0.309   4.652   6.346
 9431SOL    HW129192   0.226   4.694   6.383
 9431SOL    HW229193   0.285   4.593   6.269
 9432SOL     OW29194   6.872   1.410   3.293
 9432SOL    HW129195   6.904   1.458   3.375
 9432SOL    HW229196   6.850   1.477   3.222
 9433SOL     OW29197   3.981   6.381   2.801
 9433SOL    HW129198   3.993   6.302   2.742
 9433SOL    HW229199   3.922   6.448   2.756
 9434SOL     OW29200   4.956   5.267   4.129
 9434SOL    HW129201   4.947   5.280   4.031
 9434SOL    HW229202   5.050   5.285   4.157
 9435SOL     OW29203   0.680   3.355   1.384
 9435SOL    HW129204   0.676   3.319   1.477
 9435SOL    HW229205   0.591   3.346   1.341
 9436SOL     OW29206   1.153   0.163   3.681
 9436SOL    HW129207   1.165   0.123   3.591
 9436SOL    HW229208   1.085   0.237   3.676
 9437SOL     OW29209   6.525   5.542   4.703
 9437SOL    HW129210   6.449   5.607   4.709
 9437SOL    HW229211   6.594   5.565   4.772
 9438SOL     OW29212   3.099   5.883   2.080
 9438SOL    HW129213   3.075   5.975   2.050
 9438SOL    HW229214   3.017   5.825   2.080
 9439SOL     OW29215   1.307   2.915   0.167
 9439SOL    HW129216   1.336   2.868   0.084
 9439SOL    HW229217   1.208   2.903   0.180
 9440SOL     OW29218   2.336   5.162   2.836
 9440SOL    HW129219   2.391   5.138   2.915
 9440SOL    HW229220   2.242   5.130   2.850
 9441SOL     OW29221   6.682   6.483   4.380
 9441SOL    HW129222   6.778   6.490   4.354
 9441SOL    HW229223   6.659   6.387   4.400
 9442SOL     OW29224   4.276   3.908   0.495
 9442SOL    HW129225   4.326   3.841   0.440
 9442SOL    HW229226   4.336   3.986   0.513
 9443SOL     OW29227   2.094   4.354   2.966
 9443SOL    HW129228   2.052   4.409   2.894
 9443SOL    HW229229   2.166   4.296   2.926
 9444SOL     OW29230   1.455   4.383   0.412
 9444SOL    HW129231   1.378   4.338   0.366
 9444SOL    HW229232   1.455   4.357   0.509
 9445SOL     OW29233   0.338   2.064   4.058
 9445SOL    HW129234   0.270   2.002   4.019
 9445SOL    HW229235   0.302   2.157   4.059
 9446SOL     OW29236   6.566   4.759   3.082
 9446SOL    HW129237   6.661   4.740   3.058
 9446SOL    HW229238   6.548   4.729   3.175
 9447SOL     OW29239   5.497   5.023   2.287
 9447SOL    HW129240   5.534   4.943   2.241
 9447SOL    HW229241   5.544   5.105   2.253
 9448SOL     OW29242   5.588   0.481   5.504
 9448SOL    HW129243   5.512   0.505   5.443
 9448SOL    HW229244   5.553   0.467   5.596
 9449SOL     OW29245   6.198   0.375   2.027
 9449SOL    HW129246   6.193   0.349   1.930
 9449SOL    HW229247   6.137   0.316   2.080
 9450SOL     OW29248   1.807   6.117   4.218
 9450SOL    HW129249   1.813   6.167   4.132
 9450SOL    HW229250   1.898   6.106   4.257
 9451SOL     OW29251   3.899   6.070   6.565
 9451SOL    HW129252   3.961   6.053   6.641
 9451SOL    HW229253   3.887   5.985   6.512
 9452SOL     OW29254   6.912   4.053   0.654
 9452SOL    HW129255   6.828   4.102   0.631
 9452SOL    HW229256   6.938   4.075   0.748
 9453SOL     OW29257   3.975   6.167   3.264
 9453SOL    HW129258   3.957   6.260   3.296
 9453SOL    HW229259   3.890   6.114   3.267
 9454SOL     OW29260   4.912   3.976   0.324
 9454SOL    HW129261   4.905   3.915   0.402
 9454SOL    HW229262   4.980   3.940   0.259
 9455SOL     OW29263   2.738   2.157   2.236
 9455SOL    HW129264   2.651   2.140   2.190
 9455SOL    HW229265   2.797   2.213   2.178
 9456SOL     OW29266   6.707   2.899   2.046
 9456SOL    HW129267   6.677   2.887   1.951
 9456SOL    HW229268   6.681   2.818   2.099
 9457SOL     OW29269   6.902   5.426   3.751
 9457SOL    HW129270   6.942   5.507   3.794
 9457SOL    HW229271   6.975   5.368   3.715
 9458SOL     OW29272   6.138   3.509   6.765
 9458SOL    HW129273   6.215   3.559   6.726
 9458SOL    HW229274   6.168   3.416   6.789
 9459SOL     OW29275   4.980   5.178   4.942
 9459SOL    HW129276   4.989   5.158   5.040
 9459SOL    HW229277   4.974   5.092   4.891
 9460SOL     OW29278   1.394   2.020   2.900
 9460SOL    HW129279   1.484   1.983   2.874
 9460SOL    HW229280   1.334   2.020   2.820
 9461SOL     OW29281   1.342   2.214   2.529
 9461SOL    HW129282   1.387   2.160   2.458
 9461SOL    HW229283   1.361   2.311   2.515
 9462SOL     OW29284   1.952   1.521   4.454
 9462SOL    HW129285   2.038   1.549   4.496
 9462SOL    HW229286   1.925   1.431   4.489
 9463SOL     OW29287   5.754   5.602   0.717
 9463SOL    HW129288   5.678   5.647   0.670
 9463SOL    HW229289   5.723   5.515   0.755
 9464SOL     OW29290   0.600   0.839   1.463
 9464SOL    HW129291   0.613   0.938   1.462
 9464SOL    HW229292   0.655   0.799   1.536
 9465SOL     OW29293   6.745   4.107   1.108
 9465SOL    HW129294   6.729   4.054   1.191
 9465SOL    HW229295   6.763   4.202   1.132
 9466SOL     OW29296   3.724   5.225   6.846
 9466SOL    HW129297   3.680   5.138   6.824
 9466SOL    HW229298   3.795   5.245   6.778
 9467SOL     OW29299   2.399   3.363   0.984
 9467SOL    HW129300   2.347   3.437   0.942
 9467SOL    HW229301   2.462   3.401   1.052
 9468SOL     OW29302   6.520   2.427   0.604
 9468SOL    HW129303   6.482   2.372   0.678
 9468SOL    HW229304   6.473   2.405   0.519
 9469SOL     OW29305   0.848   6.499   1.410
 9469SOL    HW129306   0.839   6.405   1.375
 9469SOL    HW229307   0.758   6.535   1.432
 9470SOL     OW29308   4.021   4.312   1.092
 9470SOL    HW129309   3.992   4.230   1.043
 9470SOL    HW229310   4.116   4.301   1.122
 9471SOL     OW29311   6.094   2.734   5.043
 9471SOL    HW129312   6.020   2.767   4.985
 9471SOL    HW229313   6.084   2.635   5.057
 9472SOL     OW29314   1.752   3.033   6.431
 9472SOL    HW129315   1.851   3.042   6.416
 9472SOL    HW229316   1.718   3.116   6.477
 9473SOL     OW29317   3.098   4.658   0.794
 9473SOL    HW129318   3.011   4.700   0.769
 9473SOL    HW229319   3.167   4.677   0.724
 9474SOL     OW29320   5.391   3.164   1.509
 9474SOL    HW129321   5.423   3.089   1.566
 9474SOL    HW229322   5.415   3.146   1.413
 9475SOL     OW29323   4.714   3.487   6.057
 9475SOL    HW129324   4.782   3.464   6.127
 9475SOL    HW229325   4.623   3.491   6.099
 9476SOL     OW29326   3.250   3.983   6.179
 9476SOL    HW129327   3.300   3.907   6.139
 9476SOL    HW229328   3.162   3.995   6.132
 9477SOL     OW29329   2.045   4.042   1.294
 9477SOL    HW129330   2.051   3.986   1.212
 9477SOL    HW229331   2.123   4.023   1.353
 9478SOL     OW29332   5.147   2.257   6.945
 9478SOL    HW129333   5.107   2.167   6.962
 9478SOL    HW229334   5.085   2.328   6.977
 9479SOL     OW29335   3.798   0.711   1.303
 9479SOL    HW129336   3.712   0.687   1.348
 9479SOL    HW229337   3.858   0.759   1.367
 9480SOL     OW29338   6.349   0.129   6.936
 9480SOL    HW129339   6.351   0.225   6.909
 9480SOL    HW229340   6.379   0.121   0.006
 9481SOL     OW29341   4.216   1.623   2.955
 9481SOL    HW129342   4.298   1.648   3.007
 9481SOL    HW229343   4.149   1.697   2.962
 9482SOL     OW29344   6.078   0.093   0.974
 9482SOL    HW129345   5.979   0.090   0.992
 9482SOL    HW229346   6.108   0.005   0.938
 9483SOL     OW29347   0.028   1.085   0.959
 9483SOL    HW129348   0.017   1.021   0.882
 9483SOL    HW229349   0.124   1.111   0.968
 9484SOL     OW29350   3.273   5.843   5.020
 9484SOL    HW129351   3.372   5.831   5.012
 9484SOL    HW229352   3.252   5.938   5.044
 9485SOL     OW29353   6.828   1.484   6.768
 9485SOL    HW129354   6.734   1.452   6.758
 9485SOL    HW229355   6.849   1.495   6.865
 9486SOL     OW29356   4.763   5.793   0.041
 9486SOL    HW129357   4.853   5.793   7.023
 9486SOL    HW229358   4.693   5.806   6.995
 9487SOL     OW29359   3.550   3.275   3.855
 9487SOL    HW129360   3.461   3.234   3.833
 9487SOL    HW229361   3.589   3.230   3.935
 9488SOL     OW29362   1.055   1.838   0.737
 9488SOL    HW129363   1.100   1.783   0.808
 9488SOL    HW229364   0.961   1.807   0.726
 9489SOL     OW29365   4.954   4.495   0.568
 9489SOL    HW129366   5.014   4.527   0.641
 9489SOL    HW229367   4.864   4.473   0.606
 9490SOL     OW29368   5.462   3.543   3.725
 9490SOL    HW129369   5.479   3.597   3.807
 9490SOL    HW229370   5.371   3.564   3.690
 9491SOL     OW29371   4.938   6.553   2.729
 9491SOL    HW129372   4.925   6.652   2.730
 9491SOL    HW229373   4.888   6.512   2.806
 9492SOL     OW29374   4.963   2.745   4.426
 9492SOL    HW129375   5.019   2.804   4.368
 9492SOL    HW229376   4.874   2.730   4.382
 9493SOL     OW29377   4.602   6.509   2.934
 9493SOL    HW129378   4.571   6.427   2.982
 9493SOL    HW229379   4.524   6.553   2.888
 9494SOL     OW29380   5.428   2.213   2.059
 9494SOL    HW129381   5.468   2.139   2.113
 9494SOL    HW229382   5.367   2.174   1.990
 9495SOL     OW29383   0.949   0.647   2.751
 9495SOL    HW129384   0.877   0.634   2.820
 9495SOL    HW229385   1.036   0.614   2.787
 9496SOL     OW29386   4.303   1.937   2.488
 9496SOL    HW129387   4.210   1.937   2.451
 9496SOL    HW229388   4.367   1.909   2.416
 9497SOL     OW29389   5.373   5.111   4.435
 9497SOL    HW129390   5.433   5.145   4.362
 9497SOL    HW229391   5.426   5.102   4.519
 9498SOL     OW29392   6.501   5.479   4.004
 9498SOL    HW129393   6.501   5.501   3.906
 9498SOL    HW229394   6.590   5.440   4.029
 9499SOL     OW29395   5.990   6.053   5.620
 9499SOL    HW129396   5.925   5.992   5.666
 9499SOL    HW229397   5.950   6.084   5.533
 9500SOL     OW29398   4.474   1.030   1.064
 9500SOL    HW129399   4.526   1.027   0.979
 9500SOL    HW229400   4.387   0.982   1.052
 9501SOL     OW29401   1.700   2.900   4.787
 9501SOL    HW129402   1.609   2.938   4.770
 9501SOL    HW229403   1.732   2.851   4.706
 9502SOL     OW29404   5.804   4.491   5.350
 9502SOL    HW129405   5.845   4.534   5.431
 9502SOL    HW229406   5.784   4.561   5.282
 9503SOL     OW29407   0.361   2.402   6.555
 9503SOL    HW129408   0.293   2.473   6.539
 9503SOL    HW229409   0.451   2.437   6.529
 9504SOL     OW29410   6.305   5.177   2.059
 9504SOL    HW129411   6.240   5.242   2.019
 9504SOL    HW229412   6.271   5.145   2.147
 9505SOL     OW29413   4.295   4.914   5.124
 9505SOL    HW129414   4.196   4.915   5.110
 9505SOL    HW229415   4.318   4.967   5.206
 9506SOL     OW29416   3.335   1.699   1.299
 9506SOL    HW129417   3.375   1.771   1.242
 9506SOL    HW229418   3.236   1.695   1.283
 9507SOL     OW29419   5.751   6.999   2.020
 9507SOL    HW129420   5.652   7.003   2.029
 9507SOL    HW229421   5.792   6.977   2.109
 9508SOL     OW29422   4.938   1.418   3.007
 9508SOL    HW129423   4.854   1.372   2.979
 9508SOL    HW229424   5.002   1.352   3.045
 9509SOL     OW29425   6.648   6.971   2.497
 9509SOL    HW129426   6.658   0.015   2.424
 9509SOL    HW229427   6.655   6.880   2.457
 9510SOL     OW29428   0.723   2.542   3.740
 9510SOL    HW129429   0.776   2.464   3.707
 9510SOL    HW229430   0.735   2.619   3.677
 9511SOL     OW29431   1.252   1.301   0.852
 9511SOL    HW129432   1.234   1.373   0.785
 9511SOL    HW229433   1.350   1.278   0.850
 9512SOL     OW29434   6.648   2.203   1.224
 9512SOL    HW129435   6.696   2.285   1.192
 9512SOL    HW229436   6.665   2.128   1.160
 9513SOL     OW29437   3.931   5.117   7.000
 9513SOL    HW129438   3.998   5.181   0.010
 9513SOL    HW229439   3.879   5.160   6.926
 9514SOL     OW29440   3.268   3.352   6.735
 9514SOL    HW129441   3.290   3.311   6.824
 9514SOL    HW229442   3.246   3.449   6.747
 9515SOL     OW29443   2.590   5.264   3.930
 9515SOL    HW129444   2.559   5.325   4.002
 9515SOL    HW229445   2.585   5.311   3.841
 9516SOL     OW29446   6.878   3.790   0.320
 9516SOL    HW129447   6.808   3.815   0.253
 9516SOL    HW229448   6.955   3.747   0.273
 9517SOL     OW29449   1.371   4.939   0.740
 9517SOL    HW129450   1.284   4.933   0.690
 9517SOL    HW229451   1.415   4.850   0.741
 9518SOL     OW29452   1.699   1.156   0.231
 9518SOL    HW129453   1.628   1.223   0.253
 9518SOL    HW229454   1.777   1.170   0.293
 9519SOL     OW29455   1.299   2.905   5.523
 9519SOL    HW129456   1.265   2.996   5.500
 9519SOL    HW229457   1.345   2.865   5.444
 9520SOL     OW29458   2.127   6.703   2.860
 9520SOL    HW129459   2.076   6.650   2.793
 9520SOL    HW229460   2.200   6.754   2.814
 9521SOL     OW29461   5.098   5.478   4.453
 9521SOL    HW129462   5.158   5.487   4.533
 9521SOL    HW229463   5.096   5.383   4.423
 9522SOL     OW29464   3.773   6.148   0.897
 9522SOL    HW129465   3.860   6.190   0.924
 9522SOL    HW229466   3.791   6.072   0.834
 9523SOL     OW29467   3.368   5.511   4.687
 9523SOL    HW129468   3.331   5.565   4.762
 9523SOL    HW229469   3.397   5.422   4.722
 9524SOL     OW29470   4.320   3.411   1.113
 9524SOL    HW129471   4.338   3.396   1.210
 9524SOL    HW229472   4.223   3.399   1.095
 9525SOL     OW29473   2.905   1.004   6.266
 9525SOL    HW129474   2.843   1.030   6.340
 9525SOL    HW229475   2.904   0.904   6.255
 9526SOL     OW29476   5.229   5.403   2.412
 9526SOL    HW129477   5.162   5.373   2.480
 9526SOL    HW229478   5.248   5.500   2.425
 9527SOL     OW29479   0.328   1.483   1.847
 9527SOL    HW129480   0.271   1.564   1.861
 9527SOL    HW229481   0.272   1.409   1.810
 9528SOL     OW29482   0.148   0.994   2.032
 9528SOL    HW129483   0.130   1.091   2.021
 9528SOL    HW229484   0.241   0.980   2.067
 9529SOL     OW29485   0.853   2.906   5.971
 9529SOL    HW129486   0.945   2.901   6.010
 9529SOL    HW229487   0.852   2.853   5.886
 9530SOL     OW29488   1.134   1.989   3.403
 9530SOL    HW129489   1.231   1.964   3.398
 9530SOL    HW229490   1.118   2.042   3.486
 9531SOL     OW29491   3.256   0.279   3.141
 9531SOL    HW129492   3.322   0.243   3.207
 9531SOL    HW229493   3.296   0.275   3.049
 9532SOL     OW29494   1.804   0.319   1.656
 9532SOL    HW129495   1.797   0.281   1.564
 9532SOL    HW229496   1.778   0.416   1.654
 9533SOL     OW29497   1.553   0.988   6.114
 9533SOL    HW129498   1.575   1.057   6.045
 9533SOL    HW229499   1.470   0.940   6.088
 9534SOL     OW29500   5.470   2.656   4.869
 9534SOL    HW129501   5.395   2.679   4.930
 9534SOL    HW229502   5.486   2.732   4.806
 9535SOL     OW29503   2.603   1.130   5.558
 9535SOL    HW129504   2.654   1.177   5.486
 9535SOL    HW229505   2.657   1.129   5.643
 9536SOL     OW29506   1.571   6.087   5.801
 9536SOL    HW129507   1.610   6.148   5.733
 9536SOL    HW229508   1.510   6.022   5.757
 9537SOL     OW29509   2.941   0.028   1.791
 9537SOL    HW129510   2.850   7.014   1.777
 9537SOL    HW229511   2.966   0.086   1.713
 9538SOL     OW29512   6.870   2.404   4.279
 9538SOL    HW129513   6.812   2.485   4.277
 9538SOL    HW229514   6.830   2.333   4.221
 9539SOL     OW29515   0.689   5.963   0.509
 9539SOL    HW129516   0.776   5.930   0.473
 9539SOL    HW229517   0.622   5.970   0.435
 9540SOL     OW29518   4.719   4.692   4.470
 9540SOL    HW129519   4.671   4.780   4.467
 9540SOL    HW229520   4.662   4.624   4.517
 9541SOL     OW29521   1.933   2.757   4.192
 9541SOL    HW129522   1.958   2.677   4.248
 9541SOL    HW229523   1.958   2.841   4.241
 9542SOL     OW29524   5.047   3.607   4.516
 9542SOL    HW129525   5.036   3.551   4.433
 9542SOL    HW229526   4.991   3.569   4.589
 9543SOL     OW29527   5.682   1.795   2.621
 9543SOL    HW129528   5.696   1.885   2.663
 9543SOL    HW229529   5.605   1.749   2.665
 9544SOL     OW29530   4.560   1.506   2.569
 9544SOL    HW129531   4.469   1.546   2.557
 9544SOL    HW229532   4.628   1.565   2.526
 9545SOL     OW29533   6.847   1.014   3.693
 9545SOL    HW129534   6.778   0.965   3.746
 9545SOL    HW229535   6.887   0.952   3.625
 9546SOL     OW29536   2.525   5.540   0.709
 9546SOL    HW129537   2.482   5.577   0.791
 9546SOL    HW229538   2.625   5.541   0.721
 9547SOL     OW29539   0.760   6.527   3.773
 9547SOL    HW129540   0.671   6.526   3.818
 9547SOL    HW229541   0.802   6.436   3.780
 9548SOL     OW29542   4.794   5.927   3.616
 9548SOL    HW129543   4.860   5.926   3.541
 9548SOL    HW229544   4.701   5.923   3.580
 9549SOL     OW29545   2.415   5.915   0.708
 9549SOL    HW129546   2.364   5.866   0.779
 9549SOL    HW229547   2.378   6.007   0.698
 9550SOL     OW29548   0.959   1.401   0.320
 9550SOL    HW129549   0.913   1.439   0.239
 9550SOL    HW229550   0.983   1.475   0.382
 9551SOL     OW29551   1.033   6.577   4.614
 9551SOL    HW129552   0.972   6.564   4.535
 9551SOL    HW229553   1.128   6.572   4.584
 9552SOL     OW29554   1.729   5.554   3.123
 9552SOL    HW129555   1.778   5.480   3.169
 9552SOL    HW229556   1.786   5.593   3.051
 9553SOL     OW29557   5.551   4.256   5.810
 9553SOL    HW129558   5.650   4.249   5.817
 9553SOL    HW229559   5.509   4.170   5.837
 9554SOL     OW29560   2.032   1.353   1.932
 9554SOL    HW129561   2.075   1.357   2.023
 9554SOL    HW229562   2.008   1.259   1.911
 9555SOL     OW29563   0.228   2.335   0.731
 9555SOL    HW129564   0.254   2.326   0.827
 9555SOL    HW229565   0.282   2.272   0.676
 9556SOL     OW29566   2.106   1.908   1.617
 9556SOL    HW129567   2.138   1.968   1.543
 9556SOL    HW229568   2.099   1.814   1.583
 9557SOL     OW29569   5.393   0.890   2.059
 9557SOL    HW129570   5.408   0.895   1.960
 9557SOL    HW229571   5.408   0.981   2.099
 9558SOL     OW29572   6.029   4.743   2.372
 9558SOL    HW129573   6.049   4.790   2.286
 9558SOL    HW229574   5.965   4.798   2.426
 9559SOL     OW29575   7.019   3.002   1.817
 9559SOL    HW129576   6.959   3.074   1.850
 9559SOL    HW229577   6.975   2.913   1.829
 9560SOL     OW29578   3.109   1.742   3.840
 9560SOL    HW129579   3.069   1.809   3.778
 9560SOL    HW229580   3.064   1.749   3.929
 9561SOL     OW29581   4.186   6.445   0.491
 9561SOL    HW129582   4.238   6.522   0.454
 9561SOL    HW229583   4.181   6.373   0.422
 9562SOL     OW29584   5.534   5.294   2.652
 9562SOL    HW129585   5.577   5.258   2.735
 9562SOL    HW229586   5.583   5.259   2.572
 9563SOL     OW29587   6.493   5.975   0.189
 9563SOL    HW129588   6.426   5.946   0.120
 9563SOL    HW229589   6.583   5.984   0.146
 9564SOL     OW29590   2.387   6.796   0.012
 9564SOL    HW129591   2.348   6.787   6.945
 9564SOL    HW229592   2.438   6.881   0.019
 9565SOL     OW29593   3.888   6.104   4.659
 9565SOL    HW129594   3.840   6.112   4.572
 9565SOL    HW229595   3.983   6.077   4.642
 9566SOL     OW29596   2.833   4.376   5.423
 9566SOL    HW129597   2.902   4.397   5.492
 9566SOL    HW229598   2.853   4.426   5.339
 9567SOL     OW29599   5.988   5.738   5.900
 9567SOL    HW129600   6.005   5.837   5.903
 9567SOL    HW229601   6.068   5.692   5.862
 9568SOL     OW29602   5.016   3.596   6.439
 9568SOL    HW129603   4.993   3.566   6.346
 9568SOL    HW229604   4.942   3.569   6.501
 9569SOL     OW29605   6.209   1.072   0.638
 9569SOL    HW129606   6.205   0.998   0.571
 9569SOL    HW229607   6.204   1.033   0.730
 9570SOL     OW29608   0.490   0.740   0.407
 9570SOL    HW129609   0.432   0.780   0.337
 9570SOL    HW229610   0.515   0.809   0.474
 9571SOL     OW29611   2.043   3.912   0.375
 9571SOL    HW129612   1.975   3.884   0.443
 9571SOL    HW229613   2.127   3.857   0.387
 9572SOL     OW29614   1.602   4.740   1.190
 9572SOL    HW129615   1.525   4.676   1.191
 9572SOL    HW229616   1.567   4.834   1.183
 9573SOL     OW29617   1.534   1.899   0.853
 9573SOL    HW129618   1.548   1.947   0.939
 9573SOL    HW229619   1.444   1.920   0.816
 9574SOL     OW29620   2.869   1.828   5.668
 9574SOL    HW129621   2.917   1.897   5.613
 9574SOL    HW229622   2.778   1.861   5.691
 9575SOL     OW29623   5.791   0.620   2.171
 9575SOL    HW129624   5.819   0.687   2.102
 9575SOL    HW229625   5.692   0.609   2.168
 9576SOL     OW29626   3.342   2.105   5.871
 9576SOL    HW129627   3.244   2.095   5.853
 9576SOL    HW229628   3.370   2.037   5.939
 9577SOL     OW29629   1.151   6.622   3.138
 9577SOL    HW129630   1.118   6.606   3.045
 9577SOL    HW229631   1.189   6.537   3.175
 9578SOL     OW29632   6.256   3.367   2.033
 9578SOL    HW129633   6.291   3.460   2.045
 9578SOL    HW229634   6.313   3.303   2.084
 9579SOL     OW29635   1.034   6.646   2.577
 9579SOL    HW129636   1.116   6.638   2.521
 9579SOL    HW229637   1.005   6.741   2.581
 9580SOL     OW29638   4.170   3.573   6.052
 9580SOL    HW129639   4.198   3.592   5.958
 9580SOL    HW229640   4.228   3.626   6.115
 9581SOL     OW29641   1.103   4.515   5.839
 9581SOL    HW129642   1.180   4.452   5.839
 9581SOL    HW229643   1.121   4.590   5.774
 9582SOL     OW29644   4.338   4.948   4.653
 9582SOL    HW129645   4.365   4.943   4.557
 9582SOL    HW229646   4.301   4.860   4.683
 9583SOL     OW29647   2.094   4.363   1.587
 9583SOL    HW129648   2.042   4.392   1.668
 9583SOL    HW229649   2.191   4.358   1.610
 9584SOL     OW29650   5.793   5.958   6.176
 9584SOL    HW129651   5.800   5.888   6.247
 9584SOL    HW229652   5.788   6.048   6.218
 9585SOL     OW29653   5.881   0.330   4.427
 9585SOL    HW129654   5.968   0.300   4.467
 9585SOL    HW229655   5.894   0.348   4.329
 9586SOL     OW29656   5.690   3.083   3.305
 9586SOL    HW129657   5.613   3.125   3.257
 9586SOL    HW229658   5.751   3.155   3.340
 9587SOL     OW29659   4.795   6.726   2.026
 9587SOL    HW129660   4.833   6.771   1.946
 9587SOL    HW229661   4.759   6.637   2.000
 9588SOL     OW29662   0.110   0.636   2.197
 9588SOL    HW129663   0.124   0.726   2.158
 9588SOL    HW229664   0.012   0.616   2.200
 9589SOL     OW29665   2.711   1.401   6.634
 9589SOL    HW129666   2.634   1.337   6.633
 9589SOL    HW229667   2.697   1.472   6.566
 9590SOL     OW29668   6.702   4.481   4.839
 9590SOL    HW129669   6.689   4.415   4.913
 9590SOL    HW229670   6.756   4.439   4.766
 9591SOL     OW29671   1.642   4.727   1.652
 9591SOL    HW129672   1.646   4.627   1.660
 9591SOL    HW229673   1.676   4.768   1.736
 9592SOL     OW29674   4.774   5.051   1.901
 9592SOL    HW129675   4.715   5.122   1.861
 9592SOL    HW229676   4.761   4.966   1.851
 9593SOL     OW29677   0.709   2.863   4.132
 9593SOL    HW129678   0.723   2.780   4.079
 9593SOL    HW229679   0.634   2.916   4.092
 9594SOL     OW29680   6.071   6.961   2.038
 9594SOL    HW129681   6.022   6.945   2.123
 9594SOL    HW229682   6.040   0.022   1.997
 9595SOL     OW29683   1.071   5.104   4.052
 9595SOL    HW129684   1.154   5.141   4.092
 9595SOL    HW229685   1.036   5.030   4.111
 9596SOL     OW29686   5.288   6.250   4.737
 9596SOL    HW129687   5.274   6.348   4.722
 9596SOL    HW229688   5.370   6.236   4.792
 9597SOL     OW29689   2.038   3.915   1.023
 9597SOL    HW129690   2.119   3.970   1.002
 9597SOL    HW229691   2.003   3.874   0.939
 9598SOL     OW29692   6.974   5.501   5.781
 9598SOL    HW129693   7.022   5.566   5.722
 9598SOL    HW229694   6.921   5.551   5.850
 9599SOL     OW29695   4.917   1.749   4.786
 9599SOL    HW129696   4.986   1.687   4.750
 9599SOL    HW229697   4.943   1.843   4.764
 9600SOL     OW29698   1.118   6.690   6.935
 9600SOL    HW129699   1.101   6.650   0.000
 9600SOL    HW229700   1.158   6.621   6.875
 9601SOL     OW29701   0.578   5.102   5.634
 9601SOL    HW129702   0.498   5.124   5.690
 9601SOL    HW229703   0.549   5.051   5.553
 9602SOL     OW29704   1.074   5.681   0.715
 9602SOL    HW129705   1.025   5.596   0.734
 9602SOL    HW229706   1.036   5.756   0.769
 9603SOL     OW29707   1.865   5.625   3.967
 9603SOL    HW129708   1.831   5.699   4.025
 9603SOL    HW229709   1.947   5.656   3.919
 9604SOL     OW29710   6.470   1.277   0.204
 9604SOL    HW129711   6.552   1.260   0.151
 9604SOL    HW229712   6.425   1.191   0.226
 9605SOL     OW29713   1.870   6.179   6.674
 9605SOL    HW129714   1.854   6.275   6.696
 9605SOL    HW229715   1.855   6.163   6.577
 9606SOL     OW29716   6.223   6.342   4.279
 9606SOL    HW129717   6.297   6.358   4.213
 9606SOL    HW229718   6.247   6.385   4.367
 9607SOL     OW29719   1.092   2.586   1.758
 9607SOL    HW129720   1.179   2.620   1.723
 9607SOL    HW229721   1.032   2.561   1.681
 9608SOL     OW29722   6.787   6.444   2.655
 9608SOL    HW129723   6.747   6.360   2.693
 9608SOL    HW229724   6.785   6.440   2.556
 9609SOL     OW29725   1.537   3.277   4.210
 9609SOL    HW129726   1.456   3.262   4.266
 9609SOL    HW229727   1.611   3.219   4.242
 9610SOL     OW29728   2.906   1.989   6.640
 9610SOL    HW129729   2.993   2.020   6.677
 9610SOL    HW229730   2.912   1.982   6.541
 9611SOL     OW29731   6.571   6.749   0.862
 9611SOL    HW129732   6.645   6.761   0.927
 9611SOL    HW229733   6.598   6.683   0.792
 9612SOL     OW29734   5.678   2.685   1.860
 9612SOL    HW129735   5.739   2.649   1.931
 9612SOL    HW229736   5.729   2.694   1.774
 9613SOL     OW29737   5.883   6.483   5.609
 9613SOL    HW129738   5.800   6.489   5.664
 9613SOL    HW229739   5.931   6.397   5.629
 9614SOL     OW29740   3.575   3.275   2.403
 9614SOL    HW129741   3.649   3.208   2.412
 9614SOL    HW229742   3.491   3.228   2.377
 9615SOL     OW29743   0.851   6.611   3.516
 9615SOL    HW129744   0.818   6.610   3.610
 9615SOL    HW229745   0.882   6.520   3.490
 9616SOL     OW29746   3.313   3.406   1.047
 9616SOL    HW129747   3.237   3.398   1.112
 9616SOL    HW229748   3.399   3.384   1.093
 9617SOL     OW29749   0.955   4.307   3.305
 9617SOL    HW129750   0.988   4.339   3.216
 9617SOL    HW229751   0.876   4.361   3.333
 9618SOL     OW29752   4.278   5.786   6.614
 9618SOL    HW129753   4.366   5.740   6.607
 9618SOL    HW229754   4.220   5.759   6.537
 9619SOL     OW29755   2.567   6.975   0.760
 9619SOL    HW129756   2.637   0.011   0.798
 9619SOL    HW229757   2.509   0.002   0.698
 9620SOL     OW29758   3.388   1.321   6.436
 9620SOL    HW129759   3.310   1.349   6.381
 9620SOL    HW229760   3.373   1.229   6.473
 9621SOL     OW29761   1.451   1.692   1.331
 9621SOL    HW129762   1.389   1.624   1.369
 9621SOL    HW229763   1.520   1.647   1.275
 9622SOL     OW29764   6.452   0.625   5.428
 9622SOL    HW129765   6.378   0.652   5.491
 9622SOL    HW229766   6.433   0.535   5.391
 9623SOL     OW29767   3.771   6.335   6.635
 9623SOL    HW129768   3.810   6.362   6.723
 9623SOL    HW229769   3.811   6.248   6.605
 9624SOL     OW29770   4.092   5.231   4.661
 9624SOL    HW129771   4.108   5.139   4.624
 9624SOL    HW229772   4.139   5.298   4.605
 9625SOL     OW29773   4.930   3.704   5.759
 9625SOL    HW129774   4.831   3.697   5.773
 9625SOL    HW229775   4.948   3.751   5.673
 9626SOL     OW29776   2.445   3.656   6.708
 9626SOL    HW129777   2.480   3.724   6.644
 9626SOL    HW229778   2.362   3.614   6.671
 9627SOL     OW29779   0.965   5.026   6.884
 9627SOL    HW129780   0.889   5.081   6.918
 9627SOL    HW229781   1.041   5.086   6.858
 9628SOL     OW29782   6.096   1.899   6.659
 9628SOL    HW129783   6.089   1.801   6.676
 9628SOL    HW229784   6.173   1.937   6.712
 9629SOL     OW29785   6.182   5.791   3.656
 9629SOL    HW129786   6.240   5.857   3.609
 9629SOL    HW229787   6.124   5.839   3.723
 9630SOL     OW29788   5.715   6.491   6.201
 9630SOL    HW129789   5.696   6.589   6.195
 9630SOL    HW229790   5.635   6.444   6.240
 9631SOL     OW29791   4.257   0.962   6.940
 9631SOL    HW129792   4.306   0.992   7.022
 9631SOL    HW229793   4.283   0.867   6.919
 9632SOL     OW29794   3.612   6.031   1.823
 9632SOL    HW129795   3.592   5.964   1.894
 9632SOL    HW229796   3.565   6.117   1.844
 9633SOL     OW29797   3.349   3.120   2.427
 9633SOL    HW129798   3.364   3.028   2.392
 9633SOL    HW229799   3.421   3.143   2.493
 9634SOL     OW29800   5.335   4.369   2.904
 9634SOL    HW129801   5.314   4.298   2.972
 9634SOL    HW229802   5.258   4.433   2.898
 9635SOL     OW29803   0.081   4.912   3.975
 9635SOL    HW129804   0.095   4.850   3.898
 9635SOL    HW229805   0.165   4.915   4.030
 9636SOL     OW29806   4.818   3.019   4.200
 9636SOL    HW129807   4.813   3.080   4.278
 9636SOL    HW229808   4.757   2.940   4.214
 9637SOL     OW29809   2.547   2.842   0.280
 9637SOL    HW129810   2.566   2.940   0.266
 9637SOL    HW229811   2.468   2.832   0.340
 9638SOL     OW29812   5.983   5.025   5.739
 9638SOL    HW129813   5.900   5.020   5.683
 9638SOL    HW229814   6.045   4.951   5.713
 9639SOL     OW29815   3.785   1.357   2.774
 9639SOL    HW129816   3.792   1.344   2.873
 9639SOL    HW229817   3.869   1.324   2.730
 9640SOL     OW29818   4.713   0.338   3.107
 9640SOL    HW129819   4.735   0.248   3.144
 9640SOL    HW229820   4.727   0.338   3.008
 9641SOL     OW29821   6.211   3.580   3.228
 9641SOL    HW129822   6.259   3.572   3.315
 9641SOL    HW229823   6.163   3.494   3.207
 9642SOL     OW29824   1.410   0.208   3.941
 9642SOL    HW129825   1.340   0.269   3.978
 9642SOL    HW229826   1.371   0.117   3.927
 9643SOL     OW29827   4.968   4.712   3.997
 9643SOL    HW129828   4.995   4.686   4.090
 9643SOL    HW229829   4.979   4.634   3.936
 9644SOL     OW29830   1.246   5.842   4.892
 9644SOL    HW129831   1.334   5.854   4.846
 9644SOL    HW229832   1.175   5.894   4.844
 9645SOL     OW29833   0.513   5.266   6.735
 9645SOL    HW129834   0.547   5.339   6.794
 9645SOL    HW229835   0.586   5.235   6.674
 9646SOL     OW29836   3.591   5.875   5.925
 9646SOL    HW129837   3.496   5.892   5.952
 9646SOL    HW229838   3.639   5.962   5.918
 9647SOL     OW29839   6.476   6.814   3.324
 9647SOL    HW129840   6.432   6.880   3.263
 9647SOL    HW229841   6.456   6.838   3.419
 9648SOL     OW29842   4.107   1.808   1.588
 9648SOL    HW129843   4.149   1.889   1.629
 9648SOL    HW229844   4.062   1.754   1.659
 9649SOL     OW29845   1.669   5.585   6.834
 9649SOL    HW129846   1.572   5.562   6.822
 9649SOL    HW229847   1.683   5.682   6.817
 9650SOL     OW29848   6.910   5.348   4.943
 9650SOL    HW129849   6.910   5.448   4.941
 9650SOL    HW229850   6.980   5.313   4.881
 9651SOL     OW29851   4.262   1.406   0.347
 9651SOL    HW129852   4.332   1.453   0.293
 9651SOL    HW229853   4.209   1.473   0.399
 9652SOL     OW29854   0.018   3.638   0.158
 9652SOL    HW129855   0.054   3.720   0.115
 9652SOL    HW229856   0.035   3.559   0.100
 9653SOL     OW29857   4.165   4.098   6.177
 9653SOL    HW129858   4.177   4.066   6.083
 9653SOL    HW229859   4.241   4.158   6.201
 9654SOL     OW29860   3.804   3.625   3.788
 9654SOL    HW129861   3.866   3.702   3.803
 9654SOL    HW229862   3.759   3.635   3.700
 9655SOL     OW29863   4.465   0.937   1.778
 9655SOL    HW129864   4.389   0.952   1.715
 9655SOL    HW229865   4.463   1.008   1.849
 9656SOL     OW29866   5.872   3.757   0.835
 9656SOL    HW129867   5.817   3.728   0.914
 9656SOL    HW229868   5.955   3.802   0.866
 9657SOL     OW29869   5.597   3.405   3.458
 9657SOL    HW129870   5.505   3.376   3.486
 9657SOL    HW229871   5.649   3.431   3.539
 9658SOL     OW29872   5.280   2.189   2.338
 9658SOL    HW129873   5.328   2.236   2.264
 9658SOL    HW229874   5.236   2.258   2.397
 9659SOL     OW29875   2.592   3.299   0.754
 9659SOL    HW129876   2.532   3.335   0.825
 9659SOL    HW229877   2.587   3.357   0.673
 9660SOL     OW29878   0.348   5.652   1.687
 9660SOL    HW129879   0.442   5.625   1.666
 9660SOL    HW229880   0.295   5.656   1.603
 9661SOL     OW29881   5.397   5.180   0.694
 9661SOL    HW129882   5.330   5.211   0.761
 9661SOL    HW229883   5.457   5.256   0.669
 9662SOL     OW29884   5.612   5.317   5.763
 9662SOL    HW129885   5.640   5.287   5.671
 9662SOL    HW229886   5.588   5.237   5.818
 9663SOL     OW29887   0.635   5.228   3.556
 9663SOL    HW129888   0.687   5.148   3.588
 9663SOL    HW229889   0.552   5.198   3.510
 9664SOL     OW29890   4.897   3.634   3.188
 9664SOL    HW129891   4.874   3.676   3.276
 9664SOL    HW229892   4.863   3.691   3.114
 9665SOL     OW29893   5.760   5.914   6.595
 9665SOL    HW129894   5.726   5.909   6.689
 9665SOL    HW229895   5.765   6.010   6.566
 9666SOL     OW29896   5.451   3.471   0.119
 9666SOL    HW129897   5.434   3.433   0.210
 9666SOL    HW229898   5.368   3.467   0.064
 9667SOL     OW29899   6.149   6.313   6.508
 9667SOL    HW129900   6.053   6.294   6.530
 9667SOL    HW229901   6.205   6.233   6.534
 9668SOL     OW29902   0.447   0.108   5.816
 9668SOL    HW129903   0.468   0.010   5.812
 9668SOL    HW229904   0.480   0.153   5.733
 9669SOL     OW29905   3.999   6.938   0.354
 9669SOL    HW129906   3.984   0.005   0.319
 9669SOL    HW229907   3.918   6.882   0.337
 9670SOL     OW29908   0.009   6.665   6.729
 9670SOL    HW129909   0.067   6.745   6.746
 9670SOL    HW229910   6.969   6.685   6.655
 9671SOL     OW29911   1.600   5.661   6.500
 9671SOL    HW129912   1.599   5.718   6.582
 9671SOL    HW229913   1.530   5.590   6.508
 9672SOL     OW29914   0.934   3.258   4.683
 9672SOL    HW129915   0.841   3.259   4.647
 9672SOL    HW229916   0.937   3.202   4.766
 9673SOL     OW29917   2.282   4.024   0.956
 9673SOL    HW129918   2.308   4.060   1.046
 9673SOL    HW229919   2.355   3.966   0.921
 9674SOL     OW29920   2.854   5.841   4.473
 9674SOL    HW129921   2.869   5.876   4.566
 9674SOL    HW229922   2.905   5.897   4.408
 9675SOL     OW29923   4.548   3.853   1.037
 9675SOL    HW129924   4.563   3.914   0.958
 9675SOL    HW229925   4.545   3.758   1.005
 9676SOL     OW29926   0.840   2.928   6.439
 9676SOL    HW129927   0.786   2.886   6.367
 9676SOL    HW229928   0.812   2.891   6.528
 9677SOL     OW29929   6.603   5.339   0.715
 9677SOL    HW129930   6.586   5.240   0.708
 9677SOL    HW229931   6.636   5.373   0.627
 9678SOL     OW29932   3.649   3.388   5.127
 9678SOL    HW129933   3.707   3.465   5.100
 9678SOL    HW229934   3.707   3.312   5.157
 9679SOL     OW29935   2.382   1.557   4.834
 9679SOL    HW129936   2.466   1.603   4.864
 9679SOL    HW229937   2.351   1.493   4.905
 9680SOL     OW29938   4.915   5.840   2.601
 9680SOL    HW129939   4.944   5.865   2.509
 9680SOL    HW229940   4.920   5.741   2.611
 9681SOL     OW29941   1.626   1.489   2.722
 9681SOL    HW129942   1.548   1.522   2.775
 9681SOL    HW229943   1.675   1.567   2.682
 9682SOL     OW29944   5.237   5.370   5.002
 9682SOL    HW129945   5.255   5.437   5.073
 9682SOL    HW229946   5.146   5.386   4.963
 9683SOL     OW29947   2.601   5.715   2.066
 9683SOL    HW129948   2.701   5.716   2.061
 9683SOL    HW229949   2.565   5.804   2.039
 9684SOL     OW29950   1.099   3.848   5.697
 9684SOL    HW129951   1.142   3.758   5.701
 9684SOL    HW229952   1.058   3.862   5.606
 9685SOL     OW29953   3.838   4.747   1.423
 9685SOL    HW129954   3.772   4.738   1.349
 9685SOL    HW229955   3.923   4.700   1.398
 9686SOL     OW29956   6.973   1.998   5.786
 9686SOL    HW129957   7.007   1.904   5.782
 9686SOL    HW229958   6.878   2.000   5.754
 9687SOL     OW29959   5.724   0.956   2.102
 9687SOL    HW129960   5.752   0.893   2.029
 9687SOL    HW229961   5.803   0.978   2.159
 9688SOL     OW29962   0.350   4.275   1.378
 9688SOL    HW129963   0.384   4.363   1.344
 9688SOL    HW229964   0.307   4.288   1.467
 9689SOL     OW29965   1.268   6.214   0.791
 9689SOL    HW129966   1.245   6.223   0.694
 9689SOL    HW229967   1.289   6.304   0.829
 9690SOL     OW29968   6.222   5.314   5.339
 9690SOL    HW129969   6.246   5.228   5.293
 9690SOL    HW229970   6.189   5.379   5.271
 9691SOL     OW29971   3.098   4.056   1.945
 9691SOL    HW129972   3.169   4.060   1.875
 9691SOL    HW229973   3.140   4.045   2.035
 9692SOL     OW29974   5.069   5.100   0.995
 9692SOL    HW129975   5.136   5.039   1.037
 9692SOL    HW229976   4.988   5.106   1.054
 9693SOL     OW29977   5.235   4.041   4.414
 9693SOL    HW129978   5.148   3.992   4.420
 9693SOL    HW229979   5.264   4.044   4.318
 9694SOL     OW29980   3.851   6.861   2.458
 9694SOL    HW129981   3.782   6.932   2.447
 9694SOL    HW229982   3.808   6.771   2.460
 9695SOL     OW29983   0.946   2.649   3.420
 9695SOL    HW129984   0.914   2.634   3.326
 9695SOL    HW229985   0.876   2.698   3.471
 9696SOL     OW29986   6.009   2.193   2.479
 9696SOL    HW129987   5.978   2.215   2.571
 9696SOL    HW229988   6.078   2.120   2.483
 9697SOL     OW29989   0.646   6.133   0.727
 9697SOL    HW129990   0.685   6.091   0.645
 9697SOL    HW229991   0.633   6.231   0.712
 9698SOL     OW29992   5.595   3.201   0.290
 9698SOL    HW129993   5.617   3.298   0.288
 9698SOL    HW229994   5.680   3.148   0.301
 9699SOL     OW29995   1.353   5.295   1.343
 9699SOL    HW129996   1.351   5.312   1.244
 9699SOL    HW229997   1.284   5.227   1.366
 9700SOL     OW29998   5.687   0.316   5.099
 9700SOL    HW129999   5.601   0.356   5.069
 9700SOL    HW230000   5.763   0.358   5.050
 9701SOL     OW30001   4.367   3.121   6.199
 9701SOL    HW130002   4.415   3.033   6.194
 9701SOL    HW230003   4.275   3.106   6.234
 9702SOL     OW30004   3.803   2.732   1.417
 9702SOL    HW130005   3.862   2.652   1.419
 9702SOL    HW230006   3.736   2.722   1.343
 9703SOL     OW30007   6.755   4.009   4.964
 9703SOL    HW130008   6.830   3.944   4.971
 9703SOL    HW230009   6.754   4.051   4.874
 9704SOL     OW30010   2.314   4.185   2.983
 9704SOL    HW130011   2.257   4.158   3.060
 9704SOL    HW230012   2.285   4.135   2.901
 9705SOL     OW30013   6.295   3.145   5.617
 9705SOL    HW130014   6.203   3.113   5.599
 9705SOL    HW230015   6.323   3.210   5.546
 9706SOL     OW30016   1.532   1.976   2.254
 9706SOL    HW130017   1.556   1.969   2.351
 9706SOL    HW230018   1.583   1.907   2.202
 9707SOL     OW30019   6.605   4.963   2.681
 9707SOL    HW130020   6.599   4.876   2.730
 9707SOL    HW230021   6.666   4.953   2.602
 9708SOL     OW30022   2.249   0.220   2.270
 9708SOL    HW130023   2.349   0.225   2.268
 9708SOL    HW230024   2.212   0.312   2.268
 9709SOL     OW30025   5.795   2.037   2.353
 9709SOL    HW130026   5.787   2.085   2.441
 9709SOL    HW230027   5.876   2.069   2.305
 9710SOL     OW30028   6.162   5.870   4.250
 9710SOL    HW130029   6.135   5.778   4.222
 9710SOL    HW230030   6.251   5.892   4.209
 9711SOL     OW30031   4.071   0.176   0.049
 9711SOL    HW130032   4.168   0.152   0.058
 9711SOL    HW230033   4.023   0.155   0.134
 9712SOL     OW30034   5.486   1.974   6.816
 9712SOL    HW130035   5.532   1.894   6.778
 9712SOL    HW230036   5.425   1.945   6.890
 9713SOL     OW30037   1.172   6.704   3.455
 9713SOL    HW130038   1.163   6.604   3.458
 9713SOL    HW230039   1.127   6.739   3.373
 9714SOL     OW30040   2.688   4.739   4.853
 9714SOL    HW130041   2.592   4.748   4.878
 9714SOL    HW230042   2.740   4.707   4.933
 9715SOL     OW30043   6.461   3.773   0.058
 9715SOL    HW130044   6.532   3.731   0.115
 9715SOL    HW230045   6.498   3.790   6.991
 9716SOL     OW30046   3.055   5.021   0.199
 9716SOL    HW130047   3.022   5.101   0.250
 9716SOL    HW230048   2.980   4.956   0.188
 9717SOL     OW30049   4.456   0.945   5.252
 9717SOL    HW130050   4.375   0.937   5.309
 9717SOL    HW230051   4.433   0.993   5.167
 9718SOL     OW30052   3.122   2.644   0.210
 9718SOL    HW130053   3.046   2.687   0.259
 9718SOL    HW230054   3.202   2.637   0.270
 9719SOL     OW30055   4.744   6.198   4.893
 9719SOL    HW130056   4.681   6.206   4.816
 9719SOL    HW230057   4.710   6.253   4.970
 9720SOL     OW30058   2.077   3.664   2.932
 9720SOL    HW130059   2.071   3.564   2.937
 9720SOL    HW230060   2.103   3.691   2.839
 9721SOL     OW30061   0.801   1.503   0.546
 9721SOL    HW130062   0.844   1.429   0.598
 9721SOL    HW230063   0.779   1.470   0.455
 9722SOL     OW30064   3.827   3.176   5.115
 9722SOL    HW130065   3.775   3.134   5.041
 9722SOL    HW230066   3.903   3.116   5.142
 9723SOL     OW30067   6.368   5.616   4.277
 9723SOL    HW130068   6.404   5.560   4.351
 9723SOL    HW230069   6.379   5.568   4.190
 9724SOL     OW30070   1.117   5.397   0.194
 9724SOL    HW130071   1.189   5.335   0.163
 9724SOL    HW230072   1.124   5.484   0.147
 9725SOL     OW30073   3.222   5.426   5.509
 9725SOL    HW130074   3.179   5.336   5.507
 9725SOL    HW230075   3.318   5.416   5.535
 9726SOL     OW30076   6.055   1.242   4.062
 9726SOL    HW130077   6.038   1.172   3.992
 9726SOL    HW230078   5.996   1.226   4.140
 9727SOL     OW30079   1.022   1.225   6.936
 9727SOL    HW130080   1.072   1.311   6.934
 9727SOL    HW230081   1.048   1.172   7.017
 9728SOL     OW30082   5.249   0.592   5.789
 9728SOL    HW130083   5.234   0.494   5.801
 9728SOL    HW230084   5.346   0.608   5.768
 9729SOL     OW30085   0.306   5.501   3.314
 9729SOL    HW130086   0.207   5.514   3.314
 9729SOL    HW230087   0.328   5.412   3.353
 9730SOL     OW30088   0.285   4.510   3.479
 9730SOL    HW130089   0.330   4.576   3.419
 9730SOL    HW230090   0.299   4.537   3.574
 9731SOL     OW30091   5.214   3.746   2.556
 9731SOL    HW130092   5.301   3.697   2.548
 9731SOL    HW230093   5.165   3.743   2.469
 9732SOL     OW30094   1.230   2.842   2.238
 9732SOL    HW130095   1.135   2.874   2.235
 9732SOL    HW230096   1.231   2.742   2.243
 9733SOL     OW30097   6.495   5.202   2.864
 9733SOL    HW130098   6.523   5.115   2.904
 9733SOL    HW230099   6.509   5.275   2.931
 9734SOL     OW30100   6.092   6.601   5.454
 9734SOL    HW130101   6.024   6.553   5.509
 9734SOL    HW230102   6.069   6.698   5.449
 9735SOL     OW30103   1.599   2.609   2.147
 9735SOL    HW130104   1.574   2.519   2.183
 9735SOL    HW230105   1.530   2.639   2.081
 9736SOL     OW30106   4.711   2.290   5.060
 9736SOL    HW130107   4.735   2.203   5.104
 9736SOL    HW230108   4.795   2.335   5.028
 9737SOL     OW30109   5.872   2.256   2.720
 9737SOL    HW130110   5.939   2.279   2.791
 9737SOL    HW230111   5.782   2.247   2.761
 9738SOL     OW30112   1.377   5.720   2.422
 9738SOL    HW130113   1.291   5.701   2.469
 9738SOL    HW230114   1.444   5.648   2.445
 9739SOL     OW30115   5.984   6.885   0.010
 9739SOL    HW130116   6.045   6.808   0.033
 9739SOL    HW230117   6.024   6.938   6.960
 9740SOL     OW30118   0.153   1.300   1.766
 9740SOL    HW130119   0.061   1.274   1.736
 9740SOL    HW230120   0.218   1.228   1.742
 9741SOL     OW30121   2.986   1.312   4.796
 9741SOL    HW130122   2.987   1.288   4.893
 9741SOL    HW230123   2.893   1.308   4.761
 9742SOL     OW30124   3.917   2.432   5.904
 9742SOL    HW130125   3.834   2.471   5.943
 9742SOL    HW230126   3.905   2.333   5.894
 9743SOL     OW30127   5.985   3.346   4.050
 9743SOL    HW130128   5.951   3.254   4.028
 9743SOL    HW230129   6.045   3.341   4.130
 9744SOL     OW30130   2.036   0.309   3.897
 9744SOL    HW130131   2.008   0.263   3.813
 9744SOL    HW230132   2.009   0.255   3.977
 9745SOL     OW30133   6.723   0.810   5.430
 9745SOL    HW130134   6.790   0.736   5.435
 9745SOL    HW230135   6.634   0.778   5.463
 9746SOL     OW30136   4.171   5.045   6.422
 9746SOL    HW130137   4.103   5.034   6.349
 9746SOL    HW230138   4.259   5.009   6.390
 9747SOL     OW30139   2.280   2.620   3.076
 9747SOL    HW130140   2.285   2.587   2.982
 9747SOL    HW230141   2.372   2.620   3.116
 9748SOL     OW30142   0.954   0.645   3.334
 9748SOL    HW130143   1.005   0.671   3.251
 9748SOL    HW230144   0.920   0.727   3.379
 9749SOL     OW30145   6.519   1.505   2.021
 9749SOL    HW130146   6.557   1.413   2.032
 9749SOL    HW230147   6.589   1.565   1.983
 9750SOL     OW30148   6.559   4.503   3.842
 9750SOL    HW130149   6.585   4.517   3.746
 9750SOL    HW230150   6.638   4.467   3.892
 9751SOL     OW30151   2.594   1.200   1.829
 9751SOL    HW130152   2.590   1.160   1.920
 9751SOL    HW230153   2.512   1.254   1.813
 9752SOL     OW30154   3.660   3.121   6.899
 9752SOL    HW130155   3.621   3.029   6.912
 9752SOL    HW230156   3.659   3.170   6.986
 9753SOL     OW30157   6.488   5.966   4.868
 9753SOL    HW130158   6.555   5.993   4.937
 9753SOL    HW230159   6.403   6.018   4.882
 9754SOL     OW30160   3.737   1.056   1.489
 9754SOL    HW130161   3.665   1.107   1.442
 9754SOL    HW230162   3.819   1.113   1.498
 9755SOL     OW30163   3.505   4.637   6.572
 9755SOL    HW130164   3.471   4.545   6.553
 9755SOL    HW230165   3.445   4.682   6.638
 9756SOL     OW30166   6.259   0.743   6.153
 9756SOL    HW130167   6.278   0.653   6.193
 9756SOL    HW230168   6.305   0.750   6.064
 9757SOL     OW30169   4.839   3.751   3.898
 9757SOL    HW130170   4.921   3.809   3.892
 9757SOL    HW230171   4.758   3.809   3.889
 9758SOL     OW30172   1.742   0.520   0.758
 9758SOL    HW130173   1.709   0.566   0.841
 9758SOL    HW230174   1.837   0.545   0.742
 9759SOL     OW30175   0.851   1.089   0.406
 9759SOL    HW130176   0.804   1.013   0.361
 9759SOL    HW230177   0.888   1.151   0.337
 9760SOL     OW30178   4.591   2.152   0.472
 9760SOL    HW130179   4.505   2.121   0.432
 9760SOL    HW230180   4.649   2.073   0.493
 9761SOL     OW30181   1.468   2.144   1.746
 9761SOL    HW130182   1.474   2.222   1.683
 9761SOL    HW230183   1.491   2.174   1.838
 9762SOL     OW30184   2.442   1.493   5.610
 9762SOL    HW130185   2.538   1.488   5.581
 9762SOL    HW230186   2.396   1.563   5.557
 9763SOL     OW30187   6.222   1.618   0.899
 9763SOL    HW130188   6.299   1.663   0.943
 9763SOL    HW230189   6.232   1.519   0.908
 9764SOL     OW30190   5.471   2.033   2.465
 9764SOL    HW130191   5.395   2.077   2.417
 9764SOL    HW230192   5.529   1.986   2.399
 9765SOL     OW30193   6.596   1.130   1.428
 9765SOL    HW130194   6.549   1.184   1.497
 9765SOL    HW230195   6.672   1.183   1.390
 9766SOL     OW30196   2.093   1.013   4.618
 9766SOL    HW130197   2.138   1.089   4.664
 9766SOL    HW230198   2.066   0.944   4.685
 9767SOL     OW30199   2.148   3.396   5.786
 9767SOL    HW130200   2.212   3.460   5.743
 9767SOL    HW230201   2.085   3.361   5.717
 9768SOL     OW30202   6.370   2.269   0.773
 9768SOL    HW130203   6.386   2.197   0.842
 9768SOL    HW230204   6.299   2.331   0.806
 9769SOL     OW30205   2.966   2.026   4.797
 9769SOL    HW130206   3.047   2.072   4.760
 9769SOL    HW230207   2.933   2.077   4.877
 9770SOL     OW30208   3.053   2.250   6.490
 9770SOL    HW130209   2.970   2.207   6.456
 9770SOL    HW230210   3.118   2.180   6.519
 9771SOL     OW30211   3.023   6.259   2.965
 9771SOL    HW130212   3.042   6.240   2.868
 9771SOL    HW230213   3.058   6.184   3.021
 9772SOL     OW30214   1.186   6.529   1.450
 9772SOL    HW130215   1.086   6.525   1.456
 9772SOL    HW230216   1.224   6.551   1.540
 9773SOL     OW30217   4.649   5.554   1.774
 9773SOL    HW130218   4.744   5.565   1.805
 9773SOL    HW230219   4.599   5.497   1.840
 9774SOL     OW30220   0.577   5.656   4.467
 9774SOL    HW130221   0.623   5.571   4.493
 9774SOL    HW230222   0.601   5.680   4.373
 9775SOL     OW30223   2.181   0.855   3.854
 9775SOL    HW130224   2.132   0.852   3.767
 9775SOL    HW230225   2.265   0.800   3.847
 9776SOL     OW30226   1.598   6.114   6.490
 9776SOL    HW130227   1.675   6.062   6.452
 9776SOL    HW230228   1.534   6.051   6.534
 9777SOL     OW30229   4.927   0.314   5.922
 9777SOL    HW130230   4.869   0.390   5.895
 9777SOL    HW230231   4.895   0.276   6.009
 9778SOL     OW30232   0.178   2.713   4.136
 9778SOL    HW130233   0.097   2.677   4.183
 9778SOL    HW230234   0.249   2.733   4.204
 9779SOL     OW30235   1.263   1.211   3.612
 9779SOL    HW130236   1.304   1.164   3.533
 9779SOL    HW230237   1.330   1.216   3.685
 9780SOL     OW30238   2.113   2.074   1.399
 9780SOL    HW130239   2.057   2.156   1.385
 9780SOL    HW230240   2.154   2.046   1.312
 9781SOL     OW30241   1.560   3.022   3.858
 9781SOL    HW130242   1.601   3.105   3.821
 9781SOL    HW230243   1.624   2.979   3.922
 9782SOL     OW30244   0.349   2.457   1.473
 9782SOL    HW130245   0.416   2.382   1.472
 9782SOL    HW230246   0.376   2.527   1.408
 9783SOL     OW30247   3.525   1.510   3.053
 9783SOL    HW130248   3.449   1.493   3.115
 9783SOL    HW230249   3.603   1.546   3.104
 9784SOL     OW30250   1.893   1.521   0.430
 9784SOL    HW130251   1.951   1.441   0.445
 9784SOL    HW230252   1.878   1.568   0.517
 9785SOL     OW30253   6.890   2.201   4.483
 9785SOL    HW130254   6.807   2.202   4.539
 9785SOL    HW230255   6.884   2.274   4.415
 9786SOL     OW30256   2.375   4.909   1.543
 9786SOL    HW130257   2.307   4.838   1.525
 9786SOL    HW230258   2.425   4.930   1.459
 9787SOL     OW30259   3.693   3.012   2.908
 9787SOL    HW130260   3.624   3.059   2.962
 9787SOL    HW230261   3.651   2.939   2.855
 9788SOL     OW30262   6.634   6.208   1.351
 9788SOL    HW130263   6.613   6.305   1.342
 9788SOL    HW230264   6.604   6.175   1.441
 9789SOL     OW30265   3.712   0.333   6.636
 9789SOL    HW130266   3.651   0.267   6.593
 9789SOL    HW230267   3.670   0.369   6.719
 9790SOL     OW30268   6.947   4.503   4.478
 9790SOL    HW130269   0.015   4.531   4.503
 9790SOL    HW230270   6.891   4.583   4.462
 9791SOL     OW30271   0.977   6.451   1.048
 9791SOL    HW130272   0.975   6.457   0.949
 9791SOL    HW230273   1.004   6.358   1.075
 9792SOL     OW30274   4.128   5.661   1.154
 9792SOL    HW130275   4.139   5.753   1.117
 9792SOL    HW230276   4.075   5.665   1.239
 9793SOL     OW30277   4.759   1.683   2.464
 9793SOL    HW130278   4.720   1.711   2.377
 9793SOL    HW230279   4.856   1.664   2.453
 9794SOL     OW30280   4.858   4.632   5.387
 9794SOL    HW130281   4.939   4.661   5.336
 9794SOL    HW230282   4.846   4.533   5.376
 9795SOL     OW30283   1.155   3.679   3.511
 9795SOL    HW130284   1.159   3.756   3.575
 9795SOL    HW230285   1.237   3.623   3.520
 9796SOL     OW30286   3.255   3.600   3.256
 9796SOL    HW130287   3.189   3.595   3.331
 9796SOL    HW230288   3.210   3.637   3.175
 9797SOL     OW30289   2.809   6.870   6.538
 9797SOL    HW130290   2.745   6.855   6.614
 9797SOL    HW230291   2.795   6.800   6.468
 9798SOL     OW30292   1.414   3.272   0.326
 9798SOL    HW130293   1.497   3.299   0.374
 9798SOL    HW230294   1.352   3.225   0.389
 9799SOL     OW30295   2.708   0.138   6.103
 9799SOL    HW130296   2.737   0.078   6.028
 9799SOL    HW230297   2.685   0.083   6.183
 9800SOL     OW30298   6.280   3.353   4.784
 9800SOL    HW130299   6.223   3.396   4.714
 9800SOL    HW230300   6.314   3.423   4.847
 9801SOL     OW30301   6.141   5.585   6.755
 9801SOL    HW130302   6.153   5.544   6.846
 9801SOL    HW230303   6.111   5.680   6.764
 9802SOL     OW30304   4.569   4.905   1.124
 9802SOL    HW130305   4.656   4.863   1.149
 9802SOL    HW230306   4.524   4.849   1.055
 9803SOL     OW30307   0.771   4.018   6.316
 9803SOL    HW130308   0.684   4.062   6.339
 9803SOL    HW230309   0.816   3.986   6.399
 9804SOL     OW30310   6.455   5.553   2.307
 9804SOL    HW130311   6.536   5.554   2.366
 9804SOL    HW230312   6.477   5.504   2.223
 9805SOL     OW30313   0.505   6.526   3.903
 9805SOL    HW130314   0.560   6.484   3.975
 9805SOL    HW230315   0.427   6.573   3.944
 9806SOL     OW30316   2.979   2.469   5.911
 9806SOL    HW130317   2.898   2.409   5.920
 9806SOL    HW230318   2.967   2.550   5.968
 9807SOL     OW30319   2.946   3.654   1.833
 9807SOL    HW130320   2.846   3.661   1.831
 9807SOL    HW230321   2.983   3.724   1.893
 9808SOL     OW30322   4.453   6.747   3.501
 9808SOL    HW130323   4.406   6.823   3.456
 9808SOL    HW230324   4.515   6.784   3.571
 9809SOL     OW30325   0.127   2.802   0.585
 9809SOL    HW130326   0.097   2.859   0.661
 9809SOL    HW230327   0.164   2.715   0.620
 9810SOL     OW30328   1.952   1.725   6.596
 9810SOL    HW130329   1.955   1.651   6.529
 9810SOL    HW230330   2.044   1.743   6.631
 9811SOL     OW30331   6.232   4.183   3.980
 9811SOL    HW130332   6.185   4.224   3.902
 9811SOL    HW230333   6.291   4.251   4.023
 9812SOL     OW30334   2.517   6.394   4.907
 9812SOL    HW130335   2.535   6.440   4.994
 9812SOL    HW230336   2.598   6.342   4.880
 9813SOL     OW30337   4.775   2.091   1.129
 9813SOL    HW130338   4.773   2.132   1.038
 9813SOL    HW230339   4.682   2.086   1.165
 9814SOL     OW30340   5.813   1.348   0.288
 9814SOL    HW130341   5.892   1.368   0.229
 9814SOL    HW230342   5.784   1.253   0.274
 9815SOL     OW30343   4.333   2.370   4.586
 9815SOL    HW130344   4.332   2.416   4.675
 9815SOL    HW230345   4.424   2.331   4.570
 9816SOL     OW30346   1.363   0.535   0.727
 9816SOL    HW130347   1.435   0.475   0.692
 9816SOL    HW230348   1.274   0.505   0.693
 9817SOL     OW30349   0.326   6.875   3.685
 9817SOL    HW130350   0.401   6.903   3.745
 9817SOL    HW230351   0.246   6.932   3.703
 9818SOL     OW30352   6.145   2.279   4.806
 9818SOL    HW130353   6.206   2.349   4.769
 9818SOL    HW230354   6.061   2.275   4.751
 9819SOL     OW30355   3.656   1.691   3.658
 9819SOL    HW130356   3.646   1.776   3.710
 9819SOL    HW230357   3.747   1.654   3.671
 9820SOL     OW30358   3.889   4.143   6.223
 9820SOL    HW130359   3.857   4.091   6.303
 9820SOL    HW230360   3.983   4.116   6.203
 9821SOL     OW30361   5.042   6.063   6.766
 9821SOL    HW130362   5.058   5.974   6.724
 9821SOL    HW230363   5.020   6.130   6.694
 9822SOL     OW30364   0.686   6.825   2.582
 9822SOL    HW130365   0.725   6.733   2.581
 9822SOL    HW230366   0.759   6.892   2.567
 9823SOL     OW30367   3.599   1.005   2.080
 9823SOL    HW130368   3.605   0.981   1.983
 9823SOL    HW230369   3.600   0.922   2.135
 9824SOL     OW30370   1.310   4.334   5.059
 9824SOL    HW130371   1.397   4.344   5.013
 9824SOL    HW230372   1.235   4.347   4.994
 9825SOL     OW30373   3.695   4.965   5.406
 9825SOL    HW130374   3.596   4.973   5.404
 9825SOL    HW230375   3.726   4.916   5.324
 9826SOL     OW30376   4.640   6.614   5.986
 9826SOL    HW130377   4.610   6.659   5.902
 9826SOL    HW230378   4.560   6.591   6.041
 9827SOL     OW30379   1.821   4.255   4.926
 9827SOL    HW130380   1.828   4.342   4.877
 9827SOL    HW230381   1.830   4.272   5.024
 9828SOL     OW30382   3.953   2.399   0.208
 9828SOL    HW130383   4.039   2.448   0.224
 9828SOL    HW230384   3.964   2.304   0.235
 9829SOL     OW30385   2.955   6.313   0.345
 9829SOL    HW130386   3.026   6.362   0.396
 9829SOL    HW230387   2.865   6.342   0.376
 9830SOL     OW30388   5.371   1.400   0.953
 9830SOL    HW130389   5.349   1.348   0.871
 9830SOL    HW230390   5.461   1.371   0.987
 9831SOL     OW30391   1.156   6.268   1.359
 9831SOL    HW130392   1.168   6.366   1.375
 9831SOL    HW230393   1.245   6.225   1.346
 9832SOL     OW30394   4.515   5.394   1.967
 9832SOL    HW130395   4.554   5.394   2.060
 9832SOL    HW230396   4.425   5.438   1.969
 9833SOL     OW30397   3.664   3.864   5.064
 9833SOL    HW130398   3.705   3.848   5.154
 9833SOL    HW230399   3.588   3.929   5.073
 9834SOL     OW30400   2.151   4.273   5.415
 9834SOL    HW130401   2.100   4.307   5.336
 9834SOL    HW230402   2.175   4.177   5.401
 9835SOL     OW30403   5.061   1.872   4.489
 9835SOL    HW130404   5.151   1.908   4.467
 9835SOL    HW230405   5.071   1.788   4.543
 9836SOL     OW30406   5.577   3.467   3.177
 9836SOL    HW130407   5.583   3.470   3.277
 9836SOL    HW230408   5.541   3.554   3.143
 9837SOL     OW30409   2.224   0.141   4.068
 9837SOL    HW130410   2.208   0.212   4.136
 9837SOL    HW230411   2.155   0.069   4.078
 9838SOL     OW30412   0.899   6.296   5.915
 9838SOL    HW130413   0.987   6.267   5.879
 9838SOL    HW230414   0.854   6.355   5.847
 9839SOL     OW30415   6.724   1.860   1.753
 9839SOL    HW130416   6.628   1.878   1.774
 9839SOL    HW230417   6.755   1.778   1.801
 9840SOL     OW30418   0.006   0.718   0.962
 9840SOL    HW130419   0.069   0.769   0.904
 9840SOL    HW230420   6.942   0.764   0.963
 9841SOL     OW30421   1.635   4.073   4.905
 9841SOL    HW130422   1.706   4.144   4.911
 9841SOL    HW230423   1.594   4.059   4.995
 9842SOL     OW30424   3.463   3.142   3.048
 9842SOL    HW130425   3.497   3.235   3.036
 9842SOL    HW230426   3.468   3.117   3.144
 9843SOL     OW30427   6.477   1.681   1.014
 9843SOL    HW130428   6.521   1.682   0.924
 9843SOL    HW230429   6.501   1.764   1.064
 9844SOL     OW30430   4.386   6.616   2.791
 9844SOL    HW130431   4.297   6.662   2.783
 9844SOL    HW230432   4.381   6.526   2.748
 9845SOL     OW30433   2.774   1.884   4.648
 9845SOL    HW130434   2.848   1.937   4.690
 9845SOL    HW230435   2.808   1.793   4.623
 9846SOL     OW30436   3.073   3.795   3.093
 9846SOL    HW130437   3.036   3.768   3.005
 9846SOL    HW230438   3.006   3.776   3.165
 9847SOL     OW30439   2.576   3.110   6.417
 9847SOL    HW130440   2.572   3.017   6.379
 9847SOL    HW230441   2.602   3.105   6.513
 9848SOL     OW30442   4.362   2.645   6.318
 9848SOL    HW130443   4.271   2.653   6.277
 9848SOL    HW230444   4.353   2.617   6.413
 9849SOL     OW30445   6.285   0.667   6.959
 9849SOL    HW130446   6.284   0.718   0.019
 9849SOL    HW230447   6.203   0.688   6.905
 9850SOL     OW30448   4.225   6.124   2.805
 9850SOL    HW130449   4.297   6.093   2.743
 9850SOL    HW230450   4.135   6.100   2.767
 9851SOL     OW30451   4.627   2.070   5.324
 9851SOL    HW130452   4.642   2.046   5.420
 9851SOL    HW230453   4.708   2.047   5.270
 9852SOL     OW30454   4.415   2.060   3.519
 9852SOL    HW130455   4.453   1.968   3.526
 9852SOL    HW230456   4.321   2.056   3.487
 9853SOL     OW30457   5.362   4.127   2.262
 9853SOL    HW130458   5.320   4.205   2.216
 9853SOL    HW230459   5.293   4.056   2.277
 9854SOL     OW30460   5.750   5.448   4.779
 9854SOL    HW130461   5.779   5.520   4.842
 9854SOL    HW230462   5.821   5.377   4.775
 9855SOL     OW30463   1.093   4.434   1.296
 9855SOL    HW130464   1.151   4.411   1.218
 9855SOL    HW230465   1.150   4.457   1.374
 9856SOL     OW30466   4.036   4.234   0.796
 9856SOL    HW130467   3.943   4.252   0.827
 9856SOL    HW230468   4.035   4.213   0.698
 9857SOL     OW30469   5.441   1.764   2.749
 9857SOL    HW130470   5.439   1.688   2.815
 9857SOL    HW230471   5.434   1.851   2.799
 9858SOL     OW30472   5.028   0.515   1.816
 9858SOL    HW130473   4.964   0.491   1.743
 9858SOL    HW230474   5.018   0.611   1.839
 9859SOL     OW30475   5.988   0.139   1.591
 9859SOL    HW130476   6.085   0.148   1.566
 9859SOL    HW230477   5.953   0.052   1.557
 9860SOL     OW30478   0.246   0.908   1.492
 9860SOL    HW130479   0.308   0.855   1.434
 9860SOL    HW230480   0.159   0.920   1.445
 9861SOL     OW30481   3.476   6.201   4.607
 9861SOL    HW130482   3.532   6.189   4.525
 9861SOL    HW230483   3.384   6.166   4.589
 9862SOL     OW30484   2.546   3.642   1.077
 9862SOL    HW130485   2.589   3.731   1.095
 9862SOL    HW230486   2.449   3.647   1.101
 9863SOL     OW30487   3.104   0.024   2.912
 9863SOL    HW130488   3.191   0.073   2.917
 9863SOL    HW230489   3.104   6.975   2.980
 9864SOL     OW30490   4.436   5.635   3.752
 9864SOL    HW130491   4.385   5.667   3.672
 9864SOL    HW230492   4.534   5.633   3.730
 9865SOL     OW30493   0.450   0.316   3.554
 9865SOL    HW130494   0.501   0.353   3.476
 9865SOL    HW230495   0.432   0.389   3.619
 9866SOL     OW30496   4.849   4.225   4.426
 9866SOL    HW130497   4.878   4.145   4.478
 9866SOL    HW230498   4.829   4.199   4.331
 9867SOL     OW30499   4.012   0.888   0.304
 9867SOL    HW130500   3.948   0.820   0.342
 9867SOL    HW230501   4.062   0.848   0.227
 9868SOL     OW30502   0.651   4.519   0.007
 9868SOL    HW130503   0.680   4.462   6.955
 9868SOL    HW230504   0.660   4.615   7.006
 9869SOL     OW30505   1.622   4.054   3.602
 9869SOL    HW130506   1.649   4.106   3.521
 9869SOL    HW230507   1.627   3.956   3.581
 9870SOL     OW30508   4.895   6.106   2.721
 9870SOL    HW130509   4.891   6.021   2.668
 9870SOL    HW230510   4.963   6.167   2.681
 9871SOL     OW30511   1.665   0.134   6.020
 9871SOL    HW130512   1.759   0.124   6.053
 9871SOL    HW230513   1.666   0.177   5.930
 9872SOL     OW30514   2.497   5.020   2.985
 9872SOL    HW130515   2.561   4.942   2.985
 9872SOL    HW230516   2.406   4.988   3.012
 9873SOL     OW30517   2.373   3.096   0.909
 9873SOL    HW130518   2.415   3.185   0.928
 9873SOL    HW230519   2.349   3.052   0.996
 9874SOL     OW30520   0.822   2.086   4.109
 9874SOL    HW130521   0.850   2.145   4.034
 9874SOL    HW230522   0.734   2.043   4.087
 9875SOL     OW30523   0.881   0.599   1.884
 9875SOL    HW130524   0.960   0.585   1.943
 9875SOL    HW230525   0.800   0.560   1.927
 9876SOL     OW30526   6.623   0.881   2.296
 9876SOL    HW130527   6.595   0.892   2.392
 9876SOL    HW230528   6.557   0.823   2.249
 9877SOL     OW30529   2.491   6.294   2.801
 9877SOL    HW130530   2.518   6.389   2.782
 9877SOL    HW230531   2.559   6.251   2.861
 9878SOL     OW30532   2.253   5.658   6.175
 9878SOL    HW130533   2.178   5.599   6.206
 9878SOL    HW230534   2.232   5.693   6.083
 9879SOL     OW30535   5.357   5.446   4.582
 9879SOL    HW130536   5.334   5.387   4.660
 9879SOL    HW230537   5.373   5.539   4.615
 9880SOL     OW30538   1.595   3.104   5.213
 9880SOL    HW130539   1.588   3.106   5.114
 9880SOL    HW230540   1.664   3.170   5.243
 9881SOL     OW30541   1.450   2.524   4.884
 9881SOL    HW130542   1.382   2.548   4.815
 9881SOL    HW230543   1.502   2.605   4.909
 9882SOL     OW30544   0.929   2.339   3.902
 9882SOL    HW130545   1.020   2.380   3.916
 9882SOL    HW230546   0.896   2.363   3.811
 9883SOL     OW30547   0.727   6.457   0.958
 9883SOL    HW130548   0.665   6.393   1.003
 9883SOL    HW230549   0.812   6.463   1.010
 9884SOL     OW30550   4.153   1.727   3.423
 9884SOL    HW130551   4.146   1.827   3.417
 9884SOL    HW230552   4.073   1.685   3.382
 9885SOL     OW30553   6.840   4.151   5.412
 9885SOL    HW130554   6.855   4.076   5.477
 9885SOL    HW230555   6.764   4.207   5.443
 9886SOL     OW30556   0.757   4.857   2.962
 9886SOL    HW130557   0.729   4.765   2.936
 9886SOL    HW230558   0.684   4.921   2.940
 9887SOL     OW30559   3.941   1.389   6.648
 9887SOL    HW130560   4.010   1.393   6.575
 9887SOL    HW230561   3.906   1.481   6.666
 9888SOL     OW30562   0.265   4.234   0.999
 9888SOL    HW130563   0.238   4.306   1.063
 9888SOL    HW230564   0.342   4.182   1.036
 9889SOL     OW30565   6.588   5.045   0.684
 9889SOL    HW130566   6.515   4.988   0.644
 9889SOL    HW230567   6.676   5.000   0.669
 9890SOL     OW30568   1.944   2.177   0.386
 9890SOL    HW130569   2.029   2.177   0.333
 9890SOL    HW230570   1.866   2.174   0.324
 9891SOL     OW30571   6.215   2.717   0.361
 9891SOL    HW130572   6.171   2.790   0.413
 9891SOL    HW230573   6.222   2.635   0.417
 9892SOL     OW30574   6.707   5.524   0.100
 9892SOL    HW130575   6.780   5.455   0.104
 9892SOL    HW230576   6.622   5.480   0.071
 9893SOL     OW30577   1.558   0.389   0.587
 9893SOL    HW130578   1.618   0.455   0.631
 9893SOL    HW230579   1.581   0.297   0.617
 9894SOL     OW30580   2.315   2.278   1.489
 9894SOL    HW130581   2.245   2.212   1.463
 9894SOL    HW230582   2.393   2.271   1.427
 9895SOL     OW30583   5.497   3.410   5.122
 9895SOL    HW130584   5.513   3.505   5.147
 9895SOL    HW230585   5.494   3.401   5.023
 9896SOL     OW30586   6.329   6.722   6.738
 9896SOL    HW130587   6.414   6.688   6.697
 9896SOL    HW230588   6.267   6.751   6.665
 9897SOL     OW30589   5.530   5.589   3.253
 9897SOL    HW130590   5.469   5.644   3.310
 9897SOL    HW230591   5.565   5.645   3.178
 9898SOL     OW30592   2.434   6.154   6.350
 9898SOL    HW130593   2.466   6.242   6.314
 9898SOL    HW230594   2.334   6.152   6.350
 9899SOL     OW30595   6.923   5.637   0.509
 9899SOL    HW130596   6.877   5.707   0.564
 9899SOL    HW230597   6.941   5.557   0.566
 9900SOL     OW30598   1.465   3.760   3.524
 9900SOL    HW130599   1.447   3.807   3.438
 9900SOL    HW230600   1.563   3.762   3.544
 9901SOL     OW30601   2.865   1.900   5.930
 9901SOL    HW130602   2.799   1.845   5.981
 9901SOL    HW230603   2.898   1.848   5.851
 9902SOL     OW30604   2.494   5.015   6.921
 9902SOL    HW130605   2.448   5.103   6.932
 9902SOL    HW230606   2.583   5.029   6.878
 9903SOL     OW30607   5.156   1.502   2.207
 9903SOL    HW130608   5.146   1.483   2.109
 9903SOL    HW230609   5.239   1.458   2.241
 9904SOL     OW30610   1.456   2.902   6.736
 9904SOL    HW130611   1.550   2.937   6.739
 9904SOL    HW230612   1.429   2.889   6.641
 9905SOL     OW30613   3.559   0.756   6.833
 9905SOL    HW130614   3.550   0.744   6.734
 9905SOL    HW230615   3.654   0.738   6.861
 9906SOL     OW30616   3.483   2.813   2.083
 9906SOL    HW130617   3.525   2.896   2.047
 9906SOL    HW230618   3.386   2.812   2.058
 9907SOL     OW30619   6.686   1.018   0.584
 9907SOL    HW130620   6.616   0.978   0.643
 9907SOL    HW230621   6.699   1.114   0.609
 9908SOL     OW30622   5.633   1.694   3.450
 9908SOL    HW130623   5.706   1.695   3.519
 9908SOL    HW230624   5.557   1.751   3.482
 9909SOL     OW30625   3.971   0.157   3.926
 9909SOL    HW130626   4.043   0.108   3.975
 9909SOL    HW230627   3.882   0.136   3.967
 9910SOL     OW30628   0.920   3.669   2.079
 9910SOL    HW130629   0.938   3.658   1.981
 9910SOL    HW230630   0.827   3.704   2.092
 9911SOL     OW30631   3.306   6.831   2.403
 9911SOL    HW130632   3.368   6.894   2.449
 9911SOL    HW230633   3.309   6.847   2.305
 9912SOL     OW30634   3.631   1.692   1.287
 9912SOL    HW130635   3.586   1.746   1.358
 9912SOL    HW230636   3.697   1.630   1.329
 9913SOL     OW30637   6.323   4.178   0.409
 9913SOL    HW130638   6.237   4.208   0.367
 9913SOL    HW230639   6.397   4.191   0.343
 9914SOL     OW30640   6.530   3.372   4.615
 9914SOL    HW130641   6.610   3.370   4.675
 9914SOL    HW230642   6.484   3.283   4.619
 9915SOL     OW30643   4.424   0.480   3.111
 9915SOL    HW130644   4.393   0.459   3.203
 9915SOL    HW230645   4.514   0.524   3.115
 9916SOL     OW30646   2.186   3.049   3.579
 9916SOL    HW130647   2.215   3.082   3.490
 9916SOL    HW230648   2.217   2.955   3.592
 9917SOL     OW30649   5.957   3.219   6.945
 9917SOL    HW130650   5.879   3.253   6.997
 9917SOL    HW230651   6.042   3.252   6.986
 9918SOL     OW30652   3.359   1.514   2.829
 9918SOL    HW130653   3.262   1.493   2.842
 9918SOL    HW230654   3.406   1.510   2.918
 9919SOL     OW30655   5.307   5.527   1.375
 9919SOL    HW130656   5.368   5.575   1.312
 9919SOL    HW230657   5.279   5.440   1.334
 9920SOL     OW30658   4.474   1.610   1.759
 9920SOL    HW130659   4.563   1.634   1.719
 9920SOL    HW230660   4.424   1.694   1.780
 9921SOL     OW30661   4.375   5.722   6.019
 9921SOL    HW130662   4.323   5.796   6.062
 9921SOL    HW230663   4.427   5.759   5.941
 9922SOL     OW30664   1.580   4.865   0.478
 9922SOL    HW130665   1.547   4.802   0.408
 9922SOL    HW230666   1.503   4.915   0.517
 9923SOL     OW30667   5.172   4.694   6.494
 9923SOL    HW130668   5.182   4.710   6.396
 9923SOL    HW230669   5.194   4.598   6.515
 9924SOL     OW30670   0.068   2.174   4.830
 9924SOL    HW130671   0.082   2.164   4.732
 9924SOL    HW230672   0.123   2.250   4.864
 9925SOL     OW30673   6.778   4.137   4.340
 9925SOL    HW130674   6.857   4.194   4.315
 9925SOL    HW230675   6.696   4.176   4.299
 9926SOL     OW30676   2.591   3.487   0.561
 9926SOL    HW130677   2.599   3.501   0.462
 9926SOL    HW230678   2.666   3.534   0.608
 9927SOL     OW30679   6.637   6.885   1.547
 9927SOL    HW130680   6.611   6.920   1.637
 9927SOL    HW230681   6.715   6.823   1.556
 9928SOL     OW30682   4.626   5.835   1.723
 9928SOL    HW130683   4.548   5.853   1.663
 9928SOL    HW230684   4.632   5.736   1.741
 9929SOL     OW30685   1.887   5.329   5.761
 9929SOL    HW130686   1.961   5.366   5.706
 9929SOL    HW230687   1.903   5.349   5.857
 9930SOL     OW30688   6.219   0.538   4.832
 9930SOL    HW130689   6.202   0.595   4.912
 9930SOL    HW230690   6.298   0.479   4.849
 9931SOL     OW30691   0.874   4.352   4.805
 9931SOL    HW130692   0.938   4.387   4.738
 9931SOL    HW230693   0.878   4.252   4.807
 9932SOL     OW30694   2.144   5.445   7.023
 9932SOL    HW130695   2.210   5.370   0.001
 9932SOL    HW230696   2.115   5.467   0.091
 9933SOL     OW30697   1.395   4.891   3.080
 9933SOL    HW130698   1.467   4.845   3.029
 9933SOL    HW230699   1.404   4.990   3.068
 9934SOL     OW30700   6.230   1.599   5.482
 9934SOL    HW130701   6.134   1.584   5.458
 9934SOL    HW230702   6.236   1.642   5.572
 9935SOL     OW30703   3.147   0.483   0.451
 9935SOL    HW130704   3.055   0.468   0.415
 9935SOL    HW230705   3.192   0.557   0.400
 9936SOL     OW30706   6.655   5.049   5.259
 9936SOL    HW130707   6.732   5.102   5.293
 9936SOL    HW230708   6.632   4.977   5.324
 9937SOL     OW30709   6.700   2.563   5.798
 9937SOL    HW130710   6.722   2.531   5.891
 9937SOL    HW230711   6.783   2.560   5.742
 9938SOL     OW30712   6.715   5.800   3.465
 9938SOL    HW130713   6.716   5.726   3.399
 9938SOL    HW230714   6.631   5.854   3.454
 9939SOL     OW30715   3.414   2.355   0.606
 9939SOL    HW130716   3.317   2.352   0.582
 9939SOL    HW230717   3.440   2.270   0.650
 9940SOL     OW30718   0.771   0.629   0.989
 9940SOL    HW130719   0.792   0.630   1.087
 9940SOL    HW230720   0.719   0.547   0.966
 9941SOL     OW30721   3.235   3.860   5.243
 9941SOL    HW130722   3.150   3.859   5.189
 9941SOL    HW230723   3.309   3.819   5.190
 9942SOL     OW30724   1.909   5.288   2.513
 9942SOL    HW130725   1.960   5.333   2.586
 9942SOL    HW230726   1.932   5.191   2.510
 9943SOL     OW30727   0.041   5.781   5.427
 9943SOL    HW130728   7.016   5.708   5.380
 9943SOL    HW230729   0.089   5.743   5.506
 9944SOL     OW30730   2.208   4.304   6.702
 9944SOL    HW130731   2.279   4.336   6.765
 9944SOL    HW230732   2.250   4.279   6.615
 9945SOL     OW30733   6.366   5.283   0.011
 9945SOL    HW130734   6.314   5.225   0.074
 9945SOL    HW230735   6.458   5.246   0.000
 9946SOL     OW30736   5.013   1.386   4.390
 9946SOL    HW130737   5.011   1.481   4.358
 9946SOL    HW230738   4.937   1.370   4.452
 9947SOL     OW30739   0.908   3.612   6.056
 9947SOL    HW130740   0.886   3.539   5.992
 9947SOL    HW230741   0.929   3.696   6.005
 9948SOL     OW30742   4.730   4.410   3.878
 9948SOL    HW130743   4.653   4.460   3.918
 9948SOL    HW230744   4.795   4.387   3.950
 9949SOL     OW30745   5.226   5.153   3.087
 9949SOL    HW130746   5.318   5.113   3.094
 9949SOL    HW230747   5.230   5.235   3.029
 9950SOL     OW30748   5.827   6.075   5.409
 9950SOL    HW130749   5.774   6.046   5.488
 9950SOL    HW230750   5.767   6.085   5.330
 9951SOL     OW30751   6.481   1.807   4.011
 9951SOL    HW130752   6.472   1.803   3.912
 9951SOL    HW230753   6.399   1.768   4.053
 9952SOL     OW30754   6.631   3.819   0.778
 9952SOL    HW130755   6.635   3.770   0.866
 9952SOL    HW230756   6.713   3.799   0.725
 9953SOL     OW30757   6.250   2.754   3.799
 9953SOL    HW130758   6.169   2.738   3.855
 9953SOL    HW230759   6.328   2.704   3.836
 9954SOL     OW30760   5.854   6.681   5.866
 9954SOL    HW130761   5.839   6.610   5.797
 9954SOL    HW230762   5.857   6.639   5.957
 9955SOL     OW30763   6.607   3.640   4.677
 9955SOL    HW130764   6.549   3.560   4.661
 9955SOL    HW230765   6.686   3.635   4.616
 9956SOL     OW30766   2.237   6.874   1.583
 9956SOL    HW130767   2.171   6.948   1.592
 9956SOL    HW230768   2.225   6.808   1.657
 9957SOL     OW30769   5.548   5.586   2.670
 9957SOL    HW130770   5.540   5.648   2.591
 9957SOL    HW230771   5.524   5.493   2.641
 9958SOL     OW30772   2.939   5.204   0.371
 9958SOL    HW130773   3.000   5.267   0.420
 9958SOL    HW230774   2.862   5.255   0.333
 9959SOL     OW30775   4.252   3.943   5.972
 9959SOL    HW130776   4.298   4.001   5.903
 9959SOL    HW230777   4.321   3.903   6.032
 9960SOL     OW30778   6.918   0.222   1.958
 9960SOL    HW130779   6.904   0.252   2.053
 9960SOL    HW230780   6.887   0.128   1.949
 9961SOL     OW30781   1.863   6.461   4.521
 9961SOL    HW130782   1.896   6.375   4.560
 9961SOL    HW230783   1.869   6.533   4.590
 9962SOL     OW30784   6.713   6.947   3.298
 9962SOL    HW130785   6.631   6.890   3.307
 9962SOL    HW230786   6.756   6.958   3.388
 9963SOL     OW30787   2.974   2.945   6.927
 9963SOL    HW130788   3.062   2.938   6.974
 9963SOL    HW230789   2.973   3.027   6.870
 9964SOL     OW30790   4.401   5.332   4.323
 9964SOL    HW130791   4.318   5.338   4.378
 9964SOL    HW230792   4.376   5.321   4.227
 9965SOL     OW30793   4.257   6.374   6.509
 9965SOL    HW130794   4.319   6.296   6.526
 9965SOL    HW230795   4.211   6.398   6.595
 9966SOL     OW30796   1.265   4.983   1.812
 9966SOL    HW130797   1.291   4.946   1.723
 9966SOL    HW230798   1.201   5.059   1.799
 9967SOL     OW30799   0.139   5.526   2.523
 9967SOL    HW130800   0.229   5.534   2.565
 9967SOL    HW230801   0.069   5.523   2.594
 9968SOL     OW30802   3.500   3.838   1.687
 9968SOL    HW130803   3.427   3.800   1.630
 9968SOL    HW230804   3.572   3.770   1.697
 9969SOL     OW30805   1.871   3.970   2.656
 9969SOL    HW130806   1.776   3.988   2.683
 9969SOL    HW230807   1.873   3.891   2.595
 9970SOL     OW30808   5.457   4.220   1.838
 9970SOL    HW130809   5.476   4.237   1.741
 9970SOL    HW230810   5.414   4.301   1.878
 9971SOL     OW30811   1.719   4.963   0.953
 9971SOL    HW130812   1.656   5.000   1.021
 9971SOL    HW230813   1.712   5.018   0.869
 9972SOL     OW30814   6.287   4.437   1.697
 9972SOL    HW130815   6.307   4.342   1.724
 9972SOL    HW230816   6.348   4.498   1.746
 9973SOL     OW30817   6.024   1.951   3.812
 9973SOL    HW130818   5.985   1.913   3.728
 9973SOL    HW230819   5.971   1.921   3.891
 9974SOL     OW30820   1.009   1.857   2.814
 9974SOL    HW130821   1.010   1.913   2.731
 9974SOL    HW230822   1.039   1.912   2.892
 9975SOL     OW30823   6.437   3.152   0.608
 9975SOL    HW130824   6.516   3.145   0.669
 9975SOL    HW230825   6.444   3.084   0.536
 9976SOL     OW30826   1.584   6.002   5.372
 9976SOL    HW130827   1.509   6.068   5.385
 9976SOL    HW230828   1.637   6.028   5.291
 9977SOL     OW30829   5.739   5.275   5.521
 9977SOL    HW130830   5.684   5.257   5.440
 9977SOL    HW230831   5.835   5.251   5.503
 9978SOL     OW30832   0.954   2.625   5.276
 9978SOL    HW130833   0.942   2.710   5.224
 9978SOL    HW230834   1.034   2.576   5.242
 9979SOL     OW30835   6.055   4.668   5.167
 9979SOL    HW130836   6.070   4.639   5.073
 9979SOL    HW230837   5.958   4.657   5.191
 9980SOL     OW30838   2.590   6.982   6.990
 9980SOL    HW130839   2.589   0.004   0.054
 9980SOL    HW230840   2.676   6.933   6.980
 9981SOL     OW30841   2.723   1.497   3.074
 9981SOL    HW130842   2.725   1.556   2.993
 9981SOL    HW230843   2.742   1.552   3.156
 9982SOL     OW30844   6.712   5.601   3.271
 9982SOL    HW130845   6.767   5.631   3.194
 9982SOL    HW230846   6.732   5.505   3.291
 9983SOL     OW30847   6.930   1.693   2.770
 9983SOL    HW130848   6.951   1.753   2.692
 9983SOL    HW230849   6.867   1.740   2.831
 9984SOL     OW30850   2.613   2.359   6.927
 9984SOL    HW130851   2.557   2.440   6.908
 9984SOL    HW230852   2.678   2.344   6.852
 9985SOL     OW30853   2.263   0.571   1.767
 9985SOL    HW130854   2.287   0.576   1.864
 9985SOL    HW230855   2.222   0.482   1.748
 9986SOL     OW30856   5.941   4.321   5.665
 9986SOL    HW130857   5.873   4.275   5.722
 9986SOL    HW230858   5.921   4.304   5.568
 9987SOL     OW30859   5.869   3.223   6.129
 9987SOL    HW130860   5.926   3.234   6.211
 9987SOL    HW230861   5.829   3.132   6.128
 9988SOL     OW30862   6.770   0.117   4.912
 9988SOL    HW130863   6.711   0.077   4.981
 9988SOL    HW230864   6.862   0.077   4.919
 9989SOL     OW30865   6.707   3.339   4.102
 9989SOL    HW130866   6.680   3.330   4.006
 9989SOL    HW230867   6.786   3.279   4.119
 9990SOL     OW30868   1.902   5.306   3.531
 9990SOL    HW130869   1.877   5.377   3.596
 9990SOL    HW230870   1.926   5.222   3.580
 9991SOL     OW30871   3.186   2.163   4.751
 9991SOL    HW130872   3.205   2.205   4.840
 9991SOL    HW230873   3.261   2.101   4.727
 9992SOL     OW30874   5.978   4.851   6.469
 9992SOL    HW130875   5.912   4.862   6.395
 9992SOL    HW230876   5.999   4.941   6.508
 9993SOL     OW30877   2.512   1.270   1.317
 9993SOL    HW130878   2.548   1.353   1.276
 9993SOL    HW230879   2.580   1.231   1.379
 9994SOL     OW30880   5.946   4.589   3.245
 9994SOL    HW130881   6.024   4.530   3.224
 9994SOL    HW230882   5.976   4.685   3.242
 9995SOL     OW30883   4.615   1.847   3.763
 9995SOL    HW130884   4.706   1.843   3.720
 9995SOL    HW230885   4.572   1.757   3.758
 9996SOL     OW30886   2.697   4.107   0.099
 9996SOL    HW130887   2.697   4.153   0.188
 9996SOL    HW230888   2.770   4.144   0.042
 9997SOL     OW30889   3.171   1.799   5.767
 9997SOL    HW130890   3.073   1.817   5.772
 9997SOL    HW230891   3.219   1.885   5.750
 9998SOL     OW30892   6.286   5.547   5.093
 9998SOL    HW130893   6.374   5.504   5.115
 9998SOL    HW230894   6.236   5.489   5.029
 9999SOL     OW30895   6.076   2.477   5.916
 9999SOL    HW130896   6.005   2.486   5.986
 9999SOL    HW230897   6.116   2.567   5.898
10000SOL     OW30898   6.898   2.806   0.239
10000SOL    HW130899   6.993   2.781   0.258
10000SOL    HW230900   6.868   2.874   0.307
10001SOL     OW30901   4.734   1.027   1.951
10001SOL    HW130902   4.758   0.930   1.958
10001SOL    HW230903   4.641   1.040   1.986
10002SOL     OW30904   1.280   6.226   2.028
10002SOL    HW130905   1.364   6.257   2.072
10002SOL    HW230906   1.298   6.142   1.977
10003SOL     OW30907   3.301   2.149   3.696
10003SOL    HW130908   3.302   2.062   3.744
10003SOL    HW230909   3.389   2.163   3.650
10004SOL     OW30910   6.849   2.305   3.222
10004SOL    HW130911   6.867   2.270   3.314
10004SOL    HW230912   6.750   2.310   3.208
10005SOL     OW30913   5.198   0.468   2.897
10005SOL    HW130914   5.159   0.482   2.988
10005SOL    HW230915   5.140   0.512   2.828
10006SOL     OW30916   3.807   0.151   4.277
10006SOL    HW130917   3.763   0.083   4.336
10006SOL    HW230918   3.905   0.155   4.297
10007SOL     OW30919   0.832   3.709   5.283
10007SOL    HW130920   0.814   3.616   5.314
10007SOL    HW230921   0.747   3.762   5.285
10008SOL     OW30922   3.758   0.414   4.287
10008SOL    HW130923   3.831   0.447   4.227
10008SOL    HW230924   3.773   0.316   4.305
10009SOL     OW30925   2.088   4.124   1.888
10009SOL    HW130926   2.031   4.130   1.805
10009SOL    HW230927   2.100   4.028   1.913
10010SOL     OW30928   2.183   0.929   7.001
10010SOL    HW130929   2.105   0.905   6.944
10010SOL    HW230930   2.151   0.976   0.059
10011SOL     OW30931   6.788   0.347   5.055
10011SOL    HW130932   6.873   0.322   5.102
10011SOL    HW230933   6.770   0.281   4.982
10012SOL     OW30934   5.983   1.186   3.363
10012SOL    HW130935   5.914   1.166   3.433
10012SOL    HW230936   6.013   1.281   3.371
10013SOL     OW30937   0.091   0.637   2.896
10013SOL    HW130938   0.116   0.542   2.882
10013SOL    HW230939   7.020   0.650   2.874
10014SOL     OW30940   1.111   4.152   6.406
10014SOL    HW130941   1.122   4.230   6.346
10014SOL    HW230942   1.157   4.170   6.493
10015SOL     OW30943   2.035   5.172   0.244
10015SOL    HW130944   2.135   5.173   0.246
10015SOL    HW230945   2.002   5.078   0.253
10016SOL     OW30946   1.768   1.457   6.870
10016SOL    HW130947   1.776   1.375   6.927
10016SOL    HW230948   1.744   1.431   6.777
10017SOL     OW30949   2.810   2.079   4.449
10017SOL    HW130950   2.798   1.999   4.508
10017SOL    HW230951   2.892   2.129   4.478
10018SOL     OW30952   5.769   0.390   6.169
10018SOL    HW130953   5.691   0.446   6.141
10018SOL    HW230954   5.774   0.386   6.269
10019SOL     OW30955   1.205   0.822   2.888
10019SOL    HW130956   1.217   0.770   2.803
10019SOL    HW230957   1.177   0.916   2.866
10020SOL     OW30958   1.480   2.861   1.288
10020SOL    HW130959   1.569   2.887   1.326
10020SOL    HW230960   1.470   2.900   1.196
10021SOL     OW30961   0.158   3.527   0.602
10021SOL    HW130962   0.244   3.545   0.648
10021SOL    HW230963   0.081   3.547   0.663
10022SOL     OW30964   1.717   1.297   6.622
10022SOL    HW130965   1.725   1.214   6.567
10022SOL    HW230966   1.630   1.296   6.672
10023SOL     OW30967   6.418   3.726   0.626
10023SOL    HW130968   6.402   3.627   0.627
10023SOL    HW230969   6.493   3.748   0.689
10024SOL     OW30970   1.486   4.920   3.713
10024SOL    HW130971   1.518   4.933   3.619
10024SOL    HW230972   1.418   4.846   3.715
10025SOL     OW30973   1.749   0.558   1.232
10025SOL    HW130974   1.710   0.550   1.140
10025SOL    HW230975   1.840   0.599   1.226
10026SOL     OW30976   5.791   0.673   3.189
10026SOL    HW130977   5.862   0.678   3.259
10026SOL    HW230978   5.788   0.760   3.138
10027SOL     OW30979   6.087   3.426   4.589
10027SOL    HW130980   6.089   3.337   4.544
10027SOL    HW230981   5.994   3.462   4.589
10028SOL     OW30982   2.052   1.076   0.751
10028SOL    HW130983   2.006   1.127   0.823
10028SOL    HW230984   1.996   0.998   0.724
10029SOL     OW30985   5.922   2.126   3.530
10029SOL    HW130986   5.836   2.094   3.489
10029SOL    HW230987   5.992   2.132   3.459
10030SOL     OW30988   1.723   0.448   4.230
10030SOL    HW130989   1.785   0.387   4.279
10030SOL    HW230990   1.707   0.412   4.138
10031SOL     OW30991   5.630   5.035   3.129
10031SOL    HW130992   5.619   4.997   3.037
10031SOL    HW230993   5.591   4.972   3.196
10032SOL     OW30994   2.612   1.771   5.402
10032SOL    HW130995   2.685   1.790   5.337
10032SOL    HW230996   2.633   1.814   5.490
10033SOL     OW30997   5.844   2.874   4.433
10033SOL    HW130998   5.803   2.925   4.357
10033SOL    HW230999   5.772   2.834   4.488
10034SOL     OW31000   4.322   0.209   5.242
10034SOL    HW131001   4.312   0.254   5.331
10034SOL    HW231002   4.231   0.195   5.202
10035SOL     OW31003   6.993   4.945   1.449
10035SOL    HW131004   6.978   4.867   1.389
10035SOL    HW231005   6.931   5.019   1.425
10036SOL     OW31006   6.805   1.734   0.111
10036SOL    HW131007   6.903   1.753   0.109
10036SOL    HW231008   6.759   1.790   0.041
10037SOL     OW31009   0.186   0.425   6.638
10037SOL    HW131010   0.211   0.332   6.663
10037SOL    HW231011   0.147   0.472   6.717
10038SOL     OW31012   6.321   6.778   1.120
10038SOL    HW131013   6.399   6.838   1.102
10038SOL    HW231014   6.330   6.738   1.211
10039SOL     OW31015   2.961   0.674   4.034
10039SOL    HW131016   2.908   0.590   4.046
10039SOL    HW231017   3.020   0.664   3.954
10040SOL     OW31018   6.972   3.174   0.745
10040SOL    HW131019   6.961   3.251   0.808
10040SOL    HW231020   6.995   3.209   0.654
10041SOL     OW31021   2.963   6.832   0.345
10041SOL    HW131022   2.881   6.787   0.311
10041SOL    HW231023   2.938   6.916   0.394
10042SOL     OW31024   0.074   1.982   2.882
10042SOL    HW131025   0.031   1.899   2.849
10042SOL    HW231026   0.174   1.969   2.886
10043SOL     OW31027   0.014   1.704   5.759
10043SOL    HW131028   0.045   1.668   5.847
10043SOL    HW231029   6.986   1.635   5.711
10044SOL     OW31030   3.103   2.256   5.567
10044SOL    HW131031   3.159   2.303   5.635
10044SOL    HW231032   3.148   2.261   5.478
10045SOL     OW31033   3.963   0.999   6.968
10045SOL    HW131034   3.939   0.902   6.977
10045SOL    HW231035   4.054   1.006   6.929
10046SOL     OW31036   1.573   5.414   1.646
10046SOL    HW131037   1.530   5.432   1.557
10046SOL    HW231038   1.504   5.414   1.718
10047SOL     OW31039   0.418   3.014   0.104
10047SOL    HW131040   0.332   3.056   0.075
10047SOL    HW231041   0.400   2.949   0.178
10048SOL     OW31042   5.908   6.654   2.370
10048SOL    HW131043   5.845   6.719   2.413
10048SOL    HW231044   5.862   6.608   2.294
10049SOL     OW31045   0.048   1.428   5.181
10049SOL    HW131046   0.126   1.468   5.134
10049SOL    HW231047   0.000   1.499   5.233
10050SOL     OW31048   6.049   3.215   5.413
10050SOL    HW131049   6.111   3.201   5.336
10050SOL    HW231050   5.994   3.132   5.427
10051SOL     OW31051   0.817   4.330   3.964
10051SOL    HW131052   0.895   4.280   4.002
10051SOL    HW231053   0.771   4.380   4.037
10052SOL     OW31054   1.265   0.212   3.074
10052SOL    HW131055   1.338   0.169   3.127
10052SOL    HW231056   1.186   0.151   3.069
10053SOL     OW31057   4.912   5.557   4.631
10053SOL    HW131058   4.899   5.470   4.679
10053SOL    HW231059   4.956   5.540   4.543
10054SOL     OW31060   6.111   4.202   4.430
10054SOL    HW131061   6.186   4.137   4.439
10054SOL    HW231062   6.081   4.230   4.521
10055SOL     OW31063   0.125   1.723   6.519
10055SOL    HW131064   0.040   1.685   6.556
10055SOL    HW231065   0.111   1.820   6.498
10056SOL     OW31066   6.051   2.912   3.449
10056SOL    HW131067   5.954   2.904   3.426
10056SOL    HW231068   6.073   2.851   3.525
10057SOL     OW31069   5.517   4.774   6.318
10057SOL    HW131070   5.554   4.700   6.373
10057SOL    HW231071   5.486   4.738   6.230
10058SOL     OW31072   6.741   3.920   5.545
10058SOL    HW131073   6.710   3.930   5.639
10058SOL    HW231074   6.834   3.883   5.544
10059SOL     OW31075   0.571   0.717   6.586
10059SOL    HW131076   0.619   0.696   6.502
10059SOL    HW231077   0.472   0.720   6.568
10060SOL     OW31078   2.416   2.242   2.621
10060SOL    HW131079   2.472   2.319   2.588
10060SOL    HW231080   2.476   2.164   2.639
10061SOL     OW31081   3.802   0.174   3.078
10061SOL    HW131082   3.875   0.231   3.041
10061SOL    HW231083   3.833   0.132   3.164
10062SOL     OW31084   6.255   0.351   4.330
10062SOL    HW131085   6.201   0.290   4.271
10062SOL    HW231086   6.246   0.445   4.298
10063SOL     OW31087   1.550   3.207   4.934
10063SOL    HW131088   1.510   3.284   4.984
10063SOL    HW231089   1.633   3.238   4.887
10064SOL     OW31090   2.887   6.502   0.751
10064SOL    HW131091   2.957   6.469   0.814
10064SOL    HW231092   2.927   6.572   0.692
10065SOL     OW31093   1.004   1.484   2.092
10065SOL    HW131094   0.923   1.539   2.069
10065SOL    HW231095   1.015   1.413   2.023
10066SOL     OW31096   6.321   3.776   3.607
10066SOL    HW131097   6.306   3.765   3.705
10066SOL    HW231098   6.234   3.785   3.560
10067SOL     OW31099   6.537   2.325   4.538
10067SOL    HW131100   6.449   2.290   4.571
10067SOL    HW231101   6.606   2.314   4.609
10068SOL     OW31102   1.845   2.807   2.483
10068SOL    HW131103   1.845   2.831   2.579
10068SOL    HW231104   1.931   2.760   2.460
10069SOL     OW31105   2.527   5.463   1.391
10069SOL    HW131106   2.447   5.424   1.437
10069SOL    HW231107   2.561   5.397   1.325
10070SOL     OW31108   3.817   5.654   5.473
10070SOL    HW131109   3.841   5.743   5.435
10070SOL    HW231110   3.717   5.642   5.468
10071SOL     OW31111   6.016   0.368   3.288
10071SOL    HW131112   6.080   0.332   3.356
10071SOL    HW231113   6.024   0.314   3.204
10072SOL     OW31114   6.476   1.906   1.848
10072SOL    HW131115   6.498   1.902   1.946
10072SOL    HW231116   6.441   1.997   1.826
10073SOL     OW31117   6.650   4.712   4.928
10073SOL    HW131118   6.636   4.760   4.841
10073SOL    HW231119   6.680   4.619   4.910
10074SOL     OW31120   1.279   4.620   0.287
10074SOL    HW131121   1.374   4.625   0.318
10074SOL    HW231122   1.223   4.681   0.344
10075SOL     OW31123   1.578   3.422   1.707
10075SOL    HW131124   1.491   3.450   1.746
10075SOL    HW231125   1.635   3.381   1.779
10076SOL     OW31126   4.908   5.593   3.863
10076SOL    HW131127   4.948   5.508   3.898
10076SOL    HW231128   4.857   5.638   3.936
10077SOL     OW31129   6.058   3.357   6.405
10077SOL    HW131130   6.124   3.432   6.416
10077SOL    HW231131   5.984   3.369   6.471
10078SOL     OW31132   6.457   6.448   4.772
10078SOL    HW131133   6.421   6.362   4.738
10078SOL    HW231134   6.519   6.488   4.704
10079SOL     OW31135   4.971   2.258   3.306
10079SOL    HW131136   4.871   2.263   3.309
10079SOL    HW231137   4.999   2.211   3.222
10080SOL     OW31138   5.207   0.634   6.159
10080SOL    HW131139   5.143   0.711   6.162
10080SOL    HW231140   5.292   0.660   6.203
10081SOL     OW31141   1.874   3.138   1.219
10081SOL    HW131142   1.952   3.194   1.191
10081SOL    HW231143   1.793   3.165   1.166
10082SOL     OW31144   1.169   4.279   1.082
10082SOL    HW131145   1.229   4.343   1.035
10082SOL    HW231146   1.110   4.233   1.015
10083SOL     OW31147   3.214   5.034   3.719
10083SOL    HW131148   3.139   5.058   3.658
10083SOL    HW231149   3.288   4.991   3.667
10084SOL     OW31150   1.113   0.704   4.415
10084SOL    HW131151   1.200   0.750   4.434
10084SOL    HW231152   1.082   0.728   4.323
10085SOL     OW31153   4.854   6.897   0.289
10085SOL    HW131154   4.792   6.974   0.304
10085SOL    HW231155   4.948   6.924   0.313
10086SOL     OW31156   0.063   6.465   2.673
10086SOL    HW131157   0.110   6.424   2.751
10086SOL    HW231158   6.990   6.472   2.693
10087SOL     OW31159   1.777   6.581   5.339
10087SOL    HW131160   1.841   6.658   5.337
10087SOL    HW231161   1.690   6.609   5.300
10088SOL     OW31162   0.494   2.440   6.914
10088SOL    HW131163   0.448   2.527   6.935
10088SOL    HW231164   0.591   2.458   6.895
10089SOL     OW31165   3.691   1.756   1.682
10089SOL    HW131166   3.643   1.808   1.610
10089SOL    HW231167   3.631   1.747   1.762
10090SOL     OW31168   2.506   5.980   3.006
10090SOL    HW131169   2.521   5.885   3.034
10090SOL    HW231170   2.585   6.011   2.953
10091SOL     OW31171   6.975   3.720   5.285
10091SOL    HW131172   0.043   3.683   5.275
10091SOL    HW231173   6.946   3.712   5.380
10092SOL     OW31174   0.582   1.988   4.032
10092SOL    HW131175   0.582   1.890   4.050
10092SOL    HW231176   0.489   2.023   4.039
10093SOL     OW31177   5.252   4.783   5.762
10093SOL    HW131178   5.191   4.719   5.714
10093SOL    HW231179   5.200   4.831   5.832
10094SOL     OW31180   3.604   1.513   0.706
10094SOL    HW131181   3.649   1.532   0.793
10094SOL    HW231182   3.672   1.488   0.637
10095SOL     OW31183   4.836   2.958   5.398
10095SOL    HW131184   4.844   3.018   5.318
10095SOL    HW231185   4.821   2.864   5.367
10096SOL     OW31186   5.611   2.244   2.841
10096SOL    HW131187   5.610   2.322   2.904
10096SOL    HW231188   5.535   2.252   2.777
10097SOL     OW31189   0.922   1.663   6.738
10097SOL    HW131190   0.896   1.690   6.645
10097SOL    HW231191   1.014   1.625   6.737
10098SOL     OW31192   3.055   5.405   3.958
10098SOL    HW131193   3.067   5.349   4.040
10098SOL    HW231194   2.961   5.438   3.954
10099SOL     OW31195   6.963   4.697   1.304
10099SOL    HW131196   6.970   4.674   1.207
10099SOL    HW231197   6.868   4.715   1.328
10100SOL     OW31198   4.692   5.277   4.115
10100SOL    HW131199   4.648   5.212   4.176
10100SOL    HW231200   4.790   5.279   4.133
10101SOL     OW31201   0.992   2.002   1.575
10101SOL    HW131202   0.992   2.020   1.477
10101SOL    HW231203   1.014   1.906   1.591
10102SOL     OW31204   6.242   6.029   2.863
10102SOL    HW131205   6.187   5.952   2.894
10102SOL    HW231206   6.338   6.012   2.881
10103SOL     OW31207   6.416   6.419   6.208
10103SOL    HW131208   6.328   6.378   6.184
10103SOL    HW231209   6.463   6.449   6.125
10104SOL     OW31210   2.469   0.005   4.087
10104SOL    HW131211   2.383   0.049   4.061
10104SOL    HW231212   2.491   0.027   4.182
10105SOL     OW31213   3.201   0.959   6.207
10105SOL    HW131214   3.104   0.966   6.230
10105SOL    HW231215   3.257   0.988   6.285
10106SOL     OW31216   5.050   5.376   1.281
10106SOL    HW131217   5.006   5.415   1.362
10106SOL    HW231218   4.992   5.394   1.201
10107SOL     OW31219   5.190   4.417   6.505
10107SOL    HW131220   5.186   4.333   6.559
10107SOL    HW231221   5.177   4.395   6.408
10108SOL     OW31222   1.977   2.577   0.177
10108SOL    HW131223   1.987   2.546   0.083
10108SOL    HW231224   1.942   2.670   0.178
10109SOL     OW31225   1.466   2.589   1.243
10109SOL    HW131226   1.381   2.552   1.278
10109SOL    HW231227   1.473   2.686   1.267
10110SOL     OW31228   4.753   6.551   2.509
10110SOL    HW131229   4.778   6.457   2.484
10110SOL    HW231230   4.810   6.580   2.586
10111SOL     OW31231   1.444   2.569   1.917
10111SOL    HW131232   1.519   2.503   1.918
10111SOL    HW231233   1.462   2.639   1.848
10112SOL     OW31234   0.163   2.115   3.211
10112SOL    HW131235   0.168   2.173   3.292
10112SOL    HW231236   0.158   2.172   3.129
10113SOL     OW31237   6.818   0.785   5.719
10113SOL    HW131238   6.917   0.790   5.734
10113SOL    HW231239   6.798   0.806   5.623
10114SOL     OW31240   4.772   1.615   1.654
10114SOL    HW131241   4.828   1.588   1.733
10114SOL    HW231242   4.831   1.625   1.574
10115SOL     OW31243   3.491   2.856   6.416
10115SOL    HW131244   3.467   2.789   6.486
10115SOL    HW231245   3.556   2.922   6.453
10116SOL     OW31246   6.612   1.078   4.468
10116SOL    HW131247   6.536   1.015   4.479
10116SOL    HW231248   6.652   1.099   4.557
10117SOL     OW31249   6.123   4.363   3.795
10117SOL    HW131250   6.061   4.343   3.719
10117SOL    HW231251   6.077   4.421   3.862
10118SOL     OW31252   4.649   6.176   3.924
10118SOL    HW131253   4.597   6.137   3.849
10118SOL    HW231254   4.631   6.274   3.931
10119SOL     OW31255   0.091   5.241   5.643
10119SOL    HW131256   0.069   5.327   5.689
10119SOL    HW231257   0.140   5.261   5.558
10120SOL     OW31258   2.080   3.382   2.573
10120SOL    HW131259   2.114   3.436   2.496
10120SOL    HW231260   2.000   3.330   2.543
10121SOL     OW31261   5.840   4.231   1.212
10121SOL    HW131262   5.876   4.168   1.281
10121SOL    HW231263   5.905   4.305   1.197
10122SOL     OW31264   1.231   0.512   3.948
10122SOL    HW131265   1.187   0.498   3.859
10122SOL    HW231266   1.173   0.476   4.021
10123SOL     OW31267   6.216   5.216   6.768
10123SOL    HW131268   6.291   5.177   6.715
10123SOL    HW231269   6.252   5.254   6.853
10124SOL     OW31270   1.495   5.423   2.892
10124SOL    HW131271   1.481   5.408   2.990
10124SOL    HW231272   1.576   5.479   2.878
10125SOL     OW31273   2.271   1.368   5.008
10125SOL    HW131274   2.178   1.352   4.978
10125SOL    HW231275   2.270   1.416   5.095
10126SOL     OW31276   6.619   6.228   6.417
10126SOL    HW131277   6.694   6.264   6.472
10126SOL    HW231278   6.538   6.287   6.428
10127SOL     OW31279   2.441   6.769   6.271
10127SOL    HW131280   2.416   6.823   6.351
10127SOL    HW231281   2.358   6.736   6.226
10128SOL     OW31282   2.921   1.802   6.825
10128SOL    HW131283   2.951   1.853   6.906
10128SOL    HW231284   2.900   1.867   6.752
10129SOL     OW31285   6.140   1.806   4.859
10129SOL    HW131286   6.084   1.761   4.929
10129SOL    HW231287   6.124   1.761   4.771
10130SOL     OW31288   1.058   1.073   2.833
10130SOL    HW131289   1.074   1.070   2.932
10130SOL    HW231290   1.044   1.167   2.804
10131SOL     OW31291   1.322   6.533   3.877
10131SOL    HW131292   1.277   6.488   3.800
10131SOL    HW231293   1.385   6.603   3.844
10132SOL     OW31294   6.707   0.631   1.557
10132SOL    HW131295   6.696   0.724   1.591
10132SOL    HW231296   6.632   0.608   1.495
10133SOL     OW31297   5.838   6.301   0.074
10133SOL    HW131298   5.891   6.223   0.108
10133SOL    HW231299   5.791   6.344   0.151
10134SOL     OW31300   6.628   6.670   1.835
10134SOL    HW131301   6.711   6.677   1.781
10134SOL    HW231302   6.649   6.628   1.923
10135SOL     OW31303   6.364   0.100   2.617
10135SOL    HW131304   6.342   0.186   2.664
10135SOL    HW231305   6.461   0.099   2.592
10136SOL     OW31306   5.034   2.033   2.400
10136SOL    HW131307   5.075   1.951   2.359
10136SOL    HW231308   5.107   2.095   2.429
10137SOL     OW31309   6.187   5.637   5.670
10137SOL    HW131310   6.215   5.555   5.621
10137SOL    HW231311   6.267   5.689   5.698
10138SOL     OW31312   0.852   2.058   0.392
10138SOL    HW131313   0.932   2.030   0.444
10138SOL    HW231314   0.774   2.001   0.416
10139SOL     OW31315   3.361   2.913   6.743
10139SOL    HW131316   3.368   2.832   6.685
10139SOL    HW231317   3.382   2.888   6.838
10140SOL     OW31318   0.764   6.312   5.592
10140SOL    HW131319   0.766   6.233   5.653
10140SOL    HW231320   0.709   6.290   5.512
10141SOL     OW31321   2.228   3.040   4.539
10141SOL    HW131322   2.254   2.988   4.621
10141SOL    HW231323   2.257   2.989   4.458
10142SOL     OW31324   3.960   6.440   3.879
10142SOL    HW131325   4.047   6.479   3.911
10142SOL    HW231326   3.973   6.400   3.788
10143SOL     OW31327   4.862   3.049   6.733
10143SOL    HW131328   4.902   3.065   6.642
10143SOL    HW231329   4.797   2.973   6.727
10144SOL     OW31330   4.036   0.013   6.521
10144SOL    HW131331   4.006   6.951   6.481
10144SOL    HW231332   4.062   7.023   6.617
10145SOL     OW31333   5.547   6.317   6.303
10145SOL    HW131334   5.466   6.287   6.253
10145SOL    HW231335   5.528   6.315   6.401
10146SOL     OW31336   0.216   2.909   4.455
10146SOL    HW131337   0.294   2.889   4.395
10146SOL    HW231338   0.237   2.878   4.548
10147SOL     OW31339   4.859   5.328   5.660
10147SOL    HW131340   4.780   5.353   5.716
10147SOL    HW231341   4.829   5.267   5.586
10148SOL     OW31342   0.974   4.424   0.909
10148SOL    HW131343   0.964   4.521   0.930
10148SOL    HW231344   0.883   4.382   0.903
10149SOL     OW31345   3.556   4.464   0.530
10149SOL    HW131346   3.606   4.497   0.450
10149SOL    HW231347   3.597   4.379   0.563
10150SOL     OW31348   4.366   4.525   1.275
10150SOL    HW131349   4.445   4.571   1.316
10150SOL    HW231350   4.327   4.584   1.204
10151SOL     OW31351   6.049   0.050   5.854
10151SOL    HW131352   6.146   0.072   5.854
10151SOL    HW231353   5.999   0.120   5.801
10152SOL     OW31354   4.260   6.748   2.365
10152SOL    HW131355   4.196   6.691   2.416
10152SOL    HW231356   4.269   6.837   2.409
10153SOL     OW31357   4.720   4.209   2.459
10153SOL    HW131358   4.804   4.156   2.449
10153SOL    HW231359   4.701   4.259   2.374
10154SOL     OW31360   4.738   5.805   5.275
10154SOL    HW131361   4.713   5.898   5.251
10154SOL    HW231362   4.655   5.749   5.284
10155SOL     OW31363   4.311   1.762   4.728
10155SOL    HW131364   4.295   1.694   4.657
10155SOL    HW231365   4.241   1.754   4.799
10156SOL     OW31366   5.057   2.098   0.316
10156SOL    HW131367   5.052   2.000   0.335
10156SOL    HW231368   5.039   2.149   0.400
10157SOL     OW31369   0.391   3.424   1.389
10157SOL    HW131370   0.300   3.436   1.350
10157SOL    HW231371   0.386   3.427   1.489
10158SOL     OW31372   6.213   4.712   0.248
10158SOL    HW131373   6.134   4.707   0.188
10158SOL    HW231374   6.289   4.755   0.198
10159SOL     OW31375   3.088   3.001   2.166
10159SOL    HW131376   3.138   2.959   2.090
10159SOL    HW231377   3.010   2.943   2.191
10160SOL     OW31378   1.155   5.075   2.797
10160SOL    HW131379   1.069   5.059   2.749
10160SOL    HW231380   1.227   5.018   2.756
10161SOL     OW31381   5.285   3.219   5.193
10161SOL    HW131382   5.367   3.272   5.172
10161SOL    HW231383   5.231   3.268   5.262
10162SOL     OW31384   1.468   3.145   2.432
10162SOL    HW131385   1.499   3.061   2.387
10162SOL    HW231386   1.518   3.157   2.518
10163SOL     OW31387   2.095   6.281   5.358
10163SOL    HW131388   2.182   6.291   5.309
10163SOL    HW231389   2.094   6.341   5.438
10164SOL     OW31390   1.444   2.357   3.322
10164SOL    HW131391   1.486   2.371   3.232
10164SOL    HW231392   1.364   2.299   3.312
10165SOL     OW31393   0.164   3.698   4.484
10165SOL    HW131394   0.075   3.727   4.521
10165SOL    HW231395   0.234   3.765   4.511
10166SOL     OW31396   2.526   0.873   1.531
10166SOL    HW131397   2.590   0.926   1.588
10166SOL    HW231398   2.511   0.783   1.573
10167SOL     OW31399   2.347   1.110   6.918
10167SOL    HW131400   2.277   1.039   6.927
10167SOL    HW231401   2.383   1.111   6.825
10168SOL     OW31402   6.630   0.554   6.563
10168SOL    HW131403   6.665   0.485   6.627
10168SOL    HW231404   6.627   0.643   6.608
10169SOL     OW31405   5.530   3.282   3.732
10169SOL    HW131406   5.507   3.376   3.754
10169SOL    HW231407   5.560   3.234   3.815
10170SOL     OW31408   5.942   5.390   0.314
10170SOL    HW131409   5.909   5.328   0.385
10170SOL    HW231410   5.961   5.338   0.230
10171SOL     OW31411   2.498   3.803   6.136
10171SOL    HW131412   2.557   3.871   6.092
10171SOL    HW231413   2.415   3.848   6.170
10172SOL     OW31414   5.986   0.895   3.216
10172SOL    HW131415   6.031   0.947   3.143
10172SOL    HW231416   6.035   0.809   3.231
10173SOL     OW31417   3.461   4.061   5.116
10173SOL    HW131418   3.403   4.125   5.167
10173SOL    HW231419   3.520   4.113   5.053
10174SOL     OW31420   4.310   5.309   2.855
10174SOL    HW131421   4.392   5.264   2.892
10174SOL    HW231422   4.228   5.271   2.898
10175SOL     OW31423   0.210   0.940   3.314
10175SOL    HW131424   0.268   0.893   3.379
10175SOL    HW231425   0.162   0.873   3.258
10176SOL     OW31426   6.774   1.196   5.513
10176SOL    HW131427   6.719   1.275   5.539
10176SOL    HW231428   6.721   1.135   5.454
10177SOL     OW31429   2.637   0.827   3.570
10177SOL    HW131430   2.704   0.754   3.571
10177SOL    HW231431   2.668   0.902   3.628
10178SOL     OW31432   0.809   2.103   0.768
10178SOL    HW131433   0.897   2.150   0.777
10178SOL    HW231434   0.824   2.012   0.729
10179SOL     OW31435   0.338   4.408   0.787
10179SOL    HW131436   0.288   4.359   0.859
10179SOL    HW231437   0.415   4.352   0.757
10180SOL     OW31438   4.424   6.616   5.526
10180SOL    HW131439   4.379   6.624   5.437
10180SOL    HW231440   4.518   6.583   5.513
10181SOL     OW31441   6.159   3.445   2.775
10181SOL    HW131442   6.253   3.421   2.799
10181SOL    HW231443   6.149   3.544   2.777
10182SOL     OW31444   4.879   1.770   0.956
10182SOL    HW131445   4.913   1.676   0.955
10182SOL    HW231446   4.945   1.829   1.003
10183SOL     OW31447   6.235   1.341   6.615
10183SOL    HW131448   6.213   1.266   6.553
10183SOL    HW231449   6.256   1.305   6.705
10184SOL     OW31450   5.863   2.008   5.443
10184SOL    HW131451   5.852   1.948   5.522
10184SOL    HW231452   5.775   2.020   5.398
10185SOL     OW31453   3.960   5.639   2.578
10185SOL    HW131454   4.051   5.675   2.599
10185SOL    HW231455   3.959   5.541   2.595
10186SOL     OW31456   3.483   3.604   5.880
10186SOL    HW131457   3.481   3.507   5.903
10186SOL    HW231458   3.419   3.623   5.806
10187SOL     OW31459   1.984   4.431   6.580
10187SOL    HW131460   1.932   4.351   6.550
10187SOL    HW231461   2.061   4.401   6.637
10188SOL     OW31462   3.514   0.547   6.349
10188SOL    HW131463   3.440   0.576   6.408
10188SOL    HW231464   3.484   0.468   6.294
10189SOL     OW31465   1.063   1.908   6.297
10189SOL    HW131466   1.117   1.937   6.219
10189SOL    HW231467   1.123   1.868   6.367
10190SOL     OW31468   4.259   5.584   1.477
10190SOL    HW131469   4.248   5.485   1.490
10190SOL    HW231470   4.175   5.621   1.438
10191SOL     OW31471   5.660   6.792   6.435
10191SOL    HW131472   5.678   6.803   6.337
10191SOL    HW231473   5.688   6.874   6.484
10192SOL     OW31474   1.907   1.799   4.089
10192SOL    HW131475   1.986   1.826   4.034
10192SOL    HW231476   1.829   1.782   4.028
10193SOL     OW31477   3.493   3.553   3.787
10193SOL    HW131478   3.561   3.481   3.773
10193SOL    HW231479   3.497   3.618   3.710
10194SOL     OW31480   2.712   0.211   3.600
10194SOL    HW131481   2.698   0.112   3.611
10194SOL    HW231482   2.807   0.234   3.620
10195SOL     OW31483   3.714   6.280   2.335
10195SOL    HW131484   3.713   6.180   2.335
10195SOL    HW231485   3.809   6.312   2.341
10196SOL     OW31486   5.991   2.155   4.062
10196SOL    HW131487   6.059   2.087   4.087
10196SOL    HW231488   6.028   2.247   4.080
10197SOL     OW31489   5.664   0.037   1.728
10197SOL    HW131490   5.722   0.004   1.802
10197SOL    HW231491   5.570   0.045   1.759
10198SOL     OW31492   2.244   6.806   0.561
10198SOL    HW131493   2.265   6.901   0.539
10198SOL    HW231494   2.239   6.795   0.660
10199SOL     OW31495   1.063   0.873   0.526
10199SOL    HW131496   0.977   0.830   0.553
10199SOL    HW231497   1.066   0.967   0.561
10200SOL     OW31498   5.429   3.992   4.603
10200SOL    HW131499   5.370   3.990   4.523
10200SOL    HW231500   5.414   4.077   4.653
10201SOL     OW31501   1.634   5.237   2.567
10201SOL    HW131502   1.726   5.272   2.553
10201SOL    HW231503   1.588   5.290   2.638
10202SOL     OW31504   0.850   3.256   2.235
10202SOL    HW131505   0.917   3.324   2.206
10202SOL    HW231506   0.885   3.164   2.212
10203SOL     OW31507   1.806   3.540   2.284
10203SOL    HW131508   1.747   3.479   2.335
10203SOL    HW231509   1.767   3.556   2.193
10204SOL     OW31510   2.932   4.816   5.216
10204SOL    HW131511   2.937   4.772   5.306
10204SOL    HW231512   2.873   4.762   5.156
10205SOL     OW31513   4.660   1.312   3.249
10205SOL    HW131514   4.645   1.287   3.344
10205SOL    HW231515   4.696   1.405   3.243
10206SOL     OW31516   5.205   6.969   6.669
10206SOL    HW131517   5.296   6.990   6.706
10206SOL    HW231518   5.209   6.965   6.569
10207SOL     OW31519   4.525   1.156   2.781
10207SOL    HW131520   4.595   1.101   2.735
10207SOL    HW231521   4.483   1.103   2.854
10208SOL     OW31522   6.288   4.181   5.239
10208SOL    HW131523   6.254   4.095   5.277
10208SOL    HW231524   6.271   4.183   5.141
10209SOL     OW31525   5.961   0.055   6.335
10209SOL    HW131526   5.880   0.055   6.393
10209SOL    HW231527   5.975   0.147   6.298
10210SOL     OW31528   4.822   5.798   1.539
10210SOL    HW131529   4.901   5.857   1.523
10210SOL    HW231530   4.804   5.792   1.637
10211SOL     OW31531   4.116   5.547   5.502
10211SOL    HW131532   4.067   5.494   5.572
10211SOL    HW231533   4.203   5.503   5.481
10212SOL     OW31534   6.755   0.639   5.139
10212SOL    HW131535   6.796   0.651   5.229
10212SOL    HW231536   6.750   0.541   5.118
10213SOL     OW31537   6.360   1.069   2.870
10213SOL    HW131538   6.289   1.012   2.911
10213SOL    HW231539   6.436   1.080   2.934
10214SOL     OW31540   6.763   0.523   1.950
10214SOL    HW131541   6.830   0.466   1.902
10214SOL    HW231542   6.804   0.561   2.032
10215SOL     OW31543   4.107   3.607   0.134
10215SOL    HW131544   4.015   3.643   0.147
10215SOL    HW231545   4.103   3.523   0.080
10216SOL     OW31546   5.198   6.929   1.548
10216SOL    HW131547   5.238   6.912   1.458
10216SOL    HW231548   5.142   7.011   1.544
10217SOL     OW31549   2.521   1.939   5.160
10217SOL    HW131550   2.523   1.871   5.234
10217SOL    HW231551   2.607   1.936   5.110
10218SOL     OW31552   2.243   1.899   0.406
10218SOL    HW131553   2.339   1.928   0.405
10218SOL    HW231554   2.237   1.803   0.377
10219SOL     OW31555   0.774   3.654   0.308
10219SOL    HW131556   0.736   3.639   0.217
10219SOL    HW231557   0.845   3.586   0.325
10220SOL     OW31558   4.258   1.935   1.284
10220SOL    HW131559   4.168   1.893   1.294
10220SOL    HW231560   4.283   1.980   1.370
10221SOL     OW31561   2.568   0.393   5.088
10221SOL    HW131562   2.497   0.456   5.120
10221SOL    HW231563   2.564   0.309   5.142
10222SOL     OW31564   1.462   5.457   6.026
10222SOL    HW131565   1.544   5.431   6.077
10222SOL    HW231566   1.382   5.445   6.084
10223SOL     OW31567   0.265   4.706   0.749
10223SOL    HW131568   0.292   4.727   0.656
10223SOL    HW231569   0.266   4.607   0.763
10224SOL     OW31570   1.734   6.990   4.112
10224SOL    HW131571   1.638   6.993   4.140
10224SOL    HW231572   1.779   6.911   4.154
10225SOL     OW31573   6.274   6.094   4.040
10225SOL    HW131574   6.180   6.089   4.006
10225SOL    HW231575   6.293   6.188   4.069
10226SOL     OW31576   1.222   1.564   0.672
10226SOL    HW131577   1.313   1.594   0.644
10226SOL    HW231578   1.156   1.583   0.599
10227SOL     OW31579   5.411   5.008   6.384
10227SOL    HW131580   5.394   5.024   6.481
10227SOL    HW231581   5.438   4.912   6.370
10228SOL     OW31582   0.948   5.669   3.325
10228SOL    HW131583   0.983   5.762   3.334
10228SOL    HW231584   0.861   5.671   3.275
10229SOL     OW31585   1.280   7.005   2.660
10229SOL    HW131586   1.359   0.039   2.644
10229SOL    HW231587   1.305   6.935   2.728
10230SOL     OW31588   6.580   0.736   3.283
10230SOL    HW131589   6.667   0.736   3.232
10230SOL    HW231590   6.590   0.681   3.366
10231SOL     OW31591   4.949   0.229   4.766
10231SOL    HW131592   4.999   0.240   4.851
10231SOL    HW231593   4.907   0.139   4.762
10232SOL     OW31594   3.414   2.105   4.957
10232SOL    HW131595   3.418   2.097   4.857
10232SOL    HW231596   3.352   2.180   4.981
10233SOL     OW31597   4.497   1.618   6.030
10233SOL    HW131598   4.431   1.691   6.012
10233SOL    HW231599   4.582   1.636   5.979
10234SOL     OW31600   4.951   6.267   1.788
10234SOL    HW131601   5.013   6.286   1.864
10234SOL    HW231602   4.895   6.187   1.810
10235SOL     OW31603   5.839   1.188   6.760
10235SOL    HW131604   5.761   1.148   6.712
10235SOL    HW231605   5.840   1.287   6.746
10236SOL     OW31606   2.089   5.458   1.941
10236SOL    HW131607   2.102   5.412   1.853
10236SOL    HW231608   2.178   5.474   1.984
10237SOL     OW31609   6.814   3.089   2.708
10237SOL    HW131610   6.883   3.023   2.738
10237SOL    HW231611   6.727   3.043   2.694
10238SOL     OW31612   4.927   4.936   4.820
10238SOL    HW131613   4.857   4.985   4.767
10238SOL    HW231614   4.886   4.898   4.902
10239SOL     OW31615   0.211   4.279   4.214
10239SOL    HW131616   0.191   4.191   4.173
10239SOL    HW231617   0.303   4.309   4.188
10240SOL     OW31618   0.041   4.480   3.900
10240SOL    HW131619   0.011   4.509   3.991
10240SOL    HW231620   0.036   4.380   3.893
10241SOL     OW31621   2.163   0.920   1.944
10241SOL    HW131622   2.192   0.987   2.012
10241SOL    HW231623   2.207   0.940   1.857
10242SOL     OW31624   6.946   0.109   6.037
10242SOL    HW131625   6.979   0.038   6.100
10242SOL    HW231626   6.859   0.144   6.069
10243SOL     OW31627   1.270   5.489   1.654
10243SOL    HW131628   1.281   5.550   1.576
10243SOL    HW231629   1.329   5.519   1.729
10244SOL     OW31630   2.384   6.231   0.116
10244SOL    HW131631   2.358   6.318   0.075
10244SOL    HW231632   2.409   6.166   0.043
10245SOL     OW31633   2.544   2.166   0.071
10245SOL    HW131634   2.588   2.218   7.022
10245SOL    HW231635   2.478   2.225   0.118
10246SOL     OW31636   3.431   4.019   4.557
10246SOL    HW131637   3.410   3.979   4.647
10246SOL    HW231638   3.530   4.027   4.547
10247SOL     OW31639   1.206   4.647   5.254
10247SOL    HW131640   1.132   4.620   5.315
10247SOL    HW231641   1.192   4.606   5.163
10248SOL     OW31642   4.022   0.129   1.890
10248SOL    HW131643   4.077   0.052   1.855
10248SOL    HW231644   4.045   0.212   1.839
10249SOL     OW31645   4.789   1.021   6.463
10249SOL    HW131646   4.742   0.935   6.439
10249SOL    HW231647   4.868   1.033   6.403
10250SOL     OW31648   6.302   0.302   0.328
10250SOL    HW131649   6.316   0.270   0.422
10250SOL    HW231650   6.336   0.396   0.319
10251SOL     OW31651   2.725   3.894   0.328
10251SOL    HW131652   2.694   3.946   0.248
10251SOL    HW231653   2.771   3.811   0.297
10252SOL     OW31654   6.694   4.839   2.135
10252SOL    HW131655   6.774   4.786   2.109
10252SOL    HW231656   6.720   4.908   2.203
10253SOL     OW31657   3.655   5.437   7.003
10253SOL    HW131658   3.682   5.347   6.968
10253SOL    HW231659   3.694   5.508   6.944
10254SOL     OW31660   2.184   2.363   5.227
10254SOL    HW131661   2.126   2.351   5.308
10254SOL    HW231662   2.269   2.312   5.240
10255SOL     OW31663   3.150   5.956   2.401
10255SOL    HW131664   3.119   6.015   2.476
10255SOL    HW231665   3.072   5.926   2.347
10256SOL     OW31666   6.166   6.763   6.517
10256SOL    HW131667   6.193   6.837   6.456
10256SOL    HW231668   6.073   6.780   6.550
10257SOL     OW31669   1.245   5.950   5.902
10257SOL    HW131670   1.314   5.879   5.890
10257SOL    HW231671   1.218   5.954   5.998
10258SOL     OW31672   3.999   0.581   3.133
10258SOL    HW131673   3.938   0.659   3.116
10258SOL    HW231674   3.960   0.524   3.205
10259SOL     OW31675   6.913   4.104   3.025
10259SOL    HW131676   6.901   4.183   3.085
10259SOL    HW231677   6.938   4.024   3.080
10260SOL     OW31678   1.157   6.631   1.729
10260SOL    HW131679   1.189   6.601   1.818
10260SOL    HW231680   1.063   6.600   1.715
10261SOL     OW31681   1.190   5.734   2.624
10261SOL    HW131682   1.220   5.664   2.689
10261SOL    HW231683   1.248   5.815   2.634
10262SOL     OW31684   1.224   4.746   4.855
10262SOL    HW131685   1.146   4.794   4.893
10262SOL    HW231686   1.299   4.744   4.921
10263SOL     OW31687   6.498   2.253   6.041
10263SOL    HW131688   6.400   2.235   6.038
10263SOL    HW231689   6.541   2.193   6.108
10264SOL     OW31690   0.249   0.549   5.808
10264SOL    HW131691   0.185   0.514   5.876
10264SOL    HW231692   0.338   0.565   5.851
10265SOL     OW31693   4.207   1.715   2.233
10265SOL    HW131694   4.165   1.627   2.252
10265SOL    HW231695   4.151   1.788   2.273
10266SOL     OW31696   2.877   4.359   6.563
10266SOL    HW131697   2.878   4.266   6.526
10266SOL    HW231698   2.929   4.419   6.503
10267SOL     OW31699   6.705   2.135   6.189
10267SOL    HW131700   6.718   2.205   6.260
10267SOL    HW231701   6.760   2.157   6.109
10268SOL     OW31702   5.829   5.562   1.605
10268SOL    HW131703   5.833   5.646   1.553
10268SOL    HW231704   5.804   5.486   1.545
10269SOL     OW31705   2.864   2.966   6.245
10269SOL    HW131706   2.882   3.048   6.301
10269SOL    HW231707   2.766   2.959   6.227
10270SOL     OW31708   1.882   5.689   0.849
10270SOL    HW131709   1.896   5.605   0.901
10270SOL    HW231710   1.961   5.748   0.860
10271SOL     OW31711   4.673   4.580   1.307
10271SOL    HW131712   4.744   4.629   1.256
10271SOL    HW231713   4.623   4.644   1.365
10272SOL     OW31714   0.596   0.952   5.904
10272SOL    HW131715   0.566   0.933   5.811
10272SOL    HW231716   0.549   0.890   5.967
10273SOL     OW31717   4.012   5.685   4.617
10273SOL    HW131718   3.916   5.694   4.642
10273SOL    HW231719   4.069   5.687   4.699
10274SOL     OW31720   1.389   5.720   5.966
10274SOL    HW131721   1.427   5.628   5.960
10274SOL    HW231722   1.302   5.718   6.015
10275SOL     OW31723   1.138   6.345   2.437
10275SOL    HW131724   1.175   6.379   2.523
10275SOL    HW231725   1.043   6.316   2.450
10276SOL     OW31726   6.141   5.478   6.283
10276SOL    HW131727   6.200   5.472   6.364
10276SOL    HW231728   6.064   5.415   6.293
10277SOL     OW31729   2.325   6.001   4.686
10277SOL    HW131730   2.336   6.042   4.777
10277SOL    HW231731   2.238   5.952   4.683
10278SOL     OW31732   6.083   0.580   5.394
10278SOL    HW131733   6.157   0.568   5.459
10278SOL    HW231734   6.010   0.515   5.414
10279SOL     OW31735   3.277   6.780   4.238
10279SOL    HW131736   3.237   6.729   4.162
10279SOL    HW231737   3.376   6.766   4.240
10280SOL     OW31738   1.903   3.847   6.784
10280SOL    HW131739   1.984   3.890   6.824
10280SOL    HW231740   1.821   3.896   6.815
10281SOL     OW31741   4.318   0.475   3.673
10281SOL    HW131742   4.314   0.575   3.680
10281SOL    HW231743   4.228   0.436   3.695
10282SOL     OW31744   0.794   1.818   4.268
10282SOL    HW131745   0.810   1.747   4.337
10282SOL    HW231746   0.767   1.903   4.314
10283SOL     OW31747   1.117   4.080   6.849
10283SOL    HW131748   1.035   4.134   6.830
10283SOL    HW231749   1.096   4.011   6.918
10284SOL     OW31750   5.689   3.019   5.449
10284SOL    HW131751   5.777   2.973   5.451
10284SOL    HW231752   5.619   2.958   5.412
10285SOL     OW31753   5.766   6.888   0.910
10285SOL    HW131754   5.741   6.984   0.913
10285SOL    HW231755   5.806   6.866   0.821
10286SOL     OW31756   3.862   0.690   3.468
10286SOL    HW131757   3.821   0.762   3.412
10286SOL    HW231758   3.885   0.612   3.410
10287SOL     OW31759   2.353   6.253   1.726
10287SOL    HW131760   2.351   6.228   1.629
10287SOL    HW231761   2.261   6.246   1.764
10288SOL     OW31762   6.019   6.286   4.004
10288SOL    HW131763   6.056   6.275   4.096
10288SOL    HW231764   5.955   6.363   4.004
10289SOL     OW31765   3.418   0.811   1.836
10289SOL    HW131766   3.475   0.847   1.762
10289SOL    HW231767   3.376   0.887   1.885
10290SOL     OW31768   4.058   3.718   2.503
10290SOL    HW131769   4.035   3.626   2.536
10290SOL    HW231770   4.157   3.732   2.510
10291SOL     OW31771   3.366   0.644   5.370
10291SOL    HW131772   3.319   0.724   5.409
10291SOL    HW231773   3.299   0.575   5.343
10292SOL     OW31774   0.666   1.187   4.498
10292SOL    HW131775   0.622   1.226   4.579
10292SOL    HW231776   0.760   1.222   4.491
10293SOL     OW31777   1.884   6.045   3.479
10293SOL    HW131778   1.950   6.018   3.409
10293SOL    HW231779   1.933   6.083   3.558
10294SOL     OW31780   5.799   1.530   3.226
10294SOL    HW131781   5.841   1.618   3.203
10294SOL    HW231782   5.799   1.471   3.146
10295SOL     OW31783   0.500   5.492   6.189
10295SOL    HW131784   0.413   5.522   6.151
10295SOL    HW231785   0.506   5.392   6.185
10296SOL     OW31786   6.721   2.623   0.720
10296SOL    HW131787   6.741   2.706   0.669
10296SOL    HW231788   6.688   2.552   0.658
10297SOL     OW31789   1.717   5.426   5.085
10297SOL    HW131790   1.762   5.415   5.173
10297SOL    HW231791   1.775   5.481   5.025
10298SOL     OW31792   5.193   3.373   4.345
10298SOL    HW131793   5.224   3.302   4.281
10298SOL    HW231794   5.217   3.463   4.310
10299SOL     OW31795   5.087   4.166   3.332
10299SOL    HW131796   5.129   4.083   3.367
10299SOL    HW231797   5.033   4.210   3.404
10300SOL     OW31798   0.923   4.988   2.712
10300SOL    HW131799   0.833   5.031   2.719
10300SOL    HW231800   0.931   4.939   2.625
10301SOL     OW31801   5.244   1.541   1.352
10301SOL    HW131802   5.229   1.443   1.339
10301SOL    HW231803   5.284   1.580   1.269
10302SOL     OW31804   1.623   5.834   3.289
10302SOL    HW131805   1.714   5.867   3.263
10302SOL    HW231806   1.558   5.855   3.216
10303SOL     OW31807   3.270   3.218   1.419
10303SOL    HW131808   3.311   3.308   1.432
10303SOL    HW231809   3.299   3.181   1.331
10304SOL     OW31810   6.831   6.709   2.635
10304SOL    HW131811   6.812   6.611   2.626
10304SOL    HW231812   6.778   6.746   2.711
10305SOL     OW31813   1.766   5.600   1.135
10305SOL    HW131814   1.714   5.637   1.212
10305SOL    HW231815   1.805   5.675   1.082
10306SOL     OW31816   4.185   5.980   7.001
10306SOL    HW131817   4.122   5.903   7.016
10306SOL    HW231818   4.151   6.036   6.926
10307SOL     OW31819   2.065   1.649   5.835
10307SOL    HW131820   2.155   1.682   5.864
10307SOL    HW231821   2.056   1.552   5.859
10308SOL     OW31822   3.223   5.881   3.449
10308SOL    HW131823   3.204   5.888   3.351
10308SOL    HW231824   3.241   5.785   3.473
10309SOL     OW31825   7.018   6.357   3.258
10309SOL    HW131826   7.000   6.258   3.261
10309SOL    HW231827   6.931   6.406   3.250
10310SOL     OW31828   3.633   4.180   3.439
10310SOL    HW131829   3.552   4.150   3.388
10310SOL    HW231830   3.663   4.269   3.405
10311SOL     OW31831   6.861   5.256   0.418
10311SOL    HW131832   6.765   5.279   0.399
10311SOL    HW231833   6.901   5.214   0.336
10312SOL     OW31834   2.260   4.468   1.037
10312SOL    HW131835   2.189   4.412   1.079
10312SOL    HW231836   2.345   4.458   1.088
10313SOL     OW31837   5.401   0.084   3.141
10313SOL    HW131838   5.323   0.047   3.192
10313SOL    HW231839   5.419   0.028   3.061
10314SOL     OW31840   6.784   6.129   0.846
10314SOL    HW131841   6.735   6.042   0.854
10314SOL    HW231842   6.747   6.181   0.769
10315SOL     OW31843   6.070   4.965   4.794
10315SOL    HW131844   6.052   4.882   4.741
10315SOL    HW231845   6.169   4.975   4.807
10316SOL     OW31846   0.025   4.633   3.348
10316SOL    HW131847   0.078   4.589   3.421
10316SOL    HW231848   6.955   4.642   3.377
10317SOL     OW31849   3.797   4.802   0.379
10317SOL    HW131850   3.714   4.764   0.337
10317SOL    HW231851   3.848   4.854   0.310
10318SOL     OW31852   5.948   5.372   2.245
10318SOL    HW131853   5.872   5.388   2.308
10318SOL    HW231854   6.034   5.399   2.289
10319SOL     OW31855   5.794   6.489   2.994
10319SOL    HW131856   5.870   6.542   3.031
10319SOL    HW231857   5.722   6.482   3.063
10320SOL     OW31858   6.217   6.449   1.339
10320SOL    HW131859   6.168   6.376   1.388
10320SOL    HW231860   6.247   6.415   1.250
10321SOL     OW31861   4.383   5.399   3.850
10321SOL    HW131862   4.464   5.340   3.853
10321SOL    HW231863   4.408   5.488   3.813
10322SOL     OW31864   6.211   3.016   0.239
10322SOL    HW131865   6.142   2.950   0.212
10322SOL    HW231866   6.283   2.970   0.291
10323SOL     OW31867   5.208   2.976   5.295
10323SOL    HW131868   5.262   3.058   5.278
10323SOL    HW231869   5.155   2.988   5.379
10324SOL     OW31870   3.223   2.942   3.714
10324SOL    HW131871   3.316   2.977   3.725
10324SOL    HW231872   3.199   2.887   3.794
10325SOL     OW31873   0.049   3.637   3.378
10325SOL    HW131874   0.053   3.619   3.476
10325SOL    HW231875   0.136   3.675   3.348
10326SOL     OW31876   5.632   2.177   0.593
10326SOL    HW131877   5.588   2.094   0.626
10326SOL    HW231878   5.695   2.155   0.518
10327SOL     OW31879   6.898   0.962   3.291
10327SOL    HW131880   6.949   0.997   3.212
10327SOL    HW231881   6.802   0.990   3.284
10328SOL     OW31882   6.327   2.506   1.744
10328SOL    HW131883   6.286   2.415   1.733
10328SOL    HW231884   6.404   2.499   1.807
10329SOL     OW31885   3.425   6.644   2.721
10329SOL    HW131886   3.395   6.619   2.629
10329SOL    HW231887   3.506   6.590   2.744
10330SOL     OW31888   4.040   5.213   1.320
10330SOL    HW131889   4.016   5.151   1.394
10330SOL    HW231890   4.116   5.271   1.347
10331SOL     OW31891   6.084   0.646   3.287
10331SOL    HW131892   6.107   0.556   3.249
10331SOL    HW231893   6.110   0.650   3.383
10332SOL     OW31894   0.189   2.655   6.265
10332SOL    HW131895   0.259   2.690   6.203
10332SOL    HW231896   0.108   2.628   6.213
10333SOL     OW31897   4.643   4.549   4.737
10333SOL    HW131898   4.579   4.568   4.812
10333SOL    HW231899   4.611   4.470   4.685
10334SOL     OW31900   1.581   4.439   4.635
10334SOL    HW131901   1.625   4.529   4.629
10334SOL    HW231902   1.545   4.426   4.727
10335SOL     OW31903   2.065   5.393   1.666
10335SOL    HW131904   1.985   5.333   1.662
10335SOL    HW231905   2.132   5.363   1.598
10336SOL     OW31906   3.851   6.599   2.726
10336SOL    HW131907   3.775   6.571   2.667
10336SOL    HW231908   3.890   6.684   2.690
10337SOL     OW31909   0.916   4.907   5.149
10337SOL    HW131910   0.908   4.817   5.191
10337SOL    HW231911   0.909   4.977   5.221
10338SOL     OW31912   3.169   5.906   3.189
10338SOL    HW131913   3.079   5.878   3.156
10338SOL    HW231914   3.175   6.005   3.191
10339SOL     OW31915   2.903   5.677   1.123
10339SOL    HW131916   2.885   5.653   1.219
10339SOL    HW231917   2.996   5.714   1.115
10340SOL     OW31918   2.143   0.278   0.328
10340SOL    HW131919   2.097   0.212   0.388
10340SOL    HW231920   2.138   0.246   0.234
10341SOL     OW31921   2.174   1.112   2.350
10341SOL    HW131922   2.157   1.147   2.442
10341SOL    HW231923   2.103   1.147   2.288
10342SOL     OW31924   2.335   6.635   5.125
10342SOL    HW131925   2.404   6.682   5.182
10342SOL    HW231926   2.314   6.692   5.045
10343SOL     OW31927   2.183   3.316   5.181
10343SOL    HW131928   2.092   3.352   5.202
10343SOL    HW231929   2.188   3.295   5.083
10344SOL     OW31930   3.776   4.978   5.092
10344SOL    HW131931   3.826   4.905   5.045
10344SOL    HW231932   3.838   5.055   5.109
10345SOL     OW31933   1.957   1.105   6.774
10345SOL    HW131934   2.022   1.177   6.751
10345SOL    HW231935   1.912   1.072   6.691
10346SOL     OW31936   5.112   6.025   0.019
10346SOL    HW131937   5.078   6.016   6.950
10346SOL    HW231938   5.191   6.087   0.020
10347SOL     OW31939   5.528   1.798   1.999
10347SOL    HW131940   5.600   1.809   1.930
10347SOL    HW231941   5.555   1.728   2.065
10348SOL     OW31942   0.497   5.606   5.409
10348SOL    HW131943   0.579   5.655   5.380
10348SOL    HW231944   0.513   5.507   5.405
10349SOL     OW31945   0.180   1.952   0.555
10349SOL    HW131946   0.126   1.919   0.632
10349SOL    HW231947   0.123   1.954   0.473
10350SOL     OW31948   1.864   4.548   4.932
10350SOL    HW131949   1.785   4.551   4.993
10350SOL    HW231950   1.945   4.521   4.983
10351SOL     OW31951   4.829   4.622   4.916
10351SOL    HW131952   4.771   4.641   4.836
10351SOL    HW231953   4.925   4.614   4.886
10352SOL     OW31954   5.497   1.937   0.642
10352SOL    HW131955   5.403   1.971   0.639
10352SOL    HW231956   5.499   1.841   0.616
10353SOL     OW31957   6.767   2.792   3.458
10353SOL    HW131958   6.761   2.877   3.511
10353SOL    HW231959   6.855   2.749   3.475
10354SOL     OW31960   0.407   3.451   0.778
10354SOL    HW131961   0.413   3.364   0.729
10354SOL    HW231962   0.490   3.504   0.763
10355SOL     OW31963   0.986   1.227   0.995
10355SOL    HW131964   0.932   1.151   1.032
10355SOL    HW231965   1.080   1.221   1.030
10356SOL     OW31966   6.432   3.441   6.082
10356SOL    HW131967   6.361   3.432   6.013
10356SOL    HW231968   6.508   3.379   6.060
10357SOL     OW31969   1.327   2.989   5.868
10357SOL    HW131970   1.411   2.979   5.923
10357SOL    HW231971   1.341   2.948   5.778
10358SOL     OW31972   0.641   2.129   2.685
10358SOL    HW131973   0.644   2.129   2.785
10358SOL    HW231974   0.686   2.046   2.651
10359SOL     OW31975   6.252   1.695   2.408
10359SOL    HW131976   6.349   1.683   2.389
10359SOL    HW231977   6.232   1.793   2.419
10360SOL     OW31978   5.946   4.257   1.631
10360SOL    HW131979   5.998   4.263   1.546
10360SOL    HW231980   5.852   4.289   1.614
10361SOL     OW31981   0.801   1.651   1.989
10361SOL    HW131982   0.819   1.731   1.931
10361SOL    HW231983   0.722   1.601   1.952
10362SOL     OW31984   0.849   5.134   2.017
10362SOL    HW131985   0.811   5.110   1.928
10362SOL    HW231986   0.949   5.139   2.010
10363SOL     OW31987   5.119   4.432   6.952
10363SOL    HW131988   5.069   4.387   6.877
10363SOL    HW231989   5.056   4.490   7.003
10364SOL     OW31990   5.834   4.609   2.182
10364SOL    HW131991   5.928   4.589   2.153
10364SOL    HW231992   5.824   4.588   2.279
10365SOL     OW31993   5.544   5.592   0.324
10365SOL    HW131994   5.642   5.606   0.339
10365SOL    HW231995   5.516   5.504   0.363
10366SOL     OW31996   2.319   6.077   3.736
10366SOL    HW131997   2.279   6.067   3.645
10366SOL    HW231998   2.376   6.159   3.739
10367SOL     OW31999   5.804   1.354   1.468
10367SOL    HW132000   5.882   1.405   1.432
10367SOL    HW232001   5.728   1.416   1.485
10368SOL     OW32002   2.434   6.082   2.366
10368SOL    HW132003   2.375   6.008   2.399
10368SOL    HW232004   2.379   6.163   2.349
10369SOL     OW32005   2.916   0.266   6.330
10369SOL    HW132006   2.984   0.259   6.402
10369SOL    HW232007   2.927   0.189   6.267
10370SOL     OW32008   0.975   0.688   5.467
10370SOL    HW132009   1.051   0.664   5.527
10370SOL    HW232010   0.893   0.704   5.521
10371SOL     OW32011   3.826   5.712   2.785
10371SOL    HW132012   3.883   5.699   2.705
10371SOL    HW232013   3.852   5.645   2.855
10372SOL     OW32014   3.032   6.809   1.916
10372SOL    HW132015   3.127   6.810   1.947
10372SOL    HW232016   3.007   6.899   1.881
10373SOL     OW32017   1.231   1.658   5.677
10373SOL    HW132018   1.223   1.617   5.586
10373SOL    HW232019   1.312   1.622   5.722
10374SOL     OW32020   3.902   5.642   4.061
10374SOL    HW132021   3.814   5.599   4.041
10374SOL    HW232022   3.918   5.641   4.160
10375SOL     OW32023   2.307   3.942   0.040
10375SOL    HW132024   2.356   4.024   0.009
10375SOL    HW232025   2.259   3.901   6.987
10376SOL     OW32026   1.704   4.781   3.032
10376SOL    HW132027   1.680   4.723   2.954
10376SOL    HW232028   1.776   4.736   3.086
10377SOL     OW32029   1.588   0.334   2.767
10377SOL    HW132030   1.665   0.393   2.789
10377SOL    HW232031   1.504   0.388   2.761
10378SOL     OW32032   0.053   4.727   3.740
10378SOL    HW132033   0.131   4.664   3.741
10378SOL    HW232034   6.999   4.682   3.782
10379SOL     OW32035   1.908   6.213   4.652
10379SOL    HW132036   1.954   6.177   4.732
10379SOL    HW232037   1.819   6.168   4.642
10380SOL     OW32038   2.303   2.894   4.760
10380SOL    HW132039   2.365   2.818   4.741
10380SOL    HW232040   2.311   2.920   4.857
10381SOL     OW32041   4.659   4.693   2.181
10381SOL    HW132042   4.656   4.786   2.142
10381SOL    HW232043   4.744   4.681   2.232
10382SOL     OW32044   3.897   5.336   2.185
10382SOL    HW132045   3.989   5.352   2.221
10382SOL    HW232046   3.896   5.354   2.087
10383SOL     OW32047   2.263   4.282   0.572
10383SOL    HW132048   2.247   4.381   0.576
10383SOL    HW232049   2.248   4.249   0.479
10384SOL     OW32050   6.239   6.366   1.675
10384SOL    HW132051   6.176   6.290   1.693
10384SOL    HW232052   6.191   6.438   1.625
10385SOL     OW32053   4.582   4.561   6.701
10385SOL    HW132054   4.566   4.488   6.767
10385SOL    HW232055   4.498   4.580   6.651
10386SOL     OW32056   0.124   1.450   0.418
10386SOL    HW132057   0.175   1.511   0.479
10386SOL    HW232058   0.131   1.484   0.324
10387SOL     OW32059   4.908   3.086   2.201
10387SOL    HW132060   4.845   3.062   2.127
10387SOL    HW232061   4.980   3.146   2.165
10388SOL     OW32062   3.024   0.968   5.772
10388SOL    HW132063   3.038   1.044   5.836
10388SOL    HW232064   3.067   0.886   5.809
10389SOL     OW32065   0.926   3.495   0.484
10389SOL    HW132066   0.889   3.495   0.577
10389SOL    HW232067   0.916   3.405   0.444
10390SOL     OW32068   2.932   2.373   1.447
10390SOL    HW132069   2.896   2.466   1.449
10390SOL    HW232070   2.969   2.350   1.537
10391SOL     OW32071   5.642   6.833   4.603
10391SOL    HW132072   5.710   6.843   4.530
10391SOL    HW232073   5.551   6.854   4.567
10392SOL     OW32074   6.714   5.089   4.084
10392SOL    HW132075   6.773   5.049   4.013
10392SOL    HW232076   6.626   5.042   4.085
10393SOL     OW32077   1.849   4.396   3.717
10393SOL    HW132078   1.825   4.492   3.707
10393SOL    HW232079   1.900   4.366   3.637
10394SOL     OW32080   2.493   5.529   4.411
10394SOL    HW132081   2.558   5.469   4.458
10394SOL    HW232082   2.500   5.621   4.449
10395SOL     OW32083   0.280   0.081   0.409
10395SOL    HW132084   0.355   0.070   0.474
10395SOL    HW232085   0.274   0.177   0.380
10396SOL     OW32086   2.847   1.575   5.026
10396SOL    HW132087   2.857   1.598   4.929
10396SOL    HW232088   2.814   1.481   5.034
10397SOL     OW32089   3.039   2.138   2.176
10397SOL    HW132090   3.043   2.121   2.274
10397SOL    HW232091   2.978   2.215   2.158
10398SOL     OW32092   6.964   2.720   1.916
10398SOL    HW132093   0.029   2.725   1.959
10398SOL    HW232094   6.973   2.732   1.817
10399SOL     OW32095   6.614   2.863   1.782
10399SOL    HW132096   6.666   2.941   1.746
10399SOL    HW232097   6.575   2.811   1.706
10400SOL     OW32098   3.717   6.706   0.500
10400SOL    HW132099   3.790   6.643   0.471
10400SOL    HW232100   3.724   6.791   0.449
10401SOL     OW32101   6.421   0.898   4.545
10401SOL    HW132102   6.399   0.801   4.531
10401SOL    HW232103   6.394   0.925   4.637
10402SOL     OW32104   6.686   2.593   4.663
10402SOL    HW132105   6.638   2.573   4.748
10402SOL    HW232106   6.627   2.648   4.603
10403SOL     OW32107   2.816   0.592   3.578
10403SOL    HW132108   2.892   0.533   3.551
10403SOL    HW232109   2.781   0.563   3.667
10404SOL     OW32110   0.180   6.752   5.886
10404SOL    HW132111   0.172   6.695   5.804
10404SOL    HW232112   0.134   6.839   5.871
10405SOL     OW32113   0.263   1.452   5.714
10405SOL    HW132114   0.245   1.386   5.786
10405SOL    HW232115   0.244   1.411   5.625
10406SOL     OW32116   3.293   4.911   1.556
10406SOL    HW132117   3.261   4.847   1.626
10406SOL    HW232118   3.325   4.995   1.601
10407SOL     OW32119   3.656   6.478   6.414
10407SOL    HW132120   3.719   6.446   6.484
10407SOL    HW232121   3.568   6.432   6.424
10408SOL     OW32122   5.041   1.126   6.926
10408SOL    HW132123   4.993   1.105   6.841
10408SOL    HW232124   5.031   1.050   6.990
10409SOL     OW32125   6.407   4.563   0.513
10409SOL    HW132126   6.449   4.502   0.446
10409SOL    HW232127   6.308   4.547   0.516
10410SOL     OW32128   5.682   1.689   0.025
10410SOL    HW132129   5.595   1.672   7.003
10410SOL    HW232130   5.695   1.621   0.097
10411SOL     OW32131   2.737   5.441   3.017
10411SOL    HW132132   2.752   5.416   2.921
10411SOL    HW232133   2.673   5.377   3.058
10412SOL     OW32134   6.049   1.271   0.787
10412SOL    HW132135   6.065   1.179   0.752
10412SOL    HW232136   6.113   1.291   0.861
10413SOL     OW32137   0.207   1.870   1.408
10413SOL    HW132138   0.251   1.947   1.362
10413SOL    HW232139   0.275   1.819   1.460
10414SOL     OW32140   4.937   3.419   5.570
10414SOL    HW132141   4.893   3.365   5.642
10414SOL    HW232142   4.879   3.497   5.546
10415SOL     OW32143   0.674   5.677   6.317
10415SOL    HW132144   0.624   5.643   6.397
10415SOL    HW232145   0.624   5.653   6.234
10416SOL     OW32146   5.990   2.713   4.244
10416SOL    HW132147   6.079   2.705   4.289
10416SOL    HW232148   5.929   2.769   4.300
10417SOL     OW32149   3.404   5.073   4.631
10417SOL    HW132150   3.354   5.002   4.582
10417SOL    HW232151   3.432   5.039   4.720
10418SOL     OW32152   0.372   4.348   5.675
10418SOL    HW132153   0.342   4.272   5.732
10418SOL    HW232154   0.341   4.434   5.716
10419SOL     OW32155   0.728   0.575   6.880
10419SOL    HW132156   0.632   0.551   6.862
10419SOL    HW232157   0.787   0.500   6.851
10420SOL     OW32158   0.274   3.475   2.399
10420SOL    HW132159   0.233   3.478   2.490
10420SOL    HW232160   0.368   3.442   2.405
10421SOL     OW32161   1.575   1.142   3.197
10421SOL    HW132162   1.553   1.104   3.107
10421SOL    HW232163   1.506   1.210   3.222
10422SOL     OW32164   6.408   2.572   5.723
10422SOL    HW132165   6.375   2.666   5.713
10422SOL    HW232166   6.489   2.571   5.781
10423SOL     OW32167   4.781   4.855   4.140
10423SOL    HW132168   4.858   4.816   4.090
10423SOL    HW232169   4.815   4.926   4.202
10424SOL     OW32170   5.186   1.933   6.527
10424SOL    HW132171   5.100   1.985   6.530
10424SOL    HW232172   5.262   1.996   6.543
10425SOL     OW32173   1.533   0.112   2.603
10425SOL    HW132174   1.504   0.185   2.666
10425SOL    HW232175   1.586   0.044   2.654
10426SOL     OW32176   6.707   4.127   0.362
10426SOL    HW132177   6.698   4.028   0.364
10426SOL    HW232178   6.671   4.162   0.275
10427SOL     OW32179   4.277   1.996   0.731
10427SOL    HW132180   4.252   2.010   0.827
10427SOL    HW232181   4.274   2.083   0.683
10428SOL     OW32182   3.613   0.344   4.519
10428SOL    HW132183   3.666   0.368   4.437
10428SOL    HW232184   3.652   0.390   4.599
10429SOL     OW32185   6.708   5.634   1.539
10429SOL    HW132186   6.804   5.654   1.557
10429SOL    HW232187   6.681   5.551   1.588
10430SOL     OW32188   4.323   6.753   3.063
10430SOL    HW132189   4.397   6.816   3.037
10430SOL    HW232190   4.325   6.673   3.003
10431SOL     OW32191   2.924   0.300   5.353
10431SOL    HW132192   2.872   0.372   5.307
10431SOL    HW232193   2.870   0.264   5.429
10432SOL     OW32194   6.486   0.966   4.046
10432SOL    HW132195   6.573   0.989   4.089
10432SOL    HW232196   6.490   0.874   4.007
10433SOL     OW32197   1.936   6.533   1.892
10433SOL    HW132198   1.969   6.614   1.940
10433SOL    HW232199   1.837   6.530   1.895
10434SOL     OW32200   3.501   0.132   3.410
10434SOL    HW132201   3.567   0.093   3.474
10434SOL    HW232202   3.503   0.079   3.325
10435SOL     OW32203   6.389   6.500   5.041
10435SOL    HW132204   6.425   6.507   4.948
10435SOL    HW232205   6.310   6.438   5.040
10436SOL     OW32206   0.527   5.021   4.179
10436SOL    HW132207   0.597   4.974   4.234
10436SOL    HW232208   0.465   5.071   4.240
10437SOL     OW32209   6.108   5.280   5.753
10437SOL    HW132210   6.061   5.362   5.784
10437SOL    HW232211   6.042   5.206   5.740
10438SOL     OW32212   5.236   6.667   0.152
10438SOL    HW132213   5.330   6.700   0.143
10438SOL    HW232214   5.173   6.738   0.123
10439SOL     OW32215   3.690   0.336   5.430
10439SOL    HW132216   3.781   0.361   5.398
10439SOL    HW232217   3.672   0.240   5.409
10440SOL     OW32218   0.916   6.903   1.042
10440SOL    HW132219   0.819   6.889   1.065
10440SOL    HW232220   0.971   6.832   1.086
10441SOL     OW32221   5.367   1.487   6.549
10441SOL    HW132222   5.365   1.446   6.458
10441SOL    HW232223   5.274   1.506   6.580
10442SOL     OW32224   3.470   5.358   5.603
10442SOL    HW132225   3.525   5.434   5.638
10442SOL    HW232226   3.526   5.275   5.598
10443SOL     OW32227   6.027   3.925   4.691
10443SOL    HW132228   6.096   3.858   4.663
10443SOL    HW232229   5.949   3.921   4.629
10444SOL     OW32230   3.699   5.503   4.870
10444SOL    HW132231   3.669   5.434   4.936
10444SOL    HW232232   3.761   5.461   4.804
10445SOL     OW32233   6.710   5.198   4.849
10445SOL    HW132234   6.786   5.231   4.905
10445SOL    HW232235   6.730   5.213   4.753
10446SOL     OW32236   0.593   3.999   6.611
10446SOL    HW132237   0.602   4.082   6.556
10446SOL    HW232238   0.552   4.021   6.699
10447SOL     OW32239   6.976   1.878   1.164
10447SOL    HW132240   0.041   1.837   1.176
10447SOL    HW232241   6.956   1.938   1.241
10448SOL     OW32242   3.816   3.735   1.185
10448SOL    HW132243   3.904   3.688   1.193
10448SOL    HW232244   3.796   3.782   1.271
10449SOL     OW32245   2.328   5.420   4.603
10449SOL    HW132246   2.361   5.493   4.543
10449SOL    HW232247   2.367   5.333   4.574
10450SOL     OW32248   0.015   2.587   6.857
10450SOL    HW132249   6.974   2.595   6.932
10450SOL    HW232250   0.072   2.669   6.854
10451SOL     OW32251   2.650   4.594   3.077
10451SOL    HW132252   2.691   4.570   3.166
10451SOL    HW232253   2.563   4.545   3.067
10452SOL     OW32254   0.723   3.736   3.975
10452SOL    HW132255   0.822   3.747   3.966
10452SOL    HW232256   0.681   3.739   3.885
10453SOL     OW32257   5.850   5.872   1.604
10453SOL    HW132258   5.800   5.930   1.540
10453SOL    HW232259   5.788   5.841   1.676
10454SOL     OW32260   5.263   2.848   1.882
10454SOL    HW132261   5.193   2.863   1.812
10454SOL    HW232262   5.219   2.842   1.972
10455SOL     OW32263   0.459   5.347   3.952
10455SOL    HW132264   0.396   5.367   3.877
10455SOL    HW232265   0.547   5.319   3.915
10456SOL     OW32266   3.436   5.771   1.447
10456SOL    HW132267   3.520   5.822   1.467
10456SOL    HW232268   3.456   5.700   1.380
10457SOL     OW32269   3.539   3.963   3.853
10457SOL    HW132270   3.519   3.890   3.787
10457SOL    HW232271   3.637   3.968   3.869
10458SOL     OW32272   1.008   0.027   0.829
10458SOL    HW132273   0.974   7.021   0.918
10458SOL    HW232274   1.085   6.994   0.801
10459SOL     OW32275   5.497   5.375   1.993
10459SOL    HW132276   5.494   5.325   1.906
10459SOL    HW232277   5.410   5.362   2.041
10460SOL     OW32278   2.515   5.496   1.884
10460SOL    HW132279   2.536   5.508   1.787
10460SOL    HW232280   2.591   5.530   1.939
10461SOL     OW32281   2.315   6.783   6.758
10461SOL    HW132282   2.345   6.689   6.742
10461SOL    HW232283   2.338   6.840   6.679
10462SOL     OW32284   5.747   0.709   0.815
10462SOL    HW132285   5.682   0.647   0.859
10462SOL    HW232286   5.710   0.802   0.816
10463SOL     OW32287   3.077   4.336   0.104
10463SOL    HW132288   3.107   4.291   0.019
10463SOL    HW232289   3.082   4.435   0.093
10464SOL     OW32290   4.910   0.087   0.845
10464SOL    HW132291   4.969   0.007   0.838
10464SOL    HW232292   4.962   0.169   0.821
10465SOL     OW32293   0.259   5.469   5.867
10465SOL    HW132294   0.220   5.483   5.776
10465SOL    HW232295   0.357   5.450   5.858
10466SOL     OW32296   4.896   5.463   5.041
10466SOL    HW132297   4.842   5.404   4.980
10466SOL    HW232298   4.868   5.558   5.029
10467SOL     OW32299   2.363   1.693   5.419
10467SOL    HW132300   2.454   1.725   5.391
10467SOL    HW232301   2.293   1.743   5.368
10468SOL     OW32302   3.269   6.451   4.335
10468SOL    HW132303   3.326   6.474   4.414
10468SOL    HW232304   3.301   6.500   4.255
10469SOL     OW32305   1.869   4.108   0.785
10469SOL    HW132306   1.964   4.089   0.760
10469SOL    HW232307   1.837   4.188   0.734
10470SOL     OW32308   2.372   1.810   3.626
10470SOL    HW132309   2.312   1.848   3.556
10470SOL    HW232310   2.322   1.744   3.681
10471SOL     OW32311   2.766   3.909   1.502
10471SOL    HW132312   2.808   3.876   1.586
10471SOL    HW232313   2.785   4.006   1.490
10472SOL     OW32314   3.921   7.018   2.101
10472SOL    HW132315   3.954   0.055   2.030
10472SOL    HW232316   3.995   6.998   2.165
10473SOL     OW32317   5.850   6.195   6.788
10473SOL    HW132318   5.949   6.181   6.795
10473SOL    HW232319   5.825   6.275   6.841
10474SOL     OW32320   3.833   1.020   4.074
10474SOL    HW132321   3.888   1.077   4.134
10474SOL    HW232322   3.881   1.007   3.987
10475SOL     OW32323   4.133   6.983   1.499
10475SOL    HW132324   4.142   0.057   1.481
10475SOL    HW232325   4.137   6.933   1.412
10476SOL     OW32326   6.060   5.075   6.134
10476SOL    HW132327   6.085   4.978   6.133
10476SOL    HW232328   6.136   5.128   6.172
10477SOL     OW32329   5.924   4.082   4.891
10477SOL    HW132330   5.849   4.045   4.946
10477SOL    HW232331   5.964   4.008   4.836
10478SOL     OW32332   0.118   6.429   0.803
10478SOL    HW132333   0.095   6.459   0.896
10478SOL    HW232334   0.204   6.473   0.774
10479SOL     OW32335   2.122   3.796   2.498
10479SOL    HW132336   2.190   3.729   2.525
10479SOL    HW232337   2.031   3.756   2.505
10480SOL     OW32338   5.427   6.905   2.436
10480SOL    HW132339   5.348   6.963   2.415
10480SOL    HW232340   5.405   6.846   2.514
10481SOL     OW32341   2.004   0.819   5.305
10481SOL    HW132342   2.058   0.861   5.232
10481SOL    HW232343   2.056   0.825   5.391
10482SOL     OW32344   0.821   6.119   4.771
10482SOL    HW132345   0.832   6.214   4.799
10482SOL    HW232346   0.788   6.115   4.676
10483SOL     OW32347   6.604   5.684   6.400
10483SOL    HW132348   6.681   5.634   6.439
10483SOL    HW232349   6.530   5.689   6.467
10484SOL     OW32350   0.725   1.013   1.758
10484SOL    HW132351   0.636   0.973   1.781
10484SOL    HW232352   0.780   1.020   1.841
10485SOL     OW32353   3.429   3.786   3.167
10485SOL    HW132354   3.526   3.786   3.188
10485SOL    HW232355   3.386   3.705   3.208
10486SOL     OW32356   6.388   6.169   5.153
10486SOL    HW132357   6.385   6.197   5.249
10486SOL    HW232358   6.297   6.178   5.113
10487SOL     OW32359   4.692   2.285   1.985
10487SOL    HW132360   4.771   2.256   2.040
10487SOL    HW232361   4.655   2.371   2.022
10488SOL     OW32362   0.038   2.329   5.582
10488SOL    HW132363   0.002   2.236   5.568
10488SOL    HW232364   0.118   2.325   5.642
10489SOL     OW32365   5.605   4.362   3.883
10489SOL    HW132366   5.682   4.317   3.928
10489SOL    HW232367   5.600   4.332   3.787
10490SOL     OW32368   6.066   6.371   6.826
10490SOL    HW132369   6.136   6.440   6.847
10490SOL    HW232370   6.104   6.280   6.839
10491SOL     OW32371   1.029   2.747   6.580
10491SOL    HW132372   1.001   2.841   6.560
10491SOL    HW232373   1.061   2.741   6.675
10492SOL     OW32374   4.242   0.592   0.701
10492SOL    HW132375   4.236   0.615   0.603
10492SOL    HW232376   4.280   0.669   0.751
10493SOL     OW32377   3.979   5.765   0.799
10493SOL    HW132378   4.062   5.728   0.757
10493SOL    HW232379   3.903   5.759   0.734
10494SOL     OW32380   0.949   4.316   5.927
10494SOL    HW132381   0.933   4.312   6.026
10494SOL    HW232382   1.009   4.393   5.906
10495SOL     OW32383   0.907   6.288   6.514
10495SOL    HW132384   0.967   6.329   6.445
10495SOL    HW232385   0.909   6.344   6.597
10496SOL     OW32386   0.104   3.398   5.342
10496SOL    HW132387   0.006   3.392   5.324
10496SOL    HW232388   0.142   3.478   5.297
10497SOL     OW32389   2.404   6.889   1.376
10497SOL    HW132390   2.391   6.824   1.301
10497SOL    HW232391   2.326   6.884   1.439
10498SOL     OW32392   4.131   5.618   0.400
10498SOL    HW132393   4.151   5.579   0.490
10498SOL    HW232394   4.214   5.658   0.362
10499SOL     OW32395   5.743   5.026   2.070
10499SOL    HW132396   5.745   5.079   1.985
10499SOL    HW232397   5.834   5.027   2.112
10500SOL     OW32398   6.341   4.349   5.953
10500SOL    HW132399   6.407   4.423   5.963
10500SOL    HW232400   6.286   4.363   5.871
10501SOL     OW32401   2.554   5.350   2.760
10501SOL    HW132402   2.501   5.265   2.756
10501SOL    HW232403   2.641   5.338   2.711
10502SOL     OW32404   3.016   3.790   2.349
10502SOL    HW132405   2.950   3.777   2.276
10502SOL    HW232406   3.107   3.809   2.310
10503SOL     OW32407   6.125   2.787   6.511
10503SOL    HW132408   6.028   2.806   6.495
10503SOL    HW232409   6.176   2.801   6.427
10504SOL     OW32410   1.467   2.716   6.185
10504SOL    HW132411   1.515   2.744   6.267
10504SOL    HW232412   1.372   2.694   6.208
10505SOL     OW32413   6.072   6.140   1.178
10505SOL    HW132414   6.157   6.114   1.222
10505SOL    HW232415   6.003   6.160   1.247
10506SOL     OW32416   1.156   2.483   0.601
10506SOL    HW132417   1.118   2.491   0.508
10506SOL    HW232418   1.251   2.515   0.601
10507SOL     OW32419   1.519   4.696   6.442
10507SOL    HW132420   1.583   4.718   6.368
10507SOL    HW232421   1.449   4.634   6.407
10508SOL     OW32422   1.303   5.521   4.919
10508SOL    HW132423   1.230   5.467   4.877
10508SOL    HW232424   1.279   5.618   4.913
10509SOL     OW32425   5.174   3.002   3.397
10509SOL    HW132426   5.265   2.999   3.355
10509SOL    HW232427   5.108   3.041   3.333
10510SOL     OW32428   4.989   5.700   4.311
10510SOL    HW132429   5.035   5.622   4.353
10510SOL    HW232430   4.894   5.675   4.289
10511SOL     OW32431   3.742   2.093   2.278
10511SOL    HW132432   3.695   2.005   2.282
10511SOL    HW232433   3.711   2.143   2.196
10512SOL     OW32434   4.200   1.131   4.502
10512SOL    HW132435   4.270   1.062   4.484
10512SOL    HW232436   4.145   1.103   4.580
10513SOL     OW32437   5.453   2.987   1.688
10513SOL    HW132438   5.518   3.052   1.727
10513SOL    HW232439   5.413   2.932   1.760
10514SOL     OW32440   1.063   3.070   1.325
10514SOL    HW132441   1.120   3.059   1.244
10514SOL    HW232442   0.970   3.096   1.298
10515SOL     OW32443   1.860   3.014   5.012
10515SOL    HW132444   1.813   2.966   4.938
10515SOL    HW232445   1.915   2.949   5.064
10516SOL     OW32446   3.010   1.990   1.186
10516SOL    HW132447   2.993   1.950   1.276
10516SOL    HW232448   3.042   2.084   1.197
10517SOL     OW32449   0.846   3.195   3.619
10517SOL    HW132450   0.898   3.264   3.567
10517SOL    HW232451   0.904   3.115   3.634
10518SOL     OW32452   0.713   5.388   2.544
10518SOL    HW132453   0.679   5.482   2.554
10518SOL    HW232454   0.794   5.388   2.486
10519SOL     OW32455   2.782   6.205   1.155
10519SOL    HW132456   2.847   6.152   1.210
10519SOL    HW232457   2.773   6.163   1.065
10520SOL     OW32458   0.223   1.729   5.303
10520SOL    HW132459   0.301   1.745   5.243
10520SOL    HW232460   0.236   1.780   5.388
10521SOL     OW32461   6.583   3.084   1.033
10521SOL    HW132462   6.658   3.055   1.092
10521SOL    HW232463   6.565   3.181   1.047
10522SOL     OW32464   5.016   2.419   3.592
10522SOL    HW132465   4.977   2.471   3.516
10522SOL    HW232466   5.083   2.353   3.557
10523SOL     OW32467   6.874   4.882   3.544
10523SOL    HW132468   6.852   4.980   3.551
10523SOL    HW232469   6.911   4.851   3.632
10524SOL     OW32470   6.323   6.468   4.496
10524SOL    HW132471   6.273   6.434   4.575
10524SOL    HW232472   6.365   6.556   4.518
10525SOL     OW32473   4.560   1.340   5.042
10525SOL    HW132474   4.611   1.368   4.961
10525SOL    HW232475   4.463   1.332   5.019
10526SOL     OW32476   1.156   5.233   0.585
10526SOL    HW132477   1.213   5.258   0.664
10526SOL    HW232478   1.136   5.315   0.531
10527SOL     OW32479   0.596   0.511   4.621
10527SOL    HW132480   0.581   0.415   4.597
10527SOL    HW232481   0.514   0.548   4.665
10528SOL     OW32482   1.007   4.029   6.136
10528SOL    HW132483   0.956   3.997   6.216
10528SOL    HW232484   1.032   4.125   6.149
10529SOL     OW32485   0.812   6.238   7.011
10529SOL    HW132486   0.837   6.151   6.969
10529SOL    HW232487   0.856   6.246   0.076
10530SOL     OW32488   0.306   6.744   0.502
10530SOL    HW132489   0.274   6.805   0.574
10530SOL    HW232490   0.300   6.791   0.414
10531SOL     OW32491   2.950   2.883   5.433
10531SOL    HW132492   2.904   2.796   5.415
10531SOL    HW232493   2.960   2.894   5.532
10532SOL     OW32494   5.407   6.160   6.694
10532SOL    HW132495   5.365   6.163   6.785
10532SOL    HW232496   5.430   6.253   6.666
10533SOL     OW32497   2.769   5.420   3.452
10533SOL    HW132498   2.736   5.344   3.507
10533SOL    HW232499   2.841   5.468   3.502
10534SOL     OW32500   1.296   6.010   2.650
10534SOL    HW132501   1.348   6.072   2.591
10534SOL    HW232502   1.215   6.058   2.684
10535SOL     OW32503   2.959   2.191   2.906
10535SOL    HW132504   2.979   2.215   2.811
10535SOL    HW232505   3.038   2.145   2.945
10536SOL     OW32506   5.508   1.797   4.231
10536SOL    HW132507   5.456   1.881   4.213
10536SOL    HW232508   5.606   1.820   4.237
10537SOL     OW32509   4.360   6.935   3.334
10537SOL    HW132510   4.413   6.889   3.263
10537SOL    HW232511   4.313   7.014   3.295
10538SOL     OW32512   6.537   3.035   2.755
10538SOL    HW132513   6.447   3.041   2.712
10538SOL    HW232514   6.549   3.111   2.818
10539SOL     OW32515   6.806   0.270   3.028
10539SOL    HW132516   6.720   0.241   2.988
10539SOL    HW232517   6.867   0.191   3.039
10540SOL     OW32518   2.779   3.721   5.988
10540SOL    HW132519   2.720   3.643   6.009
10540SOL    HW232520   2.826   3.705   5.901
10541SOL     OW32521   2.917   3.229   5.004
10541SOL    HW132522   2.938   3.173   5.084
10541SOL    HW232523   2.848   3.183   4.948
10542SOL     OW32524   5.202   6.907   4.177
10542SOL    HW132525   5.262   6.986   4.181
10542SOL    HW232526   5.247   6.828   4.219
10543SOL     OW32527   0.402   3.329   5.057
10543SOL    HW132528   0.402   3.253   4.991
10543SOL    HW232529   0.454   3.406   5.020
10544SOL     OW32530   1.592   0.678   3.526
10544SOL    HW132531   1.653   0.757   3.517
10544SOL    HW232532   1.533   0.672   3.446
10545SOL     OW32533   1.955   2.028   2.861
10545SOL    HW132534   1.965   2.119   2.821
10545SOL    HW232535   1.983   1.959   2.794
10546SOL     OW32536   3.066   6.940   0.694
10546SOL    HW132537   3.073   6.982   0.784
10546SOL    HW232538   2.981   6.887   0.689
10547SOL     OW32539   4.144   0.046   4.889
10547SOL    HW132540   4.165   6.974   4.873
10547SOL    HW232541   4.132   0.092   4.801
10548SOL     OW32542   0.961   4.942   4.251
10548SOL    HW132543   1.029   4.880   4.290
10548SOL    HW232544   0.961   5.028   4.301
10549SOL     OW32545   0.258   1.231   1.240
10549SOL    HW132546   0.279   1.150   1.185
10549SOL    HW232547   0.306   1.225   1.327
10550SOL     OW32548   3.850   6.180   3.543
10550SOL    HW132549   3.916   6.248   3.511
10550SOL    HW232550   3.862   6.166   3.641
10551SOL     OW32551   2.950   2.028   6.181
10551SOL    HW132552   2.974   2.125   6.182
10551SOL    HW232553   2.945   1.996   6.086
10552SOL     OW32554   3.351   0.476   4.519
10552SOL    HW132555   3.429   0.435   4.564
10552SOL    HW232556   3.352   0.575   4.533
10553SOL     OW32557   0.178   5.143   0.276
10553SOL    HW132558   0.127   5.061   0.301
10553SOL    HW232559   0.170   5.211   0.350
10554SOL     OW32560   5.918   4.838   2.799
10554SOL    HW132561   5.996   4.784   2.766
10554SOL    HW232562   5.841   4.777   2.817
10555SOL     OW32563   3.650   2.500   0.660
10555SOL    HW132564   3.567   2.458   0.625
10555SOL    HW232565   3.638   2.599   0.662
10556SOL     OW32566   1.883   1.933   3.088
10556SOL    HW132567   1.916   1.967   3.000
10556SOL    HW232568   1.948   1.958   3.160
10557SOL     OW32569   2.230   4.185   3.787
10557SOL    HW132570   2.235   4.259   3.854
10557SOL    HW232571   2.215   4.098   3.834
10558SOL     OW32572   2.623   5.719   5.929
10558SOL    HW132573   2.565   5.749   6.005
10558SOL    HW232574   2.610   5.621   5.913
10559SOL     OW32575   4.224   6.750   5.990
10559SOL    HW132576   4.221   6.652   6.008
10559SOL    HW232577   4.136   6.791   6.013
10560SOL     OW32578   5.113   6.260   2.021
10560SOL    HW132579   5.187   6.240   1.956
10560SOL    HW232580   5.128   6.349   2.062
10561SOL     OW32581   6.114   4.459   0.433
10561SOL    HW132582   6.076   4.465   0.526
10561SOL    HW232583   6.106   4.548   0.388
10562SOL     OW32584   3.342   6.210   2.188
10562SOL    HW132585   3.244   6.229   2.195
10562SOL    HW232586   3.368   6.203   2.092
10563SOL     OW32587   0.278   0.573   0.792
10563SOL    HW132588   0.359   0.614   0.835
10563SOL    HW232589   0.212   0.645   0.770
10564SOL     OW32590   5.667   5.473   4.044
10564SOL    HW132591   5.752   5.453   3.997
10564SOL    HW232592   5.684   5.478   4.143
10565SOL     OW32593   0.284   6.857   5.417
10565SOL    HW132594   0.281   6.947   5.375
10565SOL    HW232595   0.200   6.842   5.470
10566SOL     OW32596   2.758   2.991   0.084
10566SOL    HW132597   2.749   2.925   0.159
10566SOL    HW232598   2.853   2.993   0.053
10567SOL     OW32599   0.845   2.360   6.313
10567SOL    HW132600   0.900   2.444   6.319
10567SOL    HW232601   0.750   2.385   6.295
10568SOL     OW32602   5.255   2.450   5.701
10568SOL    HW132603   5.163   2.484   5.682
10568SOL    HW232604   5.318   2.527   5.711
10569SOL     OW32605   5.500   6.628   1.231
10569SOL    HW132606   5.403   6.601   1.233
10569SOL    HW232607   5.552   6.567   1.291
10570SOL     OW32608   0.753   5.029   3.686
10570SOL    HW132609   0.708   4.940   3.687
10570SOL    HW232610   0.730   5.079   3.770
10571SOL     OW32611   0.283   4.139   6.326
10571SOL    HW132612   0.323   4.097   6.244
10571SOL    HW232613   0.249   4.067   6.387
10572SOL     OW32614   6.128   4.276   1.100
10572SOL    HW132615   6.088   4.185   1.096
10572SOL    HW232616   6.079   4.332   1.167
10573SOL     OW32617   5.707   1.374   3.463
10573SOL    HW132618   5.741   1.467   3.478
10573SOL    HW232619   5.673   1.365   3.370
10574SOL     OW32620   0.449   2.198   3.688
10574SOL    HW132621   0.374   2.141   3.722
10574SOL    HW232622   0.535   2.147   3.693
10575SOL     OW32623   6.054   0.827   1.458
10575SOL    HW132624   6.149   0.837   1.431
10575SOL    HW232625   6.002   0.785   1.383
10576SOL     OW32626   2.622   4.612   4.216
10576SOL    HW132627   2.649   4.685   4.279
10576SOL    HW232628   2.667   4.626   4.128
10577SOL     OW32629   4.008   6.050   0.563
10577SOL    HW132630   4.055   5.975   0.516
10577SOL    HW232631   3.917   6.019   0.593
10578SOL     OW32632   6.867   2.925   3.928
10578SOL    HW132633   6.773   2.925   3.893
10578SOL    HW232634   6.902   2.832   3.930
10579SOL     OW32635   1.831   3.863   0.576
10579SOL    HW132636   1.829   3.960   0.601
10579SOL    HW232637   1.741   3.835   0.542
10580SOL     OW32638   6.653   6.705   6.334
10580SOL    HW132639   6.729   6.670   6.279
10580SOL    HW232640   6.579   6.736   6.274
10581SOL     OW32641   5.708   0.176   2.851
10581SOL    HW132642   5.668   0.250   2.797
10581SOL    HW232643   5.709   0.201   2.948
10582SOL     OW32644   5.560   4.142   6.884
10582SOL    HW132645   5.550   4.241   6.871
10582SOL    HW232646   5.603   4.125   6.973
10583SOL     OW32647   2.839   1.142   5.285
10583SOL    HW132648   2.779   1.071   5.249
10583SOL    HW232649   2.857   1.124   5.382
10584SOL     OW32650   0.079   0.171   5.652
10584SOL    HW132651   7.023   0.220   5.685
10584SOL    HW232652   0.144   0.237   5.614
10585SOL     OW32653   0.655   0.527   5.500
10585SOL    HW132654   0.709   0.508   5.418
10585SOL    HW232655   0.570   0.573   5.473
10586SOL     OW32656   4.261   4.687   5.343
10586SOL    HW132657   4.248   4.737   5.428
10586SOL    HW232658   4.228   4.593   5.354
10587SOL     OW32659   1.469   5.897   5.627
10587SOL    HW132660   1.480   5.931   5.533
10587SOL    HW232661   1.475   5.797   5.626
10588SOL     OW32662   1.224   5.063   4.512
10588SOL    HW132663   1.251   4.981   4.563
10588SOL    HW232664   1.124   5.073   4.516
10589SOL     OW32665   5.527   5.996   3.634
10589SOL    HW132666   5.469   5.918   3.658
10589SOL    HW232667   5.492   6.039   3.551
10590SOL     OW32668   0.595   5.452   2.855
10590SOL    HW132669   0.669   5.397   2.895
10590SOL    HW232670   0.565   5.520   2.922
10591SOL     OW32671   1.387   1.896   1.759
10591SOL    HW132672   1.370   1.871   1.855
10591SOL    HW232673   1.422   1.989   1.755
10592SOL     OW32674   6.031   2.239   5.336
10592SOL    HW132675   5.988   2.159   5.378
10592SOL    HW232676   6.051   2.220   5.240
10593SOL     OW32677   3.009   6.158   1.999
10593SOL    HW132678   2.915   6.153   1.966
10593SOL    HW232679   3.064   6.212   1.936
10594SOL     OW32680   3.127   0.172   3.880
10594SOL    HW132681   3.043   0.118   3.884
10594SOL    HW232682   3.206   0.114   3.902
10595SOL     OW32683   6.077   6.888   0.787
10595SOL    HW132684   6.049   6.816   0.851
10595SOL    HW232685   6.175   6.880   0.769
10596SOL     OW32686   5.010   2.213   6.665
10596SOL    HW132687   4.934   2.182   6.722
10596SOL    HW232688   5.089   2.234   6.722
10597SOL     OW32689   2.527   0.825   6.084
10597SOL    HW132690   2.544   0.741   6.032
10597SOL    HW232691   2.438   0.862   6.059
10598SOL     OW32692   2.467   1.881   6.030
10598SOL    HW132693   2.563   1.858   6.013
10598SOL    HW232694   2.463   1.959   6.094
10599SOL     OW32695   6.672   3.274   6.038
10599SOL    HW132696   6.748   3.318   6.087
10599SOL    HW232697   6.703   3.188   5.998
10600SOL     OW32698   3.058   1.773   1.394
10600SOL    HW132699   3.009   1.714   1.330
10600SOL    HW232700   3.028   1.754   1.487
10601SOL     OW32701   0.250   6.006   5.706
10601SOL    HW132702   0.316   6.081   5.704
10601SOL    HW232703   0.162   6.039   5.741
10602SOL     OW32704   0.285   0.414   1.030
10602SOL    HW132705   0.210   0.350   1.045
10602SOL    HW232706   0.284   0.446   0.936
10603SOL     OW32707   4.892   0.111   2.043
10603SOL    HW132708   4.943   0.106   1.957
10603SOL    HW232709   4.934   0.051   2.110
10604SOL     OW32710   5.849   6.811   4.427
10604SOL    HW132711   5.894   6.723   4.441
10604SOL    HW232712   5.917   6.880   4.402
10605SOL     OW32713   2.370   1.702   1.257
10605SOL    HW132714   2.361   1.796   1.291
10605SOL    HW232715   2.392   1.641   1.333
10606SOL     OW32716   6.431   0.811   1.005
10606SOL    HW132717   6.337   0.818   0.971
10606SOL    HW232718   6.457   0.715   1.012
10607SOL     OW32719   3.779   3.985   6.431
10607SOL    HW132720   3.813   3.943   6.515
10607SOL    HW232721   3.763   3.914   6.362
10608SOL     OW32722   6.049   3.362   3.127
10608SOL    HW132723   6.132   3.344   3.075
10608SOL    HW232724   5.969   3.348   3.068
10609SOL     OW32725   4.416   1.548   6.742
10609SOL    HW132726   4.440   1.454   6.718
10609SOL    HW232727   4.333   1.575   6.694
10610SOL     OW32728   1.149   1.192   4.198
10610SOL    HW132729   1.243   1.189   4.163
10610SOL    HW232730   1.085   1.175   4.122
10611SOL     OW32731   3.365   5.330   4.894
10611SOL    HW132732   3.318   5.417   4.910
10611SOL    HW232733   3.461   5.339   4.919
10612SOL     OW32734   5.937   1.611   3.449
10612SOL    HW132735   6.020   1.557   3.464
10612SOL    HW232736   5.893   1.581   3.365
10613SOL     OW32737   5.852   0.248   4.101
10613SOL    HW132738   5.797   0.327   4.128
10613SOL    HW232739   5.815   0.209   4.017
10614SOL     OW32740   4.668   0.622   6.181
10614SOL    HW132741   4.679   0.673   6.266
10614SOL    HW232742   4.756   0.587   6.151
10615SOL     OW32743   1.803   2.020   6.228
10615SOL    HW132744   1.737   2.087   6.262
10615SOL    HW232745   1.875   2.008   6.296
10616SOL     OW32746   2.642   6.502   6.759
10616SOL    HW132747   2.638   6.601   6.749
10616SOL    HW232748   2.637   6.478   6.856
10617SOL     OW32749   2.816   3.386   1.415
10617SOL    HW132750   2.868   3.338   1.343
10617SOL    HW232751   2.817   3.484   1.397
10618SOL     OW32752   0.507   5.273   5.339
10618SOL    HW132753   0.591   5.290   5.389
10618SOL    HW232754   0.515   5.310   5.247
10619SOL     OW32755   1.163   2.239   3.248
10619SOL    HW132756   1.119   2.320   3.209
10619SOL    HW232757   1.128   2.223   3.340
10620SOL     OW32758   2.561   0.494   0.078
10620SOL    HW132759   2.528   0.575   0.030
10620SOL    HW232760   2.659   0.483   0.063
10621SOL     OW32761   0.992   3.759   3.283
10621SOL    HW132762   1.057   3.775   3.357
10621SOL    HW232763   1.016   3.674   3.235
10622SOL     OW32764   4.589   3.132   0.375
10622SOL    HW132765   4.623   3.213   0.326
10622SOL    HW232766   4.533   3.161   0.453
10623SOL     OW32767   5.435   6.407   6.556
10623SOL    HW132768   5.422   6.456   6.642
10623SOL    HW232769   5.505   6.453   6.502
10624SOL     OW32770   0.328   2.380   5.256
10624SOL    HW132771   0.374   2.415   5.338
10624SOL    HW232772   0.387   2.312   5.212
10625SOL     OW32773   6.480   4.741   6.686
10625SOL    HW132774   6.413   4.778   6.622
10625SOL    HW232775   6.567   4.790   6.676
10626SOL     OW32776   5.039   3.475   1.163
10626SOL    HW132777   5.017   3.470   1.065
10626SOL    HW232778   5.134   3.503   1.175
10627SOL     OW32779   5.323   6.172   6.135
10627SOL    HW132780   5.396   6.170   6.067
10627SOL    HW232781   5.296   6.079   6.158
10628SOL     OW32782   4.776   0.525   1.186
10628SOL    HW132783   4.741   0.602   1.132
10628SOL    HW232784   4.747   0.535   1.281
10629SOL     OW32785   2.971   5.241   4.569
10629SOL    HW132786   2.898   5.196   4.518
10629SOL    HW232787   2.952   5.234   4.667
10630SOL     OW32788   4.298   0.091   2.819
10630SOL    HW132789   4.209   0.054   2.791
10630SOL    HW232790   4.288   0.187   2.846
10631SOL     OW32791   4.406   6.043   6.700
10631SOL    HW132792   4.427   6.091   6.615
10631SOL    HW232793   4.360   5.957   6.679
10632SOL     OW32794   4.771   5.487   3.194
10632SOL    HW132795   4.783   5.483   3.293
10632SOL    HW232796   4.829   5.559   3.156
10633SOL     OW32797   1.936   2.943   1.594
10633SOL    HW132798   1.871   3.015   1.619
10633SOL    HW232799   2.015   2.984   1.549
10634SOL     OW32800   0.134   4.197   6.863
10634SOL    HW132801   0.152   4.247   6.948
10634SOL    HW232802   0.098   4.259   6.794
10635SOL     OW32803   2.602   3.942   6.914
10635SOL    HW132804   2.578   4.010   6.983
10635SOL    HW232805   2.578   3.851   6.947
10636SOL     OW32806   6.794   2.368   6.329
10636SOL    HW132807   6.779   2.467   6.336
10636SOL    HW232808   6.830   2.333   6.415
10637SOL     OW32809   2.922   0.227   0.291
10637SOL    HW132810   2.935   0.157   0.362
10637SOL    HW232811   2.905   0.316   0.335
10638SOL     OW32812   0.110   4.998   1.970
10638SOL    HW132813   0.045   5.058   2.017
10638SOL    HW232814   0.078   4.904   1.974
10639SOL     OW32815   2.111   4.328   1.234
10639SOL    HW132816   2.077   4.235   1.234
10639SOL    HW232817   2.055   4.384   1.296
10640SOL     OW32818   4.098   6.872   3.176
10640SOL    HW132819   4.141   6.946   3.227
10640SOL    HW232820   4.168   6.819   3.128
10641SOL     OW32821   0.854   6.938   3.764
10641SOL    HW132822   0.793   6.895   3.697
10641SOL    HW232823   0.861   0.011   3.744
10642SOL     OW32824   5.155   2.201   6.375
10642SOL    HW132825   5.202   2.287   6.393
10642SOL    HW232826   5.075   2.194   6.435
10643SOL     OW32827   1.674   5.147   5.953
10643SOL    HW132828   1.765   5.107   5.940
10643SOL    HW232829   1.673   5.199   6.039
10644SOL     OW32830   0.709   2.432   2.864
10644SOL    HW132831   0.800   2.405   2.894
10644SOL    HW232832   0.661   2.478   2.938
10645SOL     OW32833   2.322   2.817   3.611
10645SOL    HW132834   2.395   2.758   3.577
10645SOL    HW232835   2.329   2.823   3.711
10646SOL     OW32836   5.228   1.294   3.926
10646SOL    HW132837   5.323   1.264   3.935
10646SOL    HW232838   5.182   1.285   4.014
10647SOL     OW32839   3.867   5.300   4.807
10647SOL    HW132840   3.934   5.279   4.736
10647SOL    HW232841   3.777   5.265   4.780
10648SOL     OW32842   5.808   5.646   4.947
10648SOL    HW132843   5.809   5.742   4.920
10648SOL    HW232844   5.849   5.637   5.038
10649SOL     OW32845   0.098   3.585   3.086
10649SOL    HW132846   0.091   3.676   3.045
10649SOL    HW232847   0.089   3.593   3.185
10650SOL     OW32848   6.965   0.810   4.280
10650SOL    HW132849   7.004   0.743   4.218
10650SOL    HW232850   6.876   0.840   4.247
10651SOL     OW32851   4.177   5.854   5.699
10651SOL    HW132852   4.106   5.785   5.687
10651SOL    HW232853   4.264   5.820   5.663
10652SOL     OW32854   1.875   6.848   6.884
10652SOL    HW132855   1.830   6.883   6.966
10652SOL    HW232856   1.945   6.913   6.854
10653SOL     OW32857   3.730   6.092   4.411
10653SOL    HW132858   3.668   6.116   4.337
10653SOL    HW232859   3.825   6.111   4.384
10654SOL     OW32860   5.634   1.332   4.773
10654SOL    HW132861   5.589   1.386   4.702
10654SOL    HW232862   5.708   1.279   4.732
10655SOL     OW32863   1.312   4.591   1.509
10655SOL    HW132864   1.317   4.688   1.530
10655SOL    HW232865   1.323   4.577   1.411
10656SOL     OW32866   6.509   1.379   1.605
10656SOL    HW132867   6.434   1.388   1.671
10656SOL    HW232868   6.592   1.349   1.653
10657SOL     OW32869   5.755   0.648   3.833
10657SOL    HW132870   5.784   0.672   3.741
10657SOL    HW232871   5.668   0.693   3.854
10658SOL     OW32872   6.545   3.876   5.070
10658SOL    HW132873   6.610   3.929   5.016
10658SOL    HW232874   6.548   3.908   5.165
10659SOL     OW32875   1.155   5.118   1.428
10659SOL    HW132876   1.179   5.034   1.380
10659SOL    HW232877   1.056   5.124   1.438
10660SOL     OW32878   6.871   3.414   5.263
10660SOL    HW132879   6.831   3.338   5.213
10660SOL    HW232880   6.852   3.500   5.214
10661SOL     OW32881   1.658   3.966   6.891
10661SOL    HW132882   1.639   4.036   6.961
10661SOL    HW232883   1.618   3.879   6.919
10662SOL     OW32884   2.559   1.280   3.297
10662SOL    HW132885   2.643   1.228   3.313
10662SOL    HW232886   2.581   1.366   3.251
10663SOL     OW32887   1.719   1.474   4.143
10663SOL    HW132888   1.682   1.390   4.104
10663SOL    HW232889   1.818   1.476   4.131
10664SOL     OW32890   1.224   5.222   4.269
10664SOL    HW132891   1.217   5.166   4.352
10664SOL    HW232892   1.214   5.318   4.293
10665SOL     OW32893   1.843   2.735   6.179
10665SOL    HW132894   1.769   2.685   6.134
10665SOL    HW232895   1.886   2.797   6.114
10666SOL     OW32896   3.762   3.513   2.243
10666SOL    HW132897   3.714   3.508   2.155
10666SOL    HW232898   3.860   3.525   2.227
10667SOL     OW32899   5.748   1.981   2.821
10667SOL    HW132900   5.732   1.926   2.904
10667SOL    HW232901   5.698   2.068   2.829
10668SOL     OW32902   3.276   2.167   5.285
10668SOL    HW132903   3.289   2.103   5.209
10668SOL    HW232904   3.230   2.249   5.252
10669SOL     OW32905   5.437   1.082   1.057
10669SOL    HW132906   5.511   1.148   1.050
10669SOL    HW232907   5.378   1.106   1.134
10670SOL     OW32908   5.321   3.813   4.082
10670SOL    HW132909   5.327   3.907   4.116
10670SOL    HW232910   5.261   3.811   4.002
10671SOL     OW32911   1.037   1.904   4.097
10671SOL    HW132912   0.959   1.888   4.158
10671SOL    HW232913   1.005   1.906   4.003
10672SOL     OW32914   6.092   3.643   1.857
10672SOL    HW132915   6.077   3.686   1.768
10672SOL    HW232916   6.036   3.561   1.866
10673SOL     OW32917   1.639   0.950   1.239
10673SOL    HW132918   1.705   0.967   1.166
10673SOL    HW232919   1.687   0.933   1.324
10674SOL     OW32920   3.952   3.083   4.681
10674SOL    HW132921   3.890   3.040   4.748
10674SOL    HW232922   4.017   3.141   4.729
10675SOL     OW32923   3.909   6.983   5.692
10675SOL    HW132924   3.872   0.007   5.771
10675SOL    HW232925   3.935   0.023   5.621
10676SOL     OW32926   1.454   6.212   5.467
10676SOL    HW132927   1.525   6.244   5.530
10676SOL    HW232928   1.393   6.288   5.444
10677SOL     OW32929   0.607   1.933   0.470
10677SOL    HW132930   0.525   1.991   0.465
10677SOL    HW232931   0.613   1.894   0.562
10678SOL     OW32932   4.150   5.296   3.766
10678SOL    HW132933   4.108   5.383   3.740
10678SOL    HW232934   4.237   5.313   3.812
10679SOL     OW32935   4.640   4.380   0.196
10679SOL    HW132936   4.739   4.390   0.197
10679SOL    HW232937   4.615   4.288   0.225
10680SOL     OW32938   3.678   1.722   3.980
10680SOL    HW132939   3.635   1.792   3.923
10680SOL    HW232940   3.614   1.647   3.995
10681SOL     OW32941   6.592   3.261   6.314
10681SOL    HW132942   6.611   3.296   6.223
10681SOL    HW232943   6.507   3.208   6.313
10682SOL     OW32944   6.167   3.063   5.217
10682SOL    HW132945   6.164   2.972   5.259
10682SOL    HW232946   6.223   3.059   5.134
10683SOL     OW32947   3.846   0.418   3.328
10683SOL    HW132948   3.884   0.327   3.309
10683SOL    HW232949   3.747   0.411   3.339
10684SOL     OW32950   5.324   4.650   1.001
10684SOL    HW132951   5.329   4.723   1.068
10684SOL    HW232952   5.316   4.689   0.909
10685SOL     OW32953   0.406   5.035   2.041
10685SOL    HW132954   0.328   5.096   2.028
10685SOL    HW232955   0.486   5.073   1.995
10686SOL     OW32956   2.213   4.197   0.319
10686SOL    HW132957   2.176   4.207   0.227
10686SOL    HW232958   2.226   4.100   0.339
10687SOL     OW32959   6.556   4.438   3.134
10687SOL    HW132960   6.640   4.493   3.138
10687SOL    HW232961   6.522   4.435   3.040
10688SOL     OW32962   5.645   1.219   2.145
10688SOL    HW132963   5.696   1.265   2.072
10688SOL    HW232964   5.654   1.120   2.134
10689SOL     OW32965   0.287   0.037   1.963
10689SOL    HW132966   0.243   0.113   1.914
10689SOL    HW232967   0.228   0.007   2.038
10690SOL     OW32968   6.519   6.056   3.447
10690SOL    HW132969   6.483   6.106   3.368
10690SOL    HW232970   6.443   6.030   3.507
10691SOL     OW32971   3.192   1.854   2.066
10691SOL    HW132972   3.184   1.928   2.000
10691SOL    HW232973   3.234   1.888   2.150
10692SOL     OW32974   2.683   0.746   5.019
10692SOL    HW132975   2.588   0.736   4.991
10692SOL    HW232976   2.742   0.745   4.938
10693SOL     OW32977   0.692   5.749   1.398
10693SOL    HW132978   0.745   5.822   1.356
10693SOL    HW232979   0.731   5.660   1.373
10694SOL     OW32980   4.673   5.994   5.916
10694SOL    HW132981   4.685   5.972   5.819
10694SOL    HW232982   4.687   5.911   5.971
10695SOL     OW32983   0.970   3.339   0.984
10695SOL    HW132984   1.014   3.415   0.935
10695SOL    HW232985   1.019   3.322   1.069
10696SOL     OW32986   6.637   4.257   4.982
10696SOL    HW132987   6.552   4.244   4.931
10696SOL    HW232988   6.675   4.168   5.007
10697SOL     OW32989   0.747   5.934   4.961
10697SOL    HW132990   0.719   5.848   4.920
10697SOL    HW232991   0.788   5.993   4.891
10698SOL     OW32992   4.877   4.351   6.792
10698SOL    HW132993   4.842   4.427   6.847
10698SOL    HW232994   4.800   4.295   6.761
10699SOL     OW32995   3.795   4.287   0.894
10699SOL    HW132996   3.774   4.367   0.837
10699SOL    HW232997   3.773   4.308   0.989
10700SOL     OW32998   5.747   6.888   0.342
10700SOL    HW132999   5.734   6.801   0.295
10700SOL    HW233000   5.758   6.872   0.440
10701SOL     OW33001   2.647   7.007   6.312
10701SOL    HW133002   2.690   6.924   6.348
10701SOL    HW233003   2.609   0.035   6.388
10702SOL     OW33004   5.072   3.043   2.580
10702SOL    HW133005   4.994   3.039   2.517
10702SOL    HW233006   5.056   3.112   2.650
10703SOL     OW33007   2.256   2.388   5.708
10703SOL    HW133008   2.306   2.467   5.672
10703SOL    HW233009   2.313   2.339   5.774
10704SOL     OW33010   6.814   5.395   2.338
10704SOL    HW133011   6.760   5.469   2.378
10704SOL    HW233012   6.825   5.321   2.405
10705SOL     OW33013   5.842   4.750   1.047
10705SOL    HW133014   5.837   4.743   1.146
10705SOL    HW233015   5.768   4.696   1.006
10706SOL     OW33016   4.413   0.055   1.938
10706SOL    HW133017   4.410   0.100   1.849
10706SOL    HW233018   4.504   0.064   1.977
10707SOL     OW33019   6.427   6.906   4.436
10707SOL    HW133020   6.375   6.961   4.501
10707SOL    HW233021   6.448   6.960   4.355
10708SOL     OW33022   5.015   1.620   2.402
10708SOL    HW133023   5.072   1.600   2.482
10708SOL    HW233024   5.066   1.600   2.319
10709SOL     OW33025   5.608   5.599   3.789
10709SOL    HW133026   5.572   5.597   3.882
10709SOL    HW233027   5.649   5.510   3.767
10710SOL     OW33028   5.507   0.680   3.287
10710SOL    HW133029   5.506   0.653   3.191
10710SOL    HW233030   5.599   0.711   3.312
10711SOL     OW33031   2.439   6.862   3.694
10711SOL    HW133032   2.406   6.835   3.784
10711SOL    HW233033   2.421   6.789   3.628
10712SOL     OW33034   4.315   0.351   2.902
10712SOL    HW133035   4.361   0.390   2.982
10712SOL    HW233036   4.356   0.389   2.819
10713SOL     OW33037   1.454   2.757   0.354
10713SOL    HW133038   1.372   2.802   0.320
10713SOL    HW233039   1.489   2.806   0.434
10714SOL     OW33040   4.202   3.092   5.349
10714SOL    HW133041   4.172   3.035   5.426
10714SOL    HW233042   4.167   3.185   5.361
10715SOL     OW33043   4.895   0.354   2.327
10715SOL    HW133044   4.803   0.384   2.352
10715SOL    HW233045   4.911   0.373   2.230
10716SOL     OW33046   6.724   2.647   3.045
10716SOL    HW133047   6.666   2.711   2.995
10716SOL    HW233048   6.710   2.555   3.010
10717SOL     OW33049   1.775   3.068   0.803
10717SOL    HW133050   1.814   2.977   0.788
10717SOL    HW233051   1.711   3.090   0.729
10718SOL     OW33052   1.330   4.479   6.438
10718SOL    HW133053   1.343   4.434   6.349
10718SOL    HW233054   1.308   4.411   6.507
10719SOL     OW33055   5.836   5.922   3.391
10719SOL    HW133056   5.852   5.848   3.457
10719SOL    HW233057   5.742   5.916   3.357
10720SOL     OW33058   5.523   5.207   4.233
10720SOL    HW133059   5.543   5.297   4.271
10720SOL    HW233060   5.560   5.202   4.140
10721SOL     OW33061   5.117   4.073   5.267
10721SOL    HW133062   5.049   4.145   5.250
10721SOL    HW233063   5.181   4.069   5.191
10722SOL     OW33064   6.104   4.232   6.937
10722SOL    HW133065   6.074   4.310   6.881
10722SOL    HW233066   6.086   4.147   6.888
10723SOL     OW33067   6.880   1.934   6.282
10723SOL    HW133068   6.970   1.937   6.239
10723SOL    HW233069   6.823   2.007   6.246
10724SOL     OW33070   0.137   6.649   6.408
10724SOL    HW133071   0.185   6.658   6.321
10724SOL    HW233072   0.174   6.571   6.459
10725SOL     OW33073   2.177   5.856   5.496
10725SOL    HW133074   2.268   5.874   5.458
10725SOL    HW233075   2.107   5.899   5.438
10726SOL     OW33076   4.261   0.500   4.219
10726SOL    HW133077   4.212   0.431   4.272
10726SOL    HW233078   4.358   0.496   4.241
10727SOL     OW33079   0.791   5.130   6.618
10727SOL    HW133080   0.870   5.185   6.646
10727SOL    HW233081   0.815   5.074   6.538
10728SOL     OW33082   1.050   4.934   0.085
10728SOL    HW133083   1.025   4.972   7.021
10728SOL    HW233084   0.969   4.932   0.144
10729SOL     OW33085   6.258   1.473   2.093
10729SOL    HW133086   6.244   1.484   2.192
10729SOL    HW233087   6.346   1.513   2.068
10730SOL     OW33088   3.299   6.910   0.560
10730SOL    HW133089   3.202   6.914   0.583
10730SOL    HW233090   3.342   6.835   0.609
10731SOL     OW33091   3.673   0.909   0.918
10731SOL    HW133092   3.716   0.986   0.965
10731SOL    HW233093   3.738   0.832   0.914
10732SOL     OW33094   0.631   4.594   5.718
10732SOL    HW133095   0.650   4.508   5.765
10732SOL    HW233096   0.592   4.659   5.783
10733SOL     OW33097   6.418   1.222   6.824
10733SOL    HW133098   6.369   1.230   6.911
10733SOL    HW233099   6.411   1.129   6.790
10734SOL     OW33100   1.607   1.644   0.809
10734SOL    HW133101   1.594   1.740   0.835
10734SOL    HW233102   1.567   1.628   0.719
10735SOL     OW33103   0.126   2.837   2.463
10735SOL    HW133104   0.202   2.855   2.525
10735SOL    HW233105   0.135   2.745   2.426
10736SOL     OW33106   2.057   0.221   3.394
10736SOL    HW133107   2.012   0.308   3.376
10736SOL    HW233108   2.039   0.157   3.319
10737SOL     OW33109   0.941   1.674   1.031
10737SOL    HW133110   0.937   1.594   1.091
10737SOL    HW233111   1.025   1.670   0.977
10738SOL     OW33112   3.153   6.097   2.658
10738SOL    HW133113   3.244   6.064   2.685
10738SOL    HW233114   3.160   6.189   2.621
10739SOL     OW33115   1.764   1.842   1.186
10739SOL    HW133116   1.809   1.928   1.206
10739SOL    HW233117   1.771   1.781   1.265
10740SOL     OW33118   6.597   4.907   5.983
10740SOL    HW133119   6.650   4.830   5.948
10740SOL    HW233120   6.508   4.874   6.013
10741SOL     OW33121   4.082   0.630   1.509
10741SOL    HW133122   4.050   0.722   1.487
10741SOL    HW233123   4.182   0.629   1.515
10742SOL     OW33124   6.375   6.944   0.786
10742SOL    HW133125   6.404   0.009   0.818
10742SOL    HW233126   6.431   6.874   0.829
10743SOL     OW33127   1.620   1.788   5.498
10743SOL    HW133128   1.544   1.723   5.499
10743SOL    HW233129   1.704   1.739   5.474
10744SOL     OW33130   3.687   1.791   0.489
10744SOL    HW133131   3.637   1.778   0.575
10744SOL    HW233132   3.657   1.876   0.447
10745SOL     OW33133   6.972   5.252   5.918
10745SOL    HW133134   6.947   5.283   6.010
10745SOL    HW233135   6.974   5.331   5.857
10746SOL     OW33136   1.035   3.903   0.247
10746SOL    HW133137   1.040   3.851   0.332
10746SOL    HW233138   1.087   3.855   0.176
10747SOL     OW33139   3.494   0.799   5.127
10747SOL    HW133140   3.471   0.713   5.173
10747SOL    HW233141   3.507   0.781   5.029
10748SOL     OW33142   5.412   0.384   1.511
10748SOL    HW133143   5.411   0.294   1.467
10748SOL    HW233144   5.442   0.452   1.445
10749SOL     OW33145   0.294   6.122   4.575
10749SOL    HW133146   0.299   6.026   4.547
10749SOL    HW233147   0.299   6.180   4.494
10750SOL     OW33148   3.687   6.743   4.927
10750SOL    HW133149   3.703   6.703   5.017
10750SOL    HW233150   3.774   6.755   4.879
10751SOL     OW33151   2.000   4.409   3.979
10751SOL    HW133152   1.942   4.482   4.016
10751SOL    HW233153   1.943   4.342   3.932
10752SOL     OW33154   6.199   4.619   5.419
10752SOL    HW133155   6.133   4.623   5.344
10752SOL    HW233156   6.246   4.531   5.417
10753SOL     OW33157   6.934   4.315   4.187
10753SOL    HW133158   7.003   4.291   4.117
10753SOL    HW233159   6.968   4.391   4.241
10754SOL     OW33160   0.875   0.013   3.298
10754SOL    HW133161   0.911   6.946   3.284
10754SOL    HW233162   0.829   0.018   3.386
10755SOL     OW33163   6.933   0.478   0.905
10755SOL    HW133164   7.013   0.419   0.898
10755SOL    HW233165   6.961   0.570   0.930
10756SOL     OW33166   6.584   5.393   5.825
10756SOL    HW133167   6.601   5.295   5.829
10756SOL    HW233168   6.500   5.414   5.876
10757SOL     OW33169   2.419   2.337   0.238
10757SOL    HW133170   2.511   2.308   0.267
10757SOL    HW233171   2.389   2.414   0.294
10758SOL     OW33172   0.757   6.087   4.042
10758SOL    HW133173   0.669   6.040   4.051
10758SOL    HW233174   0.829   6.019   4.030
10759SOL     OW33175   1.536   3.584   0.710
10759SOL    HW133176   1.618   3.531   0.730
10759SOL    HW233177   1.563   3.675   0.678
10760SOL     OW33178   5.669   0.943   3.427
10760SOL    HW133179   5.648   0.997   3.346
10760SOL    HW233180   5.710   1.002   3.497
10761SOL     OW33181   0.672   5.646   5.665
10761SOL    HW133182   0.608   5.619   5.593
10761SOL    HW233183   0.677   5.746   5.669
10762SOL     OW33184   2.957   1.076   4.995
10762SOL    HW133185   2.992   0.987   4.966
10762SOL    HW233186   2.857   1.072   5.000
10763SOL     OW33187   4.131   6.711   2.771
10763SOL    HW133188   4.097   6.625   2.807
10763SOL    HW233189   4.066   6.785   2.792
10764SOL     OW33190   5.539   2.182   5.093
10764SOL    HW133191   5.564   2.275   5.064
10764SOL    HW233192   5.451   2.157   5.053
10765SOL     OW33193   4.912   2.713   1.042
10765SOL    HW133194   4.841   2.687   1.107
10765SOL    HW233195   4.921   2.813   1.040
10766SOL     OW33196   4.068   4.714   0.737
10766SOL    HW133197   4.049   4.802   0.694
10766SOL    HW233198   4.004   4.645   0.702
10767SOL     OW33199   2.649   0.295   1.398
10767SOL    HW133200   2.549   0.298   1.400
10767SOL    HW233201   2.685   0.305   1.491
10768SOL     OW33202   5.637   5.298   1.526
10768SOL    HW133203   5.632   5.220   1.464
10768SOL    HW233204   5.671   5.379   1.477
10769SOL     OW33205   1.869   3.604   5.835
10769SOL    HW133206   1.925   3.553   5.769
10769SOL    HW233207   1.789   3.641   5.788
10770SOL     OW33208   4.925   6.558   3.677
10770SOL    HW133209   4.903   6.481   3.737
10770SOL    HW233210   4.841   6.591   3.633
10771SOL     OW33211   3.817   0.241   3.594
10771SOL    HW133212   3.885   0.286   3.652
10771SOL    HW233213   3.731   0.292   3.599
10772SOL     OW33214   5.948   6.243   4.861
10772SOL    HW133215   5.928   6.158   4.910
10772SOL    HW233216   5.890   6.316   4.897
10773SOL     OW33217   5.776   4.834   6.274
10773SOL    HW133218   5.790   4.877   6.185
10773SOL    HW233219   5.680   4.808   6.283
10774SOL     OW33220   1.988   1.279   4.998
10774SOL    HW133221   1.987   1.242   5.091
10774SOL    HW233222   1.948   1.212   4.935
10775SOL     OW33223   0.346   4.706   2.310
10775SOL    HW133224   0.431   4.749   2.280
10775SOL    HW233225   0.314   4.750   2.394
10776SOL     OW33226   0.977   0.881   6.605
10776SOL    HW133227   0.999   0.979   6.602
10776SOL    HW233228   0.880   0.868   6.585
10777SOL     OW33229   3.725   5.399   1.001
10777SOL    HW133230   3.760   5.491   0.986
10777SOL    HW233231   3.640   5.387   0.950
10778SOL     OW33232   4.907   0.294   4.235
10778SOL    HW133233   4.813   0.263   4.220
10778SOL    HW233234   4.939   0.341   4.153
10779SOL     OW33235   6.033   2.875   3.087
10779SOL    HW133236   6.076   2.951   3.135
10779SOL    HW233237   6.078   2.862   2.999
10780SOL     OW33238   1.478   0.812   4.233
10780SOL    HW133239   1.533   0.730   4.246
10780SOL    HW233240   1.539   0.890   4.217
10781SOL     OW33241   3.768   1.234   3.314
10781SOL    HW133242   3.784   1.305   3.383
10781SOL    HW233243   3.675   1.199   3.323
10782SOL     OW33244   6.984   0.848   3.512
10782SOL    HW133245   0.007   0.762   3.492
10782SOL    HW233246   6.946   0.885   3.427
10783SOL     OW33247   0.473   2.798   3.086
10783SOL    HW133248   0.425   2.859   3.150
10783SOL    HW233249   0.556   2.843   3.054
10784SOL     OW33250   3.261   0.865   4.066
10784SOL    HW133251   3.166   0.895   4.070
10784SOL    HW233252   3.311   0.900   4.145
10785SOL     OW33253   0.959   3.863   0.674
10785SOL    HW133254   1.026   3.919   0.723
10785SOL    HW233255   1.003   3.822   0.594
10786SOL     OW33256   5.953   5.240   2.541
10786SOL    HW133257   5.915   5.326   2.507
10786SOL    HW233258   5.892   5.165   2.516
10787SOL     OW33259   0.632   0.422   5.768
10787SOL    HW133260   0.727   0.390   5.764
10787SOL    HW233261   0.608   0.464   5.680
10788SOL     OW33262   0.923   3.640   0.907
10788SOL    HW133263   0.856   3.664   0.977
10788SOL    HW233264   0.905   3.692   0.824
10789SOL     OW33265   6.436   2.950   6.564
10789SOL    HW133266   6.465   2.864   6.522
10789SOL    HW233267   6.479   2.960   6.653
10790SOL     OW33268   0.895   6.595   1.647
10790SOL    HW133269   0.892   6.695   1.641
10790SOL    HW233270   0.878   6.555   1.557
10791SOL     OW33271   6.869   5.873   2.374
10791SOL    HW133272   6.836   5.847   2.283
10791SOL    HW233273   6.795   5.859   2.441
10792SOL     OW33274   3.057   3.051   5.199
10792SOL    HW133275   3.114   3.132   5.203
10792SOL    HW233276   3.029   3.025   5.292
10793SOL     OW33277   5.990   4.004   5.824
10793SOL    HW133278   6.090   3.998   5.827
10793SOL    HW233279   5.957   3.971   5.736
10794SOL     OW33280   4.094   3.742   4.336
10794SOL    HW133281   4.158   3.683   4.386
10794SOL    HW233282   4.129   3.758   4.244
10795SOL     OW33283   0.371   5.282   2.977
10795SOL    HW133284   0.380   5.376   3.010
10795SOL    HW233285   0.390   5.278   2.879
10796SOL     OW33286   6.543   6.990   5.378
10796SOL    HW133287   6.527   0.045   5.435
10796SOL    HW233288   6.472   6.922   5.395
10797SOL     OW33289   3.812   3.005   1.462
10797SOL    HW133290   3.793   3.009   1.363
10797SOL    HW233291   3.825   2.910   1.489
10798SOL     OW33292   2.382   1.422   0.416
10798SOL    HW133293   2.468   1.395   0.370
10798SOL    HW233294   2.370   1.367   0.499
10799SOL     OW33295   4.354   0.747   2.443
10799SOL    HW133296   4.441   0.797   2.452
10799SOL    HW233297   4.367   0.669   2.381
10800SOL     OW33298   0.882   6.373   6.194
10800SOL    HW133299   0.851   6.468   6.190
10800SOL    HW233300   0.896   6.338   6.101
10801SOL     OW33301   0.775   6.792   0.576
10801SOL    HW133302   0.850   6.772   0.514
10801SOL    HW233303   0.808   6.855   0.647
10802SOL     OW33304   0.171   6.778   2.689
10802SOL    HW133305   0.120   6.709   2.637
10802SOL    HW233306   0.247   6.736   2.737
10803SOL     OW33307   1.753   5.698   6.276
10803SOL    HW133308   1.691   5.681   6.353
10803SOL    HW233309   1.704   5.748   6.205
10804SOL     OW33310   6.961   2.733   3.177
10804SOL    HW133311   7.010   2.658   3.133
10804SOL    HW233312   6.866   2.736   3.144
10805SOL     OW33313   5.796   0.657   5.606
10805SOL    HW133314   5.767   0.734   5.549
10805SOL    HW233315   5.775   0.571   5.559
10806SOL     OW33316   3.662   4.981   6.756
10806SOL    HW133317   3.596   4.910   6.776
10806SOL    HW233318   3.727   4.949   6.687
10807SOL     OW33319   1.125   5.607   3.957
10807SOL    HW133320   1.142   5.590   4.054
10807SOL    HW233321   1.127   5.705   3.939
10808SOL     OW33322   0.470   2.922   6.370
10808SOL    HW133323   0.565   2.932   6.343
10808SOL    HW233324   0.462   2.928   6.469
10809SOL     OW33325   1.590   4.346   4.142
10809SOL    HW133326   1.600   4.443   4.119
10809SOL    HW233327   1.667   4.316   4.198
10810SOL     OW33328   6.857   0.254   3.718
10810SOL    HW133329   6.770   0.213   3.690
10810SOL    HW233330   6.880   0.330   3.657
10811SOL     OW33331   4.660   5.020   4.756
10811SOL    HW133332   4.655   5.015   4.656
10811SOL    HW233333   4.568   5.024   4.794
10812SOL     OW33334   6.896   3.513   6.504
10812SOL    HW133335   6.913   3.526   6.406
10812SOL    HW233336   6.897   3.416   6.526
10813SOL     OW33337   0.583   3.359   6.016
10813SOL    HW133338   0.598   3.261   6.002
10813SOL    HW233339   0.638   3.390   6.094
10814SOL     OW33340   2.287   0.041   0.484
10814SOL    HW133341   2.385   0.056   0.473
10814SOL    HW233342   2.244   0.122   0.523
10815SOL     OW33343   5.256   1.860   3.191
10815SOL    HW133344   5.175   1.829   3.141
10815SOL    HW233345   5.331   1.876   3.128
10816SOL     OW33346   3.229   3.103   2.741
10816SOL    HW133347   3.322   3.140   2.738
10816SOL    HW233348   3.217   3.047   2.823
10817SOL     OW33349   3.040   0.499   3.476
10817SOL    HW133350   3.100   0.462   3.546
10817SOL    HW233351   3.090   0.507   3.390
10818SOL     OW33352   4.569   4.993   5.682
10818SOL    HW133353   4.545   4.904   5.645
10818SOL    HW233354   4.608   5.051   5.610
10819SOL     OW33355   5.805   5.510   6.134
10819SOL    HW133356   5.870   5.474   6.068
10819SOL    HW233357   5.854   5.558   6.207
10820SOL     OW33358   0.079   5.470   4.716
10820SOL    HW133359   0.098   5.373   4.730
10820SOL    HW233360   0.154   5.511   4.664
10821SOL     OW33361   4.219   6.120   3.106
10821SOL    HW133362   4.142   6.151   3.162
10821SOL    HW233363   4.202   6.143   3.010
10822SOL     OW33364   5.544   1.964   0.994
10822SOL    HW133365   5.624   1.963   0.934
10822SOL    HW233366   5.558   1.899   1.069
10823SOL     OW33367   0.444   0.464   3.777
10823SOL    HW133368   0.379   0.533   3.809
10823SOL    HW233369   0.537   0.501   3.780
10824SOL     OW33370   1.051   1.627   2.637
10824SOL    HW133371   1.022   1.669   2.551
10824SOL    HW233372   1.023   1.685   2.713
10825SOL     OW33373   1.326   2.177   0.577
10825SOL    HW133374   1.336   2.114   0.655
10825SOL    HW233375   1.230   2.197   0.563
10826SOL     OW33376   1.026   2.344   2.571
10826SOL    HW133377   0.933   2.342   2.535
10826SOL    HW233378   1.085   2.290   2.511
10827SOL     OW33379   6.588   2.834   4.910
10827SOL    HW133380   6.676   2.880   4.919
10827SOL    HW233381   6.554   2.846   4.817
10828SOL     OW33382   6.783   3.917   6.991
10828SOL    HW133383   6.782   3.819   7.013
10828SOL    HW233384   6.748   3.930   6.898
10829SOL     OW33385   4.530   3.909   0.162
10829SOL    HW133386   4.617   3.863   0.146
10829SOL    HW233387   4.473   3.852   0.221
10830SOL     OW33388   4.747   1.428   3.685
10830SOL    HW133389   4.799   1.482   3.751
10830SOL    HW233390   4.770   1.331   3.695
10831SOL     OW33391   3.963   0.421   2.079
10831SOL    HW133392   4.015   0.412   1.994
10831SOL    HW233393   4.024   0.417   2.157
10832SOL     OW33394   6.813   3.237   6.495
10832SOL    HW133395   6.733   3.245   6.435
10832SOL    HW233396   6.870   3.161   6.464
10833SOL     OW33397   0.345   2.691   0.946
10833SOL    HW133398   0.295   2.619   0.993
10833SOL    HW233399   0.331   2.683   0.847
10834SOL     OW33400   6.167   1.021   0.918
10834SOL    HW133401   6.197   1.037   1.012
10834SOL    HW233402   6.195   0.930   0.889
10835SOL     OW33403   4.984   3.437   0.183
10835SOL    HW133404   5.018   3.355   0.136
10835SOL    HW233405   5.005   3.518   0.128
10836SOL     OW33406   1.262   0.712   2.652
10836SOL    HW133407   1.219   0.639   2.599
10836SOL    HW233408   1.283   0.789   2.591
10837SOL     OW33409   6.080   4.560   2.046
10837SOL    HW133410   6.115   4.641   1.997
10837SOL    HW233411   6.067   4.486   1.980
10838SOL     OW33412   5.621   6.458   3.668
10838SOL    HW133413   5.654   6.523   3.735
10838SOL    HW233414   5.536   6.492   3.627
10839SOL     OW33415   4.798   3.453   0.650
10839SOL    HW133416   4.790   3.360   0.685
10839SOL    HW233417   4.874   3.458   0.585
10840SOL     OW33418   3.689   0.756   2.115
10840SOL    HW133419   3.699   0.664   2.078
10840SOL    HW233420   3.771   0.781   2.165
10841SOL     OW33421   6.365   4.960   4.798
10841SOL    HW133422   6.419   5.036   4.761
10841SOL    HW233423   6.403   4.933   4.886
10842SOL     OW33424   4.271   2.867   1.700
10842SOL    HW133425   4.252   2.772   1.674
10842SOL    HW233426   4.185   2.917   1.706
10843SOL     OW33427   2.079   1.692   0.806
10843SOL    HW133428   1.993   1.694   0.755
10843SOL    HW233429   2.060   1.682   0.903
10844SOL     OW33430   0.095   5.592   4.416
10844SOL    HW133431   0.008   5.589   4.366
10844SOL    HW233432   0.106   5.682   4.458
10845SOL     OW33433   4.564   5.921   4.709
10845SOL    HW133434   4.580   5.907   4.611
10845SOL    HW233435   4.651   5.928   4.756
10846SOL     OW33436   5.831   6.464   6.889
10846SOL    HW133437   5.839   6.427   6.982
10846SOL    HW233438   5.908   6.431   6.834
10847SOL     OW33439   2.425   1.713   0.110
10847SOL    HW133440   2.364   1.689   0.186
10847SOL    HW233441   2.518   1.683   0.133
10848SOL     OW33442   0.801   4.002   1.395
10848SOL    HW133443   0.804   4.092   1.437
10848SOL    HW233444   0.709   3.983   1.361
10849SOL     OW33445   3.109   4.906   4.672
10849SOL    HW133446   3.157   4.895   4.585
10849SOL    HW233447   3.011   4.916   4.655
10850SOL     OW33448   3.741   6.118   6.893
10850SOL    HW133449   3.671   6.120   6.821
10850SOL    HW233450   3.820   6.067   6.861
10851SOL     OW33451   2.923   4.136   1.501
10851SOL    HW133452   2.944   4.153   1.598
10851SOL    HW233453   2.917   4.223   1.453
10852SOL     OW33454   2.249   1.633   0.311
10852SOL    HW133455   2.166   1.602   0.264
10852SOL    HW233456   2.282   1.561   0.373
10853SOL     OW33457   2.458   3.339   6.141
10853SOL    HW133458   2.439   3.283   6.060
10853SOL    HW233459   2.547   3.313   6.179
10854SOL     OW33460   4.639   5.332   5.343
10854SOL    HW133461   4.611   5.425   5.369
10854SOL    HW233462   4.608   5.313   5.250
10855SOL     OW33463   3.913   0.740   0.659
10855SOL    HW133464   3.825   0.782   0.681
10855SOL    HW233465   3.985   0.781   0.714
10856SOL     OW33466   6.998   0.603   6.500
10856SOL    HW133467   6.992   0.572   6.594
10856SOL    HW233468   0.049   0.557   6.454
10857SOL     OW33469   0.256   1.635   2.516
10857SOL    HW133470   0.232   1.700   2.589
10857SOL    HW233471   0.273   1.684   2.431
10858SOL     OW33472   1.775   6.480   1.345
10858SOL    HW133473   1.709   6.532   1.399
10858SOL    HW233474   1.839   6.434   1.407
10859SOL     OW33475   6.725   4.697   4.559
10859SOL    HW133476   6.626   4.690   4.552
10859SOL    HW233477   6.754   4.791   4.542
10860SOL     OW33478   6.916   3.889   3.616
10860SOL    HW133479   6.940   3.982   3.588
10860SOL    HW233480   6.993   3.848   3.666
10861SOL     OW33481   3.073   3.540   3.482
10861SOL    HW133482   3.149   3.571   3.539
10861SOL    HW233483   3.038   3.453   3.517
10862SOL     OW33484   2.298   0.888   5.875
10862SOL    HW133485   2.219   0.950   5.872
10862SOL    HW233486   2.286   0.816   5.807
10863SOL     OW33487   2.151   0.194   4.517
10863SOL    HW133488   2.151   0.097   4.540
10863SOL    HW233489   2.181   0.248   4.595
10864SOL     OW33490   2.994   6.317   1.651
10864SOL    HW133491   3.021   6.388   1.716
10864SOL    HW233492   2.895   6.312   1.647
10865SOL     OW33493   6.263   1.327   0.044
10865SOL    HW133494   6.345   1.347   0.097
10865SOL    HW233495   6.236   1.408   7.016
10866SOL     OW33496   5.206   4.777   0.268
10866SOL    HW133497   5.244   4.863   0.233
10866SOL    HW233498   5.128   4.750   0.212
10867SOL     OW33499   3.003   4.397   0.753
10867SOL    HW133500   3.069   4.325   0.777
10867SOL    HW233501   3.044   4.487   0.768
10868SOL     OW33502   5.143   1.695   3.653
10868SOL    HW133503   5.186   1.671   3.566
10868SOL    HW233504   5.190   1.646   3.727
10869NA      NA33505   6.354   2.414   5.547
10870NA      NA33506   4.409   4.705   5.154
10871NA      NA33507   1.616   3.480   1.480
10872NA      NA33508   5.052   3.851   5.325
10873NA      NA33509   4.242   2.207   5.034
10874NA      NA33510   3.716   4.671   1.636
10875NA      NA33511   6.569   5.436   5.598
10876NA      NA33512   3.492   3.375   4.601
10877NA      NA33513   4.722   6.371   6.790
10878NA      NA33514   3.397   6.537   5.597
10879NA      NA33515   6.381   5.063   2.659
10880NA      NA33516   2.410   0.483   3.806
10881NA      NA33517   3.842   5.265   1.175
10882NA      NA33518   3.629   3.496   2.420
   7.02497   7.02497   7.02497
