Generated by trjconv : CNT in water t= 375.00000
33518
    1C        C    1   2.837   2.764   4.746
    1C        C    2   2.895   2.717   4.866
    1C        C    3   2.844   2.774   4.983
    1C        C    4   2.847   2.774   4.261
    1C        C    5   2.901   2.723   4.381
    1C        C    6   2.849   2.772   4.503
    1C        C    7   3.012   2.640   4.625
    1C        C    8   2.894   2.717   4.625
    1C        C    9   3.075   2.605   4.746
    1C        C   10   3.010   2.634   4.868
    1C        C   11   3.182   2.491   4.976
    1C        C   12   3.062   2.563   4.976
    1C        C   13   2.857   2.775   3.770
    1C        C   14   2.906   2.728   3.894
    1C        C   15   2.850   2.775   4.015
    1C        C   16   3.017   2.647   4.136
    1C        C   17   2.903   2.731   4.138
    1C        C   18   3.078   2.610   4.259
    1C        C   19   3.013   2.637   4.381
    1C        C   20   3.206   2.558   4.503
    1C        C   21   3.071   2.597   4.504
    1C        C   22   3.275   2.528   4.623
    1C        C   23   3.206   2.549   4.745
    1C        C   24   3.411   2.479   4.866
    1C        C   25   3.269   2.502   4.864
    1C        C   26   3.488   2.480   4.983
    1C        C   27   2.848   2.768   3.283
    1C        C   28   2.905   2.723   3.404
    1C        C   29   2.852   2.772   3.525
    1C        C   30   3.017   2.638   3.648
    1C        C   31   2.907   2.726   3.647
    1C        C   32   3.079   2.606   3.771
    1C        C   33   3.021   2.646   3.893
    1C        C   34   3.209   2.551   4.014
    1C        C   35   3.079   2.607   4.016
    1C        C   36   3.273   2.528   4.138
    1C        C   37   3.207   2.553   4.260
    1C        C   38   3.414   2.508   4.381
    1C        C   39   3.276   2.538   4.382
    1C        C   40   3.486   2.499   4.503
    1C        C   41   3.413   2.498   4.623
    1C        C   42   3.626   2.479   4.742
    1C        C   43   3.484   2.479   4.744
    1C        C   44   3.702   2.483   4.861
    1C        C   45   3.627   2.479   4.979
    1C        C   46   2.841   2.755   2.789
    1C        C   47   2.892   2.708   2.912
    1C        C   48   2.847   2.761   3.035
    1C        C   49   3.012   2.636   3.160
    1C        C   50   2.899   2.720   3.160
    1C        C   51   3.077   2.600   3.280
    1C        C   52   3.016   2.635   3.402
    1C        C   53   3.204   2.540   3.526
    1C        C   54   3.074   2.595   3.525
    1C        C   55   3.271   2.518   3.648
    1C        C   56   3.205   2.543   3.771
    1C        C   57   3.414   2.499   3.891
    1C        C   58   3.275   2.522   3.892
    1C        C   59   3.484   2.493   4.014
    1C        C   60   3.412   2.502   4.136
    1C        C   61   3.623   2.497   4.254
    1C        C   62   3.482   2.497   4.258
    1C        C   63   3.695   2.509   4.375
    1C        C   64   3.627   2.502   4.498
    1C        C   65   3.832   2.539   4.620
    1C        C   66   3.696   2.503   4.622
    1C        C   67   3.903   2.557   4.741
    1C        C   68   3.838   2.519   4.860
    1C        C   69   4.047   2.581   4.972
    1C        C   70   3.922   2.518   4.973
    1C        C   71   2.823   2.732   2.308
    1C        C   72   2.882   2.688   2.429
    1C        C   73   2.832   2.745   2.548
    1C        C   74   3.002   2.614   2.673
    1C        C   75   2.889   2.699   2.669
    1C        C   76   3.066   2.585   2.795
    1C        C   77   3.009   2.628   2.917
    1C        C   78   3.204   2.543   3.034
    1C        C   79   3.073   2.595   3.039
    1C        C   80   3.270   2.520   3.156
    1C        C   81   3.206   2.542   3.280
    1C        C   82   3.409   2.489   3.402
    1C        C   83   3.271   2.518   3.404
    1C        C   84   3.480   2.486   3.524
    1C        C   85   3.411   2.495   3.647
    1C        C   86   3.624   2.496   3.765
    1C        C   87   3.483   2.491   3.768
    1C        C   88   3.691   2.506   3.888
    1C        C   89   3.625   2.498   4.013
    1C        C   90   3.834   2.543   4.134
    1C        C   91   3.697   2.506   4.134
    1C        C   92   3.900   2.571   4.256
    1C        C   93   3.833   2.540   4.376
    1C        C   94   4.026   2.629   4.497
    1C        C   95   3.900   2.564   4.498
    1C        C   96   4.087   2.670   4.618
    1C        C   97   4.028   2.626   4.738
    1C        C   98   4.189   2.762   4.861
    1C        C   99   4.100   2.650   4.859
    1C        C  100   4.205   2.842   4.975
    1C        C  101   2.819   2.726   2.069
    1C        C  102   2.989   2.591   2.189
    1C        C  103   2.876   2.679   2.188
    1C        C  104   3.062   2.570   2.309
    1C        C  105   2.998   2.607   2.429
    1C        C  106   3.196   2.530   2.548
    1C        C  107   3.064   2.580   2.551
    1C        C  108   3.262   2.508   2.671
    1C        C  109   3.197   2.530   2.794
    1C        C  110   3.410   2.490   2.911
    1C        C  111   3.271   2.514   2.913
    1C        C  112   3.480   2.493   3.034
    1C        C  113   3.410   2.496   3.156
    1C        C  114   3.620   2.491   3.277
    1C        C  115   3.478   2.490   3.279
    1C        C  116   3.691   2.505   3.398
    1C        C  117   3.621   2.497   3.521
    1C        C  118   3.830   2.541   3.643
    1C        C  119   3.694   2.505   3.642
    1C        C  120   3.893   2.568   3.767
    1C        C  121   3.827   2.546   3.890
    1C        C  122   4.024   2.630   4.008
    1C        C  123   3.897   2.569   4.011
    1C        C  124   4.086   2.668   4.130
    1C        C  125   4.027   2.634   4.254
    1C        C  126   4.191   2.765   4.375
    1C        C  127   4.087   2.669   4.376
    1C        C  128   4.235   2.822   4.496
    1C        C  129   4.191   2.766   4.618
    1C        C  130   4.322   2.934   4.738
    1C        C  131   4.241   2.817   4.740
    1C        C  132   4.347   3.004   4.857
    1C        C  133   4.277   2.961   4.971
    1C        C  134   3.172   2.471   2.078
    1C        C  135   3.037   2.508   2.082
    1C        C  136   3.256   2.469   2.190
    1C        C  137   3.190   2.508   2.308
    1C        C  138   3.403   2.476   2.426
    1C        C  139   3.264   2.497   2.428
    1C        C  140   3.475   2.477   2.548
    1C        C  141   3.402   2.486   2.668
    1C        C  142   3.618   2.490   2.788
    1C        C  143   3.478   2.480   2.787
    1C        C  144   3.692   2.497   2.909
    1C        C  145   3.622   2.488   3.031
    1C        C  146   3.825   2.542   3.153
    1C        C  147   3.690   2.500   3.155
    1C        C  148   3.892   2.565   3.275
    1C        C  149   3.828   2.541   3.399
    1C        C  150   4.022   2.626   3.521
    1C        C  151   3.897   2.561   3.520
    1C        C  152   4.078   2.672   3.643
    1C        C  153   4.017   2.636   3.765
    1C        C  154   4.184   2.769   3.885
    1C        C  155   4.079   2.675   3.886
    1C        C  156   4.235   2.818   4.008
    1C        C  157   4.193   2.760   4.130
    1C        C  158   4.333   2.920   4.250
    1C        C  159   4.244   2.811   4.252
    1C        C  160   4.370   2.983   4.371
    1C        C  161   4.325   2.930   4.494
    1C        C  162   4.434   3.113   4.614
    1C        C  163   4.359   2.994   4.615
    1C        C  164   4.464   3.182   4.733
    1C        C  165   4.425   3.121   4.855
    1C        C  166   4.516   3.317   4.971
    1C        C  167   4.469   3.186   4.971
    1C        C  168   3.471   2.426   2.071
    1C        C  169   3.396   2.450   2.187
    1C        C  170   3.615   2.468   2.304
    1C        C  171   3.473   2.460   2.304
    1C        C  172   3.688   2.485   2.423
    1C        C  173   3.616   2.478   2.545
    1C        C  174   3.823   2.536   2.663
    1C        C  175   3.687   2.497   2.665
    1C        C  176   3.891   2.560   2.784
    1C        C  177   3.826   2.541   2.908
    1C        C  178   4.020   2.625   3.030
    1C        C  179   3.893   2.563   3.031
    1C        C  180   4.082   2.660   3.152
    1C        C  181   4.021   2.624   3.274
    1C        C  182   4.191   2.747   3.397
    1C        C  183   4.082   2.657   3.397
    1C        C  184   4.243   2.799   3.518
    1C        C  185   4.191   2.757   3.642
    1C        C  186   4.336   2.914   3.762
    1C        C  187   4.243   2.808   3.763
    1C        C  188   4.377   2.974   3.884
    1C        C  189   4.331   2.921   4.007
    1C        C  190   4.443   3.102   4.128
    1C        C  191   4.374   2.979   4.128
    1C        C  192   4.466   3.170   4.250
    1C        C  193   4.437   3.107   4.373
    1C        C  194   4.498   3.315   4.488
    1C        C  195   4.466   3.178   4.492
    1C        C  196   4.513   3.387   4.609
    1C        C  197   4.504   3.318   4.732
    1C        C  198   4.547   3.532   4.852
    1C        C  199   4.524   3.391   4.852
    1C        C  200   4.582   3.616   4.963
    1C        C  201   3.611   2.410   2.071
    1C        C  202   3.821   2.510   2.182
    1C        C  203   3.688   2.456   2.182
    1C        C  204   3.894   2.541   2.300
    1C        C  205   3.825   2.521   2.422
    1C        C  206   4.016   2.624   2.540
    1C        C  207   3.890   2.560   2.541
    1C        C  208   4.076   2.661   2.662
    1C        C  209   4.017   2.624   2.784
    1C        C  210   4.194   2.742   2.908
    1C        C  211   4.079   2.659   2.906
    1C        C  212   4.245   2.794   3.029
    1C        C  213   4.193   2.746   3.152
    1C        C  214   4.330   2.906   3.271
    1C        C  215   4.244   2.794   3.275
    1C        C  216   4.368   2.969   3.392
    1C        C  217   4.330   2.910   3.515
    1C        C  218   4.434   3.096   3.638
    1C        C  219   4.371   2.970   3.637
    1C        C  220   4.462   3.166   3.758
    1C        C  221   4.438   3.102   3.882
    1C        C  222   4.501   3.304   4.000
    1C        C  223   4.467   3.167   4.004
    1C        C  224   4.513   3.375   4.121
    1C        C  225   4.500   3.307   4.244
    1C        C  226   4.520   3.522   4.365
    1C        C  227   4.511   3.381   4.364
    1C        C  228   4.516   3.597   4.485
    1C        C  229   4.523   3.528   4.608
    1C        C  230   4.505   3.741   4.724
    1C        C  231   4.528   3.601   4.729
    1C        C  232   4.497   3.816   4.843
    1C        C  233   4.548   3.752   4.957
    1C        C  234   4.012   2.612   2.061
    1C        C  235   3.889   2.548   2.066
    1C        C  236   4.080   2.649   2.178
    1C        C  237   4.020   2.607   2.298
    1C        C  238   4.195   2.737   2.418
    1C        C  239   4.083   2.649   2.418
    1C        C  240   4.245   2.788   2.540
    1C        C  241   4.190   2.744   2.662
    1C        C  242   4.332   2.900   2.783
    1C        C  243   4.244   2.789   2.785
    1C        C  244   4.374   2.959   2.905
    1C        C  245   4.333   2.904   3.028
    1C        C  246   4.433   3.093   3.148
    1C        C  247   4.369   2.967   3.150
    1C        C  248   4.453   3.159   3.271
    1C        C  249   4.432   3.094   3.394
    1C        C  250   4.497   3.298   3.511
    1C        C  251   4.459   3.162   3.516
    1C        C  252   4.511   3.370   3.632
    1C        C  253   4.503   3.301   3.755
    1C        C  254   4.512   3.513   3.876
    1C        C  255   4.512   3.372   3.876
    1C        C  256   4.513   3.583   3.998
    1C        C  257   4.521   3.516   4.122
    1C        C  258   4.490   3.730   4.239
    1C        C  259   4.520   3.592   4.242
    1C        C  260   4.472   3.802   4.359
    1C        C  261   4.485   3.734   4.482
    1C        C  262   4.423   3.938   4.603
    1C        C  263   4.476   3.807   4.603
    1C        C  264   4.404   4.007   4.724
    1C        C  265   4.438   3.945   4.846
    1C        C  266   4.318   4.124   4.956
    1C        C  267   4.404   4.015   4.963
    1C        C  268   4.255   2.776   2.058
    1C        C  269   4.195   2.731   2.177
    1C        C  270   4.348   2.885   2.296
    1C        C  271   4.253   2.779   2.296
    1C        C  272   4.384   2.948   2.417
    1C        C  273   4.338   2.894   2.539
    1C        C  274   4.442   3.080   2.660
    1C        C  275   4.373   2.957   2.661
    1C        C  276   4.467   3.149   2.781
    1C        C  277   4.441   3.084   2.903
    1C        C  278   4.505   3.289   3.021
    1C        C  279   4.464   3.153   3.024
    1C        C  280   4.517   3.361   3.142
    1C        C  281   4.493   3.295   3.264
    1C        C  282   4.507   3.506   3.386
    1C        C  283   4.504   3.365   3.387
    1C        C  284   4.509   3.578   3.508
    1C        C  285   4.514   3.511   3.632
    1C        C  286   4.481   3.722   3.751
    1C        C  287   4.509   3.584   3.753
    1C        C  288   4.468   3.791   3.874
    1C        C  289   4.486   3.722   3.996
    1C        C  290   4.420   3.928   4.116
    1C        C  291   4.473   3.797   4.116
    1C        C  292   4.392   3.995   4.236
    1C        C  293   4.428   3.937   4.360
    1C        C  294   4.327   4.127   4.477
    1C        C  295   4.394   4.002   4.480
    1C        C  296   4.289   4.187   4.599
    1C        C  297   4.331   4.129   4.721
    1C        C  298   4.197   4.307   4.836
    1C        C  299   4.282   4.192   4.839
    1C        C  300   4.167   4.392   4.947
    1C        C  301   4.345   2.883   2.059
    1C        C  302   4.467   3.067   2.177
    1C        C  303   4.396   2.942   2.175
    1C        C  304   4.478   3.143   2.297
    1C        C  305   4.449   3.074   2.416
    1C        C  306   4.509   3.280   2.535
    1C        C  307   4.467   3.145   2.537
    1C        C  308   4.518   3.354   2.655
    1C        C  309   4.501   3.287   2.778
    1C        C  310   4.524   3.498   2.897
    1C        C  311   4.522   3.357   2.899
    1C        C  312   4.513   3.571   3.017
    1C        C  313   4.518   3.503   3.141
    1C        C  314   4.488   3.714   3.262
    1C        C  315   4.506   3.574   3.262
    1C        C  316   4.466   3.784   3.383
    1C        C  317   4.487   3.718   3.506
    1C        C  318   4.421   3.921   3.625
    1C        C  319   4.470   3.789   3.627
    1C        C  320   4.387   3.983   3.747
    1C        C  321   4.415   3.922   3.871
    1C        C  322   4.318   4.112   3.991
    1C        C  323   4.390   3.990   3.993
    1C        C  324   4.276   4.172   4.112
    1C        C  325   4.319   4.116   4.234
    1C        C  326   4.189   4.288   4.350
    1C        C  327   4.280   4.179   4.354
    1C        C  328   4.134   4.333   4.472
    1C        C  329   4.194   4.291   4.593
    1C        C  330   4.024   4.429   4.713
    1C        C  331   4.138   4.343   4.712
    1C        C  332   3.969   4.483   4.830
    1C        C  333   4.053   4.472   4.942
    1C        C  334   4.545   3.266   2.057
    1C        C  335   4.531   3.126   2.063
    1C        C  336   4.537   3.349   2.170
    1C        C  337   4.510   3.281   2.291
    1C        C  338   4.523   3.492   2.408
    1C        C  339   4.521   3.351   2.413
    1C        C  340   4.522   3.564   2.530
    1C        C  341   4.525   3.495   2.653
    1C        C  342   4.497   3.707   2.771
    1C        C  343   4.518   3.568   2.774
    1C        C  344   4.475   3.777   2.892
    1C        C  345   4.485   3.710   3.016
    1C        C  346   4.412   3.909   3.134
    1C        C  347   4.466   3.778   3.138
    1C        C  348   4.385   3.977   3.255
    1C        C  349   4.418   3.917   3.378
    1C        C  350   4.312   4.100   3.501
    1C        C  351   4.390   3.982   3.501
    1C        C  352   4.271   4.159   3.622
    1C        C  353   4.316   4.105   3.745
    1C        C  354   4.177   4.265   3.863
    1C        C  355   4.274   4.163   3.867
    1C        C  356   4.120   4.309   3.985
    1C        C  357   4.180   4.275   4.108
    1C        C  358   4.013   4.408   4.229
    1C        C  359   4.133   4.333   4.229
    1C        C  360   3.953   4.448   4.351
    1C        C  361   4.018   4.413   4.471
    1C        C  362   3.826   4.509   4.592
    1C        C  363   3.957   4.455   4.591
    1C        C  364   3.764   4.543   4.714
    1C        C  365   3.839   4.540   4.834
    1C        C  366   3.624   4.580   4.950
    1C        C  367   3.763   4.572   4.947
    1C        C  368   4.504   3.561   2.049
    1C        C  369   4.526   3.489   2.168
    1C        C  370   4.499   3.704   2.284
    1C        C  371   4.521   3.564   2.287
    1C        C  372   4.476   3.771   2.406
    1C        C  373   4.496   3.703   2.529
    1C        C  374   4.418   3.904   2.646
    1C        C  375   4.474   3.774   2.649
    1C        C  376   4.391   3.972   2.766
    1C        C  377   4.420   3.908   2.888
    1C        C  378   4.308   4.089   3.009
    1C        C  379   4.384   3.970   3.010
    1C        C  380   4.266   4.147   3.130
    1C        C  381   4.309   4.096   3.255
    1C        C  382   4.172   4.256   3.376
    1C        C  383   4.270   4.153   3.378
    1C        C  384   4.120   4.308   3.497
    1C        C  385   4.177   4.265   3.619
    1C        C  386   4.009   4.393   3.742
    1C        C  387   4.126   4.315   3.741
    1C        C  388   3.945   4.425   3.864
    1C        C  389   4.004   4.389   3.988
    1C        C  390   3.816   4.491   4.107
    1C        C  391   3.946   4.435   4.108
    1C        C  392   3.751   4.516   4.229
    1C        C  393   3.821   4.497   4.351
    1C        C  394   3.615   4.548   4.474
    1C        C  395   3.755   4.526   4.472
    1C        C  396   3.545   4.563   4.596
    1C        C  397   3.624   4.563   4.712
    1C        C  398   3.411   4.543   4.837
    1C        C  399   3.550   4.566   4.833
    1C        C  400   3.338   4.512   4.953
    1C        C  401   4.505   3.700   2.050
    1C        C  402   4.448   3.913   2.164
    1C        C  403   4.492   3.779   2.165
    1C        C  404   4.406   3.975   2.284
    1C        C  405   4.430   3.904   2.404
    1C        C  406   4.324   4.093   2.521
    1C        C  407   4.392   3.969   2.523
    1C        C  408   4.278   4.151   2.641
    1C        C  409   4.315   4.092   2.764
    1C        C  410   4.173   4.250   2.886
    1C        C  411   4.270   4.148   2.886
    1C        C  412   4.120   4.295   3.009
    1C        C  413   4.167   4.249   3.134
    1C        C  414   3.998   4.378   3.252
    1C        C  415   4.116   4.300   3.255
    1C        C  416   3.940   4.415   3.375
    1C        C  417   4.002   4.385   3.499
    1C        C  418   3.810   4.473   3.619
    1C        C  419   3.942   4.422   3.621
    1C        C  420   3.744   4.499   3.741
    1C        C  421   3.814   4.477   3.862
    1C        C  422   3.609   4.528   3.986
    1C        C  423   3.748   4.504   3.984
    1C        C  424   3.540   4.537   4.109
    1C        C  425   3.611   4.539   4.230
    1C        C  426   3.401   4.539   4.357
    1C        C  427   3.542   4.548   4.353
    1C        C  428   3.329   4.533   4.478
    1C        C  429   3.404   4.549   4.597
    1C        C  430   3.194   4.512   4.721
    1C        C  431   3.334   4.538   4.719
    1C        C  432   3.119   4.496   4.841
    1C        C  433   3.201   4.490   4.954
    1C        C  434   4.377   4.125   2.044
    1C        C  435   4.439   3.999   2.053
    1C        C  436   4.300   4.165   2.158
    1C        C  437   4.329   4.095   2.278
    1C        C  438   4.180   4.249   2.398
    1C        C  439   4.279   4.148   2.399
    1C        C  440   4.127   4.300   2.519
    1C        C  441   4.176   4.248   2.641
    1C        C  442   4.004   4.375   2.761
    1C        C  443   4.119   4.292   2.763
    1C        C  444   3.944   4.412   2.884
    1C        C  445   4.003   4.374   3.007
    1C        C  446   3.812   4.474   3.127
    1C        C  447   3.939   4.411   3.128
    1C        C  448   3.745   4.497   3.249
    1C        C  449   3.809   4.468   3.372
    1C        C  450   3.606   4.518   3.495
    1C        C  451   3.745   4.493   3.495
    1C        C  452   3.539   4.532   3.618
    1C        C  453   3.605   4.526   3.742
    1C        C  454   3.394   4.536   3.862
    1C        C  455   3.535   4.532   3.865
    1C        C  456   3.328   4.531   3.987
    1C        C  457   3.399   4.529   4.109
    1C        C  458   3.193   4.500   4.233
    1C        C  459   3.333   4.524   4.234
    1C        C  460   3.126   4.477   4.355
    1C        C  461   3.192   4.501   4.478
    1C        C  462   2.995   4.431   4.601
    1C        C  463   3.123   4.490   4.601
    1C        C  464   2.926   4.400   4.720
    1C        C  465   2.985   4.446   4.841
    1C        C  466   2.798   4.333   4.962
    1C        C  467   2.904   4.425   4.957
    1C        C  468   4.118   4.287   2.036
    1C        C  469   4.183   4.247   2.153
    1C        C  470   4.006   4.370   2.278
    1C        C  471   4.122   4.288   2.275
    1C        C  472   3.940   4.402   2.398
    1C        C  473   4.006   4.372   2.519
    1C        C  474   3.813   4.465   2.642
    1C        C  475   3.943   4.412   2.639
    1C        C  476   3.745   4.488   2.763
    1C        C  477   3.814   4.466   2.885
    1C        C  478   3.604   4.517   3.007
    1C        C  479   3.743   4.490   3.005
    1C        C  480   3.534   4.528   3.129
    1C        C  481   3.606   4.523   3.250
    1C        C  482   3.395   4.530   3.375
    1C        C  483   3.536   4.531   3.372
    1C        C  484   3.326   4.523   3.498
    1C        C  485   3.398   4.538   3.619
    1C        C  486   3.187   4.497   3.744
    1C        C  487   3.325   4.528   3.740
    1C        C  488   3.124   4.474   3.868
    1C        C  489   3.190   4.500   3.990
    1C        C  490   2.998   4.414   4.115
    1C        C  491   3.124   4.477   4.112
    1C        C  492   2.934   4.382   4.237
    1C        C  493   2.997   4.419   4.358
    1C        C  494   2.822   4.302   4.483
    1C        C  495   2.935   4.387   4.481
    1C        C  496   2.766   4.258   4.605
    1C        C  497   2.810   4.317   4.726
    1C        C  498   2.663   4.163   4.843
    1C        C  499   2.746   4.277   4.845
    1C        C  500   2.590   4.115   4.953
    1C        C  501   3.999   4.358   2.037
    1C        C  502   3.814   4.464   2.156
    1C        C  503   3.942   4.405   2.157
    1C        C  504   3.744   4.485   2.277
    1C        C  505   3.811   4.460   2.399
    1C        C  506   3.606   4.513   2.517
    1C        C  507   3.745   4.489   2.520
    1C        C  508   3.535   4.524   2.639
    1C        C  509   3.607   4.516   2.761
    1C        C  510   3.395   4.519   2.886
    1C        C  511   3.536   4.518   2.883
    1C        C  512   3.321   4.518   3.006
    1C        C  513   3.392   4.525   3.128
    1C        C  514   3.188   4.487   3.255
    1C        C  515   3.326   4.515   3.252
    1C        C  516   3.122   4.462   3.377
    1C        C  517   3.190   4.487   3.499
    1C        C  518   2.996   4.405   3.625
    1C        C  519   3.121   4.471   3.621
    1C        C  520   2.936   4.373   3.749
    1C        C  521   2.999   4.407   3.871
    1C        C  522   2.832   4.280   3.994
    1C        C  523   2.944   4.365   3.994
    1C        C  524   2.784   4.235   4.119
    1C        C  525   2.830   4.286   4.243
    1C        C  526   2.687   4.130   4.362
    1C        C  527   2.775   4.241   4.365
    1C        C  528   2.653   4.073   4.486
    1C        C  529   2.683   4.144   4.604
    1C        C  530   2.579   3.959   4.728
    1C        C  531   2.634   4.090   4.725
    1C        C  532   2.539   3.897   4.850
    1C        C  533   2.529   3.989   4.959
    1C        C  534   3.615   4.555   2.041
    1C        C  535   3.746   4.506   2.041
    1C        C  536   3.533   4.537   2.157
    1C        C  537   3.605   4.515   2.278
    1C        C  538   3.389   4.509   2.399
    1C        C  539   3.530   4.516   2.398
    1C        C  540   3.321   4.503   2.522
    1C        C  541   3.394   4.516   2.642
    1C        C  542   3.185   4.478   2.763
    1C        C  543   3.323   4.510   2.764
    1C        C  544   3.117   4.463   2.885
    1C        C  545   3.183   4.490   3.007
    1C        C  546   3.001   4.391   3.136
    1C        C  547   3.121   4.467   3.132
    1C        C  548   2.938   4.356   3.258
    1C        C  549   2.996   4.398   3.380
    1C        C  550   2.827   4.276   3.503
    1C        C  551   2.936   4.365   3.503
    1C        C  552   2.775   4.231   3.627
    1C        C  553   2.826   4.284   3.747
    1C        C  554   2.697   4.119   3.872
    1C        C  555   2.783   4.231   3.871
    1C        C  556   2.658   4.062   3.995
    1C        C  557   2.695   4.125   4.116
    1C        C  558   2.593   3.942   4.244
    1C        C  559   2.652   4.070   4.239
    1C        C  560   2.572   3.874   4.366
    1C        C  561   2.593   3.945   4.487
    1C        C  562   2.531   3.745   4.613
    1C        C  563   2.564   3.882   4.610
    1C        C  564   2.514   3.678   4.736
    1C        C  565   2.515   3.756   4.855
    1C        C  566   2.526   3.544   4.971
    1C        C  567   2.527   3.683   4.974
    1C        C  568   3.326   4.469   2.037
    1C        C  569   3.394   4.509   2.153
    1C        C  570   3.182   4.477   2.277
    1C        C  571   3.320   4.509   2.275
    1C        C  572   3.113   4.455   2.399
    1C        C  573   3.183   4.475   2.520
    1C        C  574   2.986   4.397   2.644
    1C        C  575   3.114   4.457   2.643
    1C        C  576   2.932   4.359   2.769
    1C        C  577   2.992   4.397   2.891
    1C        C  578   2.827   4.268   3.015
    1C        C  579   2.940   4.353   3.015
    1C        C  580   2.777   4.218   3.137
    1C        C  581   2.831   4.264   3.259
    1C        C  582   2.690   4.110   3.384
    1C        C  583   2.778   4.220   3.383
    1C        C  584   2.654   4.053   3.508
    1C        C  585   2.689   4.119   3.629
    1C        C  586   2.595   3.930   3.754
    1C        C  587   2.654   4.059   3.752
    1C        C  588   2.573   3.867   3.878
    1C        C  589   2.602   3.932   4.000
    1C        C  590   2.535   3.734   4.125
    1C        C  591   2.573   3.870   4.124
    1C        C  592   2.519   3.668   4.249
    1C        C  593   2.527   3.740   4.370
    1C        C  594   2.511   3.531   4.496
    1C        C  595   2.513   3.673   4.493
    1C        C  596   2.516   3.459   4.617
    1C        C  597   2.511   3.536   4.736
    1C        C  598   2.534   3.323   4.857
    1C        C  599   2.525   3.464   4.856
    1C        C  600   2.527   3.243   4.972
    1C        C  601   3.195   4.425   2.043
    1C        C  602   2.979   4.394   2.155
    1C        C  603   3.116   4.436   2.158
    1C        C  604   2.922   4.357   2.280
    1C        C  605   2.985   4.395   2.400
    1C        C  606   2.815   4.269   2.528
    1C        C  607   2.925   4.358   2.523
    1C        C  608   2.766   4.221   2.651
    1C        C  609   2.824   4.269   2.771
    1C        C  610   2.681   4.112   2.894
    1C        C  611   2.774   4.219   2.893
    1C        C  612   2.644   4.054   3.018
    1C        C  613   2.685   4.111   3.140
    1C        C  614   2.583   3.926   3.265
    1C        C  615   2.648   4.051   3.262
    1C        C  616   2.560   3.863   3.390
    1C        C  617   2.590   3.928   3.512
    1C        C  618   2.527   3.725   3.636
    1C        C  619   2.564   3.862   3.634
    1C        C  620   2.520   3.660   3.761
    1C        C  621   2.532   3.732   3.882
    1C        C  622   2.503   3.522   4.009
    1C        C  623   2.515   3.663   4.005
    1C        C  624   2.501   3.453   4.133
    1C        C  625   2.505   3.527   4.253
    1C        C  626   2.516   3.316   4.374
    1C        C  627   2.509   3.457   4.375
    1C        C  628   2.539   3.245   4.495
    1C        C  629   2.540   3.320   4.615
    1C        C  630   2.595   3.114   4.742
    1C        C  631   2.554   3.250   4.737
    1C        C  632   2.616   3.046   4.865
    1C        C  633   2.556   3.106   4.980
    1C        C  634   2.784   4.299   2.050
    1C        C  635   2.887   4.393   2.046
    1C        C  636   2.745   4.231   2.166
    1C        C  637   2.808   4.272   2.285
    1C        C  638   2.673   4.108   2.408
    1C        C  639   2.762   4.218   2.407
    1C        C  640   2.633   4.052   2.531
    1C        C  641   2.681   4.109   2.651
    1C        C  642   2.580   3.924   2.775
    1C        C  643   2.641   4.051   2.773
    1C        C  644   2.555   3.861   2.899
    1C        C  645   2.582   3.927   3.021
    1C        C  646   2.519   3.724   3.144
    1C        C  647   2.556   3.861   3.143
    1C        C  648   2.508   3.656   3.268
    1C        C  649   2.518   3.728   3.389
    1C        C  650   2.509   3.518   3.517
    1C        C  651   2.514   3.659   3.512
    1C        C  652   2.514   3.451   3.641
    1C        C  653   2.512   3.519   3.765
    1C        C  654   2.540   3.311   3.887
    1C        C  655   2.513   3.450   3.888
    1C        C  656   2.551   3.247   4.013
    1C        C  657   2.525   3.314   4.135
    1C        C  658   2.592   3.111   4.258
    1C        C  659   2.538   3.242   4.256
    1C        C  660   2.621   3.048   4.381
    1C        C  661   2.579   3.110   4.500
    1C        C  662   2.707   2.936   4.623
    1C        C  663   2.621   3.048   4.620
    1C        C  664   2.747   2.874   4.743
    1C        C  665   2.689   2.923   4.864
    1C        C  666   2.737   2.862   4.980
    1C        C  667   2.681   4.022   2.053
    1C        C  668   2.678   4.106   2.165
    1C        C  669   2.585   3.913   2.292
    1C        C  670   2.643   4.043   2.286
    1C        C  671   2.555   3.847   2.414
    1C        C  672   2.575   3.923   2.532
    1C        C  673   2.516   3.719   2.658
    1C        C  674   2.554   3.855   2.654
    1C        C  675   2.502   3.651   2.781
    1C        C  676   2.522   3.723   2.901
    1C        C  677   2.497   3.512   3.027
    1C        C  678   2.508   3.653   3.023
    1C        C  679   2.505   3.443   3.150
    1C        C  680   2.502   3.515   3.272
    1C        C  681   2.532   3.307   3.399
    1C        C  682   2.505   3.446   3.395
    1C        C  683   2.556   3.242   3.522
    1C        C  684   2.531   3.311   3.643
    1C        C  685   2.604   3.111   3.769
    1C        C  686   2.550   3.241   3.765
    1C        C  687   2.639   3.053   3.893
    1C        C  688   2.604   3.116   4.014
    1C        C  689   2.710   2.933   4.138
    1C        C  690   2.632   3.051   4.136
    1C        C  691   2.753   2.879   4.262
    1C        C  692   2.708   2.936   4.383
    1C        C  693   2.754   2.877   4.503
    1C        C  694   2.636   3.890   2.059
    1C        C  695   2.528   3.706   2.177
    1C        C  696   2.570   3.841   2.172
    1C        C  697   2.500   3.640   2.298
    1C        C  698   2.513   3.713   2.418
    1C        C  699   2.488   3.502   2.543
    1C        C  700   2.501   3.643   2.540
    1C        C  701   2.501   3.434   2.666
    1C        C  702   2.498   3.509   2.785
    1C        C  703   2.524   3.299   2.906
    1C        C  704   2.501   3.438   2.907
    1C        C  705   2.544   3.233   3.030
    1C        C  706   2.535   3.305   3.151
    1C        C  707   2.601   3.109   3.274
    1C        C  708   2.551   3.241   3.275
    1C        C  709   2.635   3.048   3.397
    1C        C  710   2.611   3.112   3.521
    1C        C  711   2.712   2.931   3.648
    1C        C  712   2.636   3.051   3.645
    1C        C  713   2.755   2.874   3.769
    1C        C  714   2.713   2.932   3.891
    1C        C  715   2.756   2.880   4.015
    1C        C  716   2.451   3.500   2.064
    1C        C  717   2.495   3.633   2.062
    1C        C  718   2.462   3.423   2.184
    1C        C  719   2.478   3.499   2.303
    1C        C  720   2.514   3.289   2.420
    1C        C  721   2.480   3.426   2.424
    1C        C  722   2.540   3.223   2.542
    1C        C  723   2.527   3.295   2.663
    1C        C  724   2.594   3.096   2.789
    1C        C  725   2.540   3.227   2.786
    1C        C  726   2.628   3.033   2.911
    1C        C  727   2.595   3.101   3.030
    1C        C  728   2.707   2.923   3.157
    1C        C  729   2.629   3.041   3.153
    1C        C  730   2.752   2.871   3.281
    1C        C  731   2.713   2.931   3.403
    1C        C  732   2.758   2.878   3.526
    1C        C  733   2.486   3.197   2.070
    1C        C  734   2.490   3.283   2.181
    1C        C  735   2.589   3.087   2.302
    1C        C  736   2.525   3.215   2.301
    1C        C  737   2.615   3.021   2.424
    1C        C  738   2.591   3.091   2.544
    1C        C  739   2.699   2.913   2.666
    1C        C  740   2.619   3.029   2.668
    1C        C  741   2.744   2.858   2.788
    1C        C  742   2.712   2.919   2.911
    1C        C  743   2.752   2.866   3.036
    1C        C  744   2.540   3.069   2.073
    1C        C  745   2.685   2.896   2.182
    1C        C  746   2.609   3.015   2.183
    1C        C  747   2.723   2.833   2.303
    1C        C  748   2.688   2.900   2.422
    1C        C  749   2.740   2.852   2.545
    1C        C  750   2.743   2.843   2.066
    1C        C  751   3.668   2.316   1.972
    1C        O  752   3.641   2.193   1.984
    1C        O  753   3.656   2.337   1.834
    1C        C  754   4.638   3.059   1.987
    1C        O  755   4.636   3.075   1.862
    1C        O  756   4.768   3.061   2.038
    1C        C  757   4.457   4.218   1.961
    1C        O  758   4.512   4.318   2.015
    1C        O  759   4.428   4.247   1.827
    1C        C  760   3.580   4.656   1.939
    1C        O  761   3.505   4.754   1.966
    1C        O  762   3.535   4.623   1.810
    1C        C  763   2.857   4.512   1.962
    1C        O  764   2.847   4.507   1.837
    1C        O  765   2.774   4.605   2.026
    1C        C  766   2.329   3.490   1.980
    1C        O  767   2.341   3.492   1.855
    1C        O  768   2.221   3.403   1.998
    1C        C  769   4.707   3.590   5.038
    1C        O  770   4.716   3.551   5.157
    1C        O  771   4.833   3.631   4.993
    1C        C  772   4.269   4.435   5.046
    1C        O  773   4.232   4.460   5.164
    1C        O  774   4.360   4.533   5.006
    1C        C  775   4.137   2.538   5.082
    1C        O  776   4.198   2.430   5.060
    1C        O  777   4.087   2.556   5.212
    1C        C  778   2.866   4.537   5.046
    1C        O  779   2.796   4.632   5.002
    1C        O  780   2.887   4.550   5.184
    1C        C  781   2.466   3.030   5.070
    1C        O  782   2.408   2.925   5.030
    1C        O  783   2.434   3.064   5.201
    1C        C  784   2.426   4.005   5.064
    1C        O  785   2.304   4.018   5.033
    1C        O  786   2.448   3.994   5.202
    1C        C  787   2.952   2.396   2.036
    1C        O  788   2.862   2.420   1.951
    1C        O  789   2.957   2.267   2.087
    1C        C  790   3.152   2.365   5.049
    1C        O  791   3.215   2.261   5.017
    1C        O  792   3.136   2.381   5.187
    1C        H  793   4.269   3.029   5.053
    1C        H  794   4.132   2.835   5.053
    1C        H  795   4.517   3.121   5.042
    1C        H  796   4.561   3.361   5.057
    1C        H  797   4.548   3.809   5.048
    1C        H  798   4.474   4.016   5.044
    1C        H  799   4.284   4.163   5.050
    1C        H  800   4.047   4.551   5.014
    1C        H  801   3.818   4.588   5.037
    1C        H  802   3.587   4.657   5.015
    1C        H  803   3.381   4.520   5.050
    1C        H  804   3.156   4.499   5.051
    1C        H  805   3.905   2.445   5.049
    1C        H  806   3.669   2.421   5.058
    1C        H  807   3.027   2.596   5.072
    1C        H  808   3.438   2.467   5.076
    1C        H  809   2.920   2.799   5.055
    1C        H  810   2.672   2.865   5.065
    1C        H  811   2.469   3.276   5.056
    1C        H  812   2.537   3.499   5.068
    1C        H  813   2.509   3.723   5.072
    1C        H  814   2.576   4.184   5.033
    1C        H  815   2.741   4.330   5.053
    1C        H  816   2.708   2.871   1.969
    1C        H  817   2.825   2.664   1.982
    1C        H  818   3.218   2.470   1.981
    1C        H  819   3.416   2.368   2.000
    1C        H  820   3.848   2.518   1.971
    1C        H  821   4.045   2.658   1.970
    1C        H  822   4.260   2.707   1.977
    1C        H  823   4.405   2.883   1.970
    1C        H  824   4.577   3.306   1.963
    1C        H  825   4.470   3.512   1.960
    1C        H  826   4.550   3.751   1.967
    1C        H  827   3.794   4.505   1.945
    1C        H  828   3.958   4.380   1.941
    1C        H  829   4.138   4.228   1.949
    1C        H  830   4.433   3.947   1.960
    1C        H  831   2.701   3.823   2.006
    1C        H  832   2.727   4.061   1.964
    1C        H  833   2.724   4.283   1.963
    1C        H  834   3.383   4.429   1.956
    1C        H  835   3.147   4.422   1.947
    1C        H  836   2.512   3.008   1.989
    1C        H  837   2.473   3.231   1.969
    1C        H  838   2.516   3.671   1.964
    2V3OU   H29  839   2.806   3.548   3.994
    2V3OU   C27  840   2.796   3.501   4.095
    2V3OU   H27  841   2.735   3.566   4.162
    2V3OU   H28  842   2.744   3.402   4.090
    2V3OU   O11  843   2.911   3.472   4.176
    2V3OU   C15  844   2.927   3.392   4.287
    2V3OU   C13  845   3.050   3.370   4.352
    2V3OU   C14  846   3.076   3.269   4.445
    2V3OU   C16  847   2.976   3.188   4.498
    2V3OU    H6  848   2.990   3.105   4.569
    2V3OU   C12  849   3.214   3.223   4.470
    2V3OU    O2  850   3.243   3.119   4.533
    2V3OU   C10  851   3.324   3.300   4.409
    2V3OU    C8  852   3.455   3.261   4.432
    2V3OU   O10  853   3.489   3.152   4.506
    2V3OU   H26  854   3.402   3.116   4.526
    2V3OU    C6  855   3.562   3.348   4.391
    2V3OU    C5  856   3.534   3.468   4.328
    2V3OU    C4  857   3.700   3.292   4.392
    2V3OU    H4  858   3.718   3.224   4.481
    2V3OU    H5  859   3.713   3.226   4.302
    2V3OU    C2  860   3.814   3.394   4.396
    2V3OU    O6  861   3.801   3.471   4.516
    2V3OU   H21  862   3.763   3.556   4.492
    2V3OU    C3  863   3.783   3.495   4.285
    2V3OU    H2  864   3.860   3.577   4.288
    2V3OU    H3  865   3.785   3.437   4.189
    2V3OU   C25  866   3.950   3.324   4.397
    2V3OU    O7  867   3.995   3.295   4.287
    2V3OU   C26  868   4.026   3.290   4.524
    2V3OU   H22  869   4.066   3.386   4.568
    2V3OU   H23  870   4.117   3.230   4.498
    2V3OU    O8  871   3.964   3.208   4.621
    2V3OU   H24  872   3.933   3.259   4.698
    2V3OU    C1  873   3.648   3.562   4.300
    2V3OU    H1  874   3.629   3.620   4.205
    2V3OU    O3  875   3.656   3.651   4.411
    2V3OU   C19  876   3.616   3.788   4.396
    2V3OU    H9  877   3.517   3.794   4.343
    2V3OU    O4  878   3.712   3.842   4.309
    2V3OU   C20  879   3.842   3.879   4.356
    2V3OU   H10  880   3.897   3.781   4.364
    2V3OU   C24  881   3.609   3.849   4.537
    2V3OU   H16  882   3.539   3.789   4.600
    2V3OU   H17  883   3.565   3.950   4.519
    2V3OU   C23  884   3.751   3.872   4.588
    2V3OU   H15  885   3.797   3.769   4.605
    2V3OU    N1  886   3.734   3.949   4.710
    2V3OU   H19  887   3.808   3.922   4.772
    2V3OU   H20  888   3.649   3.926   4.757
    2V3OU   C21  889   3.850   3.947   4.493
    2V3OU   H11  890   3.955   3.921   4.527
    2V3OU    O5  891   3.821   4.086   4.493
    2V3OU   H18  892   3.792   4.098   4.585
    2V3OU   C22  893   3.910   3.949   4.240
    2V3OU   H12  894   3.857   4.043   4.210
    2V3OU   H13  895   3.906   3.884   4.149
    2V3OU   H14  896   4.020   3.956   4.260
    2V3OU   C11  897   3.153   3.467   4.312
    2V3OU    O1  898   3.137   3.579   4.259
    2V3OU    C9  899   3.291   3.422   4.345
    2V3OU    C7  900   3.397   3.499   4.299
    2V3OU    O9  901   3.379   3.616   4.229
    2V3OU   H25  902   3.283   3.631   4.226
    2V3OU   C17  903   2.827   3.309   4.342
    2V3OU    H7  904   2.730   3.354   4.322
    2V3OU   C18  905   2.851   3.217   4.444
    2V3OU    H8  906   2.784   3.170   4.517
    3SOL     OW  907   3.011   4.345   5.342
    3SOL    HW1  908   2.984   4.438   5.318
    3SOL    HW2  909   3.011   4.289   5.259
    4SOL     OW  910   6.814   0.337   0.515
    4SOL    HW1  911   6.772   0.295   0.595
    4SOL    HW2  912   6.914   0.340   0.527
    5SOL     OW  913   5.013   1.187   2.161
    5SOL    HW1  914   4.977   1.273   2.125
    5SOL    HW2  915   4.938   1.123   2.177
    6SOL     OW  916   5.591   1.842   3.339
    6SOL    HW1  917   5.656   1.766   3.341
    6SOL    HW2  918   5.599   1.891   3.252
    7SOL     OW  919   1.139   4.314   5.203
    7SOL    HW1  920   1.051   4.287   5.164
    7SOL    HW2  921   1.138   4.412   5.223
    8SOL     OW  922   2.622   2.332   5.514
    8SOL    HW1  923   2.644   2.407   5.453
    8SOL    HW2  924   2.698   2.316   5.577
    9SOL     OW  925   0.020   1.516   5.913
    9SOL    HW1  926   6.977   1.583   5.872
    9SOL    HW2  927   0.114   1.543   5.894
   10SOL     OW  928   4.339   4.827   3.450
   10SOL    HW1  929   4.306   4.870   3.534
   10SOL    HW2  930   4.339   4.727   3.462
   11SOL     OW  931   1.738   0.342   0.242
   11SOL    HW1  932   1.732   0.423   0.299
   11SOL    HW2  933   1.817   0.287   0.270
   12SOL     OW  934   2.724   4.655   3.333
   12SOL    HW1  935   2.722   4.578   3.398
   12SOL    HW2  936   2.644   4.651   3.274
   13SOL     OW  937   3.827   6.041   2.750
   13SOL    HW1  938   3.877   6.121   2.716
   13SOL    HW2  939   3.865   6.013   2.838
   14SOL     OW  940   4.653   4.973   5.754
   14SOL    HW1  941   4.690   4.895   5.805
   14SOL    HW2  942   4.591   4.939   5.684
   15SOL     OW  943   0.390   5.772   6.415
   15SOL    HW1  944   0.327   5.841   6.382
   15SOL    HW2  945   0.463   5.815   6.468
   16SOL     OW  946   5.777   2.857   6.059
   16SOL    HW1  947   5.732   2.922   6.121
   16SOL    HW2  948   5.873   2.882   6.048
   17SOL     OW  949   6.416   0.087   5.854
   17SOL    HW1  950   6.344   0.032   5.894
   17SOL    HW2  951   6.435   0.166   5.913
   18SOL     OW  952   2.846   1.143   5.312
   18SOL    HW1  953   2.919   1.151   5.380
   18SOL    HW2  954   2.857   1.213   5.243
   19SOL     OW  955   1.053   2.274   2.825
   19SOL    HW1  956   1.033   2.230   2.913
   19SOL    HW2  957   1.140   2.239   2.790
   20SOL     OW  958   5.895   2.108   5.926
   20SOL    HW1  959   5.848   2.035   5.877
   20SOL    HW2  960   5.977   2.135   5.876
   21SOL     OW  961   3.429   6.221   2.853
   21SOL    HW1  962   3.421   6.273   2.769
   21SOL    HW2  963   3.508   6.254   2.905
   22SOL     OW  964   1.362   6.004   5.328
   22SOL    HW1  965   1.310   6.050   5.400
   22SOL    HW2  966   1.458   6.001   5.353
   23SOL     OW  967   4.949   5.140   2.213
   23SOL    HW1  968   4.943   5.046   2.178
   23SOL    HW2  969   4.901   5.146   2.300
   24SOL     OW  970   3.728   0.465   1.488
   24SOL    HW1  971   3.780   0.410   1.553
   24SOL    HW2  972   3.640   0.421   1.469
   25SOL     OW  973   3.214   7.012   3.794
   25SOL    HW1  974   3.278   6.991   3.867
   25SOL    HW2  975   3.121   7.015   3.830
   26SOL     OW  976   1.450   2.091   6.608
   26SOL    HW1  977   1.375   2.027   6.626
   26SOL    HW2  978   1.526   2.073   6.670
   27SOL     OW  979   0.373   1.261   2.471
   27SOL    HW1  980   0.286   1.214   2.486
   27SOL    HW2  981   0.447   1.204   2.506
   28SOL     OW  982   1.581   0.802   4.520
   28SOL    HW1  983   1.591   0.708   4.554
   28SOL    HW2  984   1.486   0.832   4.532
   29SOL     OW  985   6.383   0.964   0.806
   29SOL    HW1  986   6.295   1.001   0.776
   29SOL    HW2  987   6.457   1.020   0.769
   30SOL     OW  988   3.578   0.211   4.790
   30SOL    HW1  989   3.549   0.259   4.708
   30SOL    HW2  990   3.595   0.115   4.769
   31SOL     OW  991   0.078   2.379   5.100
   31SOL    HW1  992   0.163   2.432   5.105
   31SOL    HW2  993   0.092   2.301   5.039
   32SOL     OW  994   1.513   1.944   1.432
   32SOL    HW1  995   1.480   2.038   1.423
   32SOL    HW2  996   1.594   1.931   1.375
   33SOL     OW  997   0.591   3.756   5.491
   33SOL    HW1  998   0.597   3.847   5.451
   33SOL    HW2  999   0.537   3.759   5.575
   34SOL     OW 1000   1.363   5.203   5.048
   34SOL    HW1 1001   1.279   5.188   5.101
   34SOL    HW2 1002   1.395   5.116   5.010
   35SOL     OW 1003   3.619   2.440   6.038
   35SOL    HW1 1004   3.660   2.457   6.127
   35SOL    HW2 1005   3.665   2.362   5.994
   36SOL     OW 1006   5.260   1.365   4.110
   36SOL    HW1 1007   5.184   1.401   4.164
   36SOL    HW2 1008   5.329   1.328   4.172
   37SOL     OW 1009   2.410   1.308   2.978
   37SOL    HW1 1010   2.333   1.361   3.015
   37SOL    HW2 1011   2.480   1.370   2.944
   38SOL     OW 1012   2.017   5.048   2.082
   38SOL    HW1 1013   2.081   5.058   2.158
   38SOL    HW2 1014   1.931   5.095   2.104
   39SOL     OW 1015   6.359   4.567   6.751
   39SOL    HW1 1016   6.408   4.482   6.729
   39SOL    HW2 1017   6.318   4.604   6.668
   40SOL     OW 1018   3.656   0.686   6.103
   40SOL    HW1 1019   3.663   0.785   6.088
   40SOL    HW2 1020   3.561   0.663   6.127
   41SOL     OW 1021   5.538   3.962   2.242
   41SOL    HW1 1022   5.549   3.884   2.180
   41SOL    HW2 1023   5.609   3.959   2.312
   42SOL     OW 1024   3.034   5.929   4.866
   42SOL    HW1 1025   3.001   6.019   4.837
   42SOL    HW2 1026   3.006   5.911   4.960
   43SOL     OW 1027   3.985   6.346   4.711
   43SOL    HW1 1028   3.946   6.434   4.687
   43SOL    HW2 1029   4.085   6.351   4.705
   44SOL     OW 1030   6.311   3.205   5.212
   44SOL    HW1 1031   6.375   3.162   5.149
   44SOL    HW2 1032   6.290   3.298   5.180
   45SOL     OW 1033   4.500   5.680   1.250
   45SOL    HW1 1034   4.406   5.707   1.271
   45SOL    HW2 1035   4.563   5.724   1.313
   46SOL     OW 1036   0.639   3.083   4.263
   46SOL    HW1 1037   0.638   3.146   4.185
   46SOL    HW2 1038   0.552   3.034   4.268
   47SOL     OW 1039   5.248   3.786   2.106
   47SOL    HW1 1040   5.233   3.854   2.035
   47SOL    HW2 1041   5.253   3.695   2.066
   48SOL     OW 1042   0.394   3.065   6.461
   48SOL    HW1 1043   0.453   2.985   6.469
   48SOL    HW2 1044   0.394   3.115   6.547
   49SOL     OW 1045   4.995   2.706   0.531
   49SOL    HW1 1046   5.072   2.708   0.468
   49SOL    HW2 1047   4.947   2.794   0.529
   50SOL     OW 1048   6.190   2.002   5.755
   50SOL    HW1 1049   6.153   2.095   5.766
   50SOL    HW2 1050   6.284   1.999   5.788
   51SOL     OW 1051   2.411   4.781   2.514
   51SOL    HW1 1052   2.405   4.855   2.447
   51SOL    HW2 1053   2.505   4.774   2.548
   52SOL     OW 1054   5.497   2.728   1.603
   52SOL    HW1 1055   5.434   2.707   1.528
   52SOL    HW2 1056   5.551   2.646   1.625
   53SOL     OW 1057   5.137   0.009   3.323
   53SOL    HW1 1058   5.212   0.053   3.372
   53SOL    HW2 1059   5.060   7.016   3.386
   54SOL     OW 1060   5.653   6.214   0.448
   54SOL    HW1 1061   5.625   6.297   0.400
   54SOL    HW2 1062   5.591   6.197   0.525
   55SOL     OW 1063   2.381   2.790   6.546
   55SOL    HW1 1064   2.415   2.851   6.617
   55SOL    HW2 1065   2.292   2.823   6.513
   56SOL     OW 1066   1.479   1.977   0.599
   56SOL    HW1 1067   1.418   2.052   0.624
   56SOL    HW2 1068   1.477   1.964   0.500
   57SOL     OW 1069   3.398   0.552   6.706
   57SOL    HW1 1070   3.427   0.458   6.721
   57SOL    HW2 1071   3.386   0.598   6.794
   58SOL     OW 1072   0.568   0.742   6.379
   58SOL    HW1 1073   0.602   0.758   6.471
   58SOL    HW2 1074   0.559   0.644   6.362
   59SOL     OW 1075   6.363   3.817   6.402
   59SOL    HW1 1076   6.283   3.770   6.366
   59SOL    HW2 1077   6.445   3.786   6.354
   60SOL     OW 1078   6.069   0.922   3.450
   60SOL    HW1 1079   6.105   0.961   3.366
   60SOL    HW2 1080   6.096   0.826   3.457
   61SOL     OW 1081   0.724   1.149   4.281
   61SOL    HW1 1082   0.648   1.205   4.247
   61SOL    HW2 1083   0.749   1.179   4.374
   62SOL     OW 1084   1.186   1.512   1.728
   62SOL    HW1 1085   1.093   1.535   1.702
   62SOL    HW2 1086   1.184   1.446   1.803
   63SOL     OW 1087   4.068   6.888   4.125
   63SOL    HW1 1088   4.022   6.918   4.209
   63SOL    HW2 1089   4.125   6.809   4.145
   64SOL     OW 1090   1.133   3.337   6.648
   64SOL    HW1 1091   1.205   3.378   6.592
   64SOL    HW2 1092   1.153   3.353   6.744
   65SOL     OW 1093   0.423   0.420   5.239
   65SOL    HW1 1094   0.466   0.400   5.151
   65SOL    HW2 1095   0.489   0.465   5.299
   66SOL     OW 1096   3.608   0.058   2.660
   66SOL    HW1 1097   3.528   0.117   2.643
   66SOL    HW2 1098   3.612   0.034   2.757
   67SOL     OW 1099   0.102   2.489   0.300
   67SOL    HW1 1100   0.092   2.431   0.219
   67SOL    HW2 1101   0.153   2.571   0.277
   68SOL     OW 1102   0.273   1.448   5.607
   68SOL    HW1 1103   0.268   1.426   5.705
   68SOL    HW2 1104   0.338   1.523   5.594
   69SOL     OW 1105   1.217   4.855   6.369
   69SOL    HW1 1106   1.232   4.948   6.401
   69SOL    HW2 1107   1.216   4.853   6.269
   70SOL     OW 1108   5.309   3.881   5.064
   70SOL    HW1 1109   5.283   3.965   5.110
   70SOL    HW2 1110   5.399   3.852   5.095
   71SOL     OW 1111   4.701   1.852   4.597
   71SOL    HW1 1112   4.786   1.849   4.650
   71SOL    HW2 1113   4.657   1.941   4.610
   72SOL     OW 1114   0.464   0.820   3.011
   72SOL    HW1 1115   0.545   0.782   3.056
   72SOL    HW2 1116   0.474   0.920   3.005
   73SOL     OW 1117   2.729   0.877   0.327
   73SOL    HW1 1118   2.662   0.806   0.345
   73SOL    HW2 1119   2.804   0.839   0.272
   74SOL     OW 1120   2.161   1.588   6.235
   74SOL    HW1 1121   2.116   1.615   6.320
   74SOL    HW2 1122   2.136   1.494   6.212
   75SOL     OW 1123   4.532   1.420   0.967
   75SOL    HW1 1124   4.627   1.448   0.977
   75SOL    HW2 1125   4.517   1.333   1.014
   76SOL     OW 1126   2.596   4.518   5.908
   76SOL    HW1 1127   2.563   4.586   5.973
   76SOL    HW2 1128   2.695   4.524   5.900
   77SOL     OW 1129   1.771   5.516   4.319
   77SOL    HW1 1130   1.871   5.520   4.313
   77SOL    HW2 1131   1.734   5.609   4.322
   78SOL     OW 1132   4.250   1.826   1.245
   78SOL    HW1 1133   4.205   1.899   1.194
   78SOL    HW2 1134   4.182   1.761   1.278
   79SOL     OW 1135   2.439   5.309   1.746
   79SOL    HW1 1136   2.398   5.278   1.832
   79SOL    HW2 1137   2.414   5.246   1.673
   80SOL     OW 1138   4.643   2.308   4.999
   80SOL    HW1 1139   4.687   2.219   4.986
   80SOL    HW2 1140   4.549   2.304   4.964
   81SOL     OW 1141   1.647   0.278   1.014
   81SOL    HW1 1142   1.719   0.347   1.004
   81SOL    HW2 1143   1.589   0.279   0.933
   82SOL     OW 1144   0.709   6.156   2.656
   82SOL    HW1 1145   0.638   6.202   2.709
   82SOL    HW2 1146   0.706   6.189   2.561
   83SOL     OW 1147   6.668   2.178   5.634
   83SOL    HW1 1148   6.741   2.110   5.641
   83SOL    HW2 1149   6.708   2.270   5.633
   84SOL     OW 1150   5.916   2.786   3.667
   84SOL    HW1 1151   5.938   2.772   3.763
   84SOL    HW2 1152   5.943   2.878   3.639
   85SOL     OW 1153   1.851   6.966   3.879
   85SOL    HW1 1154   1.874   0.020   3.943
   85SOL    HW2 1155   1.823   7.006   3.792
   86SOL     OW 1156   5.769   1.379   6.639
   86SOL    HW1 1157   5.804   1.340   6.724
   86SOL    HW2 1158   5.764   1.308   6.569
   87SOL     OW 1159   4.072   4.610   6.961
   87SOL    HW1 1160   4.147   4.617   0.007
   87SOL    HW2 1161   4.104   4.636   6.870
   88SOL     OW 1162   3.023   2.184   5.422
   88SOL    HW1 1163   3.049   2.258   5.484
   88SOL    HW2 1164   2.966   2.222   5.348
   89SOL     OW 1165   2.826   3.425   1.853
   89SOL    HW1 1166   2.730   3.405   1.836
   89SOL    HW2 1167   2.839   3.524   1.857
   90SOL     OW 1168   4.734   4.156   3.365
   90SOL    HW1 1169   4.681   4.088   3.313
   90SOL    HW2 1170   4.779   4.111   3.442
   91SOL     OW 1171   6.556   5.964   5.866
   91SOL    HW1 1172   6.533   6.057   5.894
   91SOL    HW2 1173   6.479   5.925   5.815
   92SOL     OW 1174   5.015   4.118   0.363
   92SOL    HW1 1175   4.949   4.173   0.414
   92SOL    HW2 1176   5.075   4.070   0.428
   93SOL     OW 1177   3.006   3.008   0.679
   93SOL    HW1 1178   2.976   2.992   0.773
   93SOL    HW2 1179   2.926   3.005   0.617
   94SOL     OW 1180   2.694   0.332   6.396
   94SOL    HW1 1181   2.736   0.380   6.319
   94SOL    HW2 1182   2.613   0.382   6.426
   95SOL     OW 1183   0.737   0.443   4.511
   95SOL    HW1 1184   0.642   0.464   4.536
   95SOL    HW2 1185   0.798   0.471   4.585
   96SOL     OW 1186   4.895   5.304   0.114
   96SOL    HW1 1187   4.967   5.237   0.126
   96SOL    HW2 1188   4.915   5.361   0.034
   97SOL     OW 1189   2.127   4.817   5.462
   97SOL    HW1 1190   2.120   4.734   5.517
   97SOL    HW2 1191   2.112   4.897   5.520
   98SOL     OW 1192   0.673   2.609   1.900
   98SOL    HW1 1193   0.674   2.613   2.000
   98SOL    HW2 1194   0.709   2.521   1.870
   99SOL     OW 1195   3.753   3.561   3.288
   99SOL    HW1 1196   3.775   3.567   3.190
   99SOL    HW2 1197   3.833   3.526   3.338
  100SOL     OW 1198   6.974   6.678   3.985
  100SOL    HW1 1199   6.931   6.588   3.973
  100SOL    HW2 1200   6.904   6.749   3.990
  101SOL     OW 1201   0.418   4.922   2.462
  101SOL    HW1 1202   0.327   4.927   2.505
  101SOL    HW2 1203   0.409   4.880   2.372
  102SOL     OW 1204   2.640   6.389   1.998
  102SOL    HW1 1205   2.610   6.351   1.911
  102SOL    HW2 1206   2.572   6.371   2.068
  103SOL     OW 1207   2.378   1.030   2.412
  103SOL    HW1 1208   2.409   1.066   2.324
  103SOL    HW2 1209   2.326   1.100   2.460
  104SOL     OW 1210   0.921   4.505   2.237
  104SOL    HW1 1211   1.003   4.559   2.221
  104SOL    HW2 1212   0.908   4.492   2.336
  105SOL     OW 1213   5.859   1.538   6.903
  105SOL    HW1 1214   5.803   1.456   6.898
  105SOL    HW2 1215   5.801   1.619   6.890
  106SOL     OW 1216   4.839   5.049   1.488
  106SOL    HW1 1217   4.849   5.142   1.451
  106SOL    HW2 1218   4.929   5.007   1.498
  107SOL     OW 1219   6.682   1.015   0.128
  107SOL    HW1 1220   6.753   0.984   0.066
  107SOL    HW2 1221   6.621   0.939   0.150
  108SOL     OW 1222   2.637   0.425   4.841
  108SOL    HW1 1223   2.711   0.372   4.800
  108SOL    HW2 1224   2.549   0.393   4.806
  109SOL     OW 1225   3.682   0.739   2.528
  109SOL    HW1 1226   3.618   0.794   2.475
  109SOL    HW2 1227   3.692   0.649   2.486
  110SOL     OW 1228   2.449   4.434   5.238
  110SOL    HW1 1229   2.431   4.375   5.317
  110SOL    HW2 1230   2.408   4.524   5.254
  111SOL     OW 1231   6.687   1.508   2.683
  111SOL    HW1 1232   6.659   1.560   2.763
  111SOL    HW2 1233   6.776   1.542   2.650
  112SOL     OW 1234   4.204   6.217   6.696
  112SOL    HW1 1235   4.112   6.255   6.709
  112SOL    HW2 1236   4.214   6.186   6.601
  113SOL     OW 1237   6.285   5.496   2.832
  113SOL    HW1 1238   6.364   5.514   2.891
  113SOL    HW2 1239   6.308   5.521   2.738
  114SOL     OW 1240   1.527   4.578   3.407
  114SOL    HW1 1241   1.485   4.547   3.322
  114SOL    HW2 1242   1.567   4.668   3.394
  115SOL     OW 1243   5.907   1.262   3.366
  115SOL    HW1 1244   5.858   1.251   3.453
  115SOL    HW2 1245   5.841   1.258   3.291
  116SOL     OW 1246   0.656   6.109   1.384
  116SOL    HW1 1247   0.670   6.063   1.472
  116SOL    HW2 1248   0.666   6.208   1.396
  117SOL     OW 1249   3.222   1.546   6.858
  117SOL    HW1 1250   3.255   1.638   6.835
  117SOL    HW2 1251   3.122   1.546   6.857
  118SOL     OW 1252   1.064   1.355   3.450
  118SOL    HW1 1253   1.030   1.261   3.452
  118SOL    HW2 1254   1.081   1.386   3.544
  119SOL     OW 1255   6.878   6.859   0.168
  119SOL    HW1 1256   6.833   6.857   0.257
  119SOL    HW2 1257   6.944   6.935   0.166
  120SOL     OW 1258   4.724   0.773   5.208
  120SOL    HW1 1259   4.822   0.763   5.192
  120SOL    HW2 1260   4.689   0.849   5.153
  121SOL     OW 1261   1.576   3.713   6.891
  121SOL    HW1 1262   1.584   3.801   6.939
  121SOL    HW2 1263   1.667   3.685   6.860
  122SOL     OW 1264   0.932   4.569   0.175
  122SOL    HW1 1265   0.898   4.660   0.153
  122SOL    HW2 1266   1.032   4.570   0.179
  123SOL     OW 1267   1.216   0.848   1.950
  123SOL    HW1 1268   1.247   0.763   1.992
  123SOL    HW2 1269   1.130   0.832   1.901
  124SOL     OW 1270   3.183   2.615   0.801
  124SOL    HW1 1271   3.148   2.522   0.815
  124SOL    HW2 1272   3.187   2.635   0.703
  125SOL     OW 1273   3.496   2.684   6.786
  125SOL    HW1 1274   3.476   2.768   6.736
  125SOL    HW2 1275   3.590   2.687   6.819
  126SOL     OW 1276   3.209   2.994   2.792
  126SOL    HW1 1277   3.188   3.009   2.696
  126SOL    HW2 1278   3.149   3.051   2.849
  127SOL     OW 1279   6.745   6.154   5.561
  127SOL    HW1 1280   6.697   6.067   5.551
  127SOL    HW2 1281   6.680   6.225   5.590
  128SOL     OW 1282   4.921   3.544   2.050
  128SOL    HW1 1283   4.940   3.569   1.955
  128SOL    HW2 1284   4.873   3.456   2.052
  129SOL     OW 1285   2.103   5.460   0.723
  129SOL    HW1 1286   2.125   5.433   0.817
  129SOL    HW2 1287   2.179   5.435   0.662
  130SOL     OW 1288   5.922   1.896   4.496
  130SOL    HW1 1289   5.953   1.804   4.518
  130SOL    HW2 1290   5.996   1.961   4.513
  131SOL     OW 1291   6.530   1.186   4.284
  131SOL    HW1 1292   6.530   1.124   4.362
  131SOL    HW2 1293   6.437   1.220   4.268
  132SOL     OW 1294   3.391   3.791   1.712
  132SOL    HW1 1295   3.354   3.710   1.759
  132SOL    HW2 1296   3.328   3.818   1.639
  133SOL     OW 1297   5.437   0.553   4.388
  133SOL    HW1 1298   5.362   0.522   4.447
  133SOL    HW2 1299   5.409   0.548   4.292
  134SOL     OW 1300   6.295   0.609   2.375
  134SOL    HW1 1301   6.388   0.573   2.368
  134SOL    HW2 1302   6.283   0.683   2.309
  135SOL     OW 1303   4.906   3.319   4.312
  135SOL    HW1 1304   4.989   3.341   4.262
  135SOL    HW2 1305   4.916   3.347   4.407
  136SOL     OW 1306   2.369   5.838   5.078
  136SOL    HW1 1307   2.346   5.933   5.099
  136SOL    HW2 1308   2.371   5.785   5.163
  137SOL     OW 1309   3.729   1.735   4.453
  137SOL    HW1 1310   3.818   1.753   4.494
  137SOL    HW2 1311   3.656   1.768   4.514
  138SOL     OW 1312   0.903   5.110   3.923
  138SOL    HW1 1313   0.841   5.098   3.846
  138SOL    HW2 1314   0.978   5.171   3.897
  139SOL     OW 1315   2.020   5.442   6.636
  139SOL    HW1 1316   1.957   5.379   6.591
  139SOL    HW2 1317   2.008   5.534   6.598
  140SOL     OW 1318   2.384   0.451   2.991
  140SOL    HW1 1319   2.346   0.362   3.017
  140SOL    HW2 1320   2.420   0.497   3.073
  141SOL     OW 1321   6.434   3.627   0.047
  141SOL    HW1 1322   6.435   3.621   0.147
  141SOL    HW2 1323   6.444   3.722   0.019
  142SOL     OW 1324   1.133   4.302   1.814
  142SOL    HW1 1325   1.214   4.251   1.842
  142SOL    HW2 1326   1.125   4.299   1.714
  143SOL     OW 1327   5.797   6.474   1.545
  143SOL    HW1 1328   5.817   6.559   1.594
  143SOL    HW2 1329   5.882   6.423   1.530
  144SOL     OW 1330   3.013   4.824   3.917
  144SOL    HW1 1331   3.000   4.864   3.826
  144SOL    HW2 1332   3.000   4.894   3.987
  145SOL     OW 1333   6.818   4.555   2.888
  145SOL    HW1 1334   6.752   4.630   2.893
  145SOL    HW2 1335   6.903   4.583   2.932
  146SOL     OW 1336   6.090   1.451   6.133
  146SOL    HW1 1337   6.120   1.521   6.198
  146SOL    HW2 1338   6.013   1.486   6.080
  147SOL     OW 1339   5.391   1.410   5.056
  147SOL    HW1 1340   5.399   1.421   4.957
  147SOL    HW2 1341   5.475   1.444   5.100
  148SOL     OW 1342   1.085   4.584   1.462
  148SOL    HW1 1343   1.098   4.668   1.514
  148SOL    HW2 1344   1.121   4.507   1.515
  149SOL     OW 1345   2.401   1.994   5.065
  149SOL    HW1 1346   2.391   1.977   5.163
  149SOL    HW2 1347   2.496   2.018   5.045
  150SOL     OW 1348   3.698   1.746   5.476
  150SOL    HW1 1349   3.655   1.830   5.445
  150SOL    HW2 1350   3.756   1.766   5.556
  151SOL     OW 1351   3.878   1.698   0.705
  151SOL    HW1 1352   3.814   1.661   0.773
  151SOL    HW2 1353   3.944   1.757   0.751
  152SOL     OW 1354   0.751   1.512   6.993
  152SOL    HW1 1355   0.731   1.530   6.897
  152SOL    HW2 1356   0.832   1.565   0.002
  153SOL     OW 1357   2.939   1.003   3.379
  153SOL    HW1 1358   2.924   1.036   3.472
  153SOL    HW2 1359   2.856   1.018   3.325
  154SOL     OW 1360   6.463   1.900   1.174
  154SOL    HW1 1361   6.508   1.838   1.110
  154SOL    HW2 1362   6.437   1.849   1.256
  155SOL     OW 1363   0.276   0.077   1.951
  155SOL    HW1 1364   0.275   7.005   1.910
  155SOL    HW2 1365   0.209   0.135   1.905
  156SOL     OW 1366   4.727   0.739   0.263
  156SOL    HW1 1367   4.630   0.743   0.240
  156SOL    HW2 1368   4.760   0.645   0.251
  157SOL     OW 1369   5.342   3.562   0.636
  157SOL    HW1 1370   5.318   3.659   0.635
  157SOL    HW2 1371   5.351   3.530   0.542
  158SOL     OW 1372   1.468   2.807   2.367
  158SOL    HW1 1373   1.542   2.776   2.428
  158SOL    HW2 1374   1.438   2.898   2.395
  159SOL     OW 1375   4.751   4.943   0.835
  159SOL    HW1 1376   4.762   4.949   0.736
  159SOL    HW2 1377   4.680   4.876   0.856
  160SOL     OW 1378   5.514   0.705   0.690
  160SOL    HW1 1379   5.514   0.722   0.591
  160SOL    HW2 1380   5.512   0.606   0.706
  161SOL     OW 1381   0.801   6.583   0.848
  161SOL    HW1 1382   0.855   6.574   0.932
  161SOL    HW2 1383   0.861   6.572   0.769
  162SOL     OW 1384   2.113   6.033   0.196
  162SOL    HW1 1385   2.072   6.073   0.114
  162SOL    HW2 1386   2.108   5.933   0.191
  163SOL     OW 1387   6.675   4.960   3.024
  163SOL    HW1 1388   6.645   4.889   2.961
  163SOL    HW2 1389   6.613   4.962   3.103
  164SOL     OW 1390   1.630   1.767   2.927
  164SOL    HW1 1391   1.543   1.794   2.969
  164SOL    HW2 1392   1.621   1.772   2.827
  165SOL     OW 1393   0.309   5.494   2.449
  165SOL    HW1 1394   0.369   5.451   2.381
  165SOL    HW2 1395   0.304   5.435   2.530
  166SOL     OW 1396   6.301   3.722   1.470
  166SOL    HW1 1397   6.217   3.767   1.501
  166SOL    HW2 1398   6.294   3.702   1.373
  167SOL     OW 1399   4.978   1.889   6.953
  167SOL    HW1 1400   5.020   1.837   0.009
  167SOL    HW2 1401   5.042   1.894   6.877
  168SOL     OW 1402   4.186   3.239   1.911
  168SOL    HW1 1403   4.129   3.202   1.984
  168SOL    HW2 1404   4.260   3.175   1.891
  169SOL     OW 1405   6.174   3.166   0.465
  169SOL    HW1 1406   6.163   3.199   0.371
  169SOL    HW2 1407   6.225   3.234   0.518
  170SOL     OW 1408   1.447   5.430   2.612
  170SOL    HW1 1409   1.457   5.353   2.548
  170SOL    HW2 1410   1.479   5.402   2.702
  171SOL     OW 1411   1.817   3.041   0.418
  171SOL    HW1 1412   1.773   3.110   0.476
  171SOL    HW2 1413   1.830   3.078   0.326
  172SOL     OW 1414   5.753   1.884   1.646
  172SOL    HW1 1415   5.663   1.841   1.637
  172SOL    HW2 1416   5.753   1.943   1.727
  173SOL     OW 1417   6.053   0.920   5.494
  173SOL    HW1 1418   6.068   0.925   5.593
  173SOL    HW2 1419   6.108   0.990   5.449
  174SOL     OW 1420   5.510   5.559   5.518
  174SOL    HW1 1421   5.565   5.485   5.479
  174SOL    HW2 1422   5.523   5.562   5.617
  175SOL     OW 1423   1.898   1.043   0.759
  175SOL    HW1 1424   1.821   1.079   0.705
  175SOL    HW2 1425   1.918   1.105   0.834
  176SOL     OW 1426   4.524   4.770   2.824
  176SOL    HW1 1427   4.435   4.727   2.835
  176SOL    HW2 1428   4.583   4.712   2.768
  177SOL     OW 1429   5.099   1.889   4.611
  177SOL    HW1 1430   5.196   1.883   4.633
  177SOL    HW2 1431   5.077   1.983   4.583
  178SOL     OW 1432   2.452   5.356   5.029
  178SOL    HW1 1433   2.363   5.316   5.010
  178SOL    HW2 1434   2.501   5.298   5.095
  179SOL     OW 1435   4.082   5.628   0.071
  179SOL    HW1 1436   4.138   5.703   0.106
  179SOL    HW2 1437   4.080   5.553   0.138
  180SOL     OW 1438   3.948   6.865   1.118
  180SOL    HW1 1439   3.943   6.913   1.205
  180SOL    HW2 1440   3.880   6.791   1.117
  181SOL     OW 1441   2.950   2.537   5.381
  181SOL    HW1 1442   2.887   2.459   5.387
  181SOL    HW2 1443   3.019   2.518   5.312
  182SOL     OW 1444   5.284   3.598   6.911
  182SOL    HW1 1445   5.209   3.580   6.848
  182SOL    HW2 1446   5.347   3.663   6.870
  183SOL     OW 1447   3.917   2.112   4.297
  183SOL    HW1 1448   3.860   2.084   4.375
  183SOL    HW2 1449   3.858   2.147   4.224
  184SOL     OW 1450   0.876   6.099   3.583
  184SOL    HW1 1451   0.868   6.027   3.514
  184SOL    HW2 1452   0.821   6.075   3.663
  185SOL     OW 1453   0.563   1.699   4.219
  185SOL    HW1 1454   0.554   1.763   4.143
  185SOL    HW2 1455   0.555   1.748   4.305
  186SOL     OW 1456   5.662   5.963   4.457
  186SOL    HW1 1457   5.671   6.031   4.384
  186SOL    HW2 1458   5.752   5.946   4.497
  187SOL     OW 1459   4.204   5.591   2.466
  187SOL    HW1 1460   4.142   5.548   2.532
  187SOL    HW2 1461   4.287   5.536   2.457
  188SOL     OW 1462   2.050   2.045   3.085
  188SOL    HW1 1463   2.031   2.133   3.041
  188SOL    HW2 1464   1.997   1.974   3.039
  189SOL     OW 1465   5.966   5.412   6.792
  189SOL    HW1 1466   6.045   5.352   6.801
  189SOL    HW2 1467   5.889   5.362   6.752
  190SOL     OW 1468   6.226   5.344   6.836
  190SOL    HW1 1469   6.284   5.348   6.918
  190SOL    HW2 1470   6.244   5.423   6.778
  191SOL     OW 1471   6.850   0.891   5.680
  191SOL    HW1 1472   6.832   0.868   5.584
  191SOL    HW2 1473   6.919   0.963   5.685
  192SOL     OW 1474   0.352   4.414   1.594
  192SOL    HW1 1475   0.382   4.509   1.586
  192SOL    HW2 1476   0.331   4.379   1.502
  193SOL     OW 1477   3.600   4.588   6.062
  193SOL    HW1 1478   3.688   4.548   6.088
  193SOL    HW2 1479   3.612   4.685   6.042
  194SOL     OW 1480   4.139   6.867   1.939
  194SOL    HW1 1481   4.181   6.785   1.979
  194SOL    HW2 1482   4.172   6.879   1.845
  195SOL     OW 1483   3.100   0.619   2.531
  195SOL    HW1 1484   3.136   0.579   2.447
  195SOL    HW2 1485   3.175   0.660   2.584
  196SOL     OW 1486   2.294   1.153   6.673
  196SOL    HW1 1487   2.292   1.056   6.651
  196SOL    HW2 1488   2.263   1.166   6.767
  197SOL     OW 1489   1.954   6.033   6.369
  197SOL    HW1 1490   1.893   6.099   6.413
  197SOL    HW2 1491   1.919   5.940   6.384
  198SOL     OW 1492   4.277   5.946   1.039
  198SOL    HW1 1493   4.205   5.960   0.971
  198SOL    HW2 1494   4.346   5.883   1.002
  199SOL     OW 1495   6.116   1.214   2.188
  199SOL    HW1 1496   6.057   1.237   2.265
  199SOL    HW2 1497   6.066   1.226   2.103
  200SOL     OW 1498   1.232   2.788   2.206
  200SOL    HW1 1499   1.332   2.794   2.208
  200SOL    HW2 1500   1.204   2.706   2.157
  201SOL     OW 1501   2.598   0.805   6.666
  201SOL    HW1 1502   2.597   0.805   6.566
  201SOL    HW2 1503   2.630   0.894   6.699
  202SOL     OW 1504   5.233   6.799   4.223
  202SOL    HW1 1505   5.157   6.818   4.286
  202SOL    HW2 1506   5.314   6.849   4.252
  203SOL     OW 1507   5.418   2.795   6.077
  203SOL    HW1 1508   5.348   2.758   6.137
  203SOL    HW2 1509   5.497   2.733   6.077
  204SOL     OW 1510   0.672   0.018   0.183
  204SOL    HW1 1511   0.688   6.949   0.228
  204SOL    HW2 1512   0.580   0.050   0.205
  205SOL     OW 1513   0.629   1.636   0.855
  205SOL    HW1 1514   0.666   1.642   0.948
  205SOL    HW2 1515   0.540   1.682   0.852
  206SOL     OW 1516   1.124   4.284   1.251
  206SOL    HW1 1517   1.153   4.376   1.278
  206SOL    HW2 1518   1.097   4.284   1.155
  207SOL     OW 1519   4.240   0.159   5.464
  207SOL    HW1 1520   4.167   0.192   5.404
  207SOL    HW2 1521   4.282   0.236   5.511
  208SOL     OW 1522   5.183   4.362   6.093
  208SOL    HW1 1523   5.115   4.305   6.141
  208SOL    HW2 1524   5.159   4.458   6.103
  209SOL     OW 1525   0.584   5.885   5.760
  209SOL    HW1 1526   0.541   5.868   5.671
  209SOL    HW2 1527   0.627   5.975   5.759
  210SOL     OW 1528   4.216   2.233   1.934
  210SOL    HW1 1529   4.149   2.170   1.897
  210SOL    HW2 1530   4.213   2.319   1.884
  211SOL     OW 1531   0.951   1.115   2.495
  211SOL    HW1 1532   0.968   1.048   2.567
  211SOL    HW2 1533   0.973   1.075   2.406
  212SOL     OW 1534   1.485   4.897   3.002
  212SOL    HW1 1535   1.526   4.942   2.923
  212SOL    HW2 1536   1.482   4.798   2.986
  213SOL     OW 1537   4.910   1.376   6.681
  213SOL    HW1 1538   4.917   1.334   6.590
  213SOL    HW2 1539   4.945   1.313   6.750
  214SOL     OW 1540   1.300   6.406   3.546
  214SOL    HW1 1541   1.381   6.410   3.605
  214SOL    HW2 1542   1.307   6.477   3.475
  215SOL     OW 1543   3.747   3.100   1.674
  215SOL    HW1 1544   3.785   3.182   1.717
  215SOL    HW2 1545   3.647   3.102   1.681
  216SOL     OW 1546   1.447   6.925   4.945
  216SOL    HW1 1547   1.420   7.016   4.911
  216SOL    HW2 1548   1.365   6.874   4.971
  217SOL     OW 1549   1.887   2.618   4.144
  217SOL    HW1 1550   1.801   2.571   4.121
  217SOL    HW2 1551   1.914   2.593   4.237
  218SOL     OW 1552   1.534   2.453   4.370
  218SOL    HW1 1553   1.596   2.453   4.292
  218SOL    HW2 1554   1.574   2.399   4.445
  219SOL     OW 1555   3.748   3.858   6.951
  219SOL    HW1 1556   3.747   3.894   0.025
  219SOL    HW2 1557   3.706   3.924   6.889
  220SOL     OW 1558   2.377   6.175   0.202
  220SOL    HW1 1559   2.319   6.094   0.211
  220SOL    HW2 1560   2.357   6.222   0.116
  221SOL     OW 1561   5.631   3.705   3.854
  221SOL    HW1 1562   5.683   3.637   3.803
  221SOL    HW2 1563   5.609   3.670   3.945
  222SOL     OW 1564   1.319   5.494   5.245
  222SOL    HW1 1565   1.270   5.580   5.235
  222SOL    HW2 1566   1.375   5.478   5.164
  223SOL     OW 1567   0.337   3.777   1.470
  223SOL    HW1 1568   0.303   3.827   1.550
  223SOL    HW2 1569   0.285   3.693   1.458
  224SOL     OW 1570   2.632   2.490   3.174
  224SOL    HW1 1571   2.724   2.528   3.168
  224SOL    HW2 1572   2.638   2.391   3.184
  225SOL     OW 1573   5.876   0.852   0.153
  225SOL    HW1 1574   5.912   0.780   0.092
  225SOL    HW2 1575   5.918   0.843   0.243
  226SOL     OW 1576   0.715   0.558   0.548
  226SOL    HW1 1577   0.731   0.477   0.492
  226SOL    HW2 1578   0.640   0.541   0.611
  227SOL     OW 1579   1.368   3.898   3.402
  227SOL    HW1 1580   1.373   3.805   3.437
  227SOL    HW2 1581   1.456   3.943   3.413
  228SOL     OW 1582   4.017   0.180   4.639
  228SOL    HW1 1583   4.014   0.241   4.718
  228SOL    HW2 1584   4.101   0.126   4.642
  229SOL     OW 1585   5.990   5.974   1.483
  229SOL    HW1 1586   5.907   5.920   1.496
  229SOL    HW2 1587   6.056   5.921   1.429
  230SOL     OW 1588   1.946   4.008   4.134
  230SOL    HW1 1589   1.964   3.971   4.043
  230SOL    HW2 1590   2.027   4.058   4.166
  231SOL     OW 1591   6.224   3.314   6.245
  231SOL    HW1 1592   6.237   3.221   6.279
  231SOL    HW2 1593   6.237   3.316   6.146
  232SOL     OW 1594   1.220   3.018   6.454
  232SOL    HW1 1595   1.277   3.085   6.407
  232SOL    HW2 1596   1.253   3.006   6.548
  233SOL     OW 1597   2.405   0.681   5.014
  233SOL    HW1 1598   2.363   0.605   5.064
  233SOL    HW2 1599   2.394   0.765   5.067
  234SOL     OW 1600   2.496   4.574   6.427
  234SOL    HW1 1601   2.576   4.622   6.464
  234SOL    HW2 1602   2.493   4.586   6.328
  235SOL     OW 1603   3.534   3.520   3.418
  235SOL    HW1 1604   3.618   3.527   3.364
  235SOL    HW2 1605   3.496   3.611   3.432
  236SOL     OW 1606   6.685   3.166   6.832
  236SOL    HW1 1607   6.700   3.171   6.733
  236SOL    HW2 1608   6.738   3.237   6.878
  237SOL     OW 1609   0.052   6.366   1.010
  237SOL    HW1 1610   0.112   6.382   0.932
  237SOL    HW2 1611   0.102   6.380   1.095
  238SOL     OW 1612   5.794   3.799   1.577
  238SOL    HW1 1613   5.760   3.883   1.620
  238SOL    HW2 1614   5.755   3.720   1.622
  239SOL     OW 1615   6.898   5.571   0.060
  239SOL    HW1 1616   6.897   5.540   0.155
  239SOL    HW2 1617   6.806   5.594   0.031
  240SOL     OW 1618   0.658   3.517   6.367
  240SOL    HW1 1619   0.610   3.442   6.322
  240SOL    HW2 1620   0.753   3.490   6.385
  241SOL     OW 1621   0.648   1.329   3.655
  241SOL    HW1 1622   0.659   1.385   3.573
  241SOL    HW2 1623   0.692   1.240   3.641
  242SOL     OW 1624   1.303   3.203   5.340
  242SOL    HW1 1625   1.377   3.226   5.277
  242SOL    HW2 1626   1.341   3.191   5.432
  243SOL     OW 1627   4.712   0.587   6.090
  243SOL    HW1 1628   4.711   0.677   6.046
  243SOL    HW2 1629   4.679   0.518   6.026
  244SOL     OW 1630   4.753   2.126   4.826
  244SOL    HW1 1631   4.659   2.091   4.822
  244SOL    HW2 1632   4.816   2.050   4.839
  245SOL     OW 1633   6.597   2.612   4.516
  245SOL    HW1 1634   6.674   2.667   4.483
  245SOL    HW2 1635   6.631   2.527   4.556
  246SOL     OW 1636   5.184   3.661   4.215
  246SOL    HW1 1637   5.241   3.738   4.244
  246SOL    HW2 1638   5.184   3.654   4.115
  247SOL     OW 1639   2.750   1.339   3.088
  247SOL    HW1 1640   2.791   1.257   3.129
  247SOL    HW2 1641   2.739   1.409   3.158
  248SOL     OW 1642   4.989   2.170   4.582
  248SOL    HW1 1643   4.914   2.232   4.605
  248SOL    HW2 1644   5.069   2.223   4.553
  249SOL     OW 1645   3.293   6.583   4.949
  249SOL    HW1 1646   3.386   6.616   4.934
  249SOL    HW2 1647   3.294   6.509   5.016
  250SOL     OW 1648   5.849   1.946   5.674
  250SOL    HW1 1649   5.766   1.894   5.655
  250SOL    HW2 1650   5.901   1.959   5.590
  251SOL     OW 1651   4.544   2.936   6.186
  251SOL    HW1 1652   4.465   2.975   6.234
  251SOL    HW2 1653   4.522   2.843   6.155
  252SOL     OW 1654   0.284   1.025   5.228
  252SOL    HW1 1655   0.226   1.106   5.220
  252SOL    HW2 1656   0.245   0.964   5.297
  253SOL     OW 1657   1.412   3.038   1.471
  253SOL    HW1 1658   1.341   3.103   1.497
  253SOL    HW2 1659   1.465   3.075   1.394
  254SOL     OW 1660   6.751   3.203   4.638
  254SOL    HW1 1661   6.794   3.231   4.553
  254SOL    HW2 1662   6.816   3.150   4.693
  255SOL     OW 1663   3.317   2.145   3.356
  255SOL    HW1 1664   3.330   2.052   3.392
  255SOL    HW2 1665   3.405   2.191   3.351
  256SOL     OW 1666   6.593   5.517   6.478
  256SOL    HW1 1667   6.685   5.549   6.500
  256SOL    HW2 1668   6.526   5.585   6.506
  257SOL     OW 1669   2.839   5.705   6.285
  257SOL    HW1 1670   2.910   5.757   6.333
  257SOL    HW2 1671   2.768   5.678   6.350
  258SOL     OW 1672   4.879   4.565   5.068
  258SOL    HW1 1673   4.897   4.481   5.019
  258SOL    HW2 1674   4.959   4.625   5.062
  259SOL     OW 1675   1.590   3.006   2.667
  259SOL    HW1 1676   1.538   3.049   2.593
  259SOL    HW2 1677   1.547   3.029   2.755
  260SOL     OW 1678   4.956   0.886   6.259
  260SOL    HW1 1679   4.863   0.869   6.226
  260SOL    HW2 1680   5.010   0.928   6.187
  261SOL     OW 1681   0.175   3.949   1.658
  261SOL    HW1 1682   0.209   3.889   1.731
  261SOL    HW2 1683   0.205   4.043   1.676
  262SOL     OW 1684   1.385   3.047   2.411
  262SOL    HW1 1685   1.457   3.079   2.349
  262SOL    HW2 1686   1.317   3.119   2.424
  263SOL     OW 1687   0.563   2.375   4.705
  263SOL    HW1 1688   0.550   2.294   4.763
  263SOL    HW2 1689   0.610   2.348   4.621
  264SOL     OW 1690   0.960   3.269   5.553
  264SOL    HW1 1691   1.023   3.340   5.585
  264SOL    HW2 1692   0.867   3.306   5.548
  265SOL     OW 1693   4.897   4.413   4.510
  265SOL    HW1 1694   4.868   4.403   4.414
  265SOL    HW2 1695   4.893   4.510   4.536
  266SOL     OW 1696   3.897   1.959   0.235
  266SOL    HW1 1697   3.983   1.990   0.274
  266SOL    HW2 1698   3.904   1.958   0.135
  267SOL     OW 1699   1.639   2.520   6.719
  267SOL    HW1 1700   1.716   2.556   6.771
  267SOL    HW2 1701   1.623   2.425   6.745
  268SOL     OW 1702   4.340   4.645   4.629
  268SOL    HW1 1703   4.382   4.601   4.708
  268SOL    HW2 1704   4.251   4.684   4.655
  269SOL     OW 1705   1.562   1.529   6.636
  269SOL    HW1 1706   1.520   1.438   6.639
  269SOL    HW2 1707   1.595   1.547   6.543
  270SOL     OW 1708   5.347   1.111   2.511
  270SOL    HW1 1709   5.311   1.055   2.436
  270SOL    HW2 1710   5.359   1.205   2.481
  271SOL     OW 1711   1.896   1.196   0.999
  271SOL    HW1 1712   1.814   1.171   1.050
  271SOL    HW2 1713   1.976   1.152   1.040
  272SOL     OW 1714   4.228   5.065   4.710
  272SOL    HW1 1715   4.215   4.966   4.720
  272SOL    HW2 1716   4.240   5.086   4.613
  273SOL     OW 1717   1.299   5.796   4.624
  273SOL    HW1 1718   1.319   5.893   4.610
  273SOL    HW2 1719   1.299   5.776   4.722
  274SOL     OW 1720   6.027   2.605   3.343
  274SOL    HW1 1721   5.983   2.588   3.431
  274SOL    HW2 1722   6.092   2.681   3.353
  275SOL     OW 1723   0.375   6.234   5.906
  275SOL    HW1 1724   0.278   6.239   5.927
  275SOL    HW2 1725   0.420   6.319   5.933
  276SOL     OW 1726   6.942   5.594   3.620
  276SOL    HW1 1727   0.000   5.590   3.556
  276SOL    HW2 1728   6.892   5.680   3.606
  277SOL     OW 1729   3.450   1.264   5.224
  277SOL    HW1 1730   3.538   1.302   5.251
  277SOL    HW2 1731   3.410   1.216   5.302
  278SOL     OW 1732   5.532   4.603   2.233
  278SOL    HW1 1733   5.516   4.548   2.315
  278SOL    HW2 1734   5.502   4.552   2.152
  279SOL     OW 1735   0.146   2.961   3.331
  279SOL    HW1 1736   0.109   3.028   3.267
  279SOL    HW2 1737   0.092   2.876   3.326
  280SOL     OW 1738   4.685   6.373   4.086
  280SOL    HW1 1739   4.658   6.392   3.992
  280SOL    HW2 1740   4.785   6.382   4.095
  281SOL     OW 1741   4.064   5.614   3.841
  281SOL    HW1 1742   4.079   5.704   3.883
  281SOL    HW2 1743   4.083   5.542   3.908
  282SOL     OW 1744   4.471   2.118   5.825
  282SOL    HW1 1745   4.561   2.075   5.827
  282SOL    HW2 1746   4.408   2.062   5.771
  283SOL     OW 1747   6.351   0.410   4.641
  283SOL    HW1 1748   6.384   0.327   4.597
  283SOL    HW2 1749   6.428   0.458   4.684
  284SOL     OW 1750   0.632   4.955   4.816
  284SOL    HW1 1751   0.639   5.054   4.817
  284SOL    HW2 1752   0.575   4.926   4.739
  285SOL     OW 1753   4.993   0.224   0.097
  285SOL    HW1 1754   4.954   0.313   0.121
  285SOL    HW2 1755   5.074   0.207   0.154
  286SOL     OW 1756   3.477   5.353   4.913
  286SOL    HW1 1757   3.495   5.311   4.824
  286SOL    HW2 1758   3.465   5.452   4.901
  287SOL     OW 1759   1.183   5.959   6.287
  287SOL    HW1 1760   1.200   6.044   6.238
  287SOL    HW2 1761   1.094   5.922   6.259
  288SOL     OW 1762   3.661   0.494   1.057
  288SOL    HW1 1763   3.738   0.552   1.085
  288SOL    HW2 1764   3.652   0.418   1.122
  289SOL     OW 1765   1.078   5.518   5.753
  289SOL    HW1 1766   0.989   5.546   5.716
  289SOL    HW2 1767   1.095   5.567   5.838
  290SOL     OW 1768   4.523   0.739   3.056
  290SOL    HW1 1769   4.547   0.643   3.049
  290SOL    HW2 1770   4.600   0.790   3.095
  291SOL     OW 1771   4.429   0.963   4.267
  291SOL    HW1 1772   4.440   0.953   4.366
  291SOL    HW2 1773   4.406   0.874   4.227
  292SOL     OW 1774   3.765   7.000   3.749
  292SOL    HW1 1775   3.791   6.904   3.748
  292SOL    HW2 1776   3.690   7.015   3.685
  293SOL     OW 1777   4.756   6.414   2.530
  293SOL    HW1 1778   4.735   6.324   2.569
  293SOL    HW2 1779   4.682   6.442   2.469
  294SOL     OW 1780   5.627   6.946   5.605
  294SOL    HW1 1781   5.695   6.939   5.677
  294SOL    HW2 1782   5.569   0.006   5.622
  295SOL     OW 1783   1.277   2.433   4.944
  295SOL    HW1 1784   1.352   2.388   4.993
  295SOL    HW2 1785   1.265   2.391   4.855
  296SOL     OW 1786   6.518   1.494   1.103
  296SOL    HW1 1787   6.502   1.409   1.053
  296SOL    HW2 1788   6.586   1.479   1.174
  297SOL     OW 1789   5.111   5.265   3.869
  297SOL    HW1 1790   5.110   5.365   3.868
  297SOL    HW2 1791   5.025   5.231   3.906
  298SOL     OW 1792   4.535   0.367   0.749
  298SOL    HW1 1793   4.621   0.417   0.766
  298SOL    HW2 1794   4.483   0.416   0.679
  299SOL     OW 1795   3.273   1.741   0.162
  299SOL    HW1 1796   3.329   1.809   0.210
  299SOL    HW2 1797   3.223   1.785   0.087
  300SOL     OW 1798   3.751   1.104   2.076
  300SOL    HW1 1799   3.672   1.163   2.063
  300SOL    HW2 1800   3.721   1.015   2.112
  301SOL     OW 1801   5.156   6.135   1.751
  301SOL    HW1 1802   5.185   6.219   1.796
  301SOL    HW2 1803   5.105   6.078   1.815
  302SOL     OW 1804   0.015   6.379   1.753
  302SOL    HW1 1805   0.066   6.435   1.818
  302SOL    HW2 1806   0.051   6.392   1.661
  303SOL     OW 1807   5.815   5.941   2.350
  303SOL    HW1 1808   5.796   5.853   2.308
  303SOL    HW2 1809   5.791   6.014   2.286
  304SOL     OW 1810   1.227   6.933   5.511
  304SOL    HW1 1811   1.302   6.953   5.448
  304SOL    HW2 1812   1.261   6.877   5.586
  305SOL     OW 1813   0.964   2.901   1.833
  305SOL    HW1 1814   0.919   2.829   1.781
  305SOL    HW2 1815   1.015   2.960   1.770
  306SOL     OW 1816   6.950   0.940   2.451
  306SOL    HW1 1817   6.916   0.930   2.544
  306SOL    HW2 1818   6.875   0.927   2.386
  307SOL     OW 1819   3.735   3.276   0.534
  307SOL    HW1 1820   3.647   3.322   0.526
  307SOL    HW2 1821   3.807   3.344   0.547
  308SOL     OW 1822   5.660   1.850   4.414
  308SOL    HW1 1823   5.648   1.753   4.392
  308SOL    HW2 1824   5.751   1.865   4.452
  309SOL     OW 1825   0.220   6.813   6.949
  309SOL    HW1 1826   0.177   6.722   6.956
  309SOL    HW2 1827   0.257   6.825   6.857
  310SOL     OW 1828   5.673   6.174   4.285
  310SOL    HW1 1829   5.593   6.226   4.254
  310SOL    HW2 1830   5.739   6.236   4.327
  311SOL     OW 1831   2.649   5.001   2.737
  311SOL    HW1 1832   2.625   4.907   2.763
  311SOL    HW2 1833   2.667   5.054   2.820
  312SOL     OW 1834   4.471   2.502   3.432
  312SOL    HW1 1835   4.462   2.425   3.368
  312SOL    HW2 1836   4.432   2.476   3.520
  313SOL     OW 1837   3.546   3.623   2.604
  313SOL    HW1 1838   3.563   3.694   2.673
  313SOL    HW2 1839   3.453   3.588   2.616
  314SOL     OW 1840   2.009   5.681   5.080
  314SOL    HW1 1841   2.046   5.607   5.024
  314SOL    HW2 1842   1.948   5.643   5.149
  315SOL     OW 1843   6.425   1.276   3.431
  315SOL    HW1 1844   6.440   1.295   3.528
  315SOL    HW2 1845   6.332   1.300   3.406
  316SOL     OW 1846   4.235   2.020   5.676
  316SOL    HW1 1847   4.141   1.988   5.688
  316SOL    HW2 1848   4.260   2.012   5.579
  317SOL     OW 1849   1.852   1.609   2.025
  317SOL    HW1 1850   1.942   1.564   2.026
  317SOL    HW2 1851   1.839   1.657   1.939
  318SOL     OW 1852   6.839   0.442   6.371
  318SOL    HW1 1853   6.817   0.515   6.306
  318SOL    HW2 1854   6.908   0.473   6.435
  319SOL     OW 1855   0.661   2.090   3.017
  319SOL    HW1 1856   0.736   2.091   3.083
  319SOL    HW2 1857   0.681   2.026   2.943
  320SOL     OW 1858   5.730   2.311   6.764
  320SOL    HW1 1859   5.651   2.367   6.790
  320SOL    HW2 1860   5.773   2.349   6.683
  321SOL     OW 1861   3.417   3.263   0.203
  321SOL    HW1 1862   3.322   3.284   0.180
  321SOL    HW2 1863   3.419   3.187   0.268
  322SOL     OW 1864   3.518   3.353   6.102
  322SOL    HW1 1865   3.508   3.327   6.198
  322SOL    HW2 1866   3.615   3.360   6.079
  323SOL     OW 1867   0.533   3.000   3.737
  323SOL    HW1 1868   0.444   3.042   3.755
  323SOL    HW2 1869   0.558   3.015   3.642
  324SOL     OW 1870   2.546   6.693   3.371
  324SOL    HW1 1871   2.584   6.609   3.331
  324SOL    HW2 1872   2.459   6.714   3.326
  325SOL     OW 1873   1.528   3.572   2.660
  325SOL    HW1 1874   1.606   3.619   2.702
  325SOL    HW2 1875   1.488   3.631   2.589
  326SOL     OW 1876   1.557   4.831   6.640
  326SOL    HW1 1877   1.523   4.744   6.675
  326SOL    HW2 1878   1.578   4.892   6.716
  327SOL     OW 1879   2.656   4.698   2.672
  327SOL    HW1 1880   2.604   4.618   2.642
  327SOL    HW2 1881   2.628   4.725   2.764
  328SOL     OW 1882   1.538   4.048   1.845
  328SOL    HW1 1883   1.611   4.115   1.860
  328SOL    HW2 1884   1.526   4.034   1.746
  329SOL     OW 1885   2.888   4.043   0.849
  329SOL    HW1 1886   2.799   4.068   0.810
  329SOL    HW2 1887   2.935   3.982   0.786
  330SOL     OW 1888   3.946   5.875   6.919
  330SOL    HW1 1889   4.028   5.932   6.926
  330SOL    HW2 1890   3.932   5.847   6.825
  331SOL     OW 1891   5.506   4.949   0.954
  331SOL    HW1 1892   5.493   4.986   0.862
  331SOL    HW2 1893   5.580   4.998   1.000
  332SOL     OW 1894   5.561   1.534   3.827
  332SOL    HW1 1895   5.566   1.632   3.807
  332SOL    HW2 1896   5.521   1.486   3.749
  333SOL     OW 1897   4.285   0.904   5.190
  333SOL    HW1 1898   4.288   0.825   5.251
  333SOL    HW2 1899   4.293   0.988   5.244
  334SOL     OW 1900   3.565   2.807   2.009
  334SOL    HW1 1901   3.605   2.750   1.937
  334SOL    HW2 1902   3.552   2.900   1.974
  335SOL     OW 1903   4.302   0.270   6.594
  335SOL    HW1 1904   4.307   0.356   6.544
  335SOL    HW2 1905   4.319   0.287   6.691
  336SOL     OW 1906   3.047   1.233   3.011
  336SOL    HW1 1907   3.082   1.165   2.946
  336SOL    HW2 1908   3.070   1.325   2.979
  337SOL     OW 1909   1.872   2.264   6.101
  337SOL    HW1 1910   1.783   2.230   6.130
  337SOL    HW2 1911   1.925   2.294   6.181
  338SOL     OW 1912   4.023   3.223   0.823
  338SOL    HW1 1913   3.949   3.167   0.787
  338SOL    HW2 1914   4.094   3.233   0.753
  339SOL     OW 1915   4.333   4.822   4.420
  339SOL    HW1 1916   4.242   4.862   4.427
  339SOL    HW2 1917   4.340   4.744   4.481
  340SOL     OW 1918   5.405   2.968   4.977
  340SOL    HW1 1919   5.445   2.968   5.068
  340SOL    HW2 1920   5.340   2.892   4.969
  341SOL     OW 1921   5.897   5.787   4.633
  341SOL    HW1 1922   5.952   5.705   4.614
  341SOL    HW2 1923   5.857   5.779   4.724
  342SOL     OW 1924   4.481   3.524   0.947
  342SOL    HW1 1925   4.523   3.527   1.037
  342SOL    HW2 1926   4.417   3.601   0.937
  343SOL     OW 1927   0.329   6.136   2.637
  343SOL    HW1 1928   0.358   6.048   2.599
  343SOL    HW2 1929   0.331   6.206   2.565
  344SOL     OW 1930   0.909   1.866   1.979
  344SOL    HW1 1931   0.886   1.854   1.882
  344SOL    HW2 1932   0.831   1.905   2.027
  345SOL     OW 1933   6.639   2.285   4.038
  345SOL    HW1 1934   6.597   2.246   3.956
  345SOL    HW2 1935   6.660   2.212   4.103
  346SOL     OW 1936   2.061   0.093   2.754
  346SOL    HW1 1937   2.109   0.010   2.782
  346SOL    HW2 1938   2.074   0.108   2.656
  347SOL     OW 1939   2.655   5.896   6.737
  347SOL    HW1 1940   2.650   5.972   6.803
  347SOL    HW2 1941   2.667   5.933   6.645
  348SOL     OW 1942   4.036   5.175   2.518
  348SOL    HW1 1943   4.127   5.135   2.532
  348SOL    HW2 1944   4.016   5.181   2.421
  349SOL     OW 1945   6.487   4.141   2.476
  349SOL    HW1 1946   6.517   4.140   2.572
  349SOL    HW2 1947   6.387   4.133   2.473
  350SOL     OW 1948   3.193   2.781   0.200
  350SOL    HW1 1949   3.158   2.873   0.181
  350SOL    HW2 1950   3.240   2.746   0.118
  351SOL     OW 1951   3.245   3.529   0.456
  351SOL    HW1 1952   3.288   3.603   0.405
  351SOL    HW2 1953   3.267   3.538   0.553
  352SOL     OW 1954   4.347   6.405   3.292
  352SOL    HW1 1955   4.428   6.431   3.239
  352SOL    HW2 1956   4.375   6.372   3.382
  353SOL     OW 1957   3.142   0.178   5.895
  353SOL    HW1 1958   3.226   0.217   5.932
  353SOL    HW2 1959   3.105   0.110   5.958
  354SOL     OW 1960   5.261   2.689   0.422
  354SOL    HW1 1961   5.338   2.685   0.485
  354SOL    HW2 1962   5.237   2.597   0.392
  355SOL     OW 1963   2.053   2.970   2.585
  355SOL    HW1 1964   2.125   2.992   2.651
  355SOL    HW2 1965   1.996   2.895   2.621
  356SOL     OW 1966   2.184   0.564   4.659
  356SOL    HW1 1967   2.102   0.600   4.704
  356SOL    HW2 1968   2.160   0.533   4.567
  357SOL     OW 1969   0.567   5.881   4.207
  357SOL    HW1 1970   0.479   5.845   4.176
  357SOL    HW2 1971   0.557   5.921   4.298
  358SOL     OW 1972   4.469   6.416   1.059
  358SOL    HW1 1973   4.469   6.329   1.109
  358SOL    HW2 1974   4.391   6.471   1.087
  359SOL     OW 1975   3.476   0.681   1.494
  359SOL    HW1 1976   3.482   0.619   1.416
  359SOL    HW2 1977   3.459   0.775   1.462
  360SOL     OW 1978   1.469   4.065   4.595
  360SOL    HW1 1979   1.472   4.158   4.633
  360SOL    HW2 1980   1.530   4.006   4.647
  361SOL     OW 1981   6.000   6.444   2.756
  361SOL    HW1 1982   5.999   6.455   2.657
  361SOL    HW2 1983   6.018   6.532   2.800
  362SOL     OW 1984   3.573   4.223   0.548
  362SOL    HW1 1985   3.563   4.243   0.646
  362SOL    HW2 1986   3.529   4.136   0.527
  363SOL     OW 1987   5.807   4.729   3.100
  363SOL    HW1 1988   5.804   4.799   3.028
  363SOL    HW2 1989   5.814   4.639   3.058
  364SOL     OW 1990   0.454   5.040   6.486
  364SOL    HW1 1991   0.505   5.021   6.569
  364SOL    HW2 1992   0.380   4.973   6.476
  365SOL     OW 1993   3.645   0.961   1.065
  365SOL    HW1 1994   3.549   0.946   1.087
  365SOL    HW2 1995   3.687   1.017   1.136
  366SOL     OW 1996   5.848   2.872   6.872
  366SOL    HW1 1997   5.834   2.774   6.856
  366SOL    HW2 1998   5.908   2.884   6.952
  367SOL     OW 1999   5.904   2.426   6.172
  367SOL    HW1 2000   5.804   2.426   6.167
  367SOL    HW2 2001   5.940   2.504   6.119
  368SOL     OW 2002   6.730   2.562   5.925
  368SOL    HW1 2003   6.698   2.653   5.900
  368SOL    HW2 2004   6.829   2.563   5.934
  369SOL     OW 2005   5.934   4.256   2.837
  369SOL    HW1 2006   5.875   4.176   2.826
  369SOL    HW2 2007   6.030   4.228   2.833
  370SOL     OW 2008   1.158   1.794   4.175
  370SOL    HW1 2009   1.218   1.775   4.252
  370SOL    HW2 2010   1.070   1.828   4.209
  371SOL     OW 2011   1.489   4.593   6.738
  371SOL    HW1 2012   1.413   4.538   6.703
  371SOL    HW2 2013   1.570   4.535   6.748
  372SOL     OW 2014   1.764   6.882   5.468
  372SOL    HW1 2015   1.735   6.889   5.372
  372SOL    HW2 2016   1.725   6.800   5.509
  373SOL     OW 2017   5.238   6.907   5.730
  373SOL    HW1 2018   5.255   6.965   5.650
  373SOL    HW2 2019   5.315   6.844   5.743
  374SOL     OW 2020   2.626   2.036   2.965
  374SOL    HW1 2021   2.675   2.043   2.879
  374SOL    HW2 2022   2.531   2.011   2.947
  375SOL     OW 2023   0.954   4.834   5.043
  375SOL    HW1 2024   0.934   4.840   5.140
  375SOL    HW2 2025   0.872   4.807   4.993
  376SOL     OW 2026   1.611   1.546   5.481
  376SOL    HW1 2027   1.621   1.582   5.388
  376SOL    HW2 2028   1.679   1.589   5.541
  377SOL     OW 2029   1.941   2.456   0.049
  377SOL    HW1 2030   2.005   2.531   0.068
  377SOL    HW2 2031   1.915   2.412   0.135
  378SOL     OW 2032   4.034   1.354   6.178
  378SOL    HW1 2033   4.119   1.314   6.142
  378SOL    HW2 2034   4.055   1.411   6.257
  379SOL     OW 2035   4.741   2.999   7.013
  379SOL    HW1 2036   4.678   2.966   0.065
  379SOL    HW2 2037   4.751   3.098   0.002
  380SOL     OW 2038   2.548   1.559   1.154
  380SOL    HW1 2039   2.509   1.481   1.107
  380SOL    HW2 2040   2.556   1.636   1.091
  381SOL     OW 2041   1.515   3.754   3.987
  381SOL    HW1 2042   1.590   3.701   3.946
  381SOL    HW2 2043   1.473   3.811   3.917
  382SOL     OW 2044   5.653   0.449   6.825
  382SOL    HW1 2045   5.580   0.487   6.883
  382SOL    HW2 2046   5.726   0.517   6.814
  383SOL     OW 2047   4.479   2.819   1.025
  383SOL    HW1 2048   4.380   2.828   1.021
  383SOL    HW2 2049   4.509   2.810   1.120
  384SOL     OW 2050   0.329   4.891   4.053
  384SOL    HW1 2051   0.380   4.900   4.139
  384SOL    HW2 2052   0.381   4.934   3.979
  385SOL     OW 2053   3.480   6.068   6.119
  385SOL    HW1 2054   3.555   6.117   6.164
  385SOL    HW2 2055   3.393   6.106   6.151
  386SOL     OW 2056   3.773   0.220   4.175
  386SOL    HW1 2057   3.827   0.267   4.105
  386SOL    HW2 2058   3.821   0.223   4.262
  387SOL     OW 2059   1.313   5.614   2.274
  387SOL    HW1 2060   1.216   5.615   2.248
  387SOL    HW2 2061   1.323   5.653   2.365
  388SOL     OW 2062   2.095   1.681   6.499
  388SOL    HW1 2063   2.079   1.771   6.539
  388SOL    HW2 2064   2.159   1.630   6.556
  389SOL     OW 2065   3.551   3.309   2.358
  389SOL    HW1 2066   3.490   3.283   2.433
  389SOL    HW2 2067   3.574   3.227   2.304
  390SOL     OW 2068   3.460   1.036   3.550
  390SOL    HW1 2069   3.524   0.982   3.605
  390SOL    HW2 2070   3.446   1.125   3.593
  391SOL     OW 2071   2.083   2.811   6.462
  391SOL    HW1 2072   2.057   2.773   6.551
  391SOL    HW2 2073   2.006   2.803   6.399
  392SOL     OW 2074   1.901   4.236   0.416
  392SOL    HW1 2075   1.983   4.291   0.429
  392SOL    HW2 2076   1.924   4.153   0.365
  393SOL     OW 2077   6.906   4.795   5.416
  393SOL    HW1 2078   6.871   4.814   5.325
  393SOL    HW2 2079   6.948   4.878   5.454
  394SOL     OW 2080   0.228   0.763   0.050
  394SOL    HW1 2081   0.223   0.854   0.009
  394SOL    HW2 2082   0.176   0.762   0.135
  395SOL     OW 2083   5.207   3.944   2.738
  395SOL    HW1 2084   5.114   3.981   2.749
  395SOL    HW2 2085   5.211   3.852   2.776
  396SOL     OW 2086   4.069   3.690   2.152
  396SOL    HW1 2087   4.091   3.620   2.084
  396SOL    HW2 2088   4.147   3.703   2.213
  397SOL     OW 2089   3.920   2.515   5.637
  397SOL    HW1 2090   3.899   2.516   5.540
  397SOL    HW2 2091   3.835   2.520   5.690
  398SOL     OW 2092   0.620   6.195   2.204
  398SOL    HW1 2093   0.546   6.131   2.223
  398SOL    HW2 2094   0.649   6.185   2.109
  399SOL     OW 2095   4.630   6.056   2.743
  399SOL    HW1 2096   4.627   6.146   2.786
  399SOL    HW2 2097   4.542   6.036   2.701
  400SOL     OW 2098   6.224   0.049   5.169
  400SOL    HW1 2099   6.307   0.031   5.220
  400SOL    HW2 2100   6.145   0.043   5.230
  401SOL     OW 2101   4.633   0.916   5.778
  401SOL    HW1 2102   4.597   1.008   5.768
  401SOL    HW2 2103   4.655   0.878   5.688
  402SOL     OW 2104   5.980   6.685   2.934
  402SOL    HW1 2105   5.946   6.713   3.024
  402SOL    HW2 2106   5.908   6.698   2.866
  403SOL     OW 2107   3.615   2.362   5.343
  403SOL    HW1 2108   3.538   2.327   5.290
  403SOL    HW2 2109   3.678   2.287   5.364
  404SOL     OW 2110   1.641   6.077   3.945
  404SOL    HW1 2111   1.615   6.025   4.026
  404SOL    HW2 2112   1.629   6.019   3.864
  405SOL     OW 2113   1.614   3.470   1.864
  405SOL    HW1 2114   1.688   3.508   1.920
  405SOL    HW2 2115   1.588   3.380   1.899
  406SOL     OW 2116   0.557   3.702   3.419
  406SOL    HW1 2117   0.631   3.748   3.370
  406SOL    HW2 2118   0.501   3.650   3.355
  407SOL     OW 2119   1.870   0.469   3.977
  407SOL    HW1 2120   1.956   0.511   4.003
  407SOL    HW2 2121   1.833   0.515   3.896
  408SOL     OW 2122   1.084   1.197   2.889
  408SOL    HW1 2123   1.060   1.153   2.976
  408SOL    HW2 2124   1.176   1.237   2.896
  409SOL     OW 2125   6.106   2.933   1.848
  409SOL    HW1 2126   6.202   2.926   1.818
  409SOL    HW2 2127   6.056   2.852   1.819
  410SOL     OW 2128   2.300   0.361   6.830
  410SOL    HW1 2129   2.223   0.303   6.857
  410SOL    HW2 2130   2.324   0.343   6.735
  411SOL     OW 2131   5.797   6.827   6.743
  411SOL    HW1 2132   5.739   6.809   6.663
  411SOL    HW2 2133   5.880   6.875   6.713
  412SOL     OW 2134   4.957   6.827   3.986
  412SOL    HW1 2135   5.054   6.806   3.998
  412SOL    HW2 2136   4.913   6.752   3.934
  413SOL     OW 2137   5.295   4.593   1.649
  413SOL    HW1 2138   5.238   4.634   1.577
  413SOL    HW2 2139   5.358   4.527   1.609
  414SOL     OW 2140   3.704   5.217   4.275
  414SOL    HW1 2141   3.702   5.136   4.333
  414SOL    HW2 2142   3.744   5.193   4.186
  415SOL     OW 2143   0.757   6.141   6.932
  415SOL    HW1 2144   0.724   6.131   0.006
  415SOL    HW2 2145   0.839   6.198   6.931
  416SOL     OW 2146   5.249   5.109   4.857
  416SOL    HW1 2147   5.328   5.139   4.911
  416SOL    HW2 2148   5.246   5.009   4.855
  417SOL     OW 2149   2.403   5.653   0.923
  417SOL    HW1 2150   2.374   5.640   1.017
  417SOL    HW2 2151   2.330   5.699   0.872
  418SOL     OW 2152   4.240   6.120   1.609
  418SOL    HW1 2153   4.244   6.025   1.576
  418SOL    HW2 2154   4.187   6.175   1.545
  419SOL     OW 2155   1.445   0.387   1.539
  419SOL    HW1 2156   1.472   0.352   1.628
  419SOL    HW2 2157   1.491   0.474   1.522
  420SOL     OW 2158   6.370   2.924   1.261
  420SOL    HW1 2159   6.344   3.009   1.307
  420SOL    HW2 2160   6.305   2.852   1.284
  421SOL     OW 2161   6.859   4.449   5.904
  421SOL    HW1 2162   6.787   4.385   5.877
  421SOL    HW2 2163   6.885   4.505   5.826
  422SOL     OW 2164   5.825   4.331   0.263
  422SOL    HW1 2165   5.842   4.402   0.331
  422SOL    HW2 2166   5.910   4.310   0.214
  423SOL     OW 2167   0.733   2.837   0.127
  423SOL    HW1 2168   0.754   2.933   0.112
  423SOL    HW2 2169   0.763   2.783   0.048
  424SOL     OW 2170   2.786   3.619   1.273
  424SOL    HW1 2171   2.848   3.606   1.350
  424SOL    HW2 2172   2.776   3.717   1.255
  425SOL     OW 2173   6.426   0.976   2.267
  425SOL    HW1 2174   6.443   1.066   2.306
  425SOL    HW2 2175   6.512   0.936   2.235
  426SOL     OW 2176   4.880   2.485   4.138
  426SOL    HW1 2177   4.866   2.405   4.081
  426SOL    HW2 2178   4.909   2.562   4.081
  427SOL     OW 2179   5.557   4.923   2.731
  427SOL    HW1 2180   5.516   4.838   2.698
  427SOL    HW2 2181   5.625   4.955   2.665
  428SOL     OW 2182   4.467   6.967   4.694
  428SOL    HW1 2183   4.467   6.948   4.596
  428SOL    HW2 2184   4.561   6.985   4.725
  429SOL     OW 2185   2.558   4.114   1.249
  429SOL    HW1 2186   2.533   4.210   1.241
  429SOL    HW2 2187   2.508   4.061   1.181
  430SOL     OW 2188   0.234   0.178   4.113
  430SOL    HW1 2189   0.258   0.091   4.070
  430SOL    HW2 2190   0.302   0.202   4.182
  431SOL     OW 2191   3.494   0.244   0.525
  431SOL    HW1 2192   3.490   0.170   0.593
  431SOL    HW2 2193   3.579   0.294   0.535
  432SOL     OW 2194   6.216   2.094   2.087
  432SOL    HW1 2195   6.123   2.088   2.050
  432SOL    HW2 2196   6.212   2.108   2.185
  433SOL     OW 2197   3.291   6.198   4.980
  433SOL    HW1 2198   3.203   6.171   5.019
  433SOL    HW2 2199   3.363   6.140   5.018
  434SOL     OW 2200   3.778   5.447   1.887
  434SOL    HW1 2201   3.820   5.445   1.978
  434SOL    HW2 2202   3.779   5.356   1.847
  435SOL     OW 2203   3.986   2.186   5.173
  435SOL    HW1 2204   3.916   2.139   5.120
  435SOL    HW2 2205   3.978   2.159   5.269
  436SOL     OW 2206   3.099   5.862   0.849
  436SOL    HW1 2207   3.075   5.772   0.886
  436SOL    HW2 2208   3.017   5.907   0.815
  437SOL     OW 2209   0.995   6.643   6.821
  437SOL    HW1 2210   1.055   6.646   6.741
  437SOL    HW2 2211   0.908   6.688   6.799
  438SOL     OW 2212   2.103   2.905   2.318
  438SOL    HW1 2213   2.073   2.904   2.413
  438SOL    HW2 2214   2.186   2.849   2.309
  439SOL     OW 2215   6.094   4.659   3.136
  439SOL    HW1 2216   6.014   4.599   3.145
  439SOL    HW2 2217   6.125   4.686   3.227
  440SOL     OW 2218   1.330   1.414   5.220
  440SOL    HW1 2219   1.328   1.473   5.301
  440SOL    HW2 2220   1.401   1.446   5.157
  441SOL     OW 2221   1.117   2.452   3.866
  441SOL    HW1 2222   1.216   2.456   3.874
  441SOL    HW2 2223   1.092   2.402   3.783
  442SOL     OW 2224   2.722   5.025   6.669
  442SOL    HW1 2225   2.803   5.011   6.726
  442SOL    HW2 2226   2.643   5.039   6.728
  443SOL     OW 2227   0.690   4.252   4.216
  443SOL    HW1 2228   0.651   4.211   4.298
  443SOL    HW2 2229   0.740   4.335   4.242
  444SOL     OW 2230   4.937   2.077   5.892
  444SOL    HW1 2231   4.941   2.173   5.867
  444SOL    HW2 2232   4.958   2.067   5.990
  445SOL     OW 2233   1.550   5.696   3.340
  445SOL    HW1 2234   1.514   5.712   3.432
  445SOL    HW2 2235   1.534   5.776   3.283
  446SOL     OW 2236   3.705   4.918   4.114
  446SOL    HW1 2237   3.782   4.859   4.088
  446SOL    HW2 2238   3.693   4.989   4.045
  447SOL     OW 2239   0.850   2.721   6.933
  447SOL    HW1 2240   0.931   2.776   6.911
  447SOL    HW2 2241   0.802   2.698   6.849
  448SOL     OW 2242   2.979   0.870   4.524
  448SOL    HW1 2243   2.900   0.913   4.481
  448SOL    HW2 2244   3.028   0.938   4.579
  449SOL     OW 2245   4.357   0.348   4.723
  449SOL    HW1 2246   4.302   0.407   4.665
  449SOL    HW2 2247   4.312   0.259   4.733
  450SOL     OW 2248   1.453   5.780   4.001
  450SOL    HW1 2249   1.400   5.702   4.032
  450SOL    HW2 2250   1.479   5.768   3.905
  451SOL     OW 2251   1.977   2.092   3.722
  451SOL    HW1 2252   2.008   2.056   3.634
  451SOL    HW2 2253   2.047   2.075   3.792
  452SOL     OW 2254   6.440   6.391   1.622
  452SOL    HW1 2255   6.414   6.339   1.703
  452SOL    HW2 2256   6.536   6.374   1.600
  453SOL     OW 2257   3.397   0.627   4.675
  453SOL    HW1 2258   3.487   0.647   4.714
  453SOL    HW2 2259   3.399   0.647   4.577
  454SOL     OW 2260   6.963   4.658   6.032
  454SOL    HW1 2261   0.032   4.658   6.080
  454SOL    HW2 2262   6.929   4.565   6.024
  455SOL     OW 2263   6.613   2.318   3.197
  455SOL    HW1 2264   6.528   2.267   3.210
  455SOL    HW2 2265   6.611   2.402   3.252
  456SOL     OW 2266   5.454   5.763   4.537
  456SOL    HW1 2267   5.477   5.859   4.519
  456SOL    HW2 2268   5.507   5.730   4.615
  457SOL     OW 2269   2.169   3.589   3.801
  457SOL    HW1 2270   2.134   3.556   3.713
  457SOL    HW2 2271   2.166   3.689   3.802
  458SOL     OW 2272   4.175   5.429   3.673
  458SOL    HW1 2273   4.144   5.510   3.724
  458SOL    HW2 2274   4.235   5.374   3.731
  459SOL     OW 2275   2.008   6.604   4.734
  459SOL    HW1 2276   2.005   6.613   4.834
  459SOL    HW2 2277   1.918   6.578   4.700
  460SOL     OW 2278   1.659   0.255   3.661
  460SOL    HW1 2279   1.644   0.339   3.609
  460SOL    HW2 2280   1.584   0.242   3.726
  461SOL     OW 2281   5.859   6.821   5.509
  461SOL    HW1 2282   5.762   6.819   5.534
  461SOL    HW2 2283   5.898   6.729   5.518
  462SOL     OW 2284   3.660   2.748   6.126
  462SOL    HW1 2285   3.637   2.722   6.220
  462SOL    HW2 2286   3.714   2.675   6.083
  463SOL     OW 2287   6.547   5.199   3.446
  463SOL    HW1 2288   6.627   5.139   3.438
  463SOL    HW2 2289   6.552   5.251   3.531
  464SOL     OW 2290   2.459   2.686   6.144
  464SOL    HW1 2291   2.456   2.746   6.064
  464SOL    HW2 2292   2.380   2.705   6.203
  465SOL     OW 2293   1.148   2.686   4.424
  465SOL    HW1 2294   1.063   2.650   4.463
  465SOL    HW2 2295   1.216   2.696   4.497
  466SOL     OW 2296   1.567   5.352   2.842
  466SOL    HW1 2297   1.662   5.377   2.859
  466SOL    HW2 2298   1.556   5.253   2.854
  467SOL     OW 2299   1.443   1.061   0.178
  467SOL    HW1 2300   1.355   1.047   0.223
  467SOL    HW2 2301   1.490   0.973   0.170
  468SOL     OW 2302   3.530   6.407   6.877
  468SOL    HW1 2303   3.509   6.346   6.954
  468SOL    HW2 2304   3.466   6.483   6.877
  469SOL     OW 2305   3.199   4.793   0.115
  469SOL    HW1 2306   3.151   4.874   0.149
  469SOL    HW2 2307   3.161   4.766   0.027
  470SOL     OW 2308   4.393   0.326   2.361
  470SOL    HW1 2309   4.389   0.229   2.386
  470SOL    HW2 2310   4.338   0.341   2.278
  471SOL     OW 2311   1.897   2.345   3.943
  471SOL    HW1 2312   1.926   2.252   3.968
  471SOL    HW2 2313   1.931   2.366   3.851
  472SOL     OW 2314   4.875   3.840   6.401
  472SOL    HW1 2315   4.836   3.881   6.484
  472SOL    HW2 2316   4.949   3.778   6.427
  473SOL     OW 2317   1.011   3.173   2.212
  473SOL    HW1 2318   1.007   3.079   2.178
  473SOL    HW2 2319   1.083   3.181   2.281
  474SOL     OW 2320   5.157   5.417   4.237
  474SOL    HW1 2321   5.128   5.324   4.214
  474SOL    HW2 2322   5.206   5.456   4.159
  475SOL     OW 2323   5.640   0.737   6.434
  475SOL    HW1 2324   5.689   0.819   6.407
  475SOL    HW2 2325   5.553   0.762   6.476
  476SOL     OW 2326   6.614   3.999   3.059
  476SOL    HW1 2327   6.532   3.966   3.106
  476SOL    HW2 2328   6.634   4.092   3.090
  477SOL     OW 2329   1.249   4.590   4.438
  477SOL    HW1 2330   1.237   4.524   4.512
  477SOL    HW2 2331   1.327   4.564   4.382
  478SOL     OW 2332   3.157   6.874   2.117
  478SOL    HW1 2333   3.220   6.831   2.181
  478SOL    HW2 2334   3.136   6.810   2.043
  479SOL     OW 2335   4.128   2.057   6.433
  479SOL    HW1 2336   4.103   2.097   6.521
  479SOL    HW2 2337   4.125   2.128   6.362
  480SOL     OW 2338   2.035   1.238   0.210
  480SOL    HW1 2339   1.958   1.302   0.204
  480SOL    HW2 2340   2.021   1.163   0.145
  481SOL     OW 2341   1.517   0.390   0.797
  481SOL    HW1 2342   1.569   0.348   0.723
  481SOL    HW2 2343   1.427   0.346   0.803
  482SOL     OW 2344   4.645   4.863   3.352
  482SOL    HW1 2345   4.616   4.858   3.256
  482SOL    HW2 2346   4.573   4.828   3.411
  483SOL     OW 2347   6.852   1.793   1.966
  483SOL    HW1 2348   6.820   1.717   2.023
  483SOL    HW2 2349   6.831   1.879   2.011
  484SOL     OW 2350   1.232   2.984   4.827
  484SOL    HW1 2351   1.133   2.974   4.840
  484SOL    HW2 2352   1.250   3.067   4.775
  485SOL     OW 2353   3.787   5.551   2.701
  485SOL    HW1 2354   3.822   5.633   2.746
  485SOL    HW2 2355   3.862   5.486   2.686
  486SOL     OW 2356   6.797   2.036   0.853
  486SOL    HW1 2357   6.708   2.054   0.894
  486SOL    HW2 2358   6.797   2.067   0.758
  487SOL     OW 2359   1.091   2.040   1.427
  487SOL    HW1 2360   1.138   1.998   1.349
  487SOL    HW2 2361   0.995   2.014   1.426
  488SOL     OW 2362   0.423   1.790   1.922
  488SOL    HW1 2363   0.459   1.709   1.968
  488SOL    HW2 2364   0.483   1.812   1.844
  489SOL     OW 2365   2.947   6.136   6.423
  489SOL    HW1 2366   2.880   6.151   6.351
  489SOL    HW2 2367   2.996   6.050   6.406
  490SOL     OW 2368   6.701   5.916   3.298
  490SOL    HW1 2369   6.604   5.944   3.296
  490SOL    HW2 2370   6.729   5.887   3.207
  491SOL     OW 2371   0.226   3.048   2.528
  491SOL    HW1 2372   0.154   2.979   2.532
  491SOL    HW2 2373   0.244   3.082   2.620
  492SOL     OW 2374   2.511   0.290   5.529
  492SOL    HW1 2375   2.552   0.340   5.453
  492SOL    HW2 2376   2.484   0.354   5.601
  493SOL     OW 2377   5.062   6.680   5.793
  493SOL    HW1 2378   5.141   6.738   5.773
  493SOL    HW2 2379   4.997   6.685   5.718
  494SOL     OW 2380   6.693   1.089   6.752
  494SOL    HW1 2381   6.765   1.026   6.778
  494SOL    HW2 2382   6.621   1.039   6.703
  495SOL     OW 2383   5.314   5.910   3.664
  495SOL    HW1 2384   5.364   5.834   3.622
  495SOL    HW2 2385   5.251   5.950   3.598
  496SOL     OW 2386   5.327   3.311   2.182
  496SOL    HW1 2387   5.230   3.334   2.175
  496SOL    HW2 2388   5.382   3.387   2.147
  497SOL     OW 2389   3.526   0.965   4.560
  497SOL    HW1 2390   3.516   0.941   4.657
  497SOL    HW2 2391   3.502   1.061   4.547
  498SOL     OW 2392   2.101   3.976   1.650
  498SOL    HW1 2393   2.005   3.957   1.668
  498SOL    HW2 2394   2.131   3.922   1.571
  499SOL     OW 2395   3.085   0.248   4.354
  499SOL    HW1 2396   3.056   0.341   4.377
  499SOL    HW2 2397   3.164   0.252   4.293
  500SOL     OW 2398   0.838   3.590   3.780
  500SOL    HW1 2399   0.878   3.681   3.790
  500SOL    HW2 2400   0.738   3.598   3.773
  501SOL     OW 2401   2.715   6.406   0.060
  501SOL    HW1 2402   2.627   6.408   0.014
  501SOL    HW2 2403   2.757   6.496   0.056
  502SOL     OW 2404   6.649   4.000   7.002
  502SOL    HW1 2405   6.562   3.955   0.005
  502SOL    HW2 2406   6.637   4.099   7.005
  503SOL     OW 2407   6.130   5.826   6.199
  503SOL    HW1 2408   6.189   5.906   6.215
  503SOL    HW2 2409   6.042   5.842   6.244
  504SOL     OW 2410   2.086   5.532   2.922
  504SOL    HW1 2411   2.136   5.606   2.878
  504SOL    HW2 2412   2.146   5.453   2.933
  505SOL     OW 2413   3.630   6.502   4.907
  505SOL    HW1 2414   3.654   6.407   4.887
  505SOL    HW2 2415   3.586   6.543   4.827
  506SOL     OW 2416   1.749   5.188   4.991
  506SOL    HW1 2417   1.728   5.285   4.976
  506SOL    HW2 2418   1.720   5.136   4.910
  507SOL     OW 2419   3.862   0.276   3.262
  507SOL    HW1 2420   3.906   0.341   3.324
  507SOL    HW2 2421   3.919   0.194   3.254
  508SOL     OW 2422   6.501   3.936   2.248
  508SOL    HW1 2423   6.410   3.908   2.216
  508SOL    HW2 2424   6.492   3.990   2.332
  509SOL     OW 2425   3.638   1.084   1.769
  509SOL    HW1 2426   3.663   0.989   1.790
  509SOL    HW2 2427   3.607   1.129   1.852
  510SOL     OW 2428   6.309   4.997   0.208
  510SOL    HW1 2429   6.336   4.903   0.228
  510SOL    HW2 2430   6.219   4.997   0.164
  511SOL     OW 2431   0.598   1.321   5.975
  511SOL    HW1 2432   0.584   1.228   5.941
  511SOL    HW2 2433   0.601   1.319   6.075
  512SOL     OW 2434   6.964   3.027   6.845
  512SOL    HW1 2435   6.920   3.116   6.832
  512SOL    HW2 2436   6.940   2.991   6.935
  513SOL     OW 2437   6.361   6.319   3.009
  513SOL    HW1 2438   6.423   6.397   3.012
  513SOL    HW2 2439   6.284   6.339   2.949
  514SOL     OW 2440   6.673   2.871   4.224
  514SOL    HW1 2441   6.729   2.788   4.235
  514SOL    HW2 2442   6.582   2.845   4.193
  515SOL     OW 2443   1.815   0.667   6.573
  515SOL    HW1 2444   1.771   0.750   6.606
  515SOL    HW2 2445   1.758   0.623   6.504
  516SOL     OW 2446   2.695   4.664   1.684
  516SOL    HW1 2447   2.600   4.662   1.715
  516SOL    HW2 2448   2.750   4.601   1.739
  517SOL     OW 2449   4.729   5.487   2.356
  517SOL    HW1 2450   4.684   5.455   2.273
  517SOL    HW2 2451   4.739   5.411   2.420
  518SOL     OW 2452   1.999   1.986   2.704
  518SOL    HW1 2453   2.077   1.924   2.693
  518SOL    HW2 2454   2.033   2.077   2.730
  519SOL     OW 2455   1.101   0.736   4.356
  519SOL    HW1 2456   1.063   0.666   4.295
  519SOL    HW2 2457   1.034   0.810   4.368
  520SOL     OW 2458   6.124   4.495   0.192
  520SOL    HW1 2459   6.049   4.525   0.251
  520SOL    HW2 2460   6.133   4.396   0.197
  521SOL     OW 2461   0.223   3.818   6.152
  521SOL    HW1 2462   0.165   3.812   6.071
  521SOL    HW2 2463   0.174   3.863   6.226
  522SOL     OW 2464   3.668   3.456   5.036
  522SOL    HW1 2465   3.711   3.513   4.966
  522SOL    HW2 2466   3.636   3.514   5.111
  523SOL     OW 2467   0.989   4.878   1.343
  523SOL    HW1 2468   1.087   4.867   1.360
  523SOL    HW2 2469   0.971   4.864   1.246
  524SOL     OW 2470   0.812   1.697   0.668
  524SOL    HW1 2471   0.749   1.682   0.744
  524SOL    HW2 2472   0.783   1.642   0.589
  525SOL     OW 2473   1.832   3.670   6.584
  525SOL    HW1 2474   1.886   3.651   6.501
  525SOL    HW2 2475   1.768   3.596   6.599
  526SOL     OW 2476   4.322   6.566   4.461
  526SOL    HW1 2477   4.329   6.506   4.381
  526SOL    HW2 2478   4.412   6.605   4.480
  527SOL     OW 2479   6.860   3.381   6.900
  527SOL    HW1 2480   6.779   3.440   6.903
  527SOL    HW2 2481   6.940   3.434   6.927
  528SOL     OW 2482   1.151   1.412   3.697
  528SOL    HW1 2483   1.131   1.499   3.742
  528SOL    HW2 2484   1.145   1.338   3.764
  529SOL     OW 2485   1.011   6.598   4.430
  529SOL    HW1 2486   1.063   6.515   4.409
  529SOL    HW2 2487   0.987   6.599   4.527
  530SOL     OW 2488   3.078   3.036   4.825
  530SOL    HW1 2489   3.151   2.981   4.784
  530SOL    HW2 2490   3.003   2.975   4.852
  531SOL     OW 2491   0.484   0.312   2.702
  531SOL    HW1 2492   0.486   0.269   2.793
  531SOL    HW2 2493   0.433   0.255   2.639
  532SOL     OW 2494   1.343   2.246   0.141
  532SOL    HW1 2495   1.443   2.242   0.141
  532SOL    HW2 2496   1.307   2.191   0.216
  533SOL     OW 2497   4.952   6.749   3.619
  533SOL    HW1 2498   5.048   6.763   3.644
  533SOL    HW2 2499   4.901   6.717   3.699
  534SOL     OW 2500   4.826   5.778   3.217
  534SOL    HW1 2501   4.813   5.822   3.129
  534SOL    HW2 2502   4.822   5.679   3.206
  535SOL     OW 2503   0.616   3.889   4.337
  535SOL    HW1 2504   0.626   3.808   4.394
  535SOL    HW2 2505   0.521   3.919   4.338
  536SOL     OW 2506   0.175   4.859   1.865
  536SOL    HW1 2507   0.078   4.862   1.841
  536SOL    HW2 2508   0.187   4.805   1.949
  537SOL     OW 2509   1.887   6.478   3.788
  537SOL    HW1 2510   1.903   6.397   3.844
  537SOL    HW2 2511   1.883   6.559   3.845
  538SOL     OW 2512   1.141   3.984   2.622
  538SOL    HW1 2513   1.150   4.077   2.657
  538SOL    HW2 2514   1.084   3.985   2.540
  539SOL     OW 2515   0.861   6.388   0.150
  539SOL    HW1 2516   0.876   6.456   0.079
  539SOL    HW2 2517   0.947   6.339   0.169
  540SOL     OW 2518   0.651   1.091   2.421
  540SOL    HW1 2519   0.615   1.085   2.328
  540SOL    HW2 2520   0.719   1.164   2.425
  541SOL     OW 2521   3.786   6.265   4.170
  541SOL    HW1 2522   3.843   6.217   4.237
  541SOL    HW2 2523   3.690   6.262   4.199
  542SOL     OW 2524   6.443   0.099   0.072
  542SOL    HW1 2525   6.463   0.130   0.165
  542SOL    HW2 2526   6.491   0.013   0.055
  543SOL     OW 2527   1.644   4.674   5.599
  543SOL    HW1 2528   1.662   4.671   5.501
  543SOL    HW2 2529   1.729   4.692   5.649
  544SOL     OW 2530   1.845   4.081   1.261
  544SOL    HW1 2531   1.777   4.096   1.189
  544SOL    HW2 2532   1.844   4.159   1.324
  545SOL     OW 2533   3.203   0.297   3.056
  545SOL    HW1 2534   3.123   0.242   3.079
  545SOL    HW2 2535   3.233   0.349   3.137
  546SOL     OW 2536   1.622   2.819   0.556
  546SOL    HW1 2537   1.708   2.841   0.509
  546SOL    HW2 2538   1.638   2.819   0.655
  547SOL     OW 2539   2.846   1.389   6.934
  547SOL    HW1 2540   2.906   1.313   6.961
  547SOL    HW2 2541   2.756   1.353   6.909
  548SOL     OW 2542   3.582   3.083   2.199
  548SOL    HW1 2543   3.673   3.060   2.234
  548SOL    HW2 2544   3.518   3.009   2.221
  549SOL     OW 2545   4.725   3.329   1.074
  549SOL    HW1 2546   4.664   3.405   1.096
  549SOL    HW2 2547   4.676   3.242   1.083
  550SOL     OW 2548   6.106   4.751   3.425
  550SOL    HW1 2549   6.056   4.701   3.494
  550SOL    HW2 2550   6.100   4.849   3.443
  551SOL     OW 2551   1.097   0.938   1.425
  551SOL    HW1 2552   1.029   0.941   1.352
  551SOL    HW2 2553   1.133   0.845   1.433
  552SOL     OW 2554   4.338   5.055   0.405
  552SOL    HW1 2555   4.413   5.060   0.339
  552SOL    HW2 2556   4.363   5.102   0.489
  553SOL     OW 2557   2.391   6.666   1.888
  553SOL    HW1 2558   2.294   6.649   1.906
  553SOL    HW2 2559   2.414   6.635   1.796
  554SOL     OW 2560   5.765   6.295   5.615
  554SOL    HW1 2561   5.841   6.298   5.549
  554SOL    HW2 2562   5.778   6.217   5.676
  555SOL     OW 2563   2.271   5.348   3.035
  555SOL    HW1 2564   2.354   5.343   2.981
  555SOL    HW2 2565   2.239   5.255   3.056
  556SOL     OW 2566   5.956   2.586   3.909
  556SOL    HW1 2567   5.983   2.680   3.930
  556SOL    HW2 2568   5.857   2.576   3.925
  557SOL     OW 2569   0.338   4.882   0.420
  557SOL    HW1 2570   0.364   4.795   0.378
  557SOL    HW2 2571   0.416   4.943   0.422
  558SOL     OW 2572   3.115   4.045   4.883
  558SOL    HW1 2573   3.194   3.984   4.889
  558SOL    HW2 2574   3.070   4.051   4.972
  559SOL     OW 2575   6.448   5.981   6.146
  559SOL    HW1 2576   6.434   5.928   6.062
  559SOL    HW2 2577   6.519   5.939   6.201
  560SOL     OW 2578   4.190   5.984   0.125
  560SOL    HW1 2579   4.253   5.907   0.134
  560SOL    HW2 2580   4.186   6.013   0.029
  561SOL     OW 2581   6.219   0.904   0.100
  561SOL    HW1 2582   6.223   0.948   0.190
  561SOL    HW2 2583   6.224   0.974   0.028
  562SOL     OW 2584   4.557   1.114   6.128
  562SOL    HW1 2585   4.626   1.045   6.106
  562SOL    HW2 2586   4.467   1.080   6.102
  563SOL     OW 2587   2.416   6.802   3.117
  563SOL    HW1 2588   2.378   6.882   3.071
  563SOL    HW2 2589   2.402   6.721   3.060
  564SOL     OW 2590   2.823   1.747   6.350
  564SOL    HW1 2591   2.727   1.772   6.363
  564SOL    HW2 2592   2.836   1.651   6.372
  565SOL     OW 2593   3.909   3.566   5.444
  565SOL    HW1 2594   3.987   3.611   5.402
  565SOL    HW2 2595   3.829   3.574   5.384
  566SOL     OW 2596   6.226   3.935   4.128
  566SOL    HW1 2597   6.194   4.015   4.178
  566SOL    HW2 2598   6.252   3.962   4.035
  567SOL     OW 2599   3.717   4.019   3.014
  567SOL    HW1 2600   3.641   4.028   2.950
  567SOL    HW2 2601   3.735   4.108   3.057
  568SOL     OW 2602   3.469   2.340   0.012
  568SOL    HW1 2603   3.430   2.341   0.103
  568SOL    HW2 2604   3.396   2.340   6.963
  569SOL     OW 2605   1.597   3.379   0.349
  569SOL    HW1 2606   1.580   3.296   0.403
  569SOL    HW2 2607   1.569   3.363   0.254
  570SOL     OW 2608   2.172   6.759   6.486
  570SOL    HW1 2609   2.222   6.777   6.401
  570SOL    HW2 2610   2.126   6.671   6.480
  571SOL     OW 2611   3.387   7.002   3.104
  571SOL    HW1 2612   3.343   6.993   3.193
  571SOL    HW2 2613   3.482   6.971   3.110
  572SOL     OW 2614   2.211   4.593   5.847
  572SOL    HW1 2615   2.191   4.521   5.781
  572SOL    HW2 2616   2.280   4.654   5.810
  573SOL     OW 2617   4.358   1.420   5.352
  573SOL    HW1 2618   4.452   1.454   5.340
  573SOL    HW2 2619   4.311   1.475   5.420
  574SOL     OW 2620   2.481   2.227   3.483
  574SOL    HW1 2621   2.559   2.285   3.505
  574SOL    HW2 2622   2.424   2.272   3.414
  575SOL     OW 2623   6.688   3.399   6.346
  575SOL    HW1 2624   6.690   3.383   6.247
  575SOL    HW2 2625   6.596   3.428   6.373
  576SOL     OW 2626   1.201   2.411   1.801
  576SOL    HW1 2627   1.213   2.359   1.885
  576SOL    HW2 2628   1.170   2.350   1.728
  577SOL     OW 2629   1.694   0.947   3.147
  577SOL    HW1 2630   1.621   0.981   3.206
  577SOL    HW2 2631   1.770   1.013   3.148
  578SOL     OW 2632   6.647   4.203   3.444
  578SOL    HW1 2633   6.569   4.156   3.486
  578SOL    HW2 2634   6.732   4.172   3.487
  579SOL     OW 2635   2.896   2.601   0.748
  579SOL    HW1 2636   2.970   2.668   0.748
  579SOL    HW2 2637   2.934   2.509   0.748
  580SOL     OW 2638   0.544   4.702   6.995
  580SOL    HW1 2639   0.523   4.604   6.993
  580SOL    HW2 2640   0.623   4.721   6.937
  581SOL     OW 2641   3.294   3.497   2.580
  581SOL    HW1 2642   3.195   3.510   2.585
  581SOL    HW2 2643   3.313   3.404   2.551
  582SOL     OW 2644   5.739   5.201   2.621
  582SOL    HW1 2645   5.714   5.122   2.565
  582SOL    HW2 2646   5.827   5.236   2.591
  583SOL     OW 2647   2.110   5.077   6.526
  583SOL    HW1 2648   2.123   4.982   6.499
  583SOL    HW2 2649   2.102   5.134   6.444
  584SOL     OW 2650   1.282   4.907   5.845
  584SOL    HW1 2651   1.358   4.909   5.780
  584SOL    HW2 2652   1.218   4.980   5.823
  585SOL     OW 2653   6.328   2.974   6.055
  585SOL    HW1 2654   6.354   3.023   5.972
  585SOL    HW2 2655   6.256   2.908   6.035
  586SOL     OW 2656   3.051   0.678   6.396
  586SOL    HW1 2657   3.105   0.616   6.339
  586SOL    HW2 2658   2.954   0.658   6.382
  587SOL     OW 2659   2.679   2.407   5.051
  587SOL    HW1 2660   2.680   2.413   4.951
  587SOL    HW2 2661   2.584   2.402   5.083
  588SOL     OW 2662   2.523   5.340   0.601
  588SOL    HW1 2663   2.545   5.365   0.507
  588SOL    HW2 2664   2.572   5.400   0.664
  589SOL     OW 2665   3.820   5.205   1.755
  589SOL    HW1 2666   3.789   5.251   1.672
  589SOL    HW2 2667   3.905   5.156   1.736
  590SOL     OW 2668   5.453   3.112   1.315
  590SOL    HW1 2669   5.413   3.126   1.406
  590SOL    HW2 2670   5.505   3.192   1.288
  591SOL     OW 2671   4.105   6.174   3.803
  591SOL    HW1 2672   4.029   6.238   3.793
  591SOL    HW2 2673   4.138   6.174   3.897
  592SOL     OW 2674   4.306   6.905   1.268
  592SOL    HW1 2675   4.315   6.960   1.186
  592SOL    HW2 2676   4.321   6.962   1.349
  593SOL     OW 2677   4.545   2.139   3.435
  593SOL    HW1 2678   4.448   2.137   3.461
  593SOL    HW2 2679   4.602   2.132   3.518
  594SOL     OW 2680   4.639   2.293   6.095
  594SOL    HW1 2681   4.550   2.304   6.050
  594SOL    HW2 2682   4.698   2.369   6.069
  595SOL     OW 2683   5.360   6.627   3.551
  595SOL    HW1 2684   5.395   6.579   3.631
  595SOL    HW2 2685   5.420   6.610   3.473
  596SOL     OW 2686   0.877   3.810   1.878
  596SOL    HW1 2687   0.960   3.831   1.931
  596SOL    HW2 2688   0.874   3.711   1.860
  597SOL     OW 2689   4.986   0.186   5.343
  597SOL    HW1 2690   5.016   0.116   5.278
  597SOL    HW2 2691   4.911   0.239   5.304
  598SOL     OW 2692   3.496   4.325   6.696
  598SOL    HW1 2693   3.525   4.399   6.757
  598SOL    HW2 2694   3.529   4.344   6.603
  599SOL     OW 2695   1.462   6.864   2.912
  599SOL    HW1 2696   1.533   6.928   2.883
  599SOL    HW2 2697   1.429   6.813   2.832
  600SOL     OW 2698   1.411   1.075   1.211
  600SOL    HW1 2699   1.451   1.155   1.168
  600SOL    HW2 2700   1.334   1.103   1.270
  601SOL     OW 2701   3.026   6.100   4.278
  601SOL    HW1 2702   3.063   6.190   4.253
  601SOL    HW2 2703   3.068   6.029   4.223
  602SOL     OW 2704   1.118   2.272   0.004
  602SOL    HW1 2705   1.202   2.269   0.057
  602SOL    HW2 2706   1.065   2.188   0.020
  603SOL     OW 2707   4.264   2.096   3.732
  603SOL    HW1 2708   4.295   2.002   3.719
  603SOL    HW2 2709   4.190   2.098   3.799
  604SOL     OW 2710   0.457   3.853   1.222
  604SOL    HW1 2711   0.464   3.937   1.276
  604SOL    HW2 2712   0.409   3.784   1.275
  605SOL     OW 2713   6.617   5.224   2.882
  605SOL    HW1 2714   6.608   5.298   2.950
  605SOL    HW2 2715   6.652   5.142   2.926
  606SOL     OW 2716   5.176   0.383   5.355
  606SOL    HW1 2717   5.117   0.305   5.374
  606SOL    HW2 2718   5.150   0.460   5.412
  607SOL     OW 2719   5.460   0.636   5.347
  607SOL    HW1 2720   5.509   0.689   5.277
  607SOL    HW2 2721   5.362   0.657   5.342
  608SOL     OW 2722   4.034   6.471   0.258
  608SOL    HW1 2723   4.115   6.497   0.205
  608SOL    HW2 2724   3.953   6.513   0.216
  609SOL     OW 2725   3.280   3.467   3.872
  609SOL    HW1 2726   3.330   3.381   3.859
  609SOL    HW2 2727   3.182   3.449   3.873
  610SOL     OW 2728   5.530   2.295   2.745
  610SOL    HW1 2729   5.469   2.299   2.824
  610SOL    HW2 2730   5.570   2.386   2.730
  611SOL     OW 2731   0.967   0.391   6.512
  611SOL    HW1 2732   1.032   0.452   6.558
  611SOL    HW2 2733   1.016   0.311   6.478
  612SOL     OW 2734   3.867   5.718   5.510
  612SOL    HW1 2735   3.773   5.690   5.528
  612SOL    HW2 2736   3.929   5.668   5.570
  613SOL     OW 2737   4.867   6.646   5.108
  613SOL    HW1 2738   4.853   6.719   5.175
  613SOL    HW2 2739   4.843   6.680   5.017
  614SOL     OW 2740   5.984   4.499   1.074
  614SOL    HW1 2741   5.934   4.426   1.120
  614SOL    HW2 2742   6.043   4.460   1.003
  615SOL     OW 2743   0.729   1.562   1.397
  615SOL    HW1 2744   0.741   1.510   1.312
  615SOL    HW2 2745   0.681   1.505   1.464
  616SOL     OW 2746   5.946   1.793   3.136
  616SOL    HW1 2747   5.911   1.876   3.180
  616SOL    HW2 2748   5.944   1.805   3.037
  617SOL     OW 2749   0.034   3.757   0.026
  617SOL    HW1 2750   6.988   3.803   6.986
  617SOL    HW2 2751   7.011   3.740   0.116
  618SOL     OW 2752   6.513   3.238   0.764
  618SOL    HW1 2753   6.598   3.187   0.751
  618SOL    HW2 2754   6.486   3.234   0.860
  619SOL     OW 2755   4.050   0.198   6.610
  619SOL    HW1 2756   4.053   0.138   6.530
  619SOL    HW2 2757   4.141   0.232   6.630
  620SOL     OW 2758   5.925   2.880   0.850
  620SOL    HW1 2759   6.008   2.829   0.874
  620SOL    HW2 2760   5.950   2.961   0.797
  621SOL     OW 2761   1.748   0.172   5.307
  621SOL    HW1 2762   1.684   0.180   5.384
  621SOL    HW2 2763   1.804   0.254   5.301
  622SOL     OW 2764   0.408   1.843   5.182
  622SOL    HW1 2765   0.348   1.814   5.257
  622SOL    HW2 2766   0.368   1.818   5.095
  623SOL     OW 2767   0.751   6.976   4.908
  623SOL    HW1 2768   0.674   6.913   4.919
  623SOL    HW2 2769   0.810   6.943   4.834
  624SOL     OW 2770   6.494   1.223   0.050
  624SOL    HW1 2771   6.532   1.263   6.986
  624SOL    HW2 2772   6.554   1.150   0.082
  625SOL     OW 2773   1.575   2.104   0.808
  625SOL    HW1 2774   1.674   2.113   0.808
  625SOL    HW2 2775   1.547   2.039   0.737
  626SOL     OW 2776   0.879   5.508   2.478
  626SOL    HW1 2777   0.857   5.413   2.500
  626SOL    HW2 2778   0.963   5.535   2.524
  627SOL     OW 2779   6.229   6.590   0.262
  627SOL    HW1 2780   6.297   6.517   0.252
  627SOL    HW2 2781   6.235   6.651   0.182
  628SOL     OW 2782   5.610   3.613   5.229
  628SOL    HW1 2783   5.660   3.556   5.164
  628SOL    HW2 2784   5.668   3.631   5.309
  629SOL     OW 2785   0.798   1.142   6.786
  629SOL    HW1 2786   0.708   1.121   6.748
  629SOL    HW2 2787   0.839   1.217   6.735
  630SOL     OW 2788   0.138   2.171   0.543
  630SOL    HW1 2789   0.089   2.258   0.556
  630SOL    HW2 2790   0.076   2.095   0.563
  631SOL     OW 2791   3.649   1.393   4.501
  631SOL    HW1 2792   3.654   1.487   4.465
  631SOL    HW2 2793   3.730   1.342   4.472
  632SOL     OW 2794   4.484   2.885   0.602
  632SOL    HW1 2795   4.548   2.842   0.666
  632SOL    HW2 2796   4.406   2.921   0.652
  633SOL     OW 2797   3.038   4.455   6.827
  633SOL    HW1 2798   2.941   4.435   6.840
  633SOL    HW2 2799   3.093   4.379   6.863
  634SOL     OW 2800   3.695   3.376   2.981
  634SOL    HW1 2801   3.634   3.315   3.031
  634SOL    HW2 2802   3.789   3.362   3.011
  635SOL     OW 2803   4.396   6.786   0.451
  635SOL    HW1 2804   4.483   6.836   0.452
  635SOL    HW2 2805   4.374   6.756   0.544
  636SOL     OW 2806   2.962   6.774   6.005
  636SOL    HW1 2807   3.009   6.750   6.090
  636SOL    HW2 2808   2.917   6.694   5.967
  637SOL     OW 2809   6.238   2.541   2.189
  637SOL    HW1 2810   6.286   2.456   2.167
  637SOL    HW2 2811   6.247   2.605   2.113
  638SOL     OW 2812   5.725   3.979   3.847
  638SOL    HW1 2813   5.676   3.899   3.812
  638SOL    HW2 2814   5.762   3.958   3.938
  639SOL     OW 2815   5.316   4.594   3.766
  639SOL    HW1 2816   5.241   4.619   3.705
  639SOL    HW2 2817   5.372   4.522   3.724
  640SOL     OW 2818   6.956   4.833   3.525
  640SOL    HW1 2819   7.008   4.752   3.501
  640SOL    HW2 2820   6.869   4.834   3.475
  641SOL     OW 2821   0.863   4.522   4.631
  641SOL    HW1 2822   0.866   4.617   4.600
  641SOL    HW2 2823   0.920   4.513   4.713
  642SOL     OW 2824   1.318   2.731   4.705
  642SOL    HW1 2825   1.415   2.728   4.683
  642SOL    HW2 2826   1.296   2.818   4.749
  643SOL     OW 2827   6.209   0.313   6.091
  643SOL    HW1 2828   6.201   0.362   6.004
  643SOL    HW2 2829   6.306   0.292   6.108
  644SOL     OW 2830   1.992   0.503   4.440
  644SOL    HW1 2831   1.897   0.488   4.470
  644SOL    HW2 2832   2.044   0.418   4.452
  645SOL     OW 2833   3.191   5.336   4.298
  645SOL    HW1 2834   3.252   5.379   4.365
  645SOL    HW2 2835   3.201   5.381   4.210
  646SOL     OW 2836   3.865   0.511   4.542
  646SOL    HW1 2837   3.943   0.516   4.480
  646SOL    HW2 2838   3.896   0.485   4.633
  647SOL     OW 2839   5.716   1.853   4.798
  647SOL    HW1 2840   5.647   1.904   4.850
  647SOL    HW2 2841   5.750   1.910   4.723
  648SOL     OW 2842   6.720   3.673   3.643
  648SOL    HW1 2843   6.819   3.682   3.635
  648SOL    HW2 2844   6.675   3.736   3.580
  649SOL     OW 2845   2.217   3.705   0.674
  649SOL    HW1 2846   2.239   3.797   0.639
  649SOL    HW2 2847   2.206   3.709   0.773
  650SOL     OW 2848   6.359   5.452   0.793
  650SOL    HW1 2849   6.408   5.367   0.772
  650SOL    HW2 2850   6.261   5.434   0.799
  651SOL     OW 2851   1.823   0.418   5.241
  651SOL    HW1 2852   1.805   0.475   5.162
  651SOL    HW2 2853   1.801   0.468   5.325
  652SOL     OW 2854   4.511   6.505   2.396
  652SOL    HW1 2855   4.506   6.602   2.374
  652SOL    HW2 2856   4.485   6.451   2.315
  653SOL     OW 2857   0.604   6.328   0.549
  653SOL    HW1 2858   0.529   6.264   0.565
  653SOL    HW2 2859   0.590   6.410   0.603
  654SOL     OW 2860   6.841   6.507   6.129
  654SOL    HW1 2861   6.831   6.587   6.188
  654SOL    HW2 2862   6.811   6.425   6.178
  655SOL     OW 2863   6.740   5.390   1.859
  655SOL    HW1 2864   6.676   5.320   1.831
  655SOL    HW2 2865   6.777   5.368   1.949
  656SOL     OW 2866   1.942   6.073   6.994
  656SOL    HW1 2867   1.990   6.012   6.931
  656SOL    HW2 2868   1.952   6.168   6.962
  657SOL     OW 2869   3.502   3.844   0.971
  657SOL    HW1 2870   3.515   3.868   1.068
  657SOL    HW2 2871   3.455   3.756   0.965
  658SOL     OW 2872   1.265   3.859   5.416
  658SOL    HW1 2873   1.168   3.866   5.393
  658SOL    HW2 2874   1.311   3.945   5.394
  659SOL     OW 2875   2.591   6.108   4.746
  659SOL    HW1 2876   2.504   6.132   4.704
  659SOL    HW2 2877   2.648   6.060   4.680
  660SOL     OW 2878   4.338   4.762   2.524
  660SOL    HW1 2879   4.321   4.798   2.432
  660SOL    HW2 2880   4.408   4.692   2.520
  661SOL     OW 2881   4.889   4.088   4.577
  661SOL    HW1 2882   4.958   4.157   4.556
  661SOL    HW2 2883   4.897   4.060   4.672
  662SOL     OW 2884   4.440   1.135   5.653
  662SOL    HW1 2885   4.345   1.164   5.641
  662SOL    HW2 2886   4.482   1.189   5.726
  663SOL     OW 2887   0.386   4.680   0.227
  663SOL    HW1 2888   0.302   4.627   0.215
  663SOL    HW2 2889   0.416   4.716   0.138
  664SOL     OW 2890   1.346   5.831   6.651
  664SOL    HW1 2891   1.359   5.742   6.607
  664SOL    HW2 2892   1.370   5.904   6.586
  665SOL     OW 2893   4.214   5.397   0.918
  665SOL    HW1 2894   4.227   5.361   1.010
  665SOL    HW2 2895   4.275   5.475   0.903
  666SOL     OW 2896   4.303   2.664   1.320
  666SOL    HW1 2897   4.269   2.725   1.249
  666SOL    HW2 2898   4.229   2.603   1.349
  667SOL     OW 2899   0.457   4.008   3.597
  667SOL    HW1 2900   0.371   3.975   3.559
  667SOL    HW2 2901   0.509   4.056   3.527
  668SOL     OW 2902   4.833   5.732   0.239
  668SOL    HW1 2903   4.832   5.813   0.181
  668SOL    HW2 2904   4.751   5.676   0.221
  669SOL     OW 2905   2.672   6.004   3.033
  669SOL    HW1 2906   2.588   6.000   3.087
  669SOL    HW2 2907   2.682   6.095   2.992
  670SOL     OW 2908   3.390   3.786   2.118
  670SOL    HW1 2909   3.317   3.854   2.107
  670SOL    HW2 2910   3.371   3.730   2.198
  671SOL     OW 2911   2.393   6.177   6.735
  671SOL    HW1 2912   2.492   6.181   6.747
  671SOL    HW2 2913   2.370   6.105   6.669
  672SOL     OW 2914   0.622   4.166   2.380
  672SOL    HW1 2915   0.655   4.078   2.347
  672SOL    HW2 2916   0.613   4.229   2.303
  673SOL     OW 2917   4.548   0.317   1.143
  673SOL    HW1 2918   4.579   0.222   1.133
  673SOL    HW2 2919   4.476   0.335   1.076
  674SOL     OW 2920   6.831   3.081   4.343
  674SOL    HW1 2921   6.810   3.178   4.334
  674SOL    HW2 2922   6.757   3.026   4.305
  675SOL     OW 2923   0.688   1.663   5.144
  675SOL    HW1 2924   0.655   1.595   5.079
  675SOL    HW2 2925   0.636   1.748   5.133
  676SOL     OW 2926   2.784   5.000   3.463
  676SOL    HW1 2927   2.816   4.921   3.409
  676SOL    HW2 2928   2.719   5.052   3.409
  677SOL     OW 2929   5.973   1.326   6.354
  677SOL    HW1 2930   6.028   1.277   6.422
  677SOL    HW2 2931   6.029   1.343   6.273
  678SOL     OW 2932   1.783   1.410   5.125
  678SOL    HW1 2933   1.739   1.411   5.035
  678SOL    HW2 2934   1.879   1.437   5.116
  679SOL     OW 2935   4.486   0.884   4.799
  679SOL    HW1 2936   4.540   0.940   4.863
  679SOL    HW2 2937   4.468   0.937   4.716
  680SOL     OW 2938   6.012   5.071   5.864
  680SOL    HW1 2939   5.947   5.012   5.913
  680SOL    HW2 2940   6.061   5.128   5.930
  681SOL     OW 2941   6.063   0.133   0.944
  681SOL    HW1 2942   6.029   0.176   0.861
  681SOL    HW2 2943   6.070   0.201   1.017
  682SOL     OW 2944   1.465   6.640   6.492
  682SOL    HW1 2945   1.443   6.606   6.583
  682SOL    HW2 2946   1.523   6.722   6.500
  683SOL     OW 2947   3.046   0.871   6.175
  683SOL    HW1 2948   3.046   0.827   6.265
  683SOL    HW2 2949   3.104   0.820   6.112
  684SOL     OW 2950   6.402   1.526   6.331
  684SOL    HW1 2951   6.322   1.585   6.321
  684SOL    HW2 2952   6.430   1.523   6.427
  685SOL     OW 2953   4.874   6.705   5.409
  685SOL    HW1 2954   4.871   6.763   5.490
  685SOL    HW2 2955   4.944   6.635   5.420
  686SOL     OW 2956   5.460   2.787   2.830
  686SOL    HW1 2957   5.551   2.814   2.860
  686SOL    HW2 2958   5.392   2.850   2.868
  687SOL     OW 2959   6.920   2.933   5.415
  687SOL    HW1 2960   6.997   2.937   5.479
  687SOL    HW2 2961   6.905   3.024   5.377
  688SOL     OW 2962   1.656   4.195   0.348
  688SOL    HW1 2963   1.754   4.202   0.332
  688SOL    HW2 2964   1.616   4.286   0.355
  689SOL     OW 2965   0.943   4.614   5.627
  689SOL    HW1 2966   0.907   4.522   5.640
  689SOL    HW2 2967   1.007   4.614   5.549
  690SOL     OW 2968   0.123   3.598   3.355
  690SOL    HW1 2969   0.037   3.648   3.358
  690SOL    HW2 2970   0.105   3.501   3.337
  691SOL     OW 2971   2.228   1.445   6.670
  691SOL    HW1 2972   2.255   1.352   6.646
  691SOL    HW2 2973   2.129   1.447   6.685
  692SOL     OW 2974   3.296   6.321   3.931
  692SOL    HW1 2975   3.318   6.256   4.004
  692SOL    HW2 2976   3.375   6.379   3.913
  693SOL     OW 2977   6.415   1.123   3.175
  693SOL    HW1 2978   6.464   1.196   3.223
  693SOL    HW2 2979   6.319   1.124   3.203
  694SOL     OW 2980   3.009   5.604   2.289
  694SOL    HW1 2981   3.044   5.660   2.364
  694SOL    HW2 2982   3.059   5.626   2.206
  695SOL     OW 2983   5.015   4.793   5.698
  695SOL    HW1 2984   4.961   4.771   5.616
  695SOL    HW2 2985   5.004   4.890   5.719
  696SOL     OW 2986   3.311   5.038   1.637
  696SOL    HW1 2987   3.383   5.093   1.595
  696SOL    HW2 2988   3.303   5.063   1.734
  697SOL     OW 2989   1.344   2.690   5.643
  697SOL    HW1 2990   1.389   2.602   5.629
  697SOL    HW2 2991   1.305   2.722   5.556
  698SOL     OW 2992   5.876   0.618   5.652
  698SOL    HW1 2993   5.974   0.637   5.640
  698SOL    HW2 2994   5.824   0.670   5.585
  699SOL     OW 2995   0.325   4.274   0.187
  699SOL    HW1 2996   0.418   4.287   0.221
  699SOL    HW2 2997   0.328   4.230   0.097
  700SOL     OW 2998   3.253   1.847   4.094
  700SOL    HW1 2999   3.308   1.781   4.146
  700SOL    HW2 3000   3.257   1.824   3.997
  701SOL     OW 3001   0.483   4.169   5.921
  701SOL    HW1 3002   0.536   4.233   5.975
  701SOL    HW2 3003   0.411   4.129   5.978
  702SOL     OW 3004   5.555   6.181   6.411
  702SOL    HW1 3005   5.559   6.183   6.511
  702SOL    HW2 3006   5.581   6.271   6.376
  703SOL     OW 3007   4.296   3.609   6.358
  703SOL    HW1 3008   4.377   3.551   6.344
  703SOL    HW2 3009   4.326   3.703   6.371
  704SOL     OW 3010   1.866   1.384   6.185
  704SOL    HW1 3011   1.773   1.408   6.156
  704SOL    HW2 3012   1.878   1.406   6.282
  705SOL     OW 3013   5.199   6.797   3.698
  705SOL    HW1 3014   5.284   6.768   3.654
  705SOL    HW2 3015   5.202   6.776   3.795
  706SOL     OW 3016   3.895   2.136   3.281
  706SOL    HW1 3017   3.922   2.040   3.289
  706SOL    HW2 3018   3.934   2.187   3.357
  707SOL     OW 3019   4.419   0.210   2.821
  707SOL    HW1 3020   4.465   0.172   2.902
  707SOL    HW2 3021   4.415   0.309   2.828
  708SOL     OW 3022   4.237   0.457   1.234
  708SOL    HW1 3023   4.281   0.397   1.301
  708SOL    HW2 3024   4.244   0.416   1.143
  709SOL     OW 3025   1.586   5.570   0.353
  709SOL    HW1 3026   1.581   5.509   0.273
  709SOL    HW2 3027   1.548   5.522   0.432
  710SOL     OW 3028   4.027   3.188   2.671
  710SOL    HW1 3029   4.069   3.269   2.630
  710SOL    HW2 3030   3.929   3.204   2.682
  711SOL     OW 3031   1.267   1.844   6.314
  711SOL    HW1 3032   1.303   1.933   6.342
  711SOL    HW2 3033   1.340   1.776   6.317
  712SOL     OW 3034   2.503   4.379   0.383
  712SOL    HW1 3035   2.568   4.340   0.449
  712SOL    HW2 3036   2.471   4.468   0.417
  713SOL     OW 3037   3.007   3.534   0.276
  713SOL    HW1 3038   2.983   3.624   0.241
  713SOL    HW2 3039   3.083   3.542   0.340
  714SOL     OW 3040   6.855   4.658   4.964
  714SOL    HW1 3041   6.822   4.584   4.906
  714SOL    HW2 3042   6.925   4.623   5.027
  715SOL     OW 3043   5.088   6.264   0.869
  715SOL    HW1 3044   4.996   6.302   0.883
  715SOL    HW2 3045   5.086   6.165   0.884
  716SOL     OW 3046   0.556   6.505   0.791
  716SOL    HW1 3047   0.538   6.419   0.837
  716SOL    HW2 3048   0.649   6.536   0.812
  717SOL     OW 3049   5.868   5.352   6.512
  717SOL    HW1 3050   5.914   5.404   6.440
  717SOL    HW2 3051   5.769   5.354   6.496
  718SOL     OW 3052   4.622   2.391   5.783
  718SOL    HW1 3053   4.555   2.423   5.850
  718SOL    HW2 3054   4.589   2.305   5.742
  719SOL     OW 3055   5.901   2.786   1.266
  719SOL    HW1 3056   5.820   2.840   1.291
  719SOL    HW2 3057   5.872   2.693   1.244
  720SOL     OW 3058   3.475   0.920   6.203
  720SOL    HW1 3059   3.567   0.904   6.166
  720SOL    HW2 3060   3.437   1.004   6.165
  721SOL     OW 3061   1.712   7.019   4.393
  721SOL    HW1 3062   1.758   6.991   4.477
  721SOL    HW2 3063   1.773   7.005   4.315
  722SOL     OW 3064   3.290   6.960   5.332
  722SOL    HW1 3065   3.360   6.965   5.260
  722SOL    HW2 3066   3.229   0.019   5.324
  723SOL     OW 3067   2.138   3.142   2.828
  723SOL    HW1 3068   2.132   3.216   2.762
  723SOL    HW2 3069   2.057   3.083   2.820
  724SOL     OW 3070   1.237   1.138   4.613
  724SOL    HW1 3071   1.139   1.151   4.627
  724SOL    HW2 3072   1.269   1.197   4.539
  725SOL     OW 3073   3.111   5.144   1.497
  725SOL    HW1 3074   3.042   5.186   1.556
  725SOL    HW2 3075   3.173   5.088   1.553
  726SOL     OW 3076   4.201   4.206   0.823
  726SOL    HW1 3077   4.185   4.116   0.864
  726SOL    HW2 3078   4.272   4.254   0.875
  727SOL     OW 3079   4.967   5.593   5.409
  727SOL    HW1 3080   4.983   5.691   5.393
  727SOL    HW2 3081   5.032   5.540   5.353
  728SOL     OW 3082   0.911   3.911   5.573
  728SOL    HW1 3083   0.979   3.947   5.637
  728SOL    HW2 3084   0.819   3.930   5.608
  729SOL     OW 3085   2.221   0.831   0.379
  729SOL    HW1 3086   2.292   0.853   0.446
  729SOL    HW2 3087   2.254   0.853   0.287
  730SOL     OW 3088   5.580   0.115   3.631
  730SOL    HW1 3089   5.652   0.128   3.563
  730SOL    HW2 3090   5.562   0.202   3.677
  731SOL     OW 3091   6.181   3.703   5.787
  731SOL    HW1 3092   6.220   3.675   5.875
  731SOL    HW2 3093   6.117   3.632   5.756
  732SOL     OW 3094   0.474   3.774   0.959
  732SOL    HW1 3095   0.469   3.810   1.052
  732SOL    HW2 3096   0.550   3.709   0.952
  733SOL     OW 3097   6.083   4.333   4.943
  733SOL    HW1 3098   6.066   4.315   4.846
  733SOL    HW2 3099   6.140   4.415   4.952
  734SOL     OW 3100   6.431   4.553   2.609
  734SOL    HW1 3101   6.502   4.621   2.627
  734SOL    HW2 3102   6.341   4.597   2.608
  735SOL     OW 3103   3.340   2.943   0.883
  735SOL    HW1 3104   3.265   2.923   0.946
  735SOL    HW2 3105   3.423   2.898   0.916
  736SOL     OW 3106   6.321   5.803   2.604
  736SOL    HW1 3107   6.301   5.705   2.597
  736SOL    HW2 3108   6.418   5.816   2.623
  737SOL     OW 3109   4.431   2.858   0.174
  737SOL    HW1 3110   4.341   2.859   0.130
  737SOL    HW2 3111   4.473   2.949   0.165
  738SOL     OW 3112   2.283   4.649   2.770
  738SOL    HW1 3113   2.312   4.714   2.699
  738SOL    HW2 3114   2.363   4.596   2.799
  739SOL     OW 3115   4.490   6.280   5.451
  739SOL    HW1 3116   4.517   6.209   5.517
  739SOL    HW2 3117   4.569   6.305   5.395
  740SOL     OW 3118   5.181   6.966   0.865
  740SOL    HW1 3119   5.185   6.958   0.965
  740SOL    HW2 3120   5.102   6.915   0.831
  741SOL     OW 3121   2.074   6.504   2.926
  741SOL    HW1 3122   2.101   6.450   3.005
  741SOL    HW2 3123   2.099   6.600   2.940
  742SOL     OW 3124   2.231   6.846   1.503
  742SOL    HW1 3125   2.146   6.830   1.553
  742SOL    HW2 3126   2.212   6.896   1.419
  743SOL     OW 3127   1.421   3.847   4.243
  743SOL    HW1 3128   1.508   3.811   4.210
  743SOL    HW2 3129   1.384   3.913   4.177
  744SOL     OW 3130   5.965   0.236   6.174
  744SOL    HW1 3131   6.054   0.262   6.135
  744SOL    HW2 3132   5.965   0.138   6.194
  745SOL     OW 3133   0.861   5.187   4.616
  745SOL    HW1 3134   0.957   5.177   4.590
  745SOL    HW2 3135   0.843   5.283   4.639
  746SOL     OW 3136   0.861   6.076   5.940
  746SOL    HW1 3137   0.902   6.025   5.865
  746SOL    HW2 3138   0.764   6.093   5.920
  747SOL     OW 3139   4.629   4.703   5.145
  747SOL    HW1 3140   4.695   4.666   5.079
  747SOL    HW2 3141   4.653   4.797   5.168
  748SOL     OW 3142   3.593   5.700   2.875
  748SOL    HW1 3143   3.653   5.673   2.950
  748SOL    HW2 3144   3.607   5.797   2.854
  749SOL     OW 3145   6.626   3.542   4.944
  749SOL    HW1 3146   6.596   3.538   4.849
  749SOL    HW2 3147   6.611   3.634   4.980
  750SOL     OW 3148   1.928   3.623   0.836
  750SOL    HW1 3149   1.847   3.615   0.893
  750SOL    HW2 3150   1.955   3.719   0.828
  751SOL     OW 3151   4.068   1.832   6.291
  751SOL    HW1 3152   4.103   1.916   6.332
  751SOL    HW2 3153   3.974   1.817   6.321
  752SOL     OW 3154   4.209   2.455   1.780
  752SOL    HW1 3155   4.129   2.502   1.744
  752SOL    HW2 3156   4.265   2.420   1.705
  753SOL     OW 3157   2.109   3.037   4.210
  753SOL    HW1 3158   2.049   3.106   4.169
  753SOL    HW2 3159   2.118   3.054   4.308
  754SOL     OW 3160   5.710   3.305   6.606
  754SOL    HW1 3161   5.757   3.225   6.567
  754SOL    HW2 3162   5.764   3.343   6.680
  755SOL     OW 3163   1.400   5.788   6.307
  755SOL    HW1 3164   1.314   5.834   6.329
  755SOL    HW2 3165   1.460   5.851   6.257
  756SOL     OW 3166   4.104   6.789   1.552
  756SOL    HW1 3167   4.086   6.709   1.608
  756SOL    HW2 3168   4.189   6.776   1.502
  757SOL     OW 3169   0.430   6.444   2.924
  757SOL    HW1 3170   0.454   6.465   3.019
  757SOL    HW2 3171   0.475   6.359   2.896
  758SOL     OW 3172   4.253   0.952   1.717
  758SOL    HW1 3173   4.160   0.923   1.698
  758SOL    HW2 3174   4.308   0.944   1.634
  759SOL     OW 3175   0.486   0.822   0.786
  759SOL    HW1 3176   0.573   0.866   0.805
  759SOL    HW2 3177   0.503   0.728   0.756
  760SOL     OW 3178   4.559   0.801   6.307
  760SOL    HW1 3179   4.574   0.900   6.311
  760SOL    HW2 3180   4.519   0.777   6.219
  761SOL     OW 3181   5.521   3.996   5.806
  761SOL    HW1 3182   5.591   3.946   5.857
  761SOL    HW2 3183   5.430   3.966   5.837
  762SOL     OW 3184   2.509   6.813   4.229
  762SOL    HW1 3185   2.513   6.765   4.317
  762SOL    HW2 3186   2.601   6.824   4.192
  763SOL     OW 3187   3.958   4.981   6.488
  763SOL    HW1 3188   4.021   5.047   6.447
  763SOL    HW2 3189   3.989   4.888   6.467
  764SOL     OW 3190   4.825   0.899   3.794
  764SOL    HW1 3191   4.923   0.914   3.805
  764SOL    HW2 3192   4.798   0.917   3.700
  765SOL     OW 3193   1.453   6.621   1.050
  765SOL    HW1 3194   1.537   6.667   1.019
  765SOL    HW2 3195   1.441   6.536   0.999
  766SOL     OW 3196   0.759   2.327   0.807
  766SOL    HW1 3197   0.765   2.386   0.726
  766SOL    HW2 3198   0.666   2.294   0.817
  767SOL     OW 3199   6.443   5.788   2.364
  767SOL    HW1 3200   6.509   5.715   2.384
  767SOL    HW2 3201   6.379   5.797   2.440
  768SOL     OW 3202   2.831   6.608   2.296
  768SOL    HW1 3203   2.835   6.529   2.235
  768SOL    HW2 3204   2.740   6.648   2.292
  769SOL     OW 3205   3.313   0.480   4.251
  769SOL    HW1 3206   3.301   0.571   4.292
  769SOL    HW2 3207   3.407   0.449   4.267
  770SOL     OW 3208   1.511   4.616   2.965
  770SOL    HW1 3209   1.602   4.575   2.958
  770SOL    HW2 3210   1.465   4.610   2.876
  771SOL     OW 3211   2.121   5.475   2.551
  771SOL    HW1 3212   2.151   5.532   2.474
  771SOL    HW2 3213   2.181   5.490   2.629
  772SOL     OW 3214   0.008   5.399   0.646
  772SOL    HW1 3215   0.049   5.445   0.567
  772SOL    HW2 3216   7.013   5.465   0.720
  773SOL     OW 3217   0.172   4.137   3.475
  773SOL    HW1 3218   0.104   4.202   3.508
  773SOL    HW2 3219   0.137   4.044   3.485
  774SOL     OW 3220   1.522   1.102   2.482
  774SOL    HW1 3221   1.532   1.167   2.406
  774SOL    HW2 3222   1.556   1.144   2.566
  775SOL     OW 3223   0.484   1.762   3.341
  775SOL    HW1 3224   0.420   1.798   3.273
  775SOL    HW2 3225   0.527   1.838   3.390
  776SOL     OW 3226   6.621   0.974   5.515
  776SOL    HW1 3227   6.584   1.038   5.447
  776SOL    HW2 3228   6.586   0.998   5.606
  777SOL     OW 3229   3.353   6.081   1.078
  777SOL    HW1 3230   3.350   6.159   1.140
  777SOL    HW2 3231   3.297   6.099   0.997
  778SOL     OW 3232   3.406   1.261   2.834
  778SOL    HW1 3233   3.411   1.323   2.912
  778SOL    HW2 3234   3.486   1.274   2.775
  779SOL     OW 3235   0.782   2.076   2.677
  779SOL    HW1 3236   0.872   2.095   2.637
  779SOL    HW2 3237   0.738   2.163   2.701
  780SOL     OW 3238   6.520   3.875   4.153
  780SOL    HW1 3239   6.420   3.877   4.152
  780SOL    HW2 3240   6.551   3.783   4.176
  781SOL     OW 3241   5.220   2.019   6.531
  781SOL    HW1 3242   5.157   1.975   6.467
  781SOL    HW2 3243   5.288   2.072   6.481
  782SOL     OW 3244   0.445   3.575   0.155
  782SOL    HW1 3245   0.400   3.620   0.078
  782SOL    HW2 3246   0.396   3.490   0.177
  783SOL     OW 3247   3.976   4.798   0.957
  783SOL    HW1 3248   4.067   4.830   0.932
  783SOL    HW2 3249   3.973   4.698   0.950
  784SOL     OW 3250   4.893   6.688   6.547
  784SOL    HW1 3251   4.817   6.752   6.537
  784SOL    HW2 3252   4.971   6.734   6.588
  785SOL     OW 3253   6.643   2.221   3.555
  785SOL    HW1 3254   6.628   2.229   3.654
  785SOL    HW2 3255   6.707   2.292   3.526
  786SOL     OW 3256   1.769   1.399   1.266
  786SOL    HW1 3257   1.799   1.378   1.359
  786SOL    HW2 3258   1.846   1.439   1.215
  787SOL     OW 3259   3.136   1.420   6.323
  787SOL    HW1 3260   3.212   1.355   6.332
  787SOL    HW2 3261   3.167   1.500   6.272
  788SOL     OW 3262   2.403   2.200   4.807
  788SOL    HW1 3263   2.389   2.283   4.862
  788SOL    HW2 3264   2.379   2.120   4.861
  789SOL     OW 3265   5.168   4.055   0.811
  789SOL    HW1 3266   5.099   4.123   0.834
  789SOL    HW2 3267   5.122   3.969   0.788
  790SOL     OW 3268   2.715   1.093   3.871
  790SOL    HW1 3269   2.781   1.161   3.906
  790SOL    HW2 3270   2.627   1.107   3.916
  791SOL     OW 3271   3.629   6.754   3.127
  791SOL    HW1 3272   3.683   6.778   3.207
  791SOL    HW2 3273   3.683   6.698   3.065
  792SOL     OW 3274   0.387   0.390   1.895
  792SOL    HW1 3275   0.363   0.463   1.959
  792SOL    HW2 3276   0.307   0.366   1.840
  793SOL     OW 3277   4.727   6.124   2.501
  793SOL    HW1 3278   4.670   6.107   2.420
  793SOL    HW2 3279   4.687   6.078   2.580
  794SOL     OW 3280   3.061   3.320   4.865
  794SOL    HW1 3281   3.153   3.349   4.841
  794SOL    HW2 3282   3.056   3.220   4.864
  795SOL     OW 3283   3.396   5.624   4.819
  795SOL    HW1 3284   3.390   5.663   4.728
  795SOL    HW2 3285   3.429   5.693   4.884
  796SOL     OW 3286   1.211   2.408   6.337
  796SOL    HW1 3287   1.247   2.499   6.315
  796SOL    HW2 3288   1.234   2.385   6.431
  797SOL     OW 3289   5.025   2.348   2.341
  797SOL    HW1 3290   5.099   2.318   2.402
  797SOL    HW2 3291   4.991   2.436   2.372
  798SOL     OW 3292   5.325   6.702   1.347
  798SOL    HW1 3293   5.292   6.772   1.410
  798SOL    HW2 3294   5.345   6.743   1.258
  799SOL     OW 3295   5.982   1.394   4.279
  799SOL    HW1 3296   6.057   1.401   4.345
  799SOL    HW2 3297   5.940   1.484   4.266
  800SOL     OW 3298   5.452   1.379   2.401
  800SOL    HW1 3299   5.509   1.391   2.482
  800SOL    HW2 3300   5.404   1.464   2.381
  801SOL     OW 3301   1.827   3.029   3.490
  801SOL    HW1 3302   1.733   3.016   3.522
  801SOL    HW2 3303   1.826   3.047   3.392
  802SOL     OW 3304   4.107   0.077   0.416
  802SOL    HW1 3305   4.030   0.114   0.468
  802SOL    HW2 3306   4.189   0.075   0.473
  803SOL     OW 3307   0.708   5.231   5.026
  803SOL    HW1 3308   0.669   5.294   5.093
  803SOL    HW2 3309   0.662   5.242   4.938
  804SOL     OW 3310   6.203   5.973   6.718
  804SOL    HW1 3311   6.201   5.968   6.619
  804SOL    HW2 3312   6.117   6.011   6.752
  805SOL     OW 3313   3.325   2.019   5.493
  805SOL    HW1 3314   3.241   2.070   5.508
  805SOL    HW2 3315   3.304   1.930   5.453
  806SOL     OW 3316   4.433   1.057   4.569
  806SOL    HW1 3317   4.339   1.050   4.537
  806SOL    HW2 3318   4.466   1.151   4.557
  807SOL     OW 3319   0.459   1.889   4.035
  807SOL    HW1 3320   0.498   1.928   3.952
  807SOL    HW2 3321   0.360   1.899   4.034
  808SOL     OW 3322   4.682   3.974   6.089
  808SOL    HW1 3323   4.601   3.922   6.064
  808SOL    HW2 3324   4.676   4.002   6.185
  809SOL     OW 3325   0.570   4.624   1.495
  809SOL    HW1 3326   0.607   4.535   1.469
  809SOL    HW2 3327   0.640   4.677   1.543
  810SOL     OW 3328   3.789   2.542   1.145
  810SOL    HW1 3329   3.873   2.512   1.100
  810SOL    HW2 3330   3.710   2.496   1.104
  811SOL     OW 3331   4.274   5.669   4.119
  811SOL    HW1 3332   4.324   5.693   4.202
  811SOL    HW2 3333   4.176   5.686   4.133
  812SOL     OW 3334   0.926   1.374   2.318
  812SOL    HW1 3335   0.999   1.354   2.384
  812SOL    HW2 3336   0.897   1.469   2.329
  813SOL     OW 3337   3.864   4.971   4.699
  813SOL    HW1 3338   3.894   5.004   4.788
  813SOL    HW2 3339   3.878   5.043   4.630
  814SOL     OW 3340   5.429   6.192   3.496
  814SOL    HW1 3341   5.403   6.201   3.593
  814SOL    HW2 3342   5.456   6.097   3.478
  815SOL     OW 3343   6.970   3.090   2.852
  815SOL    HW1 3344   0.001   3.130   2.776
  815SOL    HW2 3345   6.982   2.991   2.852
  816SOL     OW 3346   6.690   6.574   0.315
  816SOL    HW1 3347   6.780   6.544   0.346
  816SOL    HW2 3348   6.685   6.566   0.215
  817SOL     OW 3349   2.312   3.890   1.830
  817SOL    HW1 3350   2.372   3.820   1.791
  817SOL    HW2 3351   2.252   3.925   1.758
  818SOL     OW 3352   6.259   3.355   1.753
  818SOL    HW1 3353   6.183   3.317   1.807
  818SOL    HW2 3354   6.341   3.301   1.769
  819SOL     OW 3355   5.623   3.203   3.241
  819SOL    HW1 3356   5.709   3.155   3.220
  819SOL    HW2 3357   5.639   3.301   3.241
  820SOL     OW 3358   1.905   2.683   6.649
  820SOL    HW1 3359   1.917   2.705   6.746
  820SOL    HW2 3360   1.850   2.754   6.605
  821SOL     OW 3361   2.363   4.589   0.558
  821SOL    HW1 3362   2.265   4.576   0.543
  821SOL    HW2 3363   2.398   4.656   0.492
  822SOL     OW 3364   0.840   4.742   4.459
  822SOL    HW1 3365   0.770   4.773   4.395
  822SOL    HW2 3366   0.923   4.718   4.408
  823SOL     OW 3367   4.870   4.236   6.991
  823SOL    HW1 3368   4.938   4.308   7.000
  823SOL    HW2 3369   4.779   4.276   6.985
  824SOL     OW 3370   5.279   0.755   5.159
  824SOL    HW1 3371   5.307   0.677   5.103
  824SOL    HW2 3372   5.233   0.823   5.101
  825SOL     OW 3373   1.418   3.940   1.607
  825SOL    HW1 3374   1.327   3.963   1.571
  825SOL    HW2 3375   1.427   3.841   1.612
  826SOL     OW 3376   5.425   3.283   0.249
  826SOL    HW1 3377   5.418   3.363   0.189
  826SOL    HW2 3378   5.490   3.218   0.209
  827SOL     OW 3379   3.206   5.757   6.193
  827SOL    HW1 3380   3.114   5.742   6.157
  827SOL    HW2 3381   3.216   5.854   6.218
  828SOL     OW 3382   6.086   0.142   5.769
  828SOL    HW1 3383   6.102   0.236   5.801
  828SOL    HW2 3384   6.044   0.145   5.678
  829SOL     OW 3385   2.932   3.714   3.856
  829SOL    HW1 3386   2.898   3.755   3.941
  829SOL    HW2 3387   2.970   3.624   3.877
  830SOL     OW 3388   5.051   5.098   6.474
  830SOL    HW1 3389   5.067   5.176   6.414
  830SOL    HW2 3390   5.077   5.122   6.567
  831SOL     OW 3391   6.461   0.869   5.256
  831SOL    HW1 3392   6.434   0.799   5.189
  831SOL    HW2 3393   6.483   0.824   5.343
  832SOL     OW 3394   2.027   0.653   0.980
  832SOL    HW1 3395   2.032   0.703   1.066
  832SOL    HW2 3396   1.950   0.686   0.927
  833SOL     OW 3397   0.156   4.929   5.741
  833SOL    HW1 3398   0.185   4.862   5.810
  833SOL    HW2 3399   0.235   4.977   5.704
  834SOL     OW 3400   3.178   3.546   1.112
  834SOL    HW1 3401   3.276   3.533   1.127
  834SOL    HW2 3402   3.128   3.472   1.156
  835SOL     OW 3403   3.717   6.753   4.118
  835SOL    HW1 3404   3.717   6.852   4.106
  835SOL    HW2 3405   3.781   6.711   4.054
  836SOL     OW 3406   3.553   6.906   6.842
  836SOL    HW1 3407   3.643   6.889   6.882
  836SOL    HW2 3408   3.486   6.847   6.886
  837SOL     OW 3409   5.118   6.590   0.059
  837SOL    HW1 3410   5.065   6.598   6.993
  837SOL    HW2 3411   5.102   6.670   0.116
  838SOL     OW 3412   1.308   0.755   5.121
  838SOL    HW1 3413   1.344   0.790   5.035
  838SOL    HW2 3414   1.260   0.669   5.105
  839SOL     OW 3415   2.577   2.433   2.084
  839SOL    HW1 3416   2.512   2.505   2.060
  839SOL    HW2 3417   2.667   2.456   2.046
  840SOL     OW 3418   6.178   0.022   5.995
  840SOL    HW1 3419   6.121   0.026   6.077
  840SOL    HW2 3420   6.132   0.068   5.920
  841SOL     OW 3421   5.725   4.708   0.543
  841SOL    HW1 3422   5.699   4.770   0.469
  841SOL    HW2 3423   5.705   4.752   0.631
  842SOL     OW 3424   4.582   4.927   4.489
  842SOL    HW1 3425   4.488   4.904   4.464
  842SOL    HW2 3426   4.604   4.885   4.577
  843SOL     OW 3427   4.255   1.904   6.665
  843SOL    HW1 3428   4.230   1.982   6.608
  843SOL    HW2 3429   4.307   1.838   6.611
  844SOL     OW 3430   4.377   0.046   1.053
  844SOL    HW1 3431   4.363   0.138   1.017
  844SOL    HW2 3432   4.473   0.019   1.041
  845SOL     OW 3433   6.133   3.658   4.849
  845SOL    HW1 3434   6.064   3.641   4.919
  845SOL    HW2 3435   6.123   3.592   4.775
  846SOL     OW 3436   4.188   2.034   6.916
  846SOL    HW1 3437   4.219   2.013   6.823
  846SOL    HW2 3438   4.252   1.996   6.982
  847SOL     OW 3439   0.077   3.442   0.080
  847SOL    HW1 3440   0.138   3.377   0.125
  847SOL    HW2 3441   7.017   3.460   0.139
  848SOL     OW 3442   6.369   1.789   6.509
  848SOL    HW1 3443   6.418   1.853   6.568
  848SOL    HW2 3444   6.427   1.764   6.431
  849SOL     OW 3445   1.243   4.777   6.077
  849SOL    HW1 3446   1.154   4.738   6.054
  849SOL    HW2 3447   1.285   4.816   5.996
  850SOL     OW 3448   5.525   1.037   3.495
  850SOL    HW1 3449   5.602   1.099   3.509
  850SOL    HW2 3450   5.442   1.078   3.533
  851SOL     OW 3451   0.173   1.768   1.868
  851SOL    HW1 3452   0.271   1.786   1.869
  851SOL    HW2 3453   0.156   1.674   1.838
  852SOL     OW 3454   2.682   2.664   0.196
  852SOL    HW1 3455   2.673   2.667   0.097
  852SOL    HW2 3456   2.613   2.603   0.235
  853SOL     OW 3457   1.404   3.820   1.961
  853SOL    HW1 3458   1.468   3.787   2.031
  853SOL    HW2 3459   1.452   3.883   1.899
  854SOL     OW 3460   4.696   5.752   2.489
  854SOL    HW1 3461   4.691   5.655   2.463
  854SOL    HW2 3462   4.731   5.805   2.413
  855SOL     OW 3463   6.290   6.966   1.258
  855SOL    HW1 3464   6.220   6.988   1.190
  855SOL    HW2 3465   6.257   6.989   1.349
  856SOL     OW 3466   1.688   1.496   4.875
  856SOL    HW1 3467   1.705   1.463   4.782
  856SOL    HW2 3468   1.698   1.595   4.877
  857SOL     OW 3469   6.070   5.315   1.401
  857SOL    HW1 3470   6.105   5.320   1.495
  857SOL    HW2 3471   6.147   5.305   1.338
  858SOL     OW 3472   2.077   4.231   1.582
  858SOL    HW1 3473   2.089   4.144   1.632
  858SOL    HW2 3474   2.016   4.217   1.504
  859SOL     OW 3475   5.059   5.296   6.780
  859SOL    HW1 3476   5.083   5.229   6.851
  859SOL    HW2 3477   5.111   5.380   6.795
  860SOL     OW 3478   4.386   4.277   0.990
  860SOL    HW1 3479   4.378   4.358   1.048
  860SOL    HW2 3480   4.447   4.210   1.033
  861SOL     OW 3481   2.410   0.330   4.744
  861SOL    HW1 3482   2.358   0.412   4.722
  861SOL    HW2 3483   2.352   0.265   4.791
  862SOL     OW 3484   6.866   4.506   5.372
  862SOL    HW1 3485   6.769   4.481   5.375
  862SOL    HW2 3486   6.875   4.603   5.351
  863SOL     OW 3487   1.241   0.319   0.799
  863SOL    HW1 3488   1.221   0.298   0.894
  863SOL    HW2 3489   1.161   0.298   0.743
  864SOL     OW 3490   5.077   4.960   3.629
  864SOL    HW1 3491   5.158   5.010   3.599
  864SOL    HW2 3492   4.998   5.022   3.630
  865SOL     OW 3493   1.694   6.291   5.581
  865SOL    HW1 3494   1.625   6.263   5.647
  865SOL    HW2 3495   1.657   6.282   5.488
  866SOL     OW 3496   2.072   2.840   1.294
  866SOL    HW1 3497   2.026   2.925   1.269
  866SOL    HW2 3498   2.118   2.802   1.213
  867SOL     OW 3499   4.014   2.782   0.741
  867SOL    HW1 3500   3.959   2.797   0.659
  867SOL    HW2 3501   3.983   2.698   0.786
  868SOL     OW 3502   5.957   6.519   1.275
  868SOL    HW1 3503   5.993   6.507   1.183
  868SOL    HW2 3504   5.941   6.430   1.317
  869SOL     OW 3505   6.744   5.337   2.665
  869SOL    HW1 3506   6.738   5.436   2.672
  869SOL    HW2 3507   6.710   5.296   2.749
  870SOL     OW 3508   6.096   3.625   0.468
  870SOL    HW1 3509   6.056   3.553   0.412
  870SOL    HW2 3510   6.049   3.629   0.556
  871SOL     OW 3511   6.807   3.516   2.144
  871SOL    HW1 3512   6.903   3.538   2.130
  871SOL    HW2 3513   6.750   3.588   2.103
  872SOL     OW 3514   6.268   4.122   3.878
  872SOL    HW1 3515   6.178   4.122   3.834
  872SOL    HW2 3516   6.268   4.187   3.955
  873SOL     OW 3517   4.747   6.960   3.739
  873SOL    HW1 3518   4.803   0.022   3.752
  873SOL    HW2 3519   4.736   6.913   3.827
  874SOL     OW 3520   1.563   4.377   5.514
  874SOL    HW1 3521   1.490   4.370   5.446
  874SOL    HW2 3522   1.604   4.468   5.510
  875SOL     OW 3523   4.851   3.484   1.319
  875SOL    HW1 3524   4.879   3.396   1.282
  875SOL    HW2 3525   4.890   3.496   1.410
  876SOL     OW 3526   0.283   5.464   3.602
  876SOL    HW1 3527   0.209   5.398   3.613
  876SOL    HW2 3528   0.295   5.484   3.505
  877SOL     OW 3529   3.744   4.718   6.617
  877SOL    HW1 3530   3.653   4.700   6.581
  877SOL    HW2 3531   3.751   4.813   6.647
  878SOL     OW 3532   4.186   5.806   6.294
  878SOL    HW1 3533   4.266   5.783   6.350
  878SOL    HW2 3534   4.121   5.730   6.297
  879SOL     OW 3535   3.610   2.091   2.369
  879SOL    HW1 3536   3.574   2.095   2.276
  879SOL    HW2 3537   3.534   2.081   2.434
  880SOL     OW 3538   2.905   4.895   6.979
  880SOL    HW1 3539   2.940   4.986   7.001
  880SOL    HW2 3540   2.981   4.834   6.959
  881SOL     OW 3541   4.057   4.574   5.306
  881SOL    HW1 3542   4.120   4.534   5.239
  881SOL    HW2 3543   4.010   4.501   5.355
  882SOL     OW 3544   1.832   1.246   3.663
  882SOL    HW1 3545   1.794   1.317   3.723
  882SOL    HW2 3546   1.783   1.246   3.576
  883SOL     OW 3547   5.048   5.321   5.049
  883SOL    HW1 3548   5.074   5.365   5.135
  883SOL    HW2 3549   5.084   5.374   4.972
  884SOL     OW 3550   6.746   4.017   2.163
  884SOL    HW1 3551   6.658   3.992   2.202
  884SOL    HW2 3552   6.732   4.075   2.082
  885SOL     OW 3553   5.479   5.936   6.672
  885SOL    HW1 3554   5.446   5.842   6.685
  885SOL    HW2 3555   5.416   5.999   6.716
  886SOL     OW 3556   4.112   0.448   0.201
  886SOL    HW1 3557   4.196   0.448   0.146
  886SOL    HW2 3558   4.130   0.494   0.288
  887SOL     OW 3559   4.392   6.535   5.347
  887SOL    HW1 3560   4.365   6.473   5.421
  887SOL    HW2 3561   4.464   6.493   5.293
  888SOL     OW 3562   6.512   6.503   3.339
  888SOL    HW1 3563   6.546   6.431   3.398
  888SOL    HW2 3564   6.437   6.467   3.283
  889SOL     OW 3565   0.256   6.690   5.648
  889SOL    HW1 3566   0.221   6.599   5.628
  889SOL    HW2 3567   0.214   6.756   5.585
  890SOL     OW 3568   2.692   4.853   1.930
  890SOL    HW1 3569   2.704   4.763   1.972
  890SOL    HW2 3570   2.770   4.912   1.954
  891SOL     OW 3571   5.527   3.833   1.015
  891SOL    HW1 3572   5.569   3.755   0.968
  891SOL    HW2 3573   5.490   3.802   1.103
  892SOL     OW 3574   4.016   3.705   0.345
  892SOL    HW1 3575   3.966   3.650   0.278
  892SOL    HW2 3576   3.978   3.798   0.347
  893SOL     OW 3577   2.329   0.784   1.455
  893SOL    HW1 3578   2.311   0.876   1.420
  893SOL    HW2 3579   2.417   0.782   1.502
  894SOL     OW 3580   2.211   3.923   4.083
  894SOL    HW1 3581   2.163   3.838   4.107
  894SOL    HW2 3582   2.211   3.985   4.161
  895SOL     OW 3583   2.078   6.188   5.084
  895SOL    HW1 3584   2.011   6.150   5.020
  895SOL    HW2 3585   2.078   6.287   5.076
  896SOL     OW 3586   5.022   5.662   2.981
  896SOL    HW1 3587   5.015   5.754   2.941
  896SOL    HW2 3588   5.052   5.598   2.912
  897SOL     OW 3589   4.782   1.175   0.596
  897SOL    HW1 3590   4.765   1.262   0.549
  897SOL    HW2 3591   4.722   1.169   0.676
  898SOL     OW 3592   4.243   6.160   3.572
  898SOL    HW1 3593   4.176   6.158   3.646
  898SOL    HW2 3594   4.297   6.076   3.574
  899SOL     OW 3595   0.583   5.509   0.090
  899SOL    HW1 3596   0.497   5.496   0.140
  899SOL    HW2 3597   0.599   5.431   0.030
  900SOL     OW 3598   5.197   5.880   1.500
  900SOL    HW1 3599   5.116   5.934   1.523
  900SOL    HW2 3600   5.278   5.924   1.539
  901SOL     OW 3601   6.677   1.428   4.897
  901SOL    HW1 3602   6.616   1.390   4.966
  901SOL    HW2 3603   6.685   1.527   4.911
  902SOL     OW 3604   0.297   1.454   6.253
  902SOL    HW1 3605   0.225   1.474   6.320
  902SOL    HW2 3606   0.259   1.396   6.180
  903SOL     OW 3607   6.620   4.675   7.014
  903SOL    HW1 3608   6.617   4.691   6.915
  903SOL    HW2 3609   6.527   4.664   0.030
  904SOL     OW 3610   1.587   2.093   4.312
  904SOL    HW1 3611   1.544   2.094   4.221
  904SOL    HW2 3612   1.686   2.097   4.302
  905SOL     OW 3613   5.125   2.741   6.755
  905SOL    HW1 3614   5.188   2.818   6.744
  905SOL    HW2 3615   5.040   2.773   6.797
  906SOL     OW 3616   0.336   3.858   6.493
  906SOL    HW1 3617   0.347   3.906   6.580
  906SOL    HW2 3618   0.425   3.849   6.449
  907SOL     OW 3619   6.060   2.597   3.074
  907SOL    HW1 3620   6.057   2.594   3.174
  907SOL    HW2 3621   5.967   2.610   3.039
  908SOL     OW 3622   1.208   6.893   4.288
  908SOL    HW1 3623   1.222   6.992   4.283
  908SOL    HW2 3624   1.229   6.852   4.199
  909SOL     OW 3625   2.373   0.950   0.919
  909SOL    HW1 3626   2.444   1.015   0.892
  909SOL    HW2 3627   2.389   0.921   1.013
  910SOL     OW 3628   2.283   0.702   0.803
  910SOL    HW1 3629   2.189   0.684   0.833
  910SOL    HW2 3630   2.314   0.789   0.841
  911SOL     OW 3631   0.209   5.303   1.271
  911SOL    HW1 3632   0.297   5.348   1.287
  911SOL    HW2 3633   0.147   5.366   1.225
  912SOL     OW 3634   0.114   0.862   5.457
  912SOL    HW1 3635   0.116   0.768   5.491
  912SOL    HW2 3636   0.050   0.869   5.381
  913SOL     OW 3637   2.128   0.535   3.410
  913SOL    HW1 3638   2.134   0.506   3.314
  913SOL    HW2 3639   2.219   0.534   3.451
  914SOL     OW 3640   2.519   5.450   5.377
  914SOL    HW1 3641   2.593   5.479   5.437
  914SOL    HW2 3642   2.443   5.415   5.431
  915SOL     OW 3643   0.408   3.519   1.178
  915SOL    HW1 3644   0.452   3.454   1.116
  915SOL    HW2 3645   0.309   3.515   1.166
  916SOL     OW 3646   1.590   2.393   2.320
  916SOL    HW1 3647   1.499   2.434   2.333
  916SOL    HW2 3648   1.582   2.313   2.261
  917SOL     OW 3649   4.020   0.869   1.330
  917SOL    HW1 3650   3.955   0.803   1.366
  917SOL    HW2 3651   4.032   0.943   1.396
  918SOL     OW 3652   2.917   6.210   0.043
  918SOL    HW1 3653   2.942   6.187   6.968
  918SOL    HW2 3654   2.842   6.276   0.042
  919SOL     OW 3655   1.822   6.582   1.817
  919SOL    HW1 3656   1.842   6.583   1.915
  919SOL    HW2 3657   1.806   6.488   1.787
  920SOL     OW 3658   2.554   0.395   3.664
  920SOL    HW1 3659   2.608   0.341   3.599
  920SOL    HW2 3660   2.514   0.333   3.732
  921SOL     OW 3661   4.635   5.010   3.819
  921SOL    HW1 3662   4.694   5.055   3.752
  921SOL    HW2 3663   4.668   4.917   3.835
  922SOL     OW 3664   3.388   2.886   6.611
  922SOL    HW1 3665   3.440   2.971   6.603
  922SOL    HW2 3666   3.295   2.900   6.577
  923SOL     OW 3667   3.335   5.945   0.665
  923SOL    HW1 3668   3.268   5.882   0.706
  923SOL    HW2 3669   3.427   5.913   0.686
  924SOL     OW 3670   5.279   3.401   2.817
  924SOL    HW1 3671   5.377   3.415   2.822
  924SOL    HW2 3672   5.259   3.303   2.804
  925SOL     OW 3673   0.006   1.693   5.229
  925SOL    HW1 3674   0.005   1.672   5.327
  925SOL    HW2 3675   0.026   1.790   5.215
  926SOL     OW 3676   5.944   1.130   6.799
  926SOL    HW1 3677   5.866   1.171   6.846
  926SOL    HW2 3678   5.918   1.040   6.764
  927SOL     OW 3679   5.056   4.087   4.072
  927SOL    HW1 3680   5.113   4.157   4.030
  927SOL    HW2 3681   5.040   4.013   4.007
  928SOL     OW 3682   1.579   0.708   0.767
  928SOL    HW1 3683   1.544   0.614   0.769
  928SOL    HW2 3684   1.510   0.770   0.803
  929SOL     OW 3685   6.717   2.561   1.236
  929SOL    HW1 3686   6.794   2.512   1.275
  929SOL    HW2 3687   6.645   2.570   1.304
  930SOL     OW 3688   6.983   5.559   4.780
  930SOL    HW1 3689   0.061   5.536   4.778
  930SOL    HW2 3690   6.971   5.652   4.816
  931SOL     OW 3691   0.264   3.838   3.476
  931SOL    HW1 3692   0.191   3.771   3.461
  931SOL    HW2 3693   0.340   3.819   3.413
  932SOL     OW 3694   2.865   6.375   1.449
  932SOL    HW1 3695   2.942   6.439   1.453
  932SOL    HW2 3696   2.864   6.329   1.360
  933SOL     OW 3697   0.934   4.875   2.214
  933SOL    HW1 3698   0.956   4.868   2.311
  933SOL    HW2 3699   0.860   4.811   2.192
  934SOL     OW 3700   2.768   1.249   4.430
  934SOL    HW1 3701   2.759   1.298   4.517
  934SOL    HW2 3702   2.713   1.294   4.360
  935SOL     OW 3703   4.728   3.564   5.624
  935SOL    HW1 3704   4.742   3.609   5.712
  935SOL    HW2 3705   4.629   3.555   5.607
  936SOL     OW 3706   0.643   0.002   6.480
  936SOL    HW1 3707   0.673   0.085   6.526
  936SOL    HW2 3708   0.689   6.942   6.520
  937SOL     OW 3709   4.590   2.076   5.373
  937SOL    HW1 3710   4.657   2.039   5.308
  937SOL    HW2 3711   4.637   2.107   5.455
  938SOL     OW 3712   6.919   4.870   5.857
  938SOL    HW1 3713   6.938   4.791   5.916
  938SOL    HW2 3714   7.000   4.890   5.801
  939SOL     OW 3715   5.000   1.259   5.688
  939SOL    HW1 3716   5.056   1.320   5.632
  939SOL    HW2 3717   5.059   1.207   5.750
  940SOL     OW 3718   6.648   2.068   2.869
  940SOL    HW1 3719   6.668   2.008   2.947
  940SOL    HW2 3720   6.683   2.160   2.888
  941SOL     OW 3721   6.043   0.933   4.368
  941SOL    HW1 3722   6.017   0.863   4.434
  941SOL    HW2 3723   6.134   0.913   4.331
  942SOL     OW 3724   5.137   0.931   4.765
  942SOL    HW1 3725   5.091   0.929   4.676
  942SOL    HW2 3726   5.220   0.875   4.761
  943SOL     OW 3727   0.780   3.245   2.855
  943SOL    HW1 3728   0.706   3.184   2.827
  943SOL    HW2 3729   0.816   3.215   2.944
  944SOL     OW 3730   6.382   3.689   5.973
  944SOL    HW1 3731   6.459   3.638   5.935
  944SOL    HW2 3732   6.416   3.759   6.036
  945SOL     OW 3733   5.942   4.838   5.084
  945SOL    HW1 3734   5.866   4.787   5.126
  945SOL    HW2 3735   5.920   4.858   4.989
  946SOL     OW 3736   5.722   2.624   6.426
  946SOL    HW1 3737   5.707   2.711   6.379
  946SOL    HW2 3738   5.640   2.600   6.478
  947SOL     OW 3739   3.043   3.307   5.362
  947SOL    HW1 3740   3.023   3.278   5.268
  947SOL    HW2 3741   3.080   3.230   5.413
  948SOL     OW 3742   4.230   0.910   1.013
  948SOL    HW1 3743   4.166   0.966   1.067
  948SOL    HW2 3744   4.263   0.835   1.070
  949SOL     OW 3745   6.498   6.241   5.907
  949SOL    HW1 3746   6.532   6.279   5.821
  949SOL    HW2 3747   6.535   6.295   5.983
  950SOL     OW 3748   4.286   5.059   2.543
  950SOL    HW1 3749   4.354   5.019   2.482
  950SOL    HW2 3750   4.288   5.011   2.631
  951SOL     OW 3751   2.142   0.514   1.957
  951SOL    HW1 3752   2.145   0.525   1.857
  951SOL    HW2 3753   2.069   0.448   1.980
  952SOL     OW 3754   5.978   1.565   2.478
  952SOL    HW1 3755   6.016   1.606   2.394
  952SOL    HW2 3756   5.907   1.625   2.515
  953SOL     OW 3757   4.973   5.893   5.649
  953SOL    HW1 3758   5.034   5.939   5.584
  953SOL    HW2 3759   4.920   5.824   5.601
  954SOL     OW 3760   5.406   0.196   0.764
  954SOL    HW1 3761   5.359   0.144   0.836
  954SOL    HW2 3762   5.451   0.133   0.702
  955SOL     OW 3763   1.025   4.973   3.611
  955SOL    HW1 3764   1.122   4.955   3.594
  955SOL    HW2 3765   1.011   5.071   3.627
  956SOL     OW 3766   0.851   1.849   1.731
  956SOL    HW1 3767   0.854   1.792   1.649
  956SOL    HW2 3768   0.769   1.906   1.729
  957SOL     OW 3769   1.416   4.413   5.039
  957SOL    HW1 3770   1.472   4.447   4.963
  957SOL    HW2 3771   1.389   4.319   5.020
  958SOL     OW 3772   4.947   2.297   1.064
  958SOL    HW1 3773   4.923   2.202   1.085
  958SOL    HW2 3774   4.868   2.343   1.023
  959SOL     OW 3775   3.239   5.033   3.082
  959SOL    HW1 3776   3.273   4.982   3.160
  959SOL    HW2 3777   3.139   5.040   3.087
  960SOL     OW 3778   0.715   5.694   4.078
  960SOL    HW1 3779   0.630   5.646   4.059
  960SOL    HW2 3780   0.695   5.782   4.123
  961SOL     OW 3781   4.664   6.359   3.260
  961SOL    HW1 3782   4.739   6.300   3.230
  961SOL    HW2 3783   4.654   6.436   3.197
  962SOL     OW 3784   1.375   1.248   3.747
  962SOL    HW1 3785   1.389   1.170   3.685
  962SOL    HW2 3786   1.305   1.308   3.709
  963SOL     OW 3787   5.836   0.667   0.499
  963SOL    HW1 3788   5.920   0.627   0.463
  963SOL    HW2 3789   5.855   0.760   0.532
  964SOL     OW 3790   6.140   3.255   0.905
  964SOL    HW1 3791   6.077   3.237   0.829
  964SOL    HW2 3792   6.090   3.297   0.980
  965SOL     OW 3793   6.046   1.731   0.830
  965SOL    HW1 3794   5.972   1.663   0.841
  965SOL    HW2 3795   6.093   1.715   0.744
  966SOL     OW 3796   6.239   1.418   2.496
  966SOL    HW1 3797   6.272   1.501   2.541
  966SOL    HW2 3798   6.139   1.423   2.487
  967SOL     OW 3799   1.596   5.076   0.369
  967SOL    HW1 3800   1.676   5.094   0.426
  967SOL    HW2 3801   1.519   5.053   0.427
  968SOL     OW 3802   4.657   2.558   2.067
  968SOL    HW1 3803   4.746   2.517   2.046
  968SOL    HW2 3804   4.591   2.533   1.997
  969SOL     OW 3805   3.386   6.038   5.762
  969SOL    HW1 3806   3.315   5.973   5.791
  969SOL    HW2 3807   3.438   6.069   5.841
  970SOL     OW 3808   5.007   1.345   4.952
  970SOL    HW1 3809   5.021   1.275   5.022
  970SOL    HW2 3810   4.926   1.322   4.898
  971SOL     OW 3811   0.468   1.441   2.686
  971SOL    HW1 3812   0.433   1.418   2.777
  971SOL    HW2 3813   0.408   1.402   2.617
  972SOL     OW 3814   5.509   4.100   0.889
  972SOL    HW1 3815   5.525   4.024   0.825
  972SOL    HW2 3816   5.491   4.062   0.980
  973SOL     OW 3817   0.167   4.775   6.210
  973SOL    HW1 3818   0.227   4.696   6.199
  973SOL    HW2 3819   0.196   4.847   6.147
  974SOL     OW 3820   4.134   0.519   2.076
  974SOL    HW1 3821   4.184   0.601   2.047
  974SOL    HW2 3822   4.054   0.507   2.018
  975SOL     OW 3823   1.666   5.874   6.650
  975SOL    HW1 3824   1.660   5.944   6.722
  975SOL    HW2 3825   1.584   5.817   6.651
  976SOL     OW 3826   6.535   2.995   2.752
  976SOL    HW1 3827   6.460   3.061   2.752
  976SOL    HW2 3828   6.519   2.927   2.681
  977SOL     OW 3829   2.401   1.492   3.913
  977SOL    HW1 3830   2.316   1.444   3.892
  977SOL    HW2 3831   2.422   1.556   3.838
  978SOL     OW 3832   5.228   3.956   5.405
  978SOL    HW1 3833   5.299   4.019   5.373
  978SOL    HW2 3834   5.162   4.006   5.462
  979SOL     OW 3835   6.480   1.246   2.917
  979SOL    HW1 3836   6.423   1.217   2.840
  979SOL    HW2 3837   6.452   1.198   3.000
  980SOL     OW 3838   4.934   1.844   3.717
  980SOL    HW1 3839   5.010   1.802   3.766
  980SOL    HW2 3840   4.861   1.867   3.782
  981SOL     OW 3841   1.465   1.468   4.993
  981SOL    HW1 3842   1.387   1.415   4.960
  981SOL    HW2 3843   1.538   1.466   4.924
  982SOL     OW 3844   2.059   2.568   3.421
  982SOL    HW1 3845   2.032   2.471   3.417
  982SOL    HW2 3846   2.141   2.577   3.478
  983SOL     OW 3847   5.766   2.664   3.502
  983SOL    HW1 3848   5.823   2.707   3.572
  983SOL    HW2 3849   5.759   2.566   3.520
  984SOL     OW 3850   3.657   0.528   5.056
  984SOL    HW1 3851   3.742   0.483   5.026
  984SOL    HW2 3852   3.579   0.471   5.029
  985SOL     OW 3853   5.308   4.773   6.659
  985SOL    HW1 3854   5.230   4.791   6.718
  985SOL    HW2 3855   5.387   4.746   6.714
  986SOL     OW 3856   5.363   5.321   0.201
  986SOL    HW1 3857   5.370   5.340   0.299
  986SOL    HW2 3858   5.435   5.258   0.173
  987SOL     OW 3859   4.171   6.358   1.060
  987SOL    HW1 3860   4.226   6.369   1.143
  987SOL    HW2 3861   4.076   6.384   1.079
  988SOL     OW 3862   3.879   2.864   1.672
  988SOL    HW1 3863   3.812   2.938   1.677
  988SOL    HW2 3864   3.841   2.782   1.715
  989SOL     OW 3865   0.455   0.705   5.624
  989SOL    HW1 3866   0.404   0.790   5.610
  989SOL    HW2 3867   0.404   0.645   5.686
  990SOL     OW 3868   4.696   0.338   3.599
  990SOL    HW1 3869   4.673   0.336   3.502
  990SOL    HW2 3870   4.782   0.289   3.614
  991SOL     OW 3871   1.663   1.657   5.223
  991SOL    HW1 3872   1.684   1.564   5.192
  991SOL    HW2 3873   1.651   1.716   5.143
  992SOL     OW 3874   0.879   3.473   1.048
  992SOL    HW1 3875   0.841   3.502   1.136
  992SOL    HW2 3876   0.975   3.501   1.042
  993SOL     OW 3877   1.759   5.263   2.090
  993SOL    HW1 3878   1.669   5.224   2.111
  993SOL    HW2 3879   1.791   5.318   2.167
  994SOL     OW 3880   3.818   3.761   2.482
  994SOL    HW1 3881   3.724   3.730   2.469
  994SOL    HW2 3882   3.853   3.723   2.568
  995SOL     OW 3883   2.849   2.210   6.253
  995SOL    HW1 3884   2.890   2.120   6.237
  995SOL    HW2 3885   2.806   2.211   6.343
  996SOL     OW 3886   1.877   4.066   3.814
  996SOL    HW1 3887   1.901   4.116   3.732
  996SOL    HW2 3888   1.783   4.089   3.841
  997SOL     OW 3889   6.671   0.414   1.441
  997SOL    HW1 3890   6.587   0.365   1.418
  997SOL    HW2 3891   6.697   0.392   1.535
  998SOL     OW 3892   4.549   6.995   3.975
  998SOL    HW1 3893   4.584   0.006   4.064
  998SOL    HW2 3894   4.522   0.055   3.921
  999SOL     OW 3895   5.427   5.222   1.147
  999SOL    HW1 3896   5.410   5.281   1.068
  999SOL    HW2 3897   5.501   5.158   1.126
 1000SOL     OW 3898   1.375   0.657   2.623
 1000SOL    HW1 3899   1.401   0.738   2.569
 1000SOL    HW2 3900   1.280   0.634   2.604
 1001SOL     OW 3901   5.089   6.771   6.702
 1001SOL    HW1 3902   5.183   6.782   6.735
 1001SOL    HW2 3903   5.034   6.728   6.773
 1002SOL     OW 3904   5.723   1.957   6.368
 1002SOL    HW1 3905   5.805   1.971   6.312
 1002SOL    HW2 3906   5.737   1.880   6.429
 1003SOL     OW 3907   2.449   7.003   1.577
 1003SOL    HW1 3908   2.414   0.049   1.509
 1003SOL    HW2 3909   2.383   6.929   1.588
 1004SOL     OW 3910   6.866   0.477   0.880
 1004SOL    HW1 3911   6.816   0.556   0.914
 1004SOL    HW2 3912   6.803   0.399   0.870
 1005SOL     OW 3913   0.217   1.228   3.266
 1005SOL    HW1 3914   0.202   1.143   3.317
 1005SOL    HW2 3915   0.177   1.221   3.175
 1006SOL     OW 3916   1.797   6.333   1.635
 1006SOL    HW1 3917   1.703   6.366   1.624
 1006SOL    HW2 3918   1.824   6.282   1.554
 1007SOL     OW 3919   6.314   0.055   3.724
 1007SOL    HW1 3920   6.346   0.150   3.724
 1007SOL    HW2 3921   6.383   7.016   3.682
 1008SOL     OW 3922   1.681   2.950   4.529
 1008SOL    HW1 3923   1.634   2.862   4.533
 1008SOL    HW2 3924   1.614   3.023   4.523
 1009SOL     OW 3925   0.327   5.815   4.104
 1009SOL    HW1 3926   0.277   5.892   4.064
 1009SOL    HW2 3927   0.295   5.729   4.064
 1010SOL     OW 3928   3.735   2.069   6.454
 1010SOL    HW1 3929   3.783   2.079   6.540
 1010SOL    HW2 3930   3.637   2.057   6.471
 1011SOL     OW 3931   2.678   5.398   2.724
 1011SOL    HW1 3932   2.670   5.475   2.661
 1011SOL    HW2 3933   2.754   5.340   2.696
 1012SOL     OW 3934   6.748   5.924   0.036
 1012SOL    HW1 3935   6.786   5.861   6.987
 1012SOL    HW2 3936   6.818   5.990   0.063
 1013SOL     OW 3937   0.144   1.020   6.314
 1013SOL    HW1 3938   0.127   1.091   6.382
 1013SOL    HW2 3939   0.186   0.940   6.359
 1014SOL     OW 3940   5.135   5.549   6.865
 1014SOL    HW1 3941   5.154   5.589   6.955
 1014SOL    HW2 3942   5.053   5.591   6.827
 1015SOL     OW 3943   1.990   6.508   5.428
 1015SOL    HW1 3944   1.972   6.453   5.510
 1015SOL    HW2 3945   1.910   6.504   5.368
 1016SOL     OW 3946   2.345   3.417   0.571
 1016SOL    HW1 3947   2.297   3.396   0.486
 1016SOL    HW2 3948   2.294   3.488   0.620
 1017SOL     OW 3949   4.417   2.630   0.829
 1017SOL    HW1 3950   4.418   2.704   0.896
 1017SOL    HW2 3951   4.332   2.632   0.777
 1018SOL     OW 3952   1.744   3.613   3.944
 1018SOL    HW1 3953   1.786   3.685   3.889
 1018SOL    HW2 3954   1.788   3.525   3.925
 1019SOL     OW 3955   1.389   0.976   0.448
 1019SOL    HW1 3956   1.481   0.941   0.469
 1019SOL    HW2 3957   1.330   0.964   0.528
 1020SOL     OW 3958   1.388   6.909   1.102
 1020SOL    HW1 3959   1.307   6.858   1.075
 1020SOL    HW2 3960   1.440   6.856   1.169
 1021SOL     OW 3961   6.115   0.428   0.333
 1021SOL    HW1 3962   6.160   0.485   0.402
 1021SOL    HW2 3963   6.061   0.357   0.379
 1022SOL     OW 3964   3.752   4.371   5.819
 1022SOL    HW1 3965   3.825   4.425   5.861
 1022SOL    HW2 3966   3.667   4.424   5.820
 1023SOL     OW 3967   6.122   0.061   2.577
 1023SOL    HW1 3968   6.217   0.057   2.546
 1023SOL    HW2 3969   6.062   0.080   2.500
 1024SOL     OW 3970   6.188   2.885   4.043
 1024SOL    HW1 3971   6.217   2.931   4.127
 1024SOL    HW2 3972   6.088   2.883   4.039
 1025SOL     OW 3973   3.514   4.094   0.121
 1025SOL    HW1 3974   3.508   4.065   0.025
 1025SOL    HW2 3975   3.592   4.049   0.165
 1026SOL     OW 3976   1.535   2.053   1.085
 1026SOL    HW1 3977   1.540   2.045   0.986
 1026SOL    HW2 3978   1.551   2.148   1.112
 1027SOL     OW 3979   2.500   6.305   1.028
 1027SOL    HW1 3980   2.478   6.237   0.957
 1027SOL    HW2 3981   2.598   6.307   1.043
 1028SOL     OW 3982   3.455   5.855   0.163
 1028SOL    HW1 3983   3.398   5.839   0.243
 1028SOL    HW2 3984   3.534   5.912   0.188
 1029SOL     OW 3985   1.533   0.102   0.245
 1029SOL    HW1 3986   1.535   0.004   0.222
 1029SOL    HW2 3987   1.543   0.113   0.344
 1030SOL     OW 3988   3.151   2.969   2.034
 1030SOL    HW1 3989   3.211   2.896   2.003
 1030SOL    HW2 3990   3.077   2.983   1.967
 1031SOL     OW 3991   4.974   5.157   0.395
 1031SOL    HW1 3992   4.897   5.220   0.391
 1031SOL    HW2 3993   5.017   5.151   0.304
 1032SOL     OW 3994   1.491   1.773   4.624
 1032SOL    HW1 3995   1.429   1.817   4.689
 1032SOL    HW2 3996   1.566   1.729   4.673
 1033SOL     OW 3997   1.148   6.835   1.424
 1033SOL    HW1 3998   1.103   6.796   1.504
 1033SOL    HW2 3999   1.220   6.897   1.452
 1034SOL     OW 4000   1.462   6.093   5.043
 1034SOL    HW1 4001   1.376   6.063   5.001
 1034SOL    HW2 4002   1.466   6.193   5.044
 1035SOL     OW 4003   2.747   1.415   3.577
 1035SOL    HW1 4004   2.825   1.430   3.517
 1035SOL    HW2 4005   2.676   1.484   3.558
 1036SOL     OW 4006   3.047   0.223   1.236
 1036SOL    HW1 4007   3.053   0.152   1.306
 1036SOL    HW2 4008   3.030   0.311   1.280
 1037SOL     OW 4009   1.368   1.367   1.522
 1037SOL    HW1 4010   1.308   1.363   1.602
 1037SOL    HW2 4011   1.452   1.315   1.542
 1038SOL     OW 4012   1.045   1.057   5.392
 1038SOL    HW1 4013   0.957   1.041   5.347
 1038SOL    HW2 4014   1.113   0.994   5.354
 1039SOL     OW 4015   4.126   2.758   5.616
 1039SOL    HW1 4016   4.093   2.852   5.611
 1039SOL    HW2 4017   4.166   2.732   5.528
 1040SOL     OW 4018   5.237   2.707   2.696
 1040SOL    HW1 4019   5.247   2.720   2.598
 1040SOL    HW2 4020   5.322   2.735   2.742
 1041SOL     OW 4021   6.612   6.798   4.406
 1041SOL    HW1 4022   6.698   6.789   4.456
 1041SOL    HW2 4023   6.607   6.727   4.336
 1042SOL     OW 4024   3.196   4.940   2.318
 1042SOL    HW1 4025   3.117   4.886   2.348
 1042SOL    HW2 4026   3.187   5.033   2.354
 1043SOL     OW 4027   4.602   1.167   5.438
 1043SOL    HW1 4028   4.597   1.259   5.398
 1043SOL    HW2 4029   4.539   1.161   5.515
 1044SOL     OW 4030   4.138   2.967   1.570
 1044SOL    HW1 4031   4.047   2.946   1.605
 1044SOL    HW2 4032   4.182   3.034   1.629
 1045SOL     OW 4033   2.708   0.070   1.530
 1045SOL    HW1 4034   2.620   0.032   1.560
 1045SOL    HW2 4035   2.781   0.005   1.548
 1046SOL     OW 4036   1.947   6.869   0.109
 1046SOL    HW1 4037   1.924   6.809   0.032
 1046SOL    HW2 4038   1.923   6.964   0.086
 1047SOL     OW 4039   1.466   5.618   2.896
 1047SOL    HW1 4040   1.550   5.659   2.859
 1047SOL    HW2 4041   1.460   5.523   2.865
 1048SOL     OW 4042   4.781   5.525   5.598
 1048SOL    HW1 4043   4.809   5.582   5.675
 1048SOL    HW2 4044   4.842   5.539   5.521
 1049SOL     OW 4045   6.773   4.273   4.827
 1049SOL    HW1 4046   6.724   4.358   4.847
 1049SOL    HW2 4047   6.712   4.210   4.779
 1050SOL     OW 4048   2.894   5.397   0.733
 1050SOL    HW1 4049   2.972   5.457   0.751
 1050SOL    HW2 4050   2.853   5.420   0.645
 1051SOL     OW 4051   3.514   5.050   0.176
 1051SOL    HW1 4052   3.520   4.996   0.261
 1051SOL    HW2 4053   3.597   5.104   0.166
 1052SOL     OW 4054   4.554   0.258   4.051
 1052SOL    HW1 4055   4.654   0.263   4.057
 1052SOL    HW2 4056   4.523   0.306   3.969
 1053SOL     OW 4057   5.460   5.892   3.336
 1053SOL    HW1 4058   5.557   5.919   3.332
 1053SOL    HW2 4059   5.453   5.794   3.323
 1054SOL     OW 4060   2.812   4.583   5.594
 1054SOL    HW1 4061   2.772   4.530   5.520
 1054SOL    HW2 4062   2.823   4.525   5.675
 1055SOL     OW 4063   5.730   6.943   4.079
 1055SOL    HW1 4064   5.802   6.935   4.148
 1055SOL    HW2 4065   5.722   6.857   4.029
 1056SOL     OW 4066   1.648   6.026   5.311
 1056SOL    HW1 4067   1.666   5.985   5.222
 1056SOL    HW2 4068   1.712   5.989   5.378
 1057SOL     OW 4069   3.326   3.730   2.808
 1057SOL    HW1 4070   3.248   3.772   2.762
 1057SOL    HW2 4071   3.399   3.798   2.818
 1058SOL     OW 4072   4.932   1.754   2.150
 1058SOL    HW1 4073   4.842   1.752   2.194
 1058SOL    HW2 4074   5.002   1.725   2.216
 1059SOL     OW 4075   3.047   0.410   2.022
 1059SOL    HW1 4076   2.968   0.405   2.084
 1059SOL    HW2 4077   3.016   0.392   1.928
 1060SOL     OW 4078   0.370   3.506   4.699
 1060SOL    HW1 4079   0.351   3.566   4.776
 1060SOL    HW2 4080   0.323   3.418   4.713
 1061SOL     OW 4081   4.717   3.894   1.405
 1061SOL    HW1 4082   4.772   3.964   1.450
 1061SOL    HW2 4083   4.639   3.871   1.464
 1062SOL     OW 4084   6.494   5.106   6.151
 1062SOL    HW1 4085   6.482   5.187   6.208
 1062SOL    HW2 4086   6.556   5.042   6.195
 1063SOL     OW 4087   1.318   4.507   1.233
 1063SOL    HW1 4088   1.326   4.607   1.241
 1063SOL    HW2 4089   1.368   4.476   1.152
 1064SOL     OW 4090   0.918   4.073   2.425
 1064SOL    HW1 4091   0.967   4.147   2.470
 1064SOL    HW2 4092   0.890   4.102   2.333
 1065SOL     OW 4093   5.203   0.521   4.523
 1065SOL    HW1 4094   5.127   0.584   4.538
 1065SOL    HW2 4095   5.211   0.458   4.600
 1066SOL     OW 4096   5.566   0.765   4.283
 1066SOL    HW1 4097   5.622   0.841   4.316
 1066SOL    HW2 4098   5.517   0.725   4.360
 1067SOL     OW 4099   1.694   2.146   0.276
 1067SOL    HW1 4100   1.721   2.134   0.181
 1067SOL    HW2 4101   1.743   2.223   0.316
 1068SOL     OW 4102   5.475   4.470   1.960
 1068SOL    HW1 4103   5.479   4.405   1.884
 1068SOL    HW2 4104   5.388   4.520   1.957
 1069SOL     OW 4105   4.794   4.903   1.238
 1069SOL    HW1 4106   4.845   4.823   1.208
 1069SOL    HW2 4107   4.810   4.918   1.336
 1070SOL     OW 4108   1.145   1.231   0.331
 1070SOL    HW1 4109   1.218   1.288   0.368
 1070SOL    HW2 4110   1.166   1.208   0.236
 1071SOL     OW 4111   4.039   0.422   3.418
 1071SOL    HW1 4112   4.093   0.409   3.501
 1071SOL    HW2 4113   4.096   0.463   3.347
 1072SOL     OW 4114   1.886   5.889   1.575
 1072SOL    HW1 4115   1.863   5.952   1.501
 1072SOL    HW2 4116   1.850   5.924   1.662
 1073SOL     OW 4117   3.587   5.891   2.661
 1073SOL    HW1 4118   3.666   5.950   2.681
 1073SOL    HW2 4119   3.542   5.922   2.577
 1074SOL     OW 4120   1.796   5.116   1.623
 1074SOL    HW1 4121   1.726   5.182   1.595
 1074SOL    HW2 4122   1.850   5.156   1.697
 1075SOL     OW 4123   4.890   5.614   3.613
 1075SOL    HW1 4124   4.871   5.608   3.711
 1075SOL    HW2 4125   4.988   5.629   3.600
 1076SOL     OW 4126   0.665   4.491   4.816
 1076SOL    HW1 4127   0.680   4.398   4.849
 1076SOL    HW2 4128   0.708   4.502   4.726
 1077SOL     OW 4129   6.047   6.914   0.311
 1077SOL    HW1 4130   5.994   6.994   0.285
 1077SOL    HW2 4131   6.009   6.872   0.393
 1078SOL     OW 4132   1.850   0.806   2.770
 1078SOL    HW1 4133   1.910   0.883   2.748
 1078SOL    HW2 4134   1.828   0.756   2.687
 1079SOL     OW 4135   1.851   5.441   2.822
 1079SOL    HW1 4136   1.940   5.471   2.857
 1079SOL    HW2 4137   1.864   5.373   2.751
 1080SOL     OW 4138   1.737   4.232   3.584
 1080SOL    HW1 4139   1.703   4.287   3.508
 1080SOL    HW2 4140   1.749   4.289   3.665
 1081SOL     OW 4141   0.459   0.701   5.043
 1081SOL    HW1 4142   0.500   0.788   5.070
 1081SOL    HW2 4143   0.364   0.697   5.075
 1082SOL     OW 4144   1.587   0.257   5.913
 1082SOL    HW1 4145   1.536   0.186   5.865
 1082SOL    HW2 4146   1.612   0.225   6.005
 1083SOL     OW 4147   3.773   4.054   1.743
 1083SOL    HW1 4148   3.713   4.077   1.666
 1083SOL    HW2 4149   3.857   4.108   1.736
 1084SOL     OW 4150   6.743   5.864   1.297
 1084SOL    HW1 4151   6.829   5.814   1.289
 1084SOL    HW2 4152   6.698   5.838   1.383
 1085SOL     OW 4153   1.982   4.205   3.427
 1085SOL    HW1 4154   1.981   4.183   3.329
 1085SOL    HW2 4155   1.905   4.160   3.472
 1086SOL     OW 4156   6.519   5.729   3.191
 1086SOL    HW1 4157   6.450   5.669   3.152
 1086SOL    HW2 4158   6.577   5.677   3.253
 1087SOL     OW 4159   5.395   2.599   5.580
 1087SOL    HW1 4160   5.356   2.651   5.656
 1087SOL    HW2 4161   5.377   2.648   5.494
 1088SOL     OW 4162   6.319   5.038   3.521
 1088SOL    HW1 4163   6.396   5.097   3.496
 1088SOL    HW2 4164   6.233   5.089   3.513
 1089SOL     OW 4165   1.198   6.969   4.724
 1089SOL    HW1 4166   1.145   7.002   4.646
 1089SOL    HW2 4167   1.276   0.010   4.739
 1090SOL     OW 4168   2.943   1.172   3.608
 1090SOL    HW1 4169   3.004   1.238   3.653
 1090SOL    HW2 4170   2.875   1.221   3.554
 1091SOL     OW 4171   1.887   2.127   4.290
 1091SOL    HW1 4172   1.890   2.031   4.321
 1091SOL    HW2 4173   1.942   2.137   4.207
 1092SOL     OW 4174   2.520   3.567   1.481
 1092SOL    HW1 4175   2.565   3.492   1.433
 1092SOL    HW2 4176   2.574   3.650   1.471
 1093SOL     OW 4177   2.249   1.886   3.126
 1093SOL    HW1 4178   2.176   1.952   3.106
 1093SOL    HW2 4179   2.282   1.900   3.220
 1094SOL     OW 4180   0.246   6.588   2.450
 1094SOL    HW1 4181   0.163   6.607   2.503
 1094SOL    HW2 4182   0.313   6.662   2.466
 1095SOL     OW 4183   6.641   2.292   6.037
 1095SOL    HW1 4184   6.689   2.374   6.007
 1095SOL    HW2 4185   6.640   2.289   6.137
 1096SOL     OW 4186   3.483   4.308   1.496
 1096SOL    HW1 4187   3.407   4.374   1.495
 1096SOL    HW2 4188   3.541   4.325   1.575
 1097SOL     OW 4189   1.063   4.690   4.278
 1097SOL    HW1 4190   1.033   4.619   4.214
 1097SOL    HW2 4191   1.135   4.654   4.337
 1098SOL     OW 4192   5.488   2.619   0.936
 1098SOL    HW1 4193   5.500   2.713   0.966
 1098SOL    HW2 4194   5.391   2.600   0.924
 1099SOL     OW 4195   4.130   1.204   4.664
 1099SOL    HW1 4196   4.051   1.146   4.645
 1099SOL    HW2 4197   4.159   1.191   4.759
 1100SOL     OW 4198   1.905   1.223   6.504
 1100SOL    HW1 4199   1.989   1.208   6.451
 1100SOL    HW2 4200   1.878   1.319   6.498
 1101SOL     OW 4201   5.246   2.868   1.202
 1101SOL    HW1 4202   5.200   2.947   1.243
 1101SOL    HW2 4203   5.280   2.892   1.112
 1102SOL     OW 4204   1.907   4.681   3.079
 1102SOL    HW1 4205   1.871   4.772   3.059
 1102SOL    HW2 4206   1.905   4.625   2.996
 1103SOL     OW 4207   2.515   0.723   1.135
 1103SOL    HW1 4208   2.452   0.649   1.109
 1103SOL    HW2 4209   2.464   0.795   1.182
 1104SOL     OW 4210   1.527   3.720   6.434
 1104SOL    HW1 4211   1.431   3.744   6.422
 1104SOL    HW2 4212   1.584   3.802   6.420
 1105SOL     OW 4213   4.985   4.022   5.860
 1105SOL    HW1 4214   4.971   4.121   5.860
 1105SOL    HW2 4215   4.985   3.988   5.954
 1106SOL     OW 4216   1.089   1.612   0.534
 1106SOL    HW1 4217   1.043   1.564   0.459
 1106SOL    HW2 4218   1.069   1.710   0.529
 1107SOL     OW 4219   0.262   0.670   6.792
 1107SOL    HW1 4220   0.308   0.651   6.879
 1107SOL    HW2 4221   0.319   0.731   6.737
 1108SOL     OW 4222   2.651   0.733   5.719
 1108SOL    HW1 4223   2.679   0.765   5.809
 1108SOL    HW2 4224   2.723   0.753   5.652
 1109SOL     OW 4225   4.621   5.674   4.742
 1109SOL    HW1 4226   4.645   5.743   4.811
 1109SOL    HW2 4227   4.698   5.612   4.728
 1110SOL     OW 4228   3.278   1.829   2.400
 1110SOL    HW1 4229   3.291   1.895   2.474
 1110SOL    HW2 4230   3.343   1.754   2.410
 1111SOL     OW 4231   5.743   5.732   0.207
 1111SOL    HW1 4232   5.735   5.678   0.292
 1111SOL    HW2 4233   5.746   5.829   0.230
 1112SOL     OW 4234   6.432   1.262   2.624
 1112SOL    HW1 4235   6.372   1.322   2.572
 1112SOL    HW2 4236   6.520   1.254   2.577
 1113SOL     OW 4237   6.160   3.302   2.628
 1113SOL    HW1 4238   6.157   3.395   2.665
 1113SOL    HW2 4239   6.216   3.301   2.545
 1114SOL     OW 4240   4.575   0.703   6.563
 1114SOL    HW1 4241   4.567   0.727   6.466
 1114SOL    HW2 4242   4.652   0.753   6.603
 1115SOL     OW 4243   4.230   3.436   6.771
 1115SOL    HW1 4244   4.265   3.520   6.730
 1115SOL    HW2 4245   4.221   3.365   6.702
 1116SOL     OW 4246   5.526   5.339   4.524
 1116SOL    HW1 4247   5.497   5.357   4.430
 1116SOL    HW2 4248   5.449   5.307   4.578
 1117SOL     OW 4249   2.611   2.330   1.316
 1117SOL    HW1 4250   2.710   2.344   1.328
 1117SOL    HW2 4251   2.589   2.332   1.218
 1118SOL     OW 4252   1.813   4.796   2.250
 1118SOL    HW1 4253   1.881   4.807   2.322
 1118SOL    HW2 4254   1.858   4.787   2.161
 1119SOL     OW 4255   3.723   4.071   1.197
 1119SOL    HW1 4256   3.801   4.111   1.148
 1119SOL    HW2 4257   3.648   4.136   1.200
 1120SOL     OW 4258   5.672   6.084   5.799
 1120SOL    HW1 4259   5.756   6.052   5.843
 1120SOL    HW2 4260   5.594   6.065   5.859
 1121SOL     OW 4261   4.930   3.613   2.808
 1121SOL    HW1 4262   4.919   3.542   2.877
 1121SOL    HW2 4263   4.904   3.577   2.718
 1122SOL     OW 4264   5.175   3.037   6.493
 1122SOL    HW1 4265   5.085   3.021   6.451
 1122SOL    HW2 4266   5.237   3.076   6.425
 1123SOL     OW 4267   4.678   1.730   2.239
 1123SOL    HW1 4268   4.631   1.811   2.206
 1123SOL    HW2 4269   4.610   1.661   2.266
 1124SOL     OW 4270   6.863   3.885   5.009
 1124SOL    HW1 4271   6.813   3.873   4.923
 1124SOL    HW2 4272   6.933   3.814   5.017
 1125SOL     OW 4273   2.519   1.765   4.905
 1125SOL    HW1 4274   2.486   1.857   4.925
 1125SOL    HW2 4275   2.467   1.698   4.958
 1126SOL     OW 4276   5.116   0.494   6.827
 1126SOL    HW1 4277   5.033   0.492   6.772
 1126SOL    HW2 4278   5.100   0.551   6.908
 1127SOL     OW 4279   3.938   5.432   5.130
 1127SOL    HW1 4280   3.880   5.411   5.051
 1127SOL    HW2 4281   3.916   5.525   5.163
 1128SOL     OW 4282   4.949   2.684   4.926
 1128SOL    HW1 4283   4.868   2.738   4.949
 1128SOL    HW2 4284   4.923   2.608   4.867
 1129SOL     OW 4285   4.086   6.998   6.931
 1129SOL    HW1 4286   4.095   0.069   6.974
 1129SOL    HW2 4287   4.129   6.930   6.990
 1130SOL     OW 4288   1.906   3.886   0.832
 1130SOL    HW1 4289   1.852   3.867   0.751
 1130SOL    HW2 4290   1.955   3.972   0.819
 1131SOL     OW 4291   0.513   6.389   6.099
 1131SOL    HW1 4292   0.560   6.301   6.113
 1131SOL    HW2 4293   0.559   6.460   6.153
 1132SOL     OW 4294   4.522   0.400   6.850
 1132SOL    HW1 4295   4.504   0.499   6.846
 1132SOL    HW2 4296   4.619   0.384   6.834
 1133SOL     OW 4297   6.686   2.155   0.626
 1133SOL    HW1 4298   6.650   2.122   0.539
 1133SOL    HW2 4299   6.622   2.221   0.666
 1134SOL     OW 4300   5.826   1.665   0.606
 1134SOL    HW1 4301   5.785   1.702   0.690
 1134SOL    HW2 4302   5.894   1.730   0.571
 1135SOL     OW 4303   3.128   1.890   2.186
 1135SOL    HW1 4304   3.192   1.866   2.258
 1135SOL    HW2 4305   3.041   1.919   2.226
 1136SOL     OW 4306   3.104   5.037   4.894
 1136SOL    HW1 4307   3.043   5.116   4.900
 1136SOL    HW2 4308   3.050   4.953   4.898
 1137SOL     OW 4309   0.978   3.542   0.384
 1137SOL    HW1 4310   1.043   3.466   0.382
 1137SOL    HW2 4311   0.885   3.505   0.394
 1138SOL     OW 4312   1.404   1.617   6.233
 1138SOL    HW1 4313   1.315   1.573   6.238
 1138SOL    HW2 4314   1.432   1.626   6.137
 1139SOL     OW 4315   2.174   0.213   2.060
 1139SOL    HW1 4316   2.247   0.278   2.083
 1139SOL    HW2 4317   2.172   0.197   1.962
 1140SOL     OW 4318   3.855   1.989   2.455
 1140SOL    HW1 4319   3.886   2.030   2.542
 1140SOL    HW2 4320   3.857   2.059   2.384
 1141SOL     OW 4321   6.647   5.639   6.005
 1141SOL    HW1 4322   6.666   5.541   5.999
 1141SOL    HW2 4323   6.718   5.683   6.059
 1142SOL     OW 4324   4.961   0.658   4.579
 1142SOL    HW1 4325   4.911   0.574   4.600
 1142SOL    HW2 4326   4.905   0.737   4.607
 1143SOL     OW 4327   3.376   2.045   2.547
 1143SOL    HW1 4328   3.452   2.049   2.612
 1143SOL    HW2 4329   3.293   2.079   2.592
 1144SOL     OW 4330   6.680   4.543   4.728
 1144SOL    HW1 4331   6.766   4.551   4.677
 1144SOL    HW2 4332   6.621   4.621   4.706
 1145SOL     OW 4333   0.382   4.904   3.419
 1145SOL    HW1 4334   0.311   4.869   3.358
 1145SOL    HW2 4335   0.351   4.990   3.460
 1146SOL     OW 4336   5.087   1.067   0.905
 1146SOL    HW1 4337   5.163   1.091   0.964
 1146SOL    HW2 4338   5.030   1.147   0.888
 1147SOL     OW 4339   1.086   4.167   0.645
 1147SOL    HW1 4340   0.997   4.120   0.645
 1147SOL    HW2 4341   1.072   4.263   0.667
 1148SOL     OW 4342   2.697   6.854   0.264
 1148SOL    HW1 4343   2.742   6.943   0.257
 1148SOL    HW2 4344   2.601   6.863   0.237
 1149SOL     OW 4345   5.257   3.344   3.164
 1149SOL    HW1 4346   5.174   3.304   3.124
 1149SOL    HW2 4347   5.319   3.370   3.090
 1150SOL     OW 4348   1.728   4.057   1.023
 1150SOL    HW1 4349   1.676   4.117   0.963
 1150SOL    HW2 4350   1.793   4.004   0.969
 1151SOL     OW 4351   5.371   5.697   6.714
 1151SOL    HW1 4352   5.318   5.723   6.632
 1151SOL    HW2 4353   5.316   5.634   6.769
 1152SOL     OW 4354   0.919   6.742   5.182
 1152SOL    HW1 4355   0.859   6.779   5.253
 1152SOL    HW2 4356   0.905   6.792   5.097
 1153SOL     OW 4357   2.639   6.673   2.014
 1153SOL    HW1 4358   2.628   6.577   2.040
 1153SOL    HW2 4359   2.560   6.702   1.960
 1154SOL     OW 4360   0.203   3.510   1.477
 1154SOL    HW1 4361   0.190   3.413   1.456
 1154SOL    HW2 4362   0.128   3.543   1.534
 1155SOL     OW 4363   3.630   5.044   6.419
 1155SOL    HW1 4364   3.567   5.019   6.492
 1155SOL    HW2 4365   3.724   5.031   6.449
 1156SOL     OW 4366   2.252   0.558   4.368
 1156SOL    HW1 4367   2.162   0.599   4.380
 1156SOL    HW2 4368   2.317   0.629   4.340
 1157SOL     OW 4369   6.158   2.008   4.519
 1157SOL    HW1 4370   6.173   1.951   4.600
 1157SOL    HW2 4371   6.239   2.065   4.504
 1158SOL     OW 4372   6.292   5.275   5.630
 1158SOL    HW1 4373   6.247   5.325   5.557
 1158SOL    HW2 4374   6.361   5.333   5.673
 1159SOL     OW 4375   4.740   0.625   2.804
 1159SOL    HW1 4376   4.778   0.540   2.842
 1159SOL    HW2 4377   4.802   0.701   2.824
 1160SOL     OW 4378   3.569   3.304   1.303
 1160SOL    HW1 4379   3.575   3.209   1.271
 1160SOL    HW2 4380   3.477   3.320   1.339
 1161SOL     OW 4381   5.259   0.438   5.070
 1161SOL    HW1 4382   5.349   0.395   5.064
 1161SOL    HW2 4383   5.208   0.397   5.146
 1162SOL     OW 4384   4.244   2.984   0.752
 1162SOL    HW1 4385   4.168   2.920   0.743
 1162SOL    HW2 4386   4.232   3.059   0.686
 1163SOL     OW 4387   5.737   2.175   2.177
 1163SOL    HW1 4388   5.725   2.076   2.188
 1163SOL    HW2 4389   5.667   2.223   2.230
 1164SOL     OW 4390   5.530   2.714   3.671
 1164SOL    HW1 4391   5.560   2.804   3.705
 1164SOL    HW2 4392   5.526   2.716   3.571
 1165SOL     OW 4393   1.854   4.267   4.093
 1165SOL    HW1 4394   1.880   4.171   4.101
 1165SOL    HW2 4395   1.851   4.293   3.996
 1166SOL     OW 4396   4.126   1.084   6.965
 1166SOL    HW1 4397   4.103   1.181   6.962
 1166SOL    HW2 4398   4.041   1.031   6.965
 1167SOL     OW 4399   2.921   0.372   6.110
 1167SOL    HW1 4400   2.902   0.274   6.124
 1167SOL    HW2 4401   2.888   0.400   6.020
 1168SOL     OW 4402   5.800   0.392   2.251
 1168SOL    HW1 4403   5.764   0.398   2.344
 1168SOL    HW2 4404   5.813   0.484   2.214
 1169SOL     OW 4405   0.294   3.036   0.216
 1169SOL    HW1 4406   0.231   2.980   0.268
 1169SOL    HW2 4407   0.388   3.006   0.232
 1170SOL     OW 4408   4.362   0.699   2.073
 1170SOL    HW1 4409   4.382   0.712   2.170
 1170SOL    HW2 4410   4.435   0.645   2.031
 1171SOL     OW 4411   2.366   5.788   0.546
 1171SOL    HW1 4412   2.327   5.783   0.638
 1171SOL    HW2 4413   2.465   5.798   0.552
 1172SOL     OW 4414   3.480   4.100   3.488
 1172SOL    HW1 4415   3.472   4.102   3.588
 1172SOL    HW2 4416   3.410   4.159   3.448
 1173SOL     OW 4417   3.593   6.845   6.056
 1173SOL    HW1 4418   3.515   6.806   6.007
 1173SOL    HW2 4419   3.562   6.917   6.117
 1174SOL     OW 4420   3.248   5.492   0.677
 1174SOL    HW1 4421   3.272   5.526   0.768
 1174SOL    HW2 4422   3.178   5.551   0.637
 1175SOL     OW 4423   4.779   3.914   6.638
 1175SOL    HW1 4424   4.689   3.873   6.647
 1175SOL    HW2 4425   4.825   3.913   6.728
 1176SOL     OW 4426   5.932   4.529   0.428
 1176SOL    HW1 4427   5.856   4.538   0.492
 1176SOL    HW2 4428   6.008   4.586   0.459
 1177SOL     OW 4429   0.191   2.076   5.423
 1177SOL    HW1 4430   0.117   2.101   5.486
 1177SOL    HW2 4431   0.273   2.129   5.445
 1178SOL     OW 4432   4.304   3.657   1.424
 1178SOL    HW1 4433   4.215   3.635   1.382
 1178SOL    HW2 4434   4.366   3.580   1.411
 1179SOL     OW 4435   3.267   4.983   0.727
 1179SOL    HW1 4436   3.254   5.059   0.664
 1179SOL    HW2 4437   3.290   4.900   0.675
 1180SOL     OW 4438   2.723   0.282   3.933
 1180SOL    HW1 4439   2.745   0.197   3.886
 1180SOL    HW2 4440   2.627   0.282   3.961
 1181SOL     OW 4441   0.703   3.527   4.647
 1181SOL    HW1 4442   0.606   3.527   4.670
 1181SOL    HW2 4443   0.719   3.462   4.572
 1182SOL     OW 4444   2.032   5.149   2.815
 1182SOL    HW1 4445   2.059   5.053   2.829
 1182SOL    HW2 4446   2.039   5.198   2.902
 1183SOL     OW 4447   4.043   5.423   2.614
 1183SOL    HW1 4448   4.121   5.409   2.676
 1183SOL    HW2 4449   4.016   5.335   2.574
 1184SOL     OW 4450   3.427   2.209   5.233
 1184SOL    HW1 4451   3.371   2.175   5.309
 1184SOL    HW2 4452   3.368   2.233   5.156
 1185SOL     OW 4453   1.846   0.518   0.688
 1185SOL    HW1 4454   1.835   0.605   0.640
 1185SOL    HW2 4455   1.940   0.485   0.678
 1186SOL     OW 4456   5.947   6.984   6.192
 1186SOL    HW1 4457   5.939   6.901   6.137
 1186SOL    HW2 4458   5.893   6.975   6.275
 1187SOL     OW 4459   5.627   5.934   5.057
 1187SOL    HW1 4460   5.599   6.014   5.110
 1187SOL    HW2 4461   5.622   5.852   5.114
 1188SOL     OW 4462   3.344   6.536   6.291
 1188SOL    HW1 4463   3.264   6.549   6.233
 1188SOL    HW2 4464   3.321   6.555   6.386
 1189SOL     OW 4465   5.581   1.234   1.854
 1189SOL    HW1 4466   5.514   1.261   1.785
 1189SOL    HW2 4467   5.668   1.212   1.810
 1190SOL     OW 4468   4.152   4.807   4.735
 1190SOL    HW1 4469   4.190   4.824   4.826
 1190SOL    HW2 4470   4.053   4.817   4.738
 1191SOL     OW 4471   3.602   5.652   5.558
 1191SOL    HW1 4472   3.628   5.584   5.626
 1191SOL    HW2 4473   3.576   5.606   5.473
 1192SOL     OW 4474   5.653   4.869   3.378
 1192SOL    HW1 4475   5.677   4.853   3.282
 1192SOL    HW2 4476   5.631   4.783   3.422
 1193SOL     OW 4477   6.460   0.652   4.261
 1193SOL    HW1 4478   6.372   0.605   4.264
 1193SOL    HW2 4479   6.529   0.599   4.310
 1194SOL     OW 4480   0.272   1.181   1.058
 1194SOL    HW1 4481   0.255   1.119   1.135
 1194SOL    HW2 4482   0.371   1.193   1.046
 1195SOL     OW 4483   6.563   1.947   0.472
 1195SOL    HW1 4484   6.506   1.974   0.550
 1195SOL    HW2 4485   6.515   1.880   0.417
 1196SOL     OW 4486   0.191   4.707   2.098
 1196SOL    HW1 4487   0.176   4.745   2.189
 1196SOL    HW2 4488   0.163   4.611   2.097
 1197SOL     OW 4489   3.689   6.173   5.657
 1197SOL    HW1 4490   3.751   6.175   5.578
 1197SOL    HW2 4491   3.713   6.248   5.719
 1198SOL     OW 4492   2.413   2.668   2.543
 1198SOL    HW1 4493   2.490   2.716   2.586
 1198SOL    HW2 4494   2.445   2.580   2.508
 1199SOL     OW 4495   3.723   2.893   2.758
 1199SOL    HW1 4496   3.692   2.959   2.689
 1199SOL    HW2 4497   3.644   2.846   2.797
 1200SOL     OW 4498   4.158   3.381   5.019
 1200SOL    HW1 4499   4.158   3.415   4.925
 1200SOL    HW2 4500   4.096   3.303   5.026
 1201SOL     OW 4501   0.197   1.104   4.247
 1201SOL    HW1 4502   0.103   1.104   4.211
 1201SOL    HW2 4503   0.262   1.112   4.172
 1202SOL     OW 4504   6.137   0.728   5.914
 1202SOL    HW1 4505   6.217   0.751   5.969
 1202SOL    HW2 4506   6.086   0.812   5.893
 1203SOL     OW 4507   5.655   6.788   0.670
 1203SOL    HW1 4508   5.646   6.753   0.764
 1203SOL    HW2 4509   5.713   6.726   0.617
 1204SOL     OW 4510   4.018   1.328   0.336
 1204SOL    HW1 4511   3.988   1.324   0.431
 1204SOL    HW2 4512   3.976   1.253   0.285
 1205SOL     OW 4513   4.508   3.239   6.518
 1205SOL    HW1 4514   4.574   3.290   6.574
 1205SOL    HW2 4515   4.519   3.141   6.534
 1206SOL     OW 4516   1.767   1.740   4.898
 1206SOL    HW1 4517   1.710   1.822   4.898
 1206SOL    HW2 4518   1.852   1.759   4.946
 1207SOL     OW 4519   6.878   6.623   1.246
 1207SOL    HW1 4520   6.959   6.646   1.191
 1207SOL    HW2 4521   6.796   6.651   1.197
 1208SOL     OW 4522   3.331   4.051   2.513
 1208SOL    HW1 4523   3.397   4.060   2.438
 1208SOL    HW2 4524   3.269   3.975   2.495
 1209SOL     OW 4525   5.626   6.742   4.807
 1209SOL    HW1 4526   5.587   6.821   4.853
 1209SOL    HW2 4527   5.699   6.773   4.745
 1210SOL     OW 4528   4.852   6.348   3.562
 1210SOL    HW1 4529   4.778   6.415   3.548
 1210SOL    HW2 4530   4.890   6.359   3.653
 1211SOL     OW 4531   1.806   3.521   3.367
 1211SOL    HW1 4532   1.823   3.603   3.423
 1211SOL    HW2 4533   1.743   3.460   3.415
 1212SOL     OW 4534   0.040   2.239   5.659
 1212SOL    HW1 4535   7.012   2.161   5.701
 1212SOL    HW2 4536   6.998   2.286   5.596
 1213SOL     OW 4537   5.646   2.728   5.029
 1213SOL    HW1 4538   5.667   2.776   4.944
 1213SOL    HW2 4539   5.633   2.794   5.102
 1214SOL     OW 4540   1.339   3.454   4.452
 1214SOL    HW1 4541   1.416   3.483   4.396
 1214SOL    HW2 4542   1.348   3.358   4.476
 1215SOL     OW 4543   2.106   4.809   2.102
 1215SOL    HW1 4544   2.206   4.811   2.091
 1215SOL    HW2 4545   2.069   4.900   2.085
 1216SOL     OW 4546   0.314   0.204   1.545
 1216SOL    HW1 4547   0.378   0.133   1.574
 1216SOL    HW2 4548   0.365   0.287   1.521
 1217SOL     OW 4549   1.910   6.625   0.888
 1217SOL    HW1 4550   1.841   6.615   0.960
 1217SOL    HW2 4551   1.871   6.675   0.811
 1218SOL     OW 4552   0.965   3.079   4.857
 1218SOL    HW1 4553   0.987   3.175   4.877
 1218SOL    HW2 4554   0.874   3.074   4.816
 1219SOL     OW 4555   4.686   4.552   1.490
 1219SOL    HW1 4556   4.676   4.458   1.455
 1219SOL    HW2 4557   4.596   4.585   1.521
 1220SOL     OW 4558   5.057   4.171   2.358
 1220SOL    HW1 4559   5.105   4.086   2.337
 1220SOL    HW2 4560   5.123   4.246   2.364
 1221SOL     OW 4561   5.750   3.783   6.766
 1221SOL    HW1 4562   5.837   3.816   6.802
 1221SOL    HW2 4563   5.757   3.770   6.667
 1222SOL     OW 4564   0.102   0.418   0.826
 1222SOL    HW1 4565   0.121   0.329   0.870
 1222SOL    HW2 4566   0.005   0.438   0.833
 1223SOL     OW 4567   5.160   1.288   0.657
 1223SOL    HW1 4568   5.115   1.207   0.620
 1223SOL    HW2 4569   5.093   1.359   0.676
 1224SOL     OW 4570   3.412   5.886   6.896
 1224SOL    HW1 4571   3.415   5.867   6.994
 1224SOL    HW2 4572   3.316   5.887   6.865
 1225SOL     OW 4573   4.111   2.495   1.031
 1225SOL    HW1 4574   4.040   2.442   0.986
 1225SOL    HW2 4575   4.182   2.434   1.066
 1226SOL     OW 4576   5.541   6.470   0.960
 1226SOL    HW1 4577   5.545   6.371   0.976
 1226SOL    HW2 4578   5.455   6.493   0.916
 1227SOL     OW 4579   6.034   5.162   5.621
 1227SOL    HW1 4580   6.007   5.108   5.701
 1227SOL    HW2 4581   6.112   5.220   5.645
 1228SOL     OW 4582   3.429   3.132   0.445
 1228SOL    HW1 4583   3.330   3.144   0.453
 1228SOL    HW2 4584   3.460   3.064   0.511
 1229SOL     OW 4585   1.310   0.022   1.489
 1229SOL    HW1 4586   1.292   0.112   1.450
 1229SOL    HW2 4587   1.392   7.002   1.447
 1230SOL     OW 4588   5.142   5.971   2.966
 1230SOL    HW1 4589   5.166   5.992   3.061
 1230SOL    HW2 4590   5.095   6.050   2.926
 1231SOL     OW 4591   1.558   2.599   5.897
 1231SOL    HW1 4592   1.603   2.682   5.930
 1231SOL    HW2 4593   1.541   2.537   5.973
 1232SOL     OW 4594   4.700   1.062   5.205
 1232SOL    HW1 4595   4.783   1.114   5.186
 1232SOL    HW2 4596   4.656   1.098   5.288
 1233SOL     OW 4597   1.124   5.529   3.588
 1233SOL    HW1 4598   1.152   5.467   3.515
 1233SOL    HW2 4599   1.179   5.510   3.670
 1234SOL     OW 4600   0.134   2.559   6.707
 1234SOL    HW1 4601   0.179   2.515   6.629
 1234SOL    HW2 4602   0.065   2.497   6.746
 1235SOL     OW 4603   6.399   5.244   0.047
 1235SOL    HW1 4604   6.488   5.245   0.002
 1235SOL    HW2 4605   6.377   5.151   0.076
 1236SOL     OW 4606   3.356   1.970   0.302
 1236SOL    HW1 4607   3.454   1.961   0.316
 1236SOL    HW2 4608   3.339   2.032   0.225
 1237SOL     OW 4609   1.861   6.337   4.834
 1237SOL    HW1 4610   1.849   6.376   4.925
 1237SOL    HW2 4611   1.821   6.398   4.766
 1238SOL     OW 4612   0.482   6.904   3.639
 1238SOL    HW1 4613   0.404   6.845   3.616
 1238SOL    HW2 4614   0.450   6.998   3.649
 1239SOL     OW 4615   6.721   5.491   4.687
 1239SOL    HW1 4616   6.800   5.540   4.724
 1239SOL    HW2 4617   6.746   5.396   4.669
 1240SOL     OW 4618   5.632   5.188   1.992
 1240SOL    HW1 4619   5.561   5.253   2.021
 1240SOL    HW2 4620   5.604   5.095   2.018
 1241SOL     OW 4621   6.988   4.637   4.651
 1241SOL    HW1 4622   0.016   4.657   4.737
 1241SOL    HW2 4623   6.986   4.539   4.636
 1242SOL     OW 4624   2.110   3.611   0.440
 1242SOL    HW1 4625   2.046   3.678   0.402
 1242SOL    HW2 4626   2.141   3.643   0.529
 1243SOL     OW 4627   0.295   1.751   4.954
 1243SOL    HW1 4628   0.215   1.798   4.918
 1243SOL    HW2 4629   0.350   1.716   4.879
 1244SOL     OW 4630   5.395   7.000   5.222
 1244SOL    HW1 4631   5.485   6.988   5.263
 1244SOL    HW2 4632   5.378   6.927   5.155
 1245SOL     OW 4633   5.336   5.959   1.268
 1245SOL    HW1 4634   5.268   5.931   1.334
 1245SOL    HW2 4635   5.311   6.047   1.228
 1246SOL     OW 4636   3.997   1.207   2.156
 1246SOL    HW1 4637   4.051   1.136   2.202
 1246SOL    HW2 4638   3.915   1.166   2.117
 1247SOL     OW 4639   6.243   6.737   4.687
 1247SOL    HW1 4640   6.268   6.829   4.657
 1247SOL    HW2 4641   6.186   6.693   4.618
 1248SOL     OW 4642   0.739   6.349   3.616
 1248SOL    HW1 4643   0.801   6.375   3.690
 1248SOL    HW2 4644   0.786   6.287   3.553
 1249SOL     OW 4645   6.637   4.376   1.946
 1249SOL    HW1 4646   6.572   4.326   2.004
 1249SOL    HW2 4647   6.718   4.319   1.930
 1250SOL     OW 4648   6.670   3.181   5.174
 1250SOL    HW1 4649   6.723   3.239   5.112
 1250SOL    HW2 4650   6.659   3.227   5.262
 1251SOL     OW 4651   2.104   0.419   2.639
 1251SOL    HW1 4652   2.081   0.348   2.705
 1251SOL    HW2 4653   2.194   0.457   2.660
 1252SOL     OW 4654   3.286   5.404   6.625
 1252SOL    HW1 4655   3.245   5.318   6.654
 1252SOL    HW2 4656   3.352   5.434   6.694
 1253SOL     OW 4657   2.802   0.679   1.800
 1253SOL    HW1 4658   2.704   0.664   1.791
 1253SOL    HW2 4659   2.849   0.643   1.719
 1254SOL     OW 4660   6.357   1.698   3.259
 1254SOL    HW1 4661   6.362   1.738   3.350
 1254SOL    HW2 4662   6.423   1.743   3.199
 1255SOL     OW 4663   6.135   2.563   4.973
 1255SOL    HW1 4664   6.075   2.492   5.011
 1255SOL    HW2 4665   6.080   2.627   4.919
 1256SOL     OW 4666   0.281   5.834   3.024
 1256SOL    HW1 4667   0.269   5.865   3.118
 1256SOL    HW2 4668   0.206   5.870   2.968
 1257SOL     OW 4669   6.808   4.560   4.342
 1257SOL    HW1 4670   6.886   4.582   4.285
 1257SOL    HW2 4671   6.794   4.633   4.410
 1258SOL     OW 4672   2.357   5.949   2.597
 1258SOL    HW1 4673   2.339   6.003   2.679
 1258SOL    HW2 4674   2.277   5.952   2.536
 1259SOL     OW 4675   3.698   6.562   5.171
 1259SOL    HW1 4676   3.720   6.508   5.090
 1259SOL    HW2 4677   3.620   6.622   5.151
 1260SOL     OW 4678   3.314   0.912   1.441
 1260SOL    HW1 4679   3.340   0.959   1.526
 1260SOL    HW2 4680   3.228   0.863   1.455
 1261SOL     OW 4681   6.928   3.651   0.250
 1261SOL    HW1 4682   6.972   3.703   0.324
 1261SOL    HW2 4683   6.865   3.585   0.290
 1262SOL     OW 4684   4.571   4.788   1.106
 1262SOL    HW1 4685   4.506   4.863   1.118
 1262SOL    HW2 4686   4.657   4.811   1.152
 1263SOL     OW 4687   6.286   1.964   0.747
 1263SOL    HW1 4688   6.236   2.022   0.682
 1263SOL    HW2 4689   6.248   1.978   0.839
 1264SOL     OW 4690   0.649   4.284   2.658
 1264SOL    HW1 4691   0.626   4.290   2.561
 1264SOL    HW2 4692   0.695   4.197   2.676
 1265SOL     OW 4693   6.729   4.808   3.360
 1265SOL    HW1 4694   6.637   4.837   3.335
 1265SOL    HW2 4695   6.732   4.708   3.368
 1266SOL     OW 4696   2.489   1.189   4.039
 1266SOL    HW1 4697   2.510   1.239   4.124
 1266SOL    HW2 4698   2.409   1.230   3.996
 1267SOL     OW 4699   5.769   5.817   1.519
 1267SOL    HW1 4700   5.705   5.891   1.497
 1267SOL    HW2 4701   5.718   5.731   1.531
 1268SOL     OW 4702   5.173   2.376   6.911
 1268SOL    HW1 4703   5.147   2.338   6.823
 1268SOL    HW2 4704   5.168   2.306   6.982
 1269SOL     OW 4705   5.867   6.272   5.190
 1269SOL    HW1 4706   5.840   6.364   5.219
 1269SOL    HW2 4707   5.905   6.276   5.097
 1270SOL     OW 4708   2.196   4.101   4.278
 1270SOL    HW1 4709   2.204   4.079   4.376
 1270SOL    HW2 4710   2.269   4.164   4.253
 1271SOL     OW 4711   3.497   1.808   3.141
 1271SOL    HW1 4712   3.408   1.803   3.094
 1271SOL    HW2 4713   3.546   1.890   3.112
 1272SOL     OW 4714   0.003   6.095   1.100
 1272SOL    HW1 4715   0.009   6.005   1.058
 1272SOL    HW2 4716   6.961   6.153   1.046
 1273SOL     OW 4717   1.695   4.123   6.850
 1273SOL    HW1 4718   1.609   4.107   6.900
 1273SOL    HW2 4719   1.712   4.046   6.788
 1274SOL     OW 4720   6.746   3.454   1.367
 1274SOL    HW1 4721   6.812   3.421   1.300
 1274SOL    HW2 4722   6.702   3.375   1.412
 1275SOL     OW 4723   4.277   0.158   3.439
 1275SOL    HW1 4724   4.306   0.097   3.365
 1275SOL    HW2 4725   4.177   0.153   3.449
 1276SOL     OW 4726   6.853   0.333   3.482
 1276SOL    HW1 4727   6.844   0.304   3.387
 1276SOL    HW2 4728   6.949   0.345   3.505
 1277SOL     OW 4729   0.832   0.590   4.287
 1277SOL    HW1 4730   0.808   0.558   4.379
 1277SOL    HW2 4731   0.751   0.588   4.228
 1278SOL     OW 4732   1.311   1.601   5.416
 1278SOL    HW1 4733   1.241   1.567   5.479
 1278SOL    HW2 4734   1.402   1.582   5.455
 1279SOL     OW 4735   1.950   0.029   0.734
 1279SOL    HW1 4736   1.992   6.958   0.724
 1279SOL    HW2 4737   1.946   0.074   0.645
 1280SOL     OW 4738   2.413   6.383   3.484
 1280SOL    HW1 4739   2.508   6.415   3.486
 1280SOL    HW2 4740   2.352   6.461   3.499
 1281SOL     OW 4741   1.258   5.644   3.061
 1281SOL    HW1 4742   1.288   5.726   3.109
 1281SOL    HW2 4743   1.323   5.622   2.988
 1282SOL     OW 4744   1.008   1.210   0.599
 1282SOL    HW1 4745   1.016   1.291   0.657
 1282SOL    HW2 4746   1.097   1.189   0.560
 1283SOL     OW 4747   5.614   2.523   5.259
 1283SOL    HW1 4748   5.573   2.595   5.315
 1283SOL    HW2 4749   5.658   2.564   5.179
 1284SOL     OW 4750   3.302   3.404   1.373
 1284SOL    HW1 4751   3.217   3.362   1.342
 1284SOL    HW2 4752   3.296   3.424   1.471
 1285SOL     OW 4753   5.746   3.784   6.486
 1285SOL    HW1 4754   5.839   3.790   6.450
 1285SOL    HW2 4755   5.697   3.709   6.441
 1286SOL     OW 4756   4.960   4.514   2.548
 1286SOL    HW1 4757   4.898   4.591   2.565
 1286SOL    HW2 4758   4.921   4.430   2.586
 1287SOL     OW 4759   5.422   4.343   6.238
 1287SOL    HW1 4760   5.336   4.353   6.188
 1287SOL    HW2 4761   5.413   4.272   6.307
 1288SOL     OW 4762   6.438   3.763   1.724
 1288SOL    HW1 4763   6.420   3.861   1.727
 1288SOL    HW2 4764   6.404   3.726   1.637
 1289SOL     OW 4765   0.613   6.203   1.837
 1289SOL    HW1 4766   0.565   6.136   1.893
 1289SOL    HW2 4767   0.698   6.230   1.882
 1290SOL     OW 4768   0.537   0.943   0.229
 1290SOL    HW1 4769   0.598   0.917   0.304
 1290SOL    HW2 4770   0.589   0.945   0.143
 1291SOL     OW 4771   1.390   3.728   6.133
 1291SOL    HW1 4772   1.394   3.822   6.098
 1291SOL    HW2 4773   1.474   3.707   6.183
 1292SOL     OW 4774   6.391   5.102   2.145
 1292SOL    HW1 4775   6.301   5.145   2.134
 1292SOL    HW2 4776   6.457   5.171   2.175
 1293SOL     OW 4777   2.562   1.379   6.465
 1293SOL    HW1 4778   2.631   1.450   6.458
 1293SOL    HW2 4779   2.547   1.356   6.561
 1294SOL     OW 4780   0.727   3.196   1.237
 1294SOL    HW1 4781   0.768   3.279   1.274
 1294SOL    HW2 4782   0.779   3.167   1.157
 1295SOL     OW 4783   6.328   3.175   2.830
 1295SOL    HW1 4784   6.381   3.260   2.836
 1295SOL    HW2 4785   6.243   3.193   2.781
 1296SOL     OW 4786   3.984   0.604   5.619
 1296SOL    HW1 4787   3.919   0.619   5.694
 1296SOL    HW2 4788   3.946   0.640   5.534
 1297SOL     OW 4789   6.035   0.679   6.270
 1297SOL    HW1 4790   6.064   0.774   6.282
 1297SOL    HW2 4791   5.996   0.645   6.356
 1298SOL     OW 4792   6.415   3.471   3.410
 1298SOL    HW1 4793   6.393   3.374   3.413
 1298SOL    HW2 4794   6.481   3.493   3.482
 1299SOL     OW 4795   1.033   3.613   2.646
 1299SOL    HW1 4796   0.984   3.527   2.659
 1299SOL    HW2 4797   0.974   3.678   2.597
 1300SOL     OW 4798   3.146   3.945   2.231
 1300SOL    HW1 4799   3.131   3.940   2.329
 1300SOL    HW2 4800   3.076   3.893   2.183
 1301SOL     OW 4801   0.958   6.033   2.712
 1301SOL    HW1 4802   1.001   6.026   2.622
 1301SOL    HW2 4803   0.869   6.078   2.703
 1302SOL     OW 4804   2.983   0.272   5.057
 1302SOL    HW1 4805   3.033   0.341   5.005
 1302SOL    HW2 4806   2.977   0.300   5.153
 1303SOL     OW 4807   4.273   1.772   0.447
 1303SOL    HW1 4808   4.240   1.707   0.515
 1303SOL    HW2 4809   4.197   1.829   0.415
 1304SOL     OW 4810   1.487   1.249   6.639
 1304SOL    HW1 4811   1.453   1.203   6.556
 1304SOL    HW2 4812   1.582   1.222   6.655
 1305SOL     OW 4813   5.609   5.415   6.504
 1305SOL    HW1 4814   5.535   5.428   6.439
 1305SOL    HW2 4815   5.597   5.477   6.582
 1306SOL     OW 4816   0.592   4.757   5.214
 1306SOL    HW1 4817   0.645   4.763   5.129
 1306SOL    HW2 4818   0.655   4.763   5.292
 1307SOL     OW 4819   1.814   2.590   4.636
 1307SOL    HW1 4820   1.905   2.561   4.605
 1307SOL    HW2 4821   1.814   2.599   4.735
 1308SOL     OW 4822   3.955   5.613   4.565
 1308SOL    HW1 4823   3.927   5.601   4.660
 1308SOL    HW2 4824   3.874   5.619   4.507
 1309SOL     OW 4825   5.403   2.711   5.303
 1309SOL    HW1 4826   5.342   2.787   5.276
 1309SOL    HW2 4827   5.370   2.626   5.262
 1310SOL     OW 4828   6.278   3.851   5.002
 1310SOL    HW1 4829   6.245   3.777   4.942
 1310SOL    HW2 4830   6.210   3.924   5.004
 1311SOL     OW 4831   6.758   6.089   4.107
 1311SOL    HW1 4832   6.788   6.099   4.202
 1311SOL    HW2 4833   6.683   6.153   4.088
 1312SOL     OW 4834   0.731   0.516   6.576
 1312SOL    HW1 4835   0.713   0.486   6.482
 1312SOL    HW2 4836   0.829   0.509   6.594
 1313SOL     OW 4837   2.013   5.324   5.531
 1313SOL    HW1 4838   1.925   5.324   5.578
 1313SOL    HW2 4839   2.001   5.361   5.438
 1314SOL     OW 4840   2.385   1.706   5.443
 1314SOL    HW1 4841   2.293   1.687   5.477
 1314SOL    HW2 4842   2.389   1.801   5.410
 1315SOL     OW 4843   0.918   0.939   0.608
 1315SOL    HW1 4844   0.938   1.036   0.599
 1315SOL    HW2 4845   0.938   0.892   0.522
 1316SOL     OW 4846   2.182   6.918   3.943
 1316SOL    HW1 4847   2.137   6.915   3.854
 1316SOL    HW2 4848   2.186   6.826   3.982
 1317SOL     OW 4849   1.027   4.037   4.560
 1317SOL    HW1 4850   1.113   4.003   4.597
 1317SOL    HW2 4851   1.045   4.114   4.499
 1318SOL     OW 4852   6.719   0.587   0.564
 1318SOL    HW1 4853   6.734   0.490   0.543
 1318SOL    HW2 4854   6.806   0.636   0.560
 1319SOL     OW 4855   6.580   1.843   0.075
 1319SOL    HW1 4856   6.677   1.838   0.098
 1319SOL    HW2 4857   6.540   1.752   0.079
 1320SOL     OW 4858   6.079   3.855   0.299
 1320SOL    HW1 4859   6.138   3.914   0.354
 1320SOL    HW2 4860   6.073   3.765   0.341
 1321SOL     OW 4861   4.306   2.595   6.284
 1321SOL    HW1 4862   4.347   2.639   6.204
 1321SOL    HW2 4863   4.368   2.604   6.362
 1322SOL     OW 4864   5.502   0.873   3.749
 1322SOL    HW1 4865   5.595   0.895   3.719
 1322SOL    HW2 4866   5.466   0.948   3.804
 1323SOL     OW 4867   5.243   1.853   5.314
 1323SOL    HW1 4868   5.341   1.863   5.332
 1323SOL    HW2 4869   5.192   1.856   5.400
 1324SOL     OW 4870   0.846   2.700   1.719
 1324SOL    HW1 4871   0.768   2.679   1.778
 1324SOL    HW2 4872   0.833   2.656   1.630
 1325SOL     OW 4873   2.490   7.005   2.210
 1325SOL    HW1 4874   2.406   0.007   2.160
 1325SOL    HW2 4875   2.556   0.060   2.197
 1326SOL     OW 4876   4.737   2.759   4.640
 1326SOL    HW1 4877   4.717   2.807   4.725
 1326SOL    HW2 4878   4.753   2.826   4.567
 1327SOL     OW 4879   2.976   5.269   2.760
 1327SOL    HW1 4880   2.939   5.326   2.833
 1327SOL    HW2 4881   3.064   5.230   2.789
 1328SOL     OW 4882   0.977   2.975   0.836
 1328SOL    HW1 4883   0.969   3.052   0.773
 1328SOL    HW2 4884   1.062   2.925   0.817
 1329SOL     OW 4885   6.821   1.910   0.430
 1329SOL    HW1 4886   6.723   1.923   0.445
 1329SOL    HW2 4887   6.848   1.956   0.346
 1330SOL     OW 4888   6.601   0.598   1.097
 1330SOL    HW1 4889   6.549   0.514   1.113
 1330SOL    HW2 4890   6.571   0.641   1.012
 1331SOL     OW 4891   4.474   2.117   2.935
 1331SOL    HW1 4892   4.456   2.082   2.844
 1331SOL    HW2 4893   4.496   2.041   2.997
 1332SOL     OW 4894   3.469   6.850   0.343
 1332SOL    HW1 4895   3.483   6.863   0.441
 1332SOL    HW2 4896   3.474   6.938   0.296
 1333SOL     OW 4897   3.653   4.120   6.137
 1333SOL    HW1 4898   3.603   4.083   6.215
 1333SOL    HW2 4899   3.751   4.108   6.151
 1334SOL     OW 4900   6.984   2.615   4.567
 1334SOL    HW1 4901   6.916   2.677   4.526
 1334SOL    HW2 4902   0.044   2.608   4.506
 1335SOL     OW 4903   3.097   6.593   3.050
 1335SOL    HW1 4904   3.119   6.574   3.146
 1335SOL    HW2 4905   3.170   6.648   3.010
 1336SOL     OW 4906   1.420   1.140   6.372
 1336SOL    HW1 4907   1.433   1.186   6.284
 1336SOL    HW2 4908   1.412   1.042   6.357
 1337SOL     OW 4909   0.953   1.644   5.094
 1337SOL    HW1 4910   0.981   1.564   5.147
 1337SOL    HW2 4911   0.853   1.651   5.095
 1338SOL     OW 4912   4.507   3.333   5.787
 1338SOL    HW1 4913   4.482   3.366   5.879
 1338SOL    HW2 4914   4.470   3.396   5.719
 1339SOL     OW 4915   6.969   6.612   0.099
 1339SOL    HW1 4916   6.982   6.681   0.170
 1339SOL    HW2 4917   6.871   6.603   0.080
 1340SOL     OW 4918   1.256   1.405   2.391
 1340SOL    HW1 4919   1.218   1.495   2.374
 1340SOL    HW2 4920   1.350   1.401   2.355
 1341SOL     OW 4921   3.919   0.222   5.295
 1341SOL    HW1 4922   3.852   0.250   5.364
 1341SOL    HW2 4923   3.942   0.125   5.308
 1342SOL     OW 4924   1.440   5.076   6.062
 1342SOL    HW1 4925   1.486   5.134   5.994
 1342SOL    HW2 4926   1.474   4.982   6.053
 1343SOL     OW 4927   4.011   6.512   2.467
 1343SOL    HW1 4928   4.007   6.543   2.372
 1343SOL    HW2 4929   4.103   6.480   2.488
 1344SOL     OW 4930   6.987   3.931   3.512
 1344SOL    HW1 4931   6.916   3.986   3.555
 1344SOL    HW2 4932   6.945   3.860   3.455
 1345SOL     OW 4933   1.099   1.817   3.319
 1345SOL    HW1 4934   1.015   1.837   3.270
 1345SOL    HW2 4935   1.162   1.894   3.311
 1346SOL     OW 4936   1.913   6.964   3.124
 1346SOL    HW1 4937   1.857   6.979   3.043
 1346SOL    HW2 4938   1.854   6.954   3.204
 1347SOL     OW 4939   6.475   6.208   3.698
 1347SOL    HW1 4940   6.512   6.123   3.735
 1347SOL    HW2 4941   6.464   6.199   3.599
 1348SOL     OW 4942   5.898   5.536   2.967
 1348SOL    HW1 4943   5.885   5.554   2.869
 1348SOL    HW2 4944   5.831   5.588   3.020
 1349SOL     OW 4945   4.945   2.543   6.319
 1349SOL    HW1 4946   4.910   2.486   6.394
 1349SOL    HW2 4947   4.979   2.629   6.357
 1350SOL     OW 4948   3.669   4.801   0.147
 1350SOL    HW1 4949   3.603   4.873   0.128
 1350SOL    HW2 4950   3.745   4.807   0.082
 1351SOL     OW 4951   0.259   1.720   3.170
 1351SOL    HW1 4952   0.177   1.770   3.196
 1351SOL    HW2 4953   0.285   1.744   3.077
 1352SOL     OW 4954   0.828   0.886   3.113
 1352SOL    HW1 4955   0.801   0.800   3.158
 1352SOL    HW2 4956   0.921   0.910   3.140
 1353SOL     OW 4957   6.988   4.111   5.926
 1353SOL    HW1 4958   0.030   4.168   5.871
 1353SOL    HW2 4959   6.893   4.132   5.902
 1354SOL     OW 4960   6.702   2.192   0.198
 1354SOL    HW1 4961   6.702   2.240   0.285
 1354SOL    HW2 4962   6.776   2.125   0.196
 1355SOL     OW 4963   5.762   3.117   5.909
 1355SOL    HW1 4964   5.686   3.088   5.968
 1355SOL    HW2 4965   5.725   3.153   5.824
 1356SOL     OW 4966   3.207   3.748   4.046
 1356SOL    HW1 4967   3.246   3.825   4.096
 1356SOL    HW2 4968   3.108   3.757   4.042
 1357SOL     OW 4969   2.484   3.312   5.773
 1357SOL    HW1 4970   2.554   3.273   5.714
 1357SOL    HW2 4971   2.448   3.396   5.731
 1358SOL     OW 4972   3.217   1.839   6.092
 1358SOL    HW1 4973   3.229   1.741   6.103
 1358SOL    HW2 4974   3.234   1.885   6.179
 1359SOL     OW 4975   6.772   4.778   0.837
 1359SOL    HW1 4976   6.775   4.874   0.807
 1359SOL    HW2 4977   6.864   4.747   0.856
 1360SOL     OW 4978   4.050   3.414   2.424
 1360SOL    HW1 4979   3.953   3.404   2.403
 1360SOL    HW2 4980   4.065   3.499   2.473
 1361SOL     OW 4981   0.003   6.844   6.451
 1361SOL    HW1 4982   0.014   6.759   6.503
 1361SOL    HW2 4983   0.042   6.920   6.503
 1362SOL     OW 4984   2.896   3.715   4.438
 1362SOL    HW1 4985   2.829   3.786   4.457
 1362SOL    HW2 4986   2.885   3.640   4.504
 1363SOL     OW 4987   0.117   5.949   3.729
 1363SOL    HW1 4988   0.022   5.970   3.704
 1363SOL    HW2 4989   0.123   5.936   3.828
 1364SOL     OW 4990   0.161   2.076   0.243
 1364SOL    HW1 4991   0.132   2.102   0.335
 1364SOL    HW2 4992   0.236   2.010   0.249
 1365SOL     OW 4993   1.340   3.638   5.537
 1365SOL    HW1 4994   1.326   3.723   5.487
 1365SOL    HW2 4995   1.260   3.580   5.527
 1366SOL     OW 4996   0.288   4.264   0.922
 1366SOL    HW1 4997   0.354   4.280   0.849
 1366SOL    HW2 4998   0.261   4.351   0.962
 1367SOL     OW 4999   1.402   5.695   2.527
 1367SOL    HW1 5000   1.374   5.757   2.600
 1367SOL    HW2 5001   1.429   5.607   2.567
 1368SOL     OW 5002   6.801   0.481   4.235
 1368SOL    HW1 5003   6.802   0.514   4.141
 1368SOL    HW2 5004   6.890   0.499   4.278
 1369SOL     OW 5005   2.303   6.813   2.332
 1369SOL    HW1 5006   2.403   6.806   2.332
 1369SOL    HW2 5007   2.275   6.883   2.267
 1370SOL     OW 5008   6.285   2.013   3.863
 1370SOL    HW1 5009   6.266   1.915   3.850
 1370SOL    HW2 5010   6.237   2.066   3.793
 1371SOL     OW 5011   4.743   1.315   4.819
 1371SOL    HW1 5012   4.644   1.299   4.819
 1371SOL    HW2 5013   4.760   1.411   4.801
 1372SOL     OW 5014   0.270   2.077   1.052
 1372SOL    HW1 5015   0.267   2.137   0.972
 1372SOL    HW2 5016   0.183   2.082   1.101
 1373SOL     OW 5017   4.838   2.279   0.349
 1373SOL    HW1 5018   4.913   2.212   0.350
 1373SOL    HW2 5019   4.755   2.235   0.385
 1374SOL     OW 5020   4.991   4.009   0.120
 1374SOL    HW1 5021   5.037   4.015   0.209
 1374SOL    HW2 5022   4.969   4.100   0.087
 1375SOL     OW 5023   0.152   6.614   6.579
 1375SOL    HW1 5024   0.201   6.605   6.493
 1375SOL    HW2 5025   0.162   6.530   6.633
 1376SOL     OW 5026   3.471   4.904   5.583
 1376SOL    HW1 5027   3.514   4.946   5.503
 1376SOL    HW2 5028   3.400   4.964   5.619
 1377SOL     OW 5029   1.008   3.241   3.554
 1377SOL    HW1 5030   1.043   3.176   3.622
 1377SOL    HW2 5031   1.020   3.334   3.589
 1378SOL     OW 5032   5.232   2.171   5.363
 1378SOL    HW1 5033   5.301   2.099   5.368
 1378SOL    HW2 5034   5.239   2.217   5.275
 1379SOL     OW 5035   4.312   5.277   3.200
 1379SOL    HW1 5036   4.331   5.366   3.160
 1379SOL    HW2 5037   4.385   5.253   3.264
 1380SOL     OW 5038   6.853   6.145   3.311
 1380SOL    HW1 5039   6.813   6.055   3.294
 1380SOL    HW2 5040   6.862   6.195   3.225
 1381SOL     OW 5041   5.842   1.901   0.020
 1381SOL    HW1 5042   5.823   1.951   0.106
 1381SOL    HW2 5043   5.826   1.962   6.962
 1382SOL     OW 5044   5.006   3.121   1.127
 1382SOL    HW1 5045   4.908   3.104   1.127
 1382SOL    HW2 5046   5.026   3.200   1.068
 1383SOL     OW 5047   1.019   0.127   1.653
 1383SOL    HW1 5048   0.946   0.180   1.697
 1383SOL    HW2 5049   1.105   0.141   1.702
 1384SOL     OW 5050   5.064   6.587   1.854
 1384SOL    HW1 5051   5.127   6.663   1.836
 1384SOL    HW2 5052   5.005   6.573   1.775
 1385SOL     OW 5053   2.646   4.890   3.669
 1385SOL    HW1 5054   2.704   4.936   3.601
 1385SOL    HW2 5055   2.581   4.955   3.707
 1386SOL     OW 5056   3.350   0.472   3.876
 1386SOL    HW1 5057   3.288   0.465   3.797
 1386SOL    HW2 5058   3.388   0.564   3.881
 1387SOL     OW 5059   3.589   5.974   3.129
 1387SOL    HW1 5060   3.567   5.879   3.153
 1387SOL    HW2 5061   3.683   5.978   3.095
 1388SOL     OW 5062   6.574   0.152   1.900
 1388SOL    HW1 5063   6.549   0.213   1.975
 1388SOL    HW2 5064   6.651   0.094   1.928
 1389SOL     OW 5065   6.167   1.366   4.472
 1389SOL    HW1 5066   6.247   1.425   4.469
 1389SOL    HW2 5067   6.196   1.270   4.481
 1390SOL     OW 5068   0.418   3.989   6.693
 1390SOL    HW1 5069   0.488   4.056   6.669
 1390SOL    HW2 5070   0.458   3.917   6.750
 1391SOL     OW 5071   6.171   6.356   4.645
 1391SOL    HW1 5072   6.198   6.264   4.615
 1391SOL    HW2 5073   6.196   6.367   4.742
 1392SOL     OW 5074   6.025   6.218   6.179
 1392SOL    HW1 5075   6.118   6.235   6.213
 1392SOL    HW2 5076   6.016   6.256   6.087
 1393SOL     OW 5077   6.607   4.765   5.318
 1393SOL    HW1 5078   6.609   4.667   5.298
 1393SOL    HW2 5079   6.682   4.788   5.379
 1394SOL     OW 5080   3.690   5.397   5.689
 1394SOL    HW1 5081   3.597   5.360   5.700
 1394SOL    HW2 5082   3.752   5.322   5.664
 1395SOL     OW 5083   2.315   4.339   5.535
 1395SOL    HW1 5084   2.293   4.250   5.493
 1395SOL    HW2 5085   2.405   4.334   5.577
 1396SOL     OW 5086   0.663   1.257   5.045
 1396SOL    HW1 5087   0.725   1.266   5.123
 1396SOL    HW2 5088   0.621   1.345   5.025
 1397SOL     OW 5089   0.382   0.141   3.798
 1397SOL    HW1 5090   0.460   0.202   3.814
 1397SOL    HW2 5091   0.379   0.071   3.870
 1398SOL     OW 5092   3.150   0.444   6.262
 1398SOL    HW1 5093   3.070   0.428   6.203
 1398SOL    HW2 5094   3.171   0.362   6.314
 1399SOL     OW 5095   4.004   5.536   0.619
 1399SOL    HW1 5096   4.061   5.455   0.633
 1399SOL    HW2 5097   3.950   5.524   0.535
 1400SOL     OW 5098   0.305   1.401   2.905
 1400SOL    HW1 5099   0.210   1.382   2.926
 1400SOL    HW2 5100   0.319   1.500   2.901
 1401SOL     OW 5101   6.241   1.103   4.513
 1401SOL    HW1 5102   6.270   1.045   4.437
 1401SOL    HW2 5103   6.221   1.046   4.593
 1402SOL     OW 5104   6.629   3.815   6.733
 1402SOL    HW1 5105   6.607   3.870   6.814
 1402SOL    HW2 5106   6.546   3.805   6.677
 1403SOL     OW 5107   2.464   2.676   1.181
 1403SOL    HW1 5108   2.462   2.653   1.279
 1403SOL    HW2 5109   2.514   2.761   1.168
 1404SOL     OW 5110   6.032   6.871   0.641
 1404SOL    HW1 5111   6.035   6.863   0.741
 1404SOL    HW2 5112   6.099   6.809   0.601
 1405SOL     OW 5113   2.392   3.737   1.217
 1405SOL    HW1 5114   2.318   3.692   1.267
 1405SOL    HW2 5115   2.478   3.687   1.232
 1406SOL     OW 5116   0.744   5.527   0.972
 1406SOL    HW1 5117   0.725   5.570   0.883
 1406SOL    HW2 5118   0.799   5.589   1.028
 1407SOL     OW 5119   0.313   2.276   2.583
 1407SOL    HW1 5120   0.297   2.324   2.497
 1407SOL    HW2 5121   0.381   2.204   2.569
 1408SOL     OW 5122   5.563   1.400   6.243
 1408SOL    HW1 5123   5.498   1.469   6.274
 1408SOL    HW2 5124   5.513   1.323   6.203
 1409SOL     OW 5125   0.316   0.179   5.136
 1409SOL    HW1 5126   0.335   0.255   5.199
 1409SOL    HW2 5127   0.227   0.194   5.094
 1410SOL     OW 5128   1.299   3.385   6.431
 1410SOL    HW1 5129   1.238   3.373   6.353
 1410SOL    HW2 5130   1.394   3.371   6.403
 1411SOL     OW 5131   3.400   6.516   1.291
 1411SOL    HW1 5132   3.313   6.510   1.340
 1411SOL    HW2 5133   3.413   6.609   1.257
 1412SOL     OW 5134   0.504   1.958   0.906
 1412SOL    HW1 5135   0.431   2.025   0.912
 1412SOL    HW2 5136   0.498   1.894   0.983
 1413SOL     OW 5137   1.230   2.089   5.360
 1413SOL    HW1 5138   1.242   2.013   5.296
 1413SOL    HW2 5139   1.310   2.149   5.356
 1414SOL     OW 5140   2.295   1.076   1.898
 1414SOL    HW1 5141   2.334   1.161   1.864
 1414SOL    HW2 5142   2.348   0.999   1.863
 1415SOL     OW 5143   2.847   1.095   4.691
 1415SOL    HW1 5144   2.814   1.185   4.720
 1415SOL    HW2 5145   2.772   1.044   4.649
 1416SOL     OW 5146   5.298   5.169   4.585
 1416SOL    HW1 5147   5.275   5.160   4.682
 1416SOL    HW2 5148   5.296   5.078   4.543
 1417SOL     OW 5149   2.963   2.016   0.217
 1417SOL    HW1 5150   3.016   1.958   0.155
 1417SOL    HW2 5151   2.941   2.102   0.171
 1418SOL     OW 5152   3.101   4.011   3.280
 1418SOL    HW1 5153   3.180   3.950   3.271
 1418SOL    HW2 5154   3.026   3.978   3.223
 1419SOL     OW 5155   2.707   5.684   4.767
 1419SOL    HW1 5156   2.669   5.660   4.678
 1419SOL    HW2 5157   2.663   5.767   4.801
 1420SOL     OW 5158   3.016   6.990   1.430
 1420SOL    HW1 5159   3.115   6.980   1.438
 1420SOL    HW2 5160   2.977   6.905   1.396
 1421SOL     OW 5161   2.011   4.463   3.314
 1421SOL    HW1 5162   2.084   4.404   3.351
 1421SOL    HW2 5163   2.045   4.510   3.232
 1422SOL     OW 5164   1.509   3.615   1.230
 1422SOL    HW1 5165   1.419   3.624   1.270
 1422SOL    HW2 5166   1.573   3.578   1.298
 1423SOL     OW 5167   5.227   6.346   3.318
 1423SOL    HW1 5168   5.277   6.307   3.395
 1423SOL    HW2 5169   5.152   6.403   3.352
 1424SOL     OW 5170   6.206   4.698   6.275
 1424SOL    HW1 5171   6.218   4.793   6.301
 1424SOL    HW2 5172   6.271   4.641   6.324
 1425SOL     OW 5173   1.524   5.730   5.226
 1425SOL    HW1 5174   1.521   5.830   5.225
 1425SOL    HW2 5175   1.510   5.698   5.320
 1426SOL     OW 5176   2.040   3.299   6.229
 1426SOL    HW1 5177   2.061   3.202   6.222
 1426SOL    HW2 5178   2.037   3.339   6.137
 1427SOL     OW 5179   0.409   0.591   3.670
 1427SOL    HW1 5180   0.422   0.554   3.762
 1427SOL    HW2 5181   0.314   0.622   3.659
 1428SOL     OW 5182   6.764   3.424   0.370
 1428SOL    HW1 5183   6.700   3.463   0.436
 1428SOL    HW2 5184   6.715   3.369   0.303
 1429SOL     OW 5185   4.406   2.490   0.104
 1429SOL    HW1 5186   4.501   2.459   0.112
 1429SOL    HW2 5187   4.348   2.414   0.076
 1430SOL     OW 5188   1.599   4.718   3.782
 1430SOL    HW1 5189   1.621   4.628   3.743
 1430SOL    HW2 5190   1.684   4.770   3.794
 1431SOL     OW 5191   2.594   1.891   0.669
 1431SOL    HW1 5192   2.610   1.980   0.712
 1431SOL    HW2 5193   2.634   1.890   0.578
 1432SOL     OW 5194   2.698   1.635   2.422
 1432SOL    HW1 5195   2.686   1.570   2.497
 1432SOL    HW2 5196   2.795   1.660   2.416
 1433SOL     OW 5197   3.997   0.896   5.212
 1433SOL    HW1 5198   4.089   0.929   5.190
 1433SOL    HW2 5199   3.930   0.967   5.191
 1434SOL     OW 5200   0.189   0.195   5.482
 1434SOL    HW1 5201   0.150   0.224   5.394
 1434SOL    HW2 5202   0.127   0.131   5.526
 1435SOL     OW 5203   6.254   0.402   3.141
 1435SOL    HW1 5204   6.156   0.422   3.140
 1435SOL    HW2 5205   6.274   0.334   3.070
 1436SOL     OW 5206   5.397   3.897   6.958
 1436SOL    HW1 5207   5.466   3.848   7.011
 1436SOL    HW2 5208   5.371   3.981   7.005
 1437SOL     OW 5209   2.790   2.100   3.568
 1437SOL    HW1 5210   2.886   2.091   3.593
 1437SOL    HW2 5211   2.749   2.174   3.621
 1438SOL     OW 5212   2.895   6.164   1.252
 1438SOL    HW1 5213   2.931   6.103   1.181
 1438SOL    HW2 5214   2.852   6.109   1.324
 1439SOL     OW 5215   6.636   5.697   1.488
 1439SOL    HW1 5216   6.694   5.635   1.434
 1439SOL    HW2 5217   6.636   5.668   1.584
 1440SOL     OW 5218   3.154   2.874   6.866
 1440SOL    HW1 5219   3.182   2.781   6.840
 1440SOL    HW2 5220   3.066   2.871   6.913
 1441SOL     OW 5221   6.396   0.296   4.174
 1441SOL    HW1 5222   6.457   0.319   4.099
 1441SOL    HW2 5223   6.383   0.197   4.177
 1442SOL     OW 5224   0.446   6.016   0.108
 1442SOL    HW1 5225   0.445   5.917   0.123
 1442SOL    HW2 5226   0.531   6.054   0.142
 1443SOL     OW 5227   0.418   3.415   4.091
 1443SOL    HW1 5228   0.465   3.491   4.046
 1443SOL    HW2 5229   0.466   3.392   4.176
 1444SOL     OW 5230   4.882   6.051   0.894
 1444SOL    HW1 5231   4.785   6.072   0.907
 1444SOL    HW2 5232   4.894   5.999   0.810
 1445SOL     OW 5233   1.156   2.694   3.294
 1445SOL    HW1 5234   1.209   2.775   3.269
 1445SOL    HW2 5235   1.210   2.635   3.354
 1446SOL     OW 5236   6.106   1.527   6.782
 1446SOL    HW1 5237   6.169   1.486   6.848
 1446SOL    HW2 5238   6.030   1.569   6.831
 1447SOL     OW 5239   5.955   6.332   4.370
 1447SOL    HW1 5240   6.050   6.362   4.357
 1447SOL    HW2 5241   5.950   6.267   4.445
 1448SOL     OW 5242   0.100   2.819   5.238
 1448SOL    HW1 5243   0.034   2.854   5.305
 1448SOL    HW2 5244   0.193   2.847   5.265
 1449SOL     OW 5245   1.520   2.893   6.261
 1449SOL    HW1 5246   1.594   2.909   6.196
 1449SOL    HW2 5247   1.447   2.959   6.246
 1450SOL     OW 5248   0.681   1.934   0.553
 1450SOL    HW1 5249   0.708   1.850   0.599
 1450SOL    HW2 5250   0.611   1.981   0.606
 1451SOL     OW 5251   0.825   6.383   2.785
 1451SOL    HW1 5252   0.796   6.291   2.759
 1451SOL    HW2 5253   0.754   6.449   2.759
 1452SOL     OW 5254   4.255   1.741   5.314
 1452SOL    HW1 5255   4.267   1.673   5.241
 1452SOL    HW2 5256   4.208   1.698   5.391
 1453SOL     OW 5257   0.677   3.995   5.644
 1453SOL    HW1 5258   0.681   3.985   5.743
 1453SOL    HW2 5259   0.581   4.004   5.616
 1454SOL     OW 5260   0.470   2.847   2.062
 1454SOL    HW1 5261   0.562   2.864   2.096
 1454SOL    HW2 5262   0.418   2.794   2.129
 1455SOL     OW 5263   1.275   0.275   1.372
 1455SOL    HW1 5264   1.331   0.309   1.448
 1455SOL    HW2 5265   1.308   0.314   1.287
 1456SOL     OW 5266   6.560   0.117   6.310
 1456SOL    HW1 5267   6.504   0.144   6.389
 1456SOL    HW2 5268   6.542   0.021   6.289
 1457SOL     OW 5269   0.687   6.486   1.222
 1457SOL    HW1 5270   0.622   6.437   1.165
 1457SOL    HW2 5271   0.675   6.459   1.318
 1458SOL     OW 5272   5.823   5.191   4.480
 1458SOL    HW1 5273   5.816   5.170   4.382
 1458SOL    HW2 5274   5.743   5.156   4.528
 1459SOL     OW 5275   3.710   6.205   6.214
 1459SOL    HW1 5276   3.793   6.193   6.160
 1459SOL    HW2 5277   3.704   6.300   6.245
 1460SOL     OW 5278   0.851   0.220   4.973
 1460SOL    HW1 5279   0.801   0.134   4.988
 1460SOL    HW2 5280   0.869   0.263   5.061
 1461SOL     OW 5281   6.226   4.175   2.837
 1461SOL    HW1 5282   6.292   4.249   2.821
 1461SOL    HW2 5283   6.252   4.095   2.785
 1462SOL     OW 5284   1.764   1.022   0.224
 1462SOL    HW1 5285   1.804   0.987   0.310
 1462SOL    HW2 5286   1.735   0.944   0.168
 1463SOL     OW 5287   0.347   5.386   6.089
 1463SOL    HW1 5288   0.250   5.380   6.113
 1463SOL    HW2 5289   0.397   5.430   6.163
 1464SOL     OW 5290   0.167   5.732   2.038
 1464SOL    HW1 5291   0.250   5.789   2.043
 1464SOL    HW2 5292   0.148   5.694   2.129
 1465SOL     OW 5293   1.828   0.922   3.848
 1465SOL    HW1 5294   1.824   0.918   3.749
 1465SOL    HW2 5295   1.739   0.897   3.887
 1466SOL     OW 5296   2.394   2.115   2.275
 1466SOL    HW1 5297   2.461   2.182   2.246
 1466SOL    HW2 5298   2.440   2.030   2.301
 1467SOL     OW 5299   2.177   1.409   3.120
 1467SOL    HW1 5300   2.093   1.430   3.071
 1467SOL    HW2 5301   2.159   1.335   3.185
 1468SOL     OW 5302   2.359   5.567   2.693
 1468SOL    HW1 5303   2.444   5.617   2.678
 1468SOL    HW2 5304   2.380   5.477   2.733
 1469SOL     OW 5305   0.227   0.568   2.601
 1469SOL    HW1 5306   0.240   0.512   2.520
 1469SOL    HW2 5307   0.299   0.638   2.605
 1470SOL     OW 5308   1.398   1.703   2.459
 1470SOL    HW1 5309   1.444   1.683   2.372
 1470SOL    HW2 5310   1.301   1.679   2.452
 1471SOL     OW 5311   0.748   0.255   0.795
 1471SOL    HW1 5312   0.768   0.176   0.852
 1471SOL    HW2 5313   0.726   0.334   0.853
 1472SOL     OW 5314   2.230   5.531   5.617
 1472SOL    HW1 5315   2.162   5.472   5.573
 1472SOL    HW2 5316   2.306   5.475   5.650
 1473SOL     OW 5317   3.509   5.522   5.339
 1473SOL    HW1 5318   3.474   5.439   5.385
 1473SOL    HW2 5319   3.444   5.549   5.268
 1474SOL     OW 5320   5.263   5.106   1.874
 1474SOL    HW1 5321   5.250   5.127   1.777
 1474SOL    HW2 5322   5.216   5.176   1.929
 1475SOL     OW 5323   5.453   0.916   1.635
 1475SOL    HW1 5324   5.372   0.975   1.642
 1475SOL    HW2 5325   5.430   0.836   1.579
 1476SOL     OW 5326   2.624   1.092   1.190
 1476SOL    HW1 5327   2.703   1.041   1.221
 1476SOL    HW2 5328   2.649   1.189   1.179
 1477SOL     OW 5329   3.132   6.563   6.113
 1477SOL    HW1 5330   3.063   6.508   6.066
 1477SOL    HW2 5331   3.197   6.600   6.046
 1478SOL     OW 5332   6.191   5.453   5.456
 1478SOL    HW1 5333   6.182   5.455   5.357
 1478SOL    HW2 5334   6.256   5.524   5.485
 1479SOL     OW 5335   2.263   2.629   0.788
 1479SOL    HW1 5336   2.337   2.572   0.752
 1479SOL    HW2 5337   2.278   2.724   0.760
 1480SOL     OW 5338   3.313   0.916   4.975
 1480SOL    HW1 5339   3.300   1.015   4.986
 1480SOL    HW2 5340   3.344   0.877   5.062
 1481SOL     OW 5341   6.204   2.954   6.685
 1481SOL    HW1 5342   6.190   2.899   6.603
 1481SOL    HW2 5343   6.120   3.002   6.709
 1482SOL     OW 5344   4.703   1.252   1.332
 1482SOL    HW1 5345   4.709   1.216   1.425
 1482SOL    HW2 5346   4.767   1.204   1.273
 1483SOL     OW 5347   5.347   2.448   6.189
 1483SOL    HW1 5348   5.435   2.426   6.231
 1483SOL    HW2 5349   5.344   2.411   6.096
 1484SOL     OW 5350   4.848   4.936   4.442
 1484SOL    HW1 5351   4.751   4.925   4.463
 1484SOL    HW2 5352   4.870   5.034   4.438
 1485SOL     OW 5353   4.230   0.828   4.780
 1485SOL    HW1 5354   4.322   0.842   4.817
 1485SOL    HW2 5355   4.214   0.893   4.705
 1486SOL     OW 5356   5.868   0.630   2.846
 1486SOL    HW1 5357   5.926   0.588   2.776
 1486SOL    HW2 5358   5.809   0.560   2.886
 1487SOL     OW 5359   0.234   2.698   0.159
 1487SOL    HW1 5360   0.219   2.705   0.060
 1487SOL    HW2 5361   0.332   2.689   0.176
 1488SOL     OW 5362   5.809   0.026   3.749
 1488SOL    HW1 5363   5.820   0.053   3.845
 1488SOL    HW2 5364   5.724   0.064   3.713
 1489SOL     OW 5365   4.329   5.432   6.040
 1489SOL    HW1 5366   4.314   5.400   5.946
 1489SOL    HW2 5367   4.358   5.527   6.038
 1490SOL     OW 5368   0.652   3.657   1.288
 1490SOL    HW1 5369   0.566   3.637   1.242
 1490SOL    HW2 5370   0.649   3.621   1.382
 1491SOL     OW 5371   5.915   4.815   2.334
 1491SOL    HW1 5372   5.987   4.747   2.344
 1491SOL    HW2 5373   5.926   4.862   2.246
 1492SOL     OW 5374   6.387   0.248   2.388
 1492SOL    HW1 5375   6.426   0.238   2.479
 1492SOL    HW2 5376   6.397   0.162   2.338
 1493SOL     OW 5377   4.030   6.869   6.247
 1493SOL    HW1 5378   3.938   6.833   6.230
 1493SOL    HW2 5379   4.083   6.802   6.299
 1494SOL     OW 5380   5.093   2.346   6.203
 1494SOL    HW1 5381   5.040   2.412   6.255
 1494SOL    HW2 5382   5.190   2.370   6.207
 1495SOL     OW 5383   0.847   3.618   5.581
 1495SOL    HW1 5384   0.861   3.710   5.544
 1495SOL    HW2 5385   0.754   3.610   5.617
 1496SOL     OW 5386   0.712   1.406   1.171
 1496SOL    HW1 5387   0.725   1.322   1.222
 1496SOL    HW2 5388   0.624   1.447   1.195
 1497SOL     OW 5389   5.143   3.114   2.561
 1497SOL    HW1 5390   5.210   3.134   2.633
 1497SOL    HW2 5391   5.053   3.143   2.592
 1498SOL     OW 5392   2.343   4.693   6.226
 1498SOL    HW1 5393   2.319   4.790   6.221
 1498SOL    HW2 5394   2.260   4.637   6.227
 1499SOL     OW 5395   0.830   2.061   5.156
 1499SOL    HW1 5396   0.826   2.001   5.076
 1499SOL    HW2 5397   0.747   2.050   5.210
 1500SOL     OW 5398   0.328   0.432   0.188
 1500SOL    HW1 5399   0.233   0.444   0.161
 1500SOL    HW2 5400   0.368   0.521   0.210
 1501SOL     OW 5401   5.426   2.771   6.416
 1501SOL    HW1 5402   5.399   2.685   6.459
 1501SOL    HW2 5403   5.367   2.790   6.338
 1502SOL     OW 5404   4.100   0.676   0.040
 1502SOL    HW1 5405   4.069   0.604   0.102
 1502SOL    HW2 5406   4.187   0.650   7.018
 1503SOL     OW 5407   1.369   2.560   2.316
 1503SOL    HW1 5408   1.366   2.655   2.349
 1503SOL    HW2 5409   1.289   2.542   2.260
 1504SOL     OW 5410   0.565   0.293   4.195
 1504SOL    HW1 5411   0.529   0.382   4.167
 1504SOL    HW2 5412   0.509   0.257   4.269
 1505SOL     OW 5413   4.543   0.209   4.896
 1505SOL    HW1 5414   4.525   0.215   4.994
 1505SOL    HW2 5415   4.469   0.254   4.845
 1506SOL     OW 5416   0.589   6.520   0.316
 1506SOL    HW1 5417   0.602   6.477   0.405
 1506SOL    HW2 5418   0.657   6.486   0.251
 1507SOL     OW 5419   6.958   1.799   5.900
 1507SOL    HW1 5420   0.027   1.786   5.855
 1507SOL    HW2 5421   6.963   1.876   5.963
 1508SOL     OW 5422   6.391   1.474   0.689
 1508SOL    HW1 5423   6.318   1.406   0.681
 1508SOL    HW2 5424   6.477   1.428   0.712
 1509SOL     OW 5425   4.009   1.770   5.070
 1509SOL    HW1 5426   4.039   1.742   5.162
 1509SOL    HW2 5427   4.059   1.717   5.001
 1510SOL     OW 5428   5.077   1.191   4.412
 1510SOL    HW1 5429   5.007   1.161   4.478
 1510SOL    HW2 5430   5.033   1.240   4.337
 1511SOL     OW 5431   4.039   3.242   3.604
 1511SOL    HW1 5432   3.983   3.242   3.687
 1511SOL    HW2 5433   4.085   3.330   3.595
 1512SOL     OW 5434   6.930   6.033   0.787
 1512SOL    HW1 5435   6.885   6.114   0.825
 1512SOL    HW2 5436   6.878   5.952   0.812
 1513SOL     OW 5437   3.932   0.532   4.808
 1513SOL    HW1 5438   3.924   0.619   4.856
 1513SOL    HW2 5439   3.992   0.471   4.859
 1514SOL     OW 5440   3.608   2.710   5.288
 1514SOL    HW1 5441   3.510   2.729   5.281
 1514SOL    HW2 5442   3.628   2.624   5.240
 1515SOL     OW 5443   5.411   2.012   2.297
 1515SOL    HW1 5444   5.432   2.101   2.257
 1515SOL    HW2 5445   5.495   1.958   2.304
 1516SOL     OW 5446   6.487   5.452   5.725
 1516SOL    HW1 5447   6.529   5.450   5.816
 1516SOL    HW2 5448   6.557   5.474   5.657
 1517SOL     OW 5449   4.353   5.833   2.849
 1517SOL    HW1 5450   4.368   5.930   2.866
 1517SOL    HW2 5451   4.431   5.796   2.798
 1518SOL     OW 5452   0.447   2.597   0.294
 1518SOL    HW1 5453   0.418   2.536   0.368
 1518SOL    HW2 5454   0.526   2.557   0.248
 1519SOL     OW 5455   6.624   4.506   1.712
 1519SOL    HW1 5456   6.563   4.585   1.707
 1519SOL    HW2 5457   6.629   4.474   1.806
 1520SOL     OW 5458   0.411   4.454   1.935
 1520SOL    HW1 5459   0.377   4.395   1.862
 1520SOL    HW2 5460   0.422   4.547   1.901
 1521SOL     OW 5461   2.240   3.994   6.211
 1521SOL    HW1 5462   2.281   4.002   6.302
 1521SOL    HW2 5463   2.142   4.010   6.217
 1522SOL     OW 5464   5.597   6.125   5.255
 1522SOL    HW1 5465   5.573   6.130   5.352
 1522SOL    HW2 5466   5.674   6.187   5.237
 1523SOL     OW 5467   4.208   6.270   6.984
 1523SOL    HW1 5468   4.234   6.251   6.889
 1523SOL    HW2 5469   4.157   6.356   6.988
 1524SOL     OW 5470   2.591   1.569   2.742
 1524SOL    HW1 5471   2.674   1.624   2.751
 1524SOL    HW2 5472   2.607   1.495   2.678
 1525SOL     OW 5473   6.369   3.762   0.822
 1525SOL    HW1 5474   6.337   3.769   0.727
 1525SOL    HW2 5475   6.405   3.670   0.838
 1526SOL     OW 5476   6.852   0.861   6.757
 1526SOL    HW1 5477   6.765   0.825   6.722
 1526SOL    HW2 5478   6.864   0.834   6.852
 1527SOL     OW 5479   3.903   1.444   4.791
 1527SOL    HW1 5480   3.854   1.520   4.834
 1527SOL    HW2 5481   3.949   1.476   4.708
 1528SOL     OW 5482   3.887   4.925   2.827
 1528SOL    HW1 5483   3.895   4.925   2.727
 1528SOL    HW2 5484   3.962   4.872   2.866
 1529SOL     OW 5485   4.082   0.175   0.142
 1529SOL    HW1 5486   4.101   0.121   0.224
 1529SOL    HW2 5487   4.067   0.270   0.168
 1530SOL     OW 5488   4.050   1.845   2.312
 1530SOL    HW1 5489   3.974   1.875   2.370
 1530SOL    HW2 5490   4.137   1.872   2.354
 1531SOL     OW 5491   4.583   6.767   5.625
 1531SOL    HW1 5492   4.622   6.677   5.604
 1531SOL    HW2 5493   4.647   6.818   5.682
 1532SOL     OW 5494   3.259   3.514   6.282
 1532SOL    HW1 5495   3.261   3.466   6.370
 1532SOL    HW2 5496   3.214   3.457   6.214
 1533SOL     OW 5497   5.804   4.925   6.472
 1533SOL    HW1 5498   5.750   4.954   6.393
 1533SOL    HW2 5499   5.821   5.003   6.532
 1534SOL     OW 5500   3.137   5.875   6.850
 1534SOL    HW1 5501   3.105   5.857   6.757
 1534SOL    HW2 5502   3.061   5.865   6.914
 1535SOL     OW 5503   5.091   5.881   4.355
 1535SOL    HW1 5504   4.992   5.888   4.352
 1535SOL    HW2 5505   5.118   5.820   4.430
 1536SOL     OW 5506   3.782   3.939   5.651
 1536SOL    HW1 5507   3.763   3.938   5.553
 1536SOL    HW2 5508   3.787   3.845   5.685
 1537SOL     OW 5509   4.072   5.882   3.600
 1537SOL    HW1 5510   4.147   5.935   3.639
 1537SOL    HW2 5511   4.018   5.842   3.674
 1538SOL     OW 5512   3.052   0.071   6.750
 1538SOL    HW1 5513   2.987   0.075   6.674
 1538SOL    HW2 5514   3.130   0.131   6.730
 1539SOL     OW 5515   4.780   3.982   1.864
 1539SOL    HW1 5516   4.847   3.992   1.937
 1539SOL    HW2 5517   4.784   3.889   1.827
 1540SOL     OW 5518   0.939   6.020   5.477
 1540SOL    HW1 5519   0.893   5.956   5.415
 1540SOL    HW2 5520   0.889   6.106   5.478
 1541SOL     OW 5521   3.144   3.063   3.715
 1541SOL    HW1 5522   3.131   3.143   3.656
 1541SOL    HW2 5523   3.061   3.047   3.769
 1542SOL     OW 5524   6.722   6.994   2.443
 1542SOL    HW1 5525   6.740   6.940   2.360
 1542SOL    HW2 5526   6.802   0.032   2.462
 1543SOL     OW 5527   3.142   4.988   5.437
 1543SOL    HW1 5528   3.092   5.013   5.354
 1543SOL    HW2 5529   3.114   4.896   5.466
 1544SOL     OW 5530   3.018   3.509   2.602
 1544SOL    HW1 5531   2.986   3.415   2.614
 1544SOL    HW2 5532   2.975   3.549   2.522
 1545SOL     OW 5533   5.179   0.624   3.141
 1545SOL    HW1 5534   5.100   0.570   3.113
 1545SOL    HW2 5535   5.245   0.629   3.065
 1546SOL     OW 5536   4.128   6.590   5.732
 1546SOL    HW1 5537   4.165   6.600   5.824
 1546SOL    HW2 5538   4.154   6.669   5.676
 1547SOL     OW 5539   1.743   4.188   1.936
 1547SOL    HW1 5540   1.807   4.112   1.938
 1547SOL    HW2 5541   1.791   4.273   1.956
 1548SOL     OW 5542   5.692   3.429   5.667
 1548SOL    HW1 5543   5.595   3.454   5.671
 1548SOL    HW2 5544   5.730   3.457   5.579
 1549SOL     OW 5545   4.151   1.775   1.647
 1549SOL    HW1 5546   4.104   1.857   1.616
 1549SOL    HW2 5547   4.087   1.715   1.695
 1550SOL     OW 5548   2.727   3.688   0.327
 1550SOL    HW1 5549   2.724   3.741   0.413
 1550SOL    HW2 5550   2.636   3.652   0.307
 1551SOL     OW 5551   2.162   4.448   6.083
 1551SOL    HW1 5552   2.200   4.358   6.057
 1551SOL    HW2 5553   2.189   4.516   6.014
 1552SOL     OW 5554   1.583   5.830   0.220
 1552SOL    HW1 5555   1.681   5.835   0.200
 1552SOL    HW2 5556   1.565   5.749   0.275
 1553SOL     OW 5557   6.851   1.892   6.738
 1553SOL    HW1 5558   6.836   1.886   6.640
 1553SOL    HW2 5559   6.858   1.988   6.765
 1554SOL     OW 5560   3.929   2.116   2.680
 1554SOL    HW1 5561   3.993   2.046   2.710
 1554SOL    HW2 5562   3.905   2.175   2.758
 1555SOL     OW 5563   5.382   2.624   0.147
 1555SOL    HW1 5564   5.342   2.686   0.214
 1555SOL    HW2 5565   5.351   2.650   0.055
 1556SOL     OW 5566   3.068   1.894   7.019
 1556SOL    HW1 5567   3.082   1.968   6.954
 1556SOL    HW2 5568   3.080   1.806   6.972
 1557SOL     OW 5569   2.079   1.975   5.453
 1557SOL    HW1 5570   2.044   1.987   5.546
 1557SOL    HW2 5571   2.008   1.935   5.395
 1558SOL     OW 5572   5.855   0.497   4.989
 1558SOL    HW1 5573   5.943   0.463   4.955
 1558SOL    HW2 5574   5.869   0.584   5.036
 1559SOL     OW 5575   1.465   2.634   0.211
 1559SOL    HW1 5576   1.517   2.625   0.127
 1559SOL    HW2 5577   1.368   2.644   0.189
 1560SOL     OW 5578   0.023   1.104   5.713
 1560SOL    HW1 5579   0.058   1.156   5.634
 1560SOL    HW2 5580   0.096   1.044   5.748
 1561SOL     OW 5581   6.513   6.248   4.064
 1561SOL    HW1 5582   6.457   6.327   4.039
 1561SOL    HW2 5583   6.456   6.165   4.065
 1562SOL     OW 5584   4.114   5.734   2.866
 1562SOL    HW1 5585   4.051   5.742   2.789
 1562SOL    HW2 5586   4.195   5.791   2.850
 1563SOL     OW 5587   2.349   0.060   5.507
 1563SOL    HW1 5588   2.393   0.149   5.501
 1563SOL    HW2 5589   2.256   0.066   5.470
 1564SOL     OW 5590   1.233   2.660   3.642
 1564SOL    HW1 5591   1.256   2.563   3.645
 1564SOL    HW2 5592   1.306   2.712   3.687
 1565SOL     OW 5593   4.402   4.645   3.720
 1565SOL    HW1 5594   4.501   4.653   3.730
 1565SOL    HW2 5595   4.360   4.638   3.811
 1566SOL     OW 5596   5.779   4.727   2.811
 1566SOL    HW1 5597   5.762   4.670   2.731
 1566SOL    HW2 5598   5.718   4.806   2.809
 1567SOL     OW 5599   6.195   6.045   0.675
 1567SOL    HW1 5600   6.275   6.085   0.720
 1567SOL    HW2 5601   6.225   5.979   0.606
 1568SOL     OW 5602   1.524   6.478   6.893
 1568SOL    HW1 5603   1.620   6.490   6.915
 1568SOL    HW2 5604   1.514   6.451   6.797
 1569SOL     OW 5605   4.513   6.293   3.501
 1569SOL    HW1 5606   4.578   6.296   3.425
 1569SOL    HW2 5607   4.522   6.206   3.549
 1570SOL     OW 5608   1.852   0.455   0.956
 1570SOL    HW1 5609   1.949   0.473   0.970
 1570SOL    HW2 5610   1.825   0.488   0.865
 1571SOL     OW 5611   5.300   2.234   1.316
 1571SOL    HW1 5612   5.240   2.312   1.297
 1571SOL    HW2 5613   5.391   2.253   1.278
 1572SOL     OW 5614   0.602   6.781   0.912
 1572SOL    HW1 5615   0.678   6.755   0.852
 1572SOL    HW2 5616   0.601   6.722   0.993
 1573SOL     OW 5617   5.197   2.704   2.405
 1573SOL    HW1 5618   5.110   2.752   2.396
 1573SOL    HW2 5619   5.273   2.769   2.405
 1574SOL     OW 5620   6.251   0.617   1.396
 1574SOL    HW1 5621   6.335   0.653   1.437
 1574SOL    HW2 5622   6.198   0.570   1.466
 1575SOL     OW 5623   3.431   1.207   0.632
 1575SOL    HW1 5624   3.508   1.253   0.588
 1575SOL    HW2 5625   3.348   1.262   0.619
 1576SOL     OW 5626   0.867   6.954   3.469
 1576SOL    HW1 5627   0.802   6.917   3.535
 1576SOL    HW2 5628   0.960   6.947   3.505
 1577SOL     OW 5629   2.950   2.269   4.533
 1577SOL    HW1 5630   3.038   2.296   4.573
 1577SOL    HW2 5631   2.911   2.193   4.586
 1578SOL     OW 5632   6.265   3.281   5.975
 1578SOL    HW1 5633   6.227   3.191   5.952
 1578SOL    HW2 5634   6.315   3.317   5.896
 1579SOL     OW 5635   6.877   1.497   3.017
 1579SOL    HW1 5636   6.828   1.441   2.950
 1579SOL    HW2 5637   6.897   1.587   2.977
 1580SOL     OW 5638   2.896   4.002   5.369
 1580SOL    HW1 5639   2.835   4.075   5.400
 1580SOL    HW2 5640   2.841   3.931   5.324
 1581SOL     OW 5641   0.614   4.011   5.115
 1581SOL    HW1 5642   0.704   3.970   5.129
 1581SOL    HW2 5643   0.606   4.092   5.173
 1582SOL     OW 5644   1.497   6.902   4.523
 1582SOL    HW1 5645   1.553   6.956   4.460
 1582SOL    HW2 5646   1.412   6.876   4.477
 1583SOL     OW 5647   1.131   4.685   3.131
 1583SOL    HW1 5648   1.197   4.611   3.140
 1583SOL    HW2 5649   1.047   4.661   3.179
 1584SOL     OW 5650   1.673   6.580   5.030
 1584SOL    HW1 5651   1.698   6.672   5.003
 1584SOL    HW2 5652   1.584   6.557   4.991
 1585SOL     OW 5653   5.751   1.614   3.322
 1585SOL    HW1 5654   5.761   1.566   3.409
 1585SOL    HW2 5655   5.841   1.641   3.289
 1586SOL     OW 5656   3.505   4.272   1.230
 1586SOL    HW1 5657   3.416   4.250   1.191
 1586SOL    HW2 5658   3.493   4.323   1.315
 1587SOL     OW 5659   2.713   6.187   6.216
 1587SOL    HW1 5660   2.724   6.217   6.121
 1587SOL    HW2 5661   2.645   6.245   6.261
 1588SOL     OW 5662   5.158   1.825   3.464
 1588SOL    HW1 5663   5.087   1.767   3.504
 1588SOL    HW2 5664   5.117   1.887   3.397
 1589SOL     OW 5665   5.849   3.805   2.187
 1589SOL    HW1 5666   5.912   3.882   2.181
 1589SOL    HW2 5667   5.849   3.755   2.100
 1590SOL     OW 5668   2.588   6.410   6.653
 1590SOL    HW1 5669   2.673   6.424   6.704
 1590SOL    HW2 5670   2.580   6.481   6.583
 1591SOL     OW 5671   6.950   5.347   2.503
 1591SOL    HW1 5672   6.871   5.341   2.566
 1591SOL    HW2 5673   6.954   5.438   2.463
 1592SOL     OW 5674   1.853   4.426   0.674
 1592SOL    HW1 5675   1.834   4.350   0.612
 1592SOL    HW2 5676   1.775   4.489   0.675
 1593SOL     OW 5677   1.047   6.491   3.651
 1593SOL    HW1 5678   1.110   6.458   3.581
 1593SOL    HW2 5679   1.068   6.448   3.739
 1594SOL     OW 5680   6.566   5.848   2.675
 1594SOL    HW1 5681   6.525   5.895   2.753
 1594SOL    HW2 5682   6.601   5.914   2.610
 1595SOL     OW 5683   1.607   5.012   6.869
 1595SOL    HW1 5684   1.707   5.020   6.870
 1595SOL    HW2 5685   1.566   5.097   6.902
 1596SOL     OW 5686   0.704   3.273   4.456
 1596SOL    HW1 5687   0.688   3.197   4.394
 1596SOL    HW2 5688   0.785   3.324   4.427
 1597SOL     OW 5689   2.308   6.269   6.978
 1597SOL    HW1 5690   2.336   6.208   6.904
 1597SOL    HW2 5691   2.346   6.360   6.963
 1598SOL     OW 5692   0.857   3.769   0.048
 1598SOL    HW1 5693   0.829   3.679   0.081
 1598SOL    HW2 5694   0.792   3.838   0.079
 1599SOL     OW 5695   4.647   4.480   5.970
 1599SOL    HW1 5696   4.582   4.404   5.965
 1599SOL    HW2 5697   4.698   4.475   6.055
 1600SOL     OW 5698   5.049   1.704   5.161
 1600SOL    HW1 5699   5.114   1.729   5.234
 1600SOL    HW2 5700   5.096   1.650   5.092
 1601SOL     OW 5701   0.049   4.606   4.217
 1601SOL    HW1 5702   0.038   4.703   4.195
 1601SOL    HW2 5703   0.146   4.583   4.214
 1602SOL     OW 5704   2.073   5.198   4.062
 1602SOL    HW1 5705   2.096   5.239   4.150
 1602SOL    HW2 5706   2.012   5.258   4.012
 1603SOL     OW 5707   0.133   5.965   2.820
 1603SOL    HW1 5708   0.203   6.031   2.793
 1603SOL    HW2 5709   0.103   5.913   2.739
 1604SOL     OW 5710   6.396   4.489   0.339
 1604SOL    HW1 5711   6.494   4.499   0.356
 1604SOL    HW2 5712   6.373   4.392   0.329
 1605SOL     OW 5713   6.354   6.580   2.203
 1605SOL    HW1 5714   6.307   6.609   2.119
 1605SOL    HW2 5715   6.439   6.632   2.213
 1606SOL     OW 5716   3.147   0.656   5.144
 1606SOL    HW1 5717   3.150   0.674   5.045
 1606SOL    HW2 5718   3.091   0.725   5.189
 1607SOL     OW 5719   4.313   2.285   0.390
 1607SOL    HW1 5720   4.397   2.330   0.362
 1607SOL    HW2 5721   4.283   2.322   0.478
 1608SOL     OW 5722   1.722   0.140   4.808
 1608SOL    HW1 5723   1.644   0.100   4.759
 1608SOL    HW2 5724   1.698   0.154   4.904
 1609SOL     OW 5725   4.483   0.197   0.315
 1609SOL    HW1 5726   4.462   0.139   0.237
 1609SOL    HW2 5727   4.560   0.158   0.367
 1610SOL     OW 5728   5.687   4.251   5.795
 1610SOL    HW1 5729   5.628   4.182   5.752
 1610SOL    HW2 5730   5.692   4.331   5.736
 1611SOL     OW 5731   2.905   3.276   1.406
 1611SOL    HW1 5732   2.825   3.217   1.406
 1611SOL    HW2 5733   2.970   3.246   1.476
 1612SOL     OW 5734   2.843   1.293   4.940
 1612SOL    HW1 5735   2.846   1.331   5.032
 1612SOL    HW2 5736   2.887   1.203   4.940
 1613SOL     OW 5737   1.960   5.774   1.133
 1613SOL    HW1 5738   2.020   5.756   1.210
 1613SOL    HW2 5739   1.875   5.816   1.165
 1614SOL     OW 5740   6.274   3.800   0.531
 1614SOL    HW1 5741   6.217   3.719   0.513
 1614SOL    HW2 5742   6.354   3.797   0.471
 1615SOL     OW 5743   6.525   5.020   0.591
 1615SOL    HW1 5744   6.438   4.990   0.553
 1615SOL    HW2 5745   6.508   5.075   0.673
 1616SOL     OW 5746   3.844   1.990   5.042
 1616SOL    HW1 5747   3.890   1.905   5.067
 1616SOL    HW2 5748   3.751   1.970   5.010
 1617SOL     OW 5749   6.075   0.320   1.941
 1617SOL    HW1 5750   6.113   0.327   2.033
 1617SOL    HW2 5751   6.080   0.225   1.910
 1618SOL     OW 5752   0.917   3.668   1.414
 1618SOL    HW1 5753   0.899   3.570   1.419
 1618SOL    HW2 5754   0.863   3.715   1.483
 1619SOL     OW 5755   1.046   1.944   2.938
 1619SOL    HW1 5756   0.951   1.942   2.968
 1619SOL    HW2 5757   1.053   1.911   2.844
 1620SOL     OW 5758   2.417   5.433   1.395
 1620SOL    HW1 5759   2.437   5.361   1.329
 1620SOL    HW2 5760   2.331   5.413   1.441
 1621SOL     OW 5761   0.943   1.419   0.397
 1621SOL    HW1 5762   0.984   1.406   0.307
 1621SOL    HW2 5763   0.924   1.329   0.438
 1622SOL     OW 5764   0.324   2.589   4.677
 1622SOL    HW1 5765   0.292   2.683   4.668
 1622SOL    HW2 5766   0.424   2.588   4.684
 1623SOL     OW 5767   2.175   3.493   5.329
 1623SOL    HW1 5768   2.238   3.418   5.349
 1623SOL    HW2 5769   2.181   3.563   5.401
 1624SOL     OW 5770   2.864   1.233   5.637
 1624SOL    HW1 5771   2.920   1.311   5.611
 1624SOL    HW2 5772   2.919   1.166   5.686
 1625SOL     OW 5773   1.367   5.343   1.919
 1625SOL    HW1 5774   1.339   5.322   2.013
 1625SOL    HW2 5775   1.431   5.420   1.920
 1626SOL     OW 5776   3.203   2.314   6.594
 1626SOL    HW1 5777   3.214   2.222   6.630
 1626SOL    HW2 5778   3.107   2.340   6.596
 1627SOL     OW 5779   6.536   2.653   3.770
 1627SOL    HW1 5780   6.566   2.732   3.716
 1627SOL    HW2 5781   6.486   2.684   3.850
 1628SOL     OW 5782   4.492   4.761   6.900
 1628SOL    HW1 5783   4.561   4.830   6.881
 1628SOL    HW2 5784   4.481   4.702   6.820
 1629SOL     OW 5785   2.787   1.613   3.992
 1629SOL    HW1 5786   2.754   1.545   3.926
 1629SOL    HW2 5787   2.887   1.614   3.993
 1630SOL     OW 5788   1.206   6.449   5.825
 1630SOL    HW1 5789   1.198   6.459   5.726
 1630SOL    HW2 5790   1.235   6.355   5.847
 1631SOL     OW 5791   0.480   1.474   6.484
 1631SOL    HW1 5792   0.405   1.456   6.420
 1631SOL    HW2 5793   0.537   1.549   6.449
 1632SOL     OW 5794   0.234   1.661   0.003
 1632SOL    HW1 5795   0.229   1.741   6.963
 1632SOL    HW2 5796   0.251   1.690   0.097
 1633SOL     OW 5797   5.066   2.205   4.087
 1633SOL    HW1 5798   5.148   2.235   4.038
 1633SOL    HW2 5799   4.985   2.241   4.042
 1634SOL     OW 5800   3.929   4.558   5.917
 1634SOL    HW1 5801   3.939   4.619   5.996
 1634SOL    HW2 5802   3.936   4.612   5.833
 1635SOL     OW 5803   6.741   5.371   5.543
 1635SOL    HW1 5804   6.703   5.280   5.524
 1635SOL    HW2 5805   6.839   5.364   5.562
 1636SOL     OW 5806   2.488   3.873   1.460
 1636SOL    HW1 5807   2.520   3.941   1.394
 1636SOL    HW2 5808   2.388   3.873   1.463
 1637SOL     OW 5809   0.213   0.447   3.069
 1637SOL    HW1 5810   0.291   0.471   3.011
 1637SOL    HW2 5811   0.146   0.521   3.065
 1638SOL     OW 5812   0.232   4.158   3.888
 1638SOL    HW1 5813   0.331   4.156   3.903
 1638SOL    HW2 5814   0.195   4.067   3.905
 1639SOL     OW 5815   4.149   6.732   2.990
 1639SOL    HW1 5816   4.062   6.725   3.039
 1639SOL    HW2 5817   4.223   6.739   3.056
 1640SOL     OW 5818   5.885   1.787   1.151
 1640SOL    HW1 5819   5.850   1.797   1.244
 1640SOL    HW2 5820   5.895   1.877   1.109
 1641SOL     OW 5821   5.218   2.797   4.085
 1641SOL    HW1 5822   5.293   2.835   4.030
 1641SOL    HW2 5823   5.255   2.727   4.147
 1642SOL     OW 5824   5.858   3.330   6.865
 1642SOL    HW1 5825   5.912   3.308   6.946
 1642SOL    HW2 5826   5.766   3.358   6.893
 1643SOL     OW 5827   2.795   4.996   4.160
 1643SOL    HW1 5828   2.753   5.054   4.229
 1643SOL    HW2 5829   2.735   4.918   4.141
 1644SOL     OW 5830   0.942   3.193   1.597
 1644SOL    HW1 5831   0.913   3.223   1.688
 1644SOL    HW2 5832   0.900   3.106   1.576
 1645SOL     OW 5833   2.599   6.319   5.429
 1645SOL    HW1 5834   2.538   6.381   5.378
 1645SOL    HW2 5835   2.548   6.236   5.454
 1646SOL     OW 5836   2.126   6.926   1.037
 1646SOL    HW1 5837   2.132   6.870   0.954
 1646SOL    HW2 5838   2.054   6.892   1.096
 1647SOL     OW 5839   5.928   2.890   4.514
 1647SOL    HW1 5840   5.940   2.912   4.610
 1647SOL    HW2 5841   5.843   2.931   4.481
 1648SOL     OW 5842   6.005   5.996   0.904
 1648SOL    HW1 5843   6.041   5.932   0.972
 1648SOL    HW2 5844   6.075   6.015   0.835
 1649SOL     OW 5845   3.997   0.073   3.887
 1649SOL    HW1 5846   3.995   0.001   3.956
 1649SOL    HW2 5847   3.934   0.050   3.813
 1650SOL     OW 5848   2.047   6.927   4.813
 1650SOL    HW1 5849   2.108   6.854   4.846
 1650SOL    HW2 5850   2.017   6.982   4.890
 1651SOL     OW 5851   0.910   0.989   1.805
 1651SOL    HW1 5852   1.001   0.979   1.764
 1651SOL    HW2 5853   0.848   1.030   1.739
 1652SOL     OW 5854   1.713   3.156   1.726
 1652SOL    HW1 5855   1.695   3.246   1.686
 1652SOL    HW2 5856   1.667   3.149   1.815
 1653SOL     OW 5857   0.123   6.688   1.121
 1653SOL    HW1 5858   0.182   6.656   1.047
 1653SOL    HW2 5859   0.179   6.735   1.190
 1654SOL     OW 5860   6.334   3.002   2.094
 1654SOL    HW1 5861   6.428   2.971   2.107
 1654SOL    HW2 5862   6.333   3.101   2.077
 1655SOL     OW 5863   6.088   2.873   5.179
 1655SOL    HW1 5864   6.079   2.785   5.226
 1655SOL    HW2 5865   6.124   2.857   5.087
 1656SOL     OW 5866   1.925   4.549   2.833
 1656SOL    HW1 5867   2.003   4.516   2.779
 1656SOL    HW2 5868   1.851   4.575   2.772
 1657SOL     OW 5869   6.939   0.741   4.360
 1657SOL    HW1 5870   6.994   0.822   4.383
 1657SOL    HW2 5871   6.863   0.733   4.425
 1658SOL     OW 5872   0.877   0.556   2.531
 1658SOL    HW1 5873   0.836   0.477   2.485
 1658SOL    HW2 5874   0.813   0.592   2.599
 1659SOL     OW 5875   3.569   0.994   5.833
 1659SOL    HW1 5876   3.632   1.067   5.804
 1659SOL    HW2 5877   3.491   0.990   5.771
 1660SOL     OW 5878   1.501   4.968   3.658
 1660SOL    HW1 5879   1.407   4.973   3.623
 1660SOL    HW2 5880   1.516   4.877   3.698
 1661SOL     OW 5881   3.324   1.465   1.625
 1661SOL    HW1 5882   3.288   1.520   1.701
 1661SOL    HW2 5883   3.301   1.369   1.639
 1662SOL     OW 5884   6.578   1.046   4.500
 1662SOL    HW1 5885   6.678   1.055   4.504
 1662SOL    HW2 5886   6.549   0.971   4.561
 1663SOL     OW 5887   3.428   0.655   2.818
 1663SOL    HW1 5888   3.494   0.615   2.882
 1663SOL    HW2 5889   3.336   0.629   2.844
 1664SOL     OW 5890   2.194   0.407   3.876
 1664SOL    HW1 5891   2.165   0.493   3.919
 1664SOL    HW2 5892   2.150   0.399   3.787
 1665SOL     OW 5893   0.106   1.367   2.593
 1665SOL    HW1 5894   0.149   1.321   2.514
 1665SOL    HW2 5895   0.050   1.301   2.643
 1666SOL     OW 5896   5.118   3.437   0.777
 1666SOL    HW1 5897   5.203   3.468   0.734
 1666SOL    HW2 5898   5.120   3.338   0.789
 1667SOL     OW 5899   5.765   6.875   1.278
 1667SOL    HW1 5900   5.750   6.780   1.252
 1667SOL    HW2 5901   5.696   6.933   1.234
 1668SOL     OW 5902   5.248   5.633   5.539
 1668SOL    HW1 5903   5.342   5.610   5.516
 1668SOL    HW2 5904   5.207   5.684   5.462
 1669SOL     OW 5905   6.068   6.903   6.747
 1669SOL    HW1 5906   6.109   6.858   6.667
 1669SOL    HW2 5907   6.138   6.915   6.818
 1670SOL     OW 5908   6.850   5.143   6.621
 1670SOL    HW1 5909   6.875   5.048   6.638
 1670SOL    HW2 5910   6.772   5.168   6.678
 1671SOL     OW 5911   4.556   2.572   1.359
 1671SOL    HW1 5912   4.585   2.522   1.278
 1671SOL    HW2 5913   4.456   2.573   1.363
 1672SOL     OW 5914   2.168   3.835   2.195
 1672SOL    HW1 5915   2.094   3.876   2.248
 1672SOL    HW2 5916   2.224   3.907   2.155
 1673SOL     OW 5917   6.993   2.391   4.754
 1673SOL    HW1 5918   0.062   2.346   4.744
 1673SOL    HW2 5919   6.989   2.470   4.693
 1674SOL     OW 5920   0.441   4.302   2.186
 1674SOL    HW1 5921   0.468   4.363   2.111
 1674SOL    HW2 5922   0.403   4.218   2.148
 1675SOL     OW 5923   4.413   0.597   6.176
 1675SOL    HW1 5924   4.467   0.586   6.092
 1675SOL    HW2 5925   4.411   0.511   6.226
 1676SOL     OW 5926   3.272   1.139   2.055
 1676SOL    HW1 5927   3.204   1.114   2.123
 1676SOL    HW2 5928   3.233   1.128   1.963
 1677SOL     OW 5929   4.231   2.709   5.362
 1677SOL    HW1 5930   4.167   2.649   5.314
 1677SOL    HW2 5931   4.325   2.683   5.339
 1678SOL     OW 5932   4.799   4.544   5.367
 1678SOL    HW1 5933   4.813   4.555   5.269
 1678SOL    HW2 5934   4.876   4.494   5.407
 1679SOL     OW 5935   1.967   3.222   5.158
 1679SOL    HW1 5936   2.047   3.273   5.126
 1679SOL    HW2 5937   1.997   3.146   5.216
 1680SOL     OW 5938   0.694   1.986   4.141
 1680SOL    HW1 5939   0.706   2.085   4.126
 1680SOL    HW2 5940   0.598   1.962   4.127
 1681SOL     OW 5941   6.630   5.994   1.583
 1681SOL    HW1 5942   6.636   6.026   1.488
 1681SOL    HW2 5943   6.537   5.962   1.602
 1682SOL     OW 5944   6.760   2.716   4.823
 1682SOL    HW1 5945   6.737   2.734   4.728
 1682SOL    HW2 5946   6.853   2.678   4.829
 1683SOL     OW 5947   4.032   5.889   0.885
 1683SOL    HW1 5948   4.038   5.860   0.790
 1683SOL    HW2 5949   3.971   5.828   0.936
 1684SOL     OW 5950   1.166   6.210   2.625
 1684SOL    HW1 5951   1.226   6.290   2.629
 1684SOL    HW2 5952   1.203   6.145   2.558
 1685SOL     OW 5953   2.765   1.263   6.239
 1685SOL    HW1 5954   2.688   1.276   6.302
 1685SOL    HW2 5955   2.750   1.319   6.158
 1686SOL     OW 5956   2.043   4.803   5.200
 1686SOL    HW1 5957   1.998   4.889   5.174
 1686SOL    HW2 5958   2.084   4.813   5.290
 1687SOL     OW 5959   2.249   2.859   0.641
 1687SOL    HW1 5960   2.273   2.833   0.548
 1687SOL    HW2 5961   2.262   2.958   0.652
 1688SOL     OW 5962   1.369   2.413   3.684
 1688SOL    HW1 5963   1.424   2.484   3.728
 1688SOL    HW2 5964   1.421   2.327   3.683
 1689SOL     OW 5965   4.132   0.850   1.976
 1689SOL    HW1 5966   4.191   0.795   2.035
 1689SOL    HW2 5967   4.189   0.905   1.914
 1690SOL     OW 5968   1.580   2.956   3.582
 1690SOL    HW1 5969   1.480   2.965   3.583
 1690SOL    HW2 5970   1.605   2.860   3.595
 1691SOL     OW 5971   5.131   3.740   3.399
 1691SOL    HW1 5972   5.150   3.643   3.385
 1691SOL    HW2 5973   5.074   3.751   3.480
 1692SOL     OW 5974   6.452   0.682   1.571
 1692SOL    HW1 5975   6.514   0.654   1.498
 1692SOL    HW2 5976   6.448   0.610   1.641
 1693SOL     OW 5977   0.379   1.978   2.558
 1693SOL    HW1 5978   0.409   1.920   2.482
 1693SOL    HW2 5979   0.283   2.004   2.545
 1694SOL     OW 5980   5.183   0.206   3.759
 1694SOL    HW1 5981   5.239   0.126   3.779
 1694SOL    HW2 5982   5.202   0.278   3.826
 1695SOL     OW 5983   2.233   1.162   5.810
 1695SOL    HW1 5984   2.176   1.092   5.852
 1695SOL    HW2 5985   2.289   1.206   5.880
 1696SOL     OW 5986   5.140   4.927   0.466
 1696SOL    HW1 5987   5.085   5.009   0.453
 1696SOL    HW2 5988   5.109   4.879   0.549
 1697SOL     OW 5989   5.749   6.196   2.233
 1697SOL    HW1 5990   5.784   6.272   2.288
 1697SOL    HW2 5991   5.652   6.182   2.253
 1698SOL     OW 5992   4.420   0.674   0.632
 1698SOL    HW1 5993   4.351   0.664   0.561
 1698SOL    HW2 5994   4.412   0.764   0.675
 1699SOL     OW 5995   2.768   1.288   1.519
 1699SOL    HW1 5996   2.687   1.230   1.523
 1699SOL    HW2 5997   2.782   1.318   1.425
 1700SOL     OW 5998   6.341   1.850   3.470
 1700SOL    HW1 5999   6.367   1.946   3.463
 1700SOL    HW2 6000   6.256   1.842   3.522
 1701SOL     OW 6001   5.261   2.959   5.296
 1701SOL    HW1 6002   5.167   2.931   5.316
 1701SOL    HW2 6003   5.261   3.052   5.259
 1702SOL     OW 6004   7.007   3.013   0.807
 1702SOL    HW1 6005   6.967   2.964   0.885
 1702SOL    HW2 6006   0.086   2.995   0.803
 1703SOL     OW 6007   3.896   3.861   3.134
 1703SOL    HW1 6008   3.838   3.936   3.102
 1703SOL    HW2 6009   3.897   3.860   3.234
 1704SOL     OW 6010   0.377   1.238   2.137
 1704SOL    HW1 6011   0.416   1.285   2.216
 1704SOL    HW2 6012   0.414   1.146   2.131
 1705SOL     OW 6013   3.534   2.069   1.760
 1705SOL    HW1 6014   3.560   2.132   1.833
 1705SOL    HW2 6015   3.608   2.063   1.693
 1706SOL     OW 6016   4.619   0.167   1.504
 1706SOL    HW1 6017   4.677   0.229   1.452
 1706SOL    HW2 6018   4.569   0.218   1.573
 1707SOL     OW 6019   4.693   1.737   3.118
 1707SOL    HW1 6020   4.756   1.813   3.106
 1707SOL    HW2 6021   4.725   1.658   3.065
 1708SOL     OW 6022   4.314   5.155   2.263
 1708SOL    HW1 6023   4.289   5.074   2.316
 1708SOL    HW2 6024   4.249   5.167   2.188
 1709SOL     OW 6025   2.689   5.961   1.658
 1709SOL    HW1 6026   2.674   5.971   1.560
 1709SOL    HW2 6027   2.663   5.869   1.687
 1710SOL     OW 6028   5.648   4.628   3.542
 1710SOL    HW1 6029   5.602   4.546   3.575
 1710SOL    HW2 6030   5.708   4.605   3.465
 1711SOL     OW 6031   1.061   4.494   4.823
 1711SOL    HW1 6032   1.095   4.582   4.791
 1711SOL    HW2 6033   1.070   4.490   4.923
 1712SOL     OW 6034   0.976   3.120   6.561
 1712SOL    HW1 6035   1.048   3.061   6.526
 1712SOL    HW2 6036   1.016   3.208   6.588
 1713SOL     OW 6037   3.891   2.388   0.921
 1713SOL    HW1 6038   3.845   2.301   0.904
 1713SOL    HW2 6039   3.865   2.454   0.851
 1714SOL     OW 6040   4.782   1.585   5.674
 1714SOL    HW1 6041   4.726   1.654   5.628
 1714SOL    HW2 6042   4.779   1.600   5.773
 1715SOL     OW 6043   6.733   3.825   2.555
 1715SOL    HW1 6044   6.686   3.907   2.588
 1715SOL    HW2 6045   6.801   3.796   2.623
 1716SOL     OW 6046   4.863   6.742   2.029
 1716SOL    HW1 6047   4.904   6.831   2.012
 1716SOL    HW2 6048   4.933   6.671   2.016
 1717SOL     OW 6049   1.920   6.866   6.337
 1717SOL    HW1 6050   1.853   6.806   6.294
 1717SOL    HW2 6051   1.992   6.811   6.379
 1718SOL     OW 6052   1.913   2.118   1.374
 1718SOL    HW1 6053   1.977   2.194   1.384
 1718SOL    HW2 6054   1.952   2.036   1.416
 1719SOL     OW 6055   2.406   4.163   0.881
 1719SOL    HW1 6056   2.394   4.076   0.929
 1719SOL    HW2 6057   2.319   4.210   0.876
 1720SOL     OW 6058   6.474   1.217   0.949
 1720SOL    HW1 6059   6.542   1.242   0.879
 1720SOL    HW2 6060   6.520   1.169   1.024
 1721SOL     OW 6061   0.851   6.431   3.047
 1721SOL    HW1 6062   0.859   6.395   2.954
 1721SOL    HW2 6063   0.799   6.366   3.103
 1722SOL     OW 6064   4.756   1.815   3.948
 1722SOL    HW1 6065   4.677   1.873   3.932
 1722SOL    HW2 6066   4.806   1.847   4.028
 1723SOL     OW 6067   6.555   2.756   2.905
 1723SOL    HW1 6068   6.463   2.718   2.901
 1723SOL    HW2 6069   6.550   2.856   2.903
 1724SOL     OW 6070   5.986   2.024   0.788
 1724SOL    HW1 6071   5.994   2.072   0.700
 1724SOL    HW2 6072   6.016   1.929   0.777
 1725SOL     OW 6073   2.965   5.238   0.389
 1725SOL    HW1 6074   2.910   5.316   0.420
 1725SOL    HW2 6075   2.905   5.162   0.365
 1726SOL     OW 6076   5.694   4.117   5.106
 1726SOL    HW1 6077   5.628   4.166   5.163
 1726SOL    HW2 6078   5.665   4.022   5.095
 1727SOL     OW 6079   3.758   2.942   4.364
 1727SOL    HW1 6080   3.798   2.921   4.453
 1727SOL    HW2 6081   3.669   2.897   4.357
 1728SOL     OW 6082   5.769   5.159   4.796
 1728SOL    HW1 6083   5.820   5.184   4.878
 1728SOL    HW2 6084   5.768   5.236   4.732
 1729SOL     OW 6085   2.246   4.028   3.574
 1729SOL    HW1 6086   2.239   4.002   3.478
 1729SOL    HW2 6087   2.298   4.113   3.581
 1730SOL     OW 6088   6.723   0.130   5.221
 1730SOL    HW1 6089   6.679   0.209   5.177
 1730SOL    HW2 6090   6.747   0.154   5.315
 1731SOL     OW 6091   0.672   5.237   2.020
 1731SOL    HW1 6092   0.765   5.230   1.985
 1731SOL    HW2 6093   0.673   5.274   2.113
 1732SOL     OW 6094   2.115   4.541   5.515
 1732SOL    HW1 6095   2.185   4.470   5.525
 1732SOL    HW2 6096   2.028   4.499   5.490
 1733SOL     OW 6097   1.181   3.654   2.422
 1733SOL    HW1 6098   1.114   3.670   2.349
 1733SOL    HW2 6099   1.134   3.649   2.510
 1734SOL     OW 6100   4.866   3.281   1.926
 1734SOL    HW1 6101   4.957   3.270   1.964
 1734SOL    HW2 6102   4.804   3.213   1.965
 1735SOL     OW 6103   6.157   5.766   1.350
 1735SOL    HW1 6104   6.209   5.735   1.429
 1735SOL    HW2 6105   6.215   5.825   1.294
 1736SOL     OW 6106   4.144   2.074   1.167
 1736SOL    HW1 6107   4.107   2.124   1.245
 1736SOL    HW2 6108   4.074   2.070   1.095
 1737SOL     OW 6109   3.038   1.388   4.519
 1737SOL    HW1 6110   3.130   1.400   4.556
 1737SOL    HW2 6111   2.996   1.307   4.561
 1738SOL     OW 6112   2.092   1.645   3.683
 1738SOL    HW1 6113   2.003   1.668   3.723
 1738SOL    HW2 6114   2.106   1.698   3.599
 1739SOL     OW 6115   5.244   2.327   5.607
 1739SOL    HW1 6116   5.284   2.415   5.581
 1739SOL    HW2 6117   5.245   2.266   5.528
 1740SOL     OW 6118   0.341   1.841   6.116
 1740SOL    HW1 6119   0.293   1.819   6.201
 1740SOL    HW2 6120   0.407   1.915   6.134
 1741SOL     OW 6121   2.520   0.661   4.107
 1741SOL    HW1 6122   2.496   0.757   4.095
 1741SOL    HW2 6123   2.616   0.654   4.133
 1742SOL     OW 6124   4.586   5.986   6.332
 1742SOL    HW1 6125   4.534   6.041   6.397
 1742SOL    HW2 6126   4.536   5.980   6.245
 1743SOL     OW 6127   2.147   2.114   2.146
 1743SOL    HW1 6128   2.239   2.099   2.181
 1743SOL    HW2 6129   2.122   2.039   2.084
 1744SOL     OW 6130   0.494   0.405   1.448
 1744SOL    HW1 6131   0.585   0.400   1.406
 1744SOL    HW2 6132   0.443   0.482   1.409
 1745SOL     OW 6133   6.556   0.402   3.986
 1745SOL    HW1 6134   6.569   0.498   4.012
 1745SOL    HW2 6135   6.645   0.363   3.961
 1746SOL     OW 6136   2.173   5.195   4.986
 1746SOL    HW1 6137   2.107   5.152   5.047
 1746SOL    HW2 6138   2.230   5.124   4.944
 1747SOL     OW 6139   5.571   0.728   3.058
 1747SOL    HW1 6140   5.590   0.787   3.137
 1747SOL    HW2 6141   5.630   0.755   2.982
 1748SOL     OW 6142   0.548   1.135   3.809
 1748SOL    HW1 6143   0.564   1.222   3.761
 1748SOL    HW2 6144   0.500   1.072   3.749
 1749SOL     OW 6145   2.629   6.754   5.265
 1749SOL    HW1 6146   2.717   6.715   5.237
 1749SOL    HW2 6147   2.622   6.751   5.365
 1750SOL     OW 6148   6.616   0.056   3.319
 1750SOL    HW1 6149   6.517   0.067   3.314
 1750SOL    HW2 6150   6.649   0.093   3.406
 1751SOL     OW 6151   4.039   6.148   5.041
 1751SOL    HW1 6152   4.035   6.086   5.120
 1751SOL    HW2 6153   4.050   6.242   5.073
 1752SOL     OW 6154   0.015   2.277   2.623
 1752SOL    HW1 6155   0.111   2.263   2.595
 1752SOL    HW2 6156   0.002   2.244   2.716
 1753SOL     OW 6157   0.269   2.492   0.914
 1753SOL    HW1 6158   0.285   2.454   1.005
 1753SOL    HW2 6159   0.186   2.453   0.875
 1754SOL     OW 6160   3.420   3.304   1.005
 1754SOL    HW1 6161   3.465   3.240   1.069
 1754SOL    HW2 6162   3.348   3.256   0.956
 1755SOL     OW 6163   5.857   5.597   2.707
 1755SOL    HW1 6164   5.867   5.500   2.688
 1755SOL    HW2 6165   5.897   5.650   2.631
 1756SOL     OW 6166   4.098   4.444   6.216
 1756SOL    HW1 6167   4.160   4.514   6.251
 1756SOL    HW2 6168   4.092   4.451   6.116
 1757SOL     OW 6169   2.700   5.446   4.887
 1757SOL    HW1 6170   2.698   5.544   4.865
 1757SOL    HW2 6171   2.611   5.418   4.922
 1758SOL     OW 6172   2.925   0.424   4.068
 1758SOL    HW1 6173   2.926   0.509   4.014
 1758SOL    HW2 6174   2.861   0.359   4.026
 1759SOL     OW 6175   1.061   4.688   5.886
 1759SOL    HW1 6176   1.148   4.731   5.863
 1759SOL    HW2 6177   1.004   4.681   5.804
 1760SOL     OW 6178   6.584   1.951   1.533
 1760SOL    HW1 6179   6.521   2.024   1.506
 1760SOL    HW2 6180   6.575   1.875   1.470
 1761SOL     OW 6181   0.348   0.581   0.490
 1761SOL    HW1 6182   0.339   0.483   0.474
 1761SOL    HW2 6183   0.378   0.626   0.406
 1762SOL     OW 6184   6.408   1.559   5.057
 1762SOL    HW1 6185   6.408   1.646   5.009
 1762SOL    HW2 6186   6.342   1.497   5.014
 1763SOL     OW 6187   2.150   3.650   4.148
 1763SOL    HW1 6188   2.055   3.621   4.136
 1763SOL    HW2 6189   2.208   3.571   4.168
 1764SOL     OW 6190   1.613   3.957   2.710
 1764SOL    HW1 6191   1.530   4.008   2.691
 1764SOL    HW2 6192   1.601   3.902   2.792
 1765SOL     OW 6193   3.848   1.855   6.694
 1765SOL    HW1 6194   3.825   1.835   6.599
 1765SOL    HW2 6195   3.927   1.801   6.721
 1766SOL     OW 6196   5.137   3.496   3.670
 1766SOL    HW1 6197   5.139   3.475   3.572
 1766SOL    HW2 6198   5.048   3.535   3.695
 1767SOL     OW 6199   6.301   3.644   2.945
 1767SOL    HW1 6200   6.382   3.639   2.886
 1767SOL    HW2 6201   6.300   3.567   3.008
 1768SOL     OW 6202   3.448   1.221   4.499
 1768SOL    HW1 6203   3.363   1.271   4.517
 1768SOL    HW2 6204   3.526   1.279   4.523
 1769SOL     OW 6205   4.110   2.223   4.904
 1769SOL    HW1 6206   4.172   2.298   4.925
 1769SOL    HW2 6207   4.048   2.209   4.982
 1770SOL     OW 6208   0.545   5.215   4.806
 1770SOL    HW1 6209   0.470   5.169   4.759
 1770SOL    HW2 6210   0.528   5.313   4.810
 1771SOL     OW 6211   2.455   5.141   6.729
 1771SOL    HW1 6212   2.360   5.124   6.705
 1771SOL    HW2 6213   2.473   5.108   6.822
 1772SOL     OW 6214   2.603   6.636   3.645
 1772SOL    HW1 6215   2.686   6.581   3.649
 1772SOL    HW2 6216   2.585   6.663   3.551
 1773SOL     OW 6217   2.722   4.962   6.415
 1773SOL    HW1 6218   2.702   4.986   6.510
 1773SOL    HW2 6219   2.641   4.980   6.359
 1774SOL     OW 6220   4.463   6.957   1.871
 1774SOL    HW1 6221   4.406   7.007   1.936
 1774SOL    HW2 6222   4.495   7.019   1.799
 1775SOL     OW 6223   1.108   4.067   3.764
 1775SOL    HW1 6224   1.085   4.150   3.814
 1775SOL    HW2 6225   1.163   4.091   3.684
 1776SOL     OW 6226   3.640   0.509   4.387
 1776SOL    HW1 6227   3.582   0.588   4.407
 1776SOL    HW2 6228   3.728   0.520   4.432
 1777SOL     OW 6229   3.427   5.056   5.943
 1777SOL    HW1 6230   3.362   5.042   6.018
 1777SOL    HW2 6231   3.377   5.079   5.859
 1778SOL     OW 6232   4.874   2.758   5.951
 1778SOL    HW1 6233   4.907   2.825   6.017
 1778SOL    HW2 6234   4.858   2.803   5.863
 1779SOL     OW 6235   4.462   1.207   4.807
 1779SOL    HW1 6236   4.367   1.204   4.835
 1779SOL    HW2 6237   4.490   1.118   4.772
 1780SOL     OW 6238   3.078   3.066   6.004
 1780SOL    HW1 6239   3.169   3.107   5.996
 1780SOL    HW2 6240   3.039   3.052   5.914
 1781SOL     OW 6241   4.358   5.903   3.688
 1781SOL    HW1 6242   4.368   5.893   3.787
 1781SOL    HW2 6243   4.392   5.820   3.643
 1782SOL     OW 6244   2.816   2.083   2.779
 1782SOL    HW1 6245   2.846   2.061   2.686
 1782SOL    HW2 6246   2.880   2.043   2.845
 1783SOL     OW 6247   0.879   4.192   6.585
 1783SOL    HW1 6248   0.864   4.291   6.586
 1783SOL    HW2 6249   0.942   4.168   6.659
 1784SOL     OW 6250   3.568   1.479   4.897
 1784SOL    HW1 6251   3.640   1.541   4.867
 1784SOL    HW2 6252   3.602   1.385   4.893
 1785SOL     OW 6253   5.988   5.372   3.930
 1785SOL    HW1 6254   5.907   5.406   3.882
 1785SOL    HW2 6255   6.010   5.432   4.007
 1786SOL     OW 6256   1.261   2.669   1.292
 1786SOL    HW1 6257   1.311   2.607   1.352
 1786SOL    HW2 6258   1.257   2.630   1.200
 1787SOL     OW 6259   2.611   0.712   4.848
 1787SOL    HW1 6260   2.525   0.726   4.898
 1787SOL    HW2 6261   2.632   0.615   4.844
 1788SOL     OW 6262   3.486   2.888   0.052
 1788SOL    HW1 6263   3.513   2.940   0.133
 1788SOL    HW2 6264   3.485   2.949   6.992
 1789SOL     OW 6265   5.960   1.974   2.736
 1789SOL    HW1 6266   5.962   2.031   2.654
 1789SOL    HW2 6267   5.879   1.996   2.790
 1790SOL     OW 6268   3.948   6.688   3.962
 1790SOL    HW1 6269   3.985   6.605   4.003
 1790SOL    HW2 6270   3.988   6.768   4.006
 1791SOL     OW 6271   6.766   1.164   3.849
 1791SOL    HW1 6272   6.724   1.160   3.759
 1791SOL    HW2 6273   6.814   1.251   3.861
 1792SOL     OW 6274   0.220   2.695   4.036
 1792SOL    HW1 6275   0.203   2.653   3.947
 1792SOL    HW2 6276   0.296   2.649   4.082
 1793SOL     OW 6277   0.092   0.028   3.498
 1793SOL    HW1 6278   0.135   0.100   3.552
 1793SOL    HW2 6279   0.101   0.050   3.400
 1794SOL     OW 6280   5.965   6.291   5.895
 1794SOL    HW1 6281   6.063   6.296   5.879
 1794SOL    HW2 6282   5.923   6.380   5.874
 1795SOL     OW 6283   0.008   3.645   1.643
 1795SOL    HW1 6284   0.017   3.728   1.698
 1795SOL    HW2 6285   6.934   3.640   1.607
 1796SOL     OW 6286   2.591   0.595   4.446
 1796SOL    HW1 6287   2.639   0.602   4.358
 1796SOL    HW2 6288   2.567   0.499   4.463
 1797SOL     OW 6289   1.092   0.787   6.917
 1797SOL    HW1 6290   1.186   0.753   6.906
 1797SOL    HW2 6291   1.075   0.803   7.014
 1798SOL     OW 6292   5.250   2.228   4.445
 1798SOL    HW1 6293   5.195   2.297   4.398
 1798SOL    HW2 6294   5.262   2.149   4.386
 1799SOL     OW 6295   6.398   2.224   6.009
 1799SOL    HW1 6296   6.393   2.128   6.036
 1799SOL    HW2 6297   6.494   2.253   6.007
 1800SOL     OW 6298   3.959   4.831   2.570
 1800SOL    HW1 6299   4.033   4.766   2.586
 1800SOL    HW2 6300   3.941   4.839   2.472
 1801SOL     OW 6301   0.567   0.737   2.287
 1801SOL    HW1 6302   0.573   0.640   2.264
 1801SOL    HW2 6303   0.640   0.761   2.351
 1802SOL     OW 6304   4.995   5.537   2.371
 1802SOL    HW1 6305   5.017   5.634   2.365
 1802SOL    HW2 6306   4.898   5.523   2.349
 1803SOL     OW 6307   6.818   6.209   6.827
 1803SOL    HW1 6308   6.884   6.232   6.899
 1803SOL    HW2 6309   6.844   6.256   6.743
 1804SOL     OW 6310   2.304   3.953   5.642
 1804SOL    HW1 6311   2.284   3.921   5.735
 1804SOL    HW2 6312   2.403   3.956   5.628
 1805SOL     OW 6313   6.543   3.981   5.454
 1805SOL    HW1 6314   6.469   4.000   5.389
 1805SOL    HW2 6315   6.505   3.974   5.546
 1806SOL     OW 6316   0.966   1.433   0.750
 1806SOL    HW1 6317   0.978   1.503   0.680
 1806SOL    HW2 6318   0.871   1.434   0.783
 1807SOL     OW 6319   5.121   2.540   5.976
 1807SOL    HW1 6320   5.049   2.608   5.964
 1807SOL    HW2 6321   5.084   2.459   6.021
 1808SOL     OW 6322   0.200   3.538   5.547
 1808SOL    HW1 6323   0.219   3.573   5.455
 1808SOL    HW2 6324   0.240   3.599   5.615
 1809SOL     OW 6325   2.122   2.713   4.688
 1809SOL    HW1 6326   2.164   2.796   4.650
 1809SOL    HW2 6327   2.032   2.735   4.724
 1810SOL     OW 6328   3.013   0.511   4.461
 1810SOL    HW1 6329   2.914   0.527   4.457
 1810SOL    HW2 6330   3.051   0.559   4.541
 1811SOL     OW 6331   4.653   4.625   3.826
 1811SOL    HW1 6332   4.694   4.711   3.857
 1811SOL    HW2 6333   4.656   4.558   3.900
 1812SOL     OW 6334   4.243   6.588   6.005
 1812SOL    HW1 6335   4.329   6.639   5.995
 1812SOL    HW2 6336   4.259   6.491   5.990
 1813SOL     OW 6337   6.055   5.191   0.659
 1813SOL    HW1 6338   6.080   5.214   0.565
 1813SOL    HW2 6339   6.104   5.108   0.687
 1814SOL     OW 6340   6.697   1.452   0.323
 1814SOL    HW1 6341   6.612   1.467   0.373
 1814SOL    HW2 6342   6.760   1.528   0.341
 1815SOL     OW 6343   6.288   2.501   1.722
 1815SOL    HW1 6344   6.188   2.505   1.713
 1815SOL    HW2 6345   6.314   2.412   1.761
 1816SOL     OW 6346   2.733   3.794   0.618
 1816SOL    HW1 6347   2.670   3.717   0.605
 1816SOL    HW2 6348   2.681   3.875   0.644
 1817SOL     OW 6349   3.403   6.753   3.291
 1817SOL    HW1 6350   3.351   6.668   3.286
 1817SOL    HW2 6351   3.491   6.741   3.246
 1818SOL     OW 6352   1.879   6.498   2.078
 1818SOL    HW1 6353   1.893   6.520   2.175
 1818SOL    HW2 6354   1.839   6.407   2.071
 1819SOL     OW 6355   0.253   5.095   1.746
 1819SOL    HW1 6356   0.352   5.088   1.756
 1819SOL    HW2 6357   0.209   5.017   1.790
 1820SOL     OW 6358   4.947   0.716   2.031
 1820SOL    HW1 6359   4.914   0.622   2.025
 1820SOL    HW2 6360   4.901   0.772   1.962
 1821SOL     OW 6361   2.541   0.571   1.759
 1821SOL    HW1 6362   2.498   0.514   1.829
 1821SOL    HW2 6363   2.569   0.514   1.682
 1822SOL     OW 6364   1.573   2.487   1.760
 1822SOL    HW1 6365   1.501   2.532   1.708
 1822SOL    HW2 6366   1.650   2.550   1.773
 1823SOL     OW 6367   2.891   5.510   3.322
 1823SOL    HW1 6368   2.936   5.598   3.340
 1823SOL    HW2 6369   2.960   5.437   3.322
 1824SOL     OW 6370   3.488   3.076   1.166
 1824SOL    HW1 6371   3.543   3.014   1.110
 1824SOL    HW2 6372   3.404   3.029   1.194
 1825SOL     OW 6373   1.289   1.765   3.745
 1825SOL    HW1 6374   1.227   1.696   3.784
 1825SOL    HW2 6375   1.383   1.742   3.768
 1826SOL     OW 6376   3.195   0.259   0.757
 1826SOL    HW1 6377   3.280   0.213   0.783
 1826SOL    HW2 6378   3.134   0.264   0.836
 1827SOL     OW 6379   6.993   5.648   1.790
 1827SOL    HW1 6380   6.924   5.603   1.734
 1827SOL    HW2 6381   0.060   5.598   1.784
 1828SOL     OW 6382   1.187   2.818   0.808
 1828SOL    HW1 6383   1.222   2.729   0.777
 1828SOL    HW2 6384   1.254   2.860   0.869
 1829SOL     OW 6385   3.155   0.420   3.523
 1829SOL    HW1 6386   3.230   0.357   3.545
 1829SOL    HW2 6387   3.125   0.465   3.606
 1830SOL     OW 6388   5.783   6.091   3.904
 1830SOL    HW1 6389   5.819   6.076   3.996
 1830SOL    HW2 6390   5.683   6.094   3.907
 1831SOL     OW 6391   6.178   0.369   2.191
 1831SOL    HW1 6392   6.183   0.300   2.264
 1831SOL    HW2 6393   6.169   0.460   2.231
 1832SOL     OW 6394   5.168   1.502   1.049
 1832SOL    HW1 6395   5.105   1.571   1.085
 1832SOL    HW2 6396   5.138   1.474   0.958
 1833SOL     OW 6397   4.995   0.289   6.192
 1833SOL    HW1 6398   5.061   0.292   6.118
 1833SOL    HW2 6399   4.927   0.218   6.172
 1834SOL     OW 6400   2.791   4.141   0.266
 1834SOL    HW1 6401   2.853   4.219   0.255
 1834SOL    HW2 6402   2.817   4.089   0.348
 1835SOL     OW 6403   0.352   4.023   2.142
 1835SOL    HW1 6404   0.290   4.015   2.220
 1835SOL    HW2 6405   0.428   3.959   2.153
 1836SOL     OW 6406   5.034   2.075   0.744
 1836SOL    HW1 6407   5.078   2.115   0.824
 1836SOL    HW2 6408   5.072   2.116   0.661
 1837SOL     OW 6409   1.252   1.716   4.443
 1837SOL    HW1 6410   1.232   1.618   4.445
 1837SOL    HW2 6411   1.323   1.737   4.510
 1838SOL     OW 6412   6.963   1.134   4.148
 1838SOL    HW1 6413   6.965   1.188   4.064
 1838SOL    HW2 6414   6.966   1.037   4.125
 1839SOL     OW 6415   5.287   2.324   5.114
 1839SOL    HW1 6416   5.190   2.346   5.109
 1839SOL    HW2 6417   5.341   2.407   5.101
 1840SOL     OW 6418   3.317   5.895   1.664
 1840SOL    HW1 6419   3.240   5.926   1.718
 1840SOL    HW2 6420   3.295   5.902   1.566
 1841SOL     OW 6421   2.204   1.160   3.603
 1841SOL    HW1 6422   2.152   1.226   3.657
 1841SOL    HW2 6423   2.287   1.134   3.652
 1842SOL     OW 6424   1.455   5.276   0.218
 1842SOL    HW1 6425   1.365   5.304   0.251
 1842SOL    HW2 6426   1.495   5.209   0.281
 1843SOL     OW 6427   6.692   1.928   3.775
 1843SOL    HW1 6428   6.671   1.892   3.684
 1843SOL    HW2 6429   6.771   1.990   3.768
 1844SOL     OW 6430   3.376   0.440   5.246
 1844SOL    HW1 6431   3.285   0.477   5.232
 1844SOL    HW2 6432   3.376   0.380   5.326
 1845SOL     OW 6433   1.959   6.650   5.007
 1845SOL    HW1 6434   1.910   6.590   5.070
 1845SOL    HW2 6435   1.903   6.731   4.989
 1846SOL     OW 6436   4.391   2.210   0.803
 1846SOL    HW1 6437   4.403   2.118   0.764
 1846SOL    HW2 6438   4.471   2.266   0.780
 1847SOL     OW 6439   1.249   0.515   6.289
 1847SOL    HW1 6440   1.288   0.591   6.341
 1847SOL    HW2 6441   1.154   0.535   6.266
 1848SOL     OW 6442   1.126   6.860   2.773
 1848SOL    HW1 6443   1.199   6.849   2.705
 1848SOL    HW2 6444   1.098   6.770   2.806
 1849SOL     OW 6445   3.604   2.280   0.492
 1849SOL    HW1 6446   3.556   2.310   0.575
 1849SOL    HW2 6447   3.569   2.332   0.414
 1850SOL     OW 6448   0.639   2.794   2.420
 1850SOL    HW1 6449   0.666   2.845   2.338
 1850SOL    HW2 6450   0.715   2.735   2.449
 1851SOL     OW 6451   0.194   2.861   1.279
 1851SOL    HW1 6452   0.213   2.822   1.189
 1851SOL    HW2 6453   0.187   2.787   1.346
 1852SOL     OW 6454   5.924   3.675   2.576
 1852SOL    HW1 6455   5.826   3.691   2.565
 1852SOL    HW2 6456   5.949   3.589   2.531
 1853SOL     OW 6457   0.319   3.163   3.049
 1853SOL    HW1 6458   0.418   3.157   3.067
 1853SOL    HW2 6459   0.282   3.071   3.038
 1854SOL     OW 6460   2.648   5.917   3.506
 1854SOL    HW1 6461   2.562   5.927   3.556
 1854SOL    HW2 6462   2.649   5.978   3.427
 1855SOL     OW 6463   5.364   3.513   6.181
 1855SOL    HW1 6464   5.460   3.486   6.189
 1855SOL    HW2 6465   5.306   3.433   6.191
 1856SOL     OW 6466   6.120   3.979   5.666
 1856SOL    HW1 6467   6.092   3.978   5.570
 1856SOL    HW2 6468   6.145   3.887   5.695
 1857SOL     OW 6469   3.962   1.265   5.418
 1857SOL    HW1 6470   3.999   1.350   5.381
 1857SOL    HW2 6471   3.879   1.285   5.470
 1858SOL     OW 6472   6.404   3.485   3.959
 1858SOL    HW1 6473   6.490   3.533   3.974
 1858SOL    HW2 6474   6.397   3.457   3.863
 1859SOL     OW 6475   4.879   2.055   3.089
 1859SOL    HW1 6476   4.816   2.123   3.127
 1859SOL    HW2 6477   4.879   2.062   2.990
 1860SOL     OW 6478   6.775   0.311   4.750
 1860SOL    HW1 6479   6.823   0.253   4.686
 1860SOL    HW2 6480   6.779   0.406   4.719
 1861SOL     OW 6481   5.856   0.751   1.913
 1861SOL    HW1 6482   5.806   0.666   1.926
 1861SOL    HW2 6483   5.821   0.799   1.832
 1862SOL     OW 6484   2.425   0.629   6.125
 1862SOL    HW1 6485   2.330   0.608   6.100
 1862SOL    HW2 6486   2.433   0.627   6.225
 1863SOL     OW 6487   1.212   1.996   1.839
 1863SOL    HW1 6488   1.148   1.933   1.884
 1863SOL    HW2 6489   1.285   1.943   1.796
 1864SOL     OW 6490   0.776   0.147   5.412
 1864SOL    HW1 6491   0.800   0.233   5.369
 1864SOL    HW2 6492   0.737   0.164   5.503
 1865SOL     OW 6493   3.763   6.712   6.259
 1865SOL    HW1 6494   3.715   6.756   6.183
 1865SOL    HW2 6495   3.706   6.641   6.298
 1866SOL     OW 6496   4.185   4.745   3.243
 1866SOL    HW1 6497   4.122   4.698   3.306
 1866SOL    HW2 6498   4.228   4.822   3.291
 1867SOL     OW 6499   0.295   3.977   0.003
 1867SOL    HW1 6500   0.195   3.986   0.009
 1867SOL    HW2 6501   0.318   3.888   6.983
 1868SOL     OW 6502   4.691   4.465   6.732
 1868SOL    HW1 6503   4.780   4.510   6.746
 1868SOL    HW2 6504   4.706   4.369   6.710
 1869SOL     OW 6505   6.063   2.850   5.981
 1869SOL    HW1 6506   6.055   2.815   5.887
 1869SOL    HW2 6507   6.081   2.774   6.044
 1870SOL     OW 6508   2.058   2.647   5.587
 1870SOL    HW1 6509   2.149   2.681   5.612
 1870SOL    HW2 6510   2.036   2.566   5.643
 1871SOL     OW 6511   0.712   0.342   0.376
 1871SOL    HW1 6512   0.764   0.389   0.304
 1871SOL    HW2 6513   0.682   0.253   0.343
 1872SOL     OW 6514   3.787   1.974   5.998
 1872SOL    HW1 6515   3.707   2.033   5.999
 1872SOL    HW2 6516   3.759   1.881   5.974
 1873SOL     OW 6517   5.096   1.765   5.569
 1873SOL    HW1 6518   5.000   1.767   5.543
 1873SOL    HW2 6519   5.115   1.841   5.632
 1874SOL     OW 6520   3.250   1.643   0.676
 1874SOL    HW1 6521   3.227   1.546   0.687
 1874SOL    HW2 6522   3.210   1.677   0.591
 1875SOL     OW 6523   0.299   0.982   0.317
 1875SOL    HW1 6524   0.386   0.954   0.275
 1875SOL    HW2 6525   0.295   0.948   0.411
 1876SOL     OW 6526   4.063   6.366   6.313
 1876SOL    HW1 6527   4.023   6.400   6.228
 1876SOL    HW2 6528   4.151   6.323   6.293
 1877SOL     OW 6529   0.462   0.048   2.377
 1877SOL    HW1 6530   0.456   0.090   2.287
 1877SOL    HW2 6531   0.551   0.005   2.389
 1878SOL     OW 6532   6.820   2.443   3.530
 1878SOL    HW1 6533   6.903   2.387   3.530
 1878SOL    HW2 6534   6.783   2.448   3.623
 1879SOL     OW 6535   1.465   4.458   3.940
 1879SOL    HW1 6536   1.422   4.384   3.992
 1879SOL    HW2 6537   1.468   4.541   3.995
 1880SOL     OW 6538   6.378   1.522   4.415
 1880SOL    HW1 6539   6.428   1.607   4.398
 1880SOL    HW2 6540   6.369   1.471   4.330
 1881SOL     OW 6541   5.905   2.274   2.947
 1881SOL    HW1 6542   5.844   2.197   2.926
 1881SOL    HW2 6543   5.981   2.241   3.003
 1882SOL     OW 6544   1.166   3.698   6.304
 1882SOL    HW1 6545   1.247   3.719   6.250
 1882SOL    HW2 6546   1.173   3.744   6.393
 1883SOL     OW 6547   0.577   2.307   3.888
 1883SOL    HW1 6548   0.657   2.278   3.941
 1883SOL    HW2 6549   0.571   2.406   3.887
 1884SOL     OW 6550   6.765   2.822   0.415
 1884SOL    HW1 6551   6.679   2.819   0.466
 1884SOL    HW2 6552   6.770   2.742   0.355
 1885SOL     OW 6553   1.760   1.911   6.676
 1885SOL    HW1 6554   1.846   1.944   6.638
 1885SOL    HW2 6555   1.763   1.811   6.685
 1886SOL     OW 6556   1.990   1.167   1.411
 1886SOL    HW1 6557   1.964   1.086   1.464
 1886SOL    HW2 6558   1.946   1.248   1.449
 1887SOL     OW 6559   1.163   6.011   5.156
 1887SOL    HW1 6560   1.191   5.981   5.065
 1887SOL    HW2 6561   1.243   6.017   5.216
 1888SOL     OW 6562   2.470   1.888   0.306
 1888SOL    HW1 6563   2.405   1.866   0.378
 1888SOL    HW2 6564   2.563   1.881   0.341
 1889SOL     OW 6565   0.780   2.999   5.950
 1889SOL    HW1 6566   0.768   2.976   6.047
 1889SOL    HW2 6567   0.746   2.924   5.894
 1890SOL     OW 6568   1.934   6.246   4.432
 1890SOL    HW1 6569   2.020   6.196   4.423
 1890SOL    HW2 6570   1.857   6.184   4.419
 1891SOL     OW 6571   6.010   2.472   1.672
 1891SOL    HW1 6572   5.971   2.463   1.580
 1891SOL    HW2 6573   6.003   2.385   1.720
 1892SOL     OW 6574   2.706   0.519   2.944
 1892SOL    HW1 6575   2.789   0.560   2.982
 1892SOL    HW2 6576   2.627   0.545   2.999
 1893SOL     OW 6577   3.298   3.101   6.885
 1893SOL    HW1 6578   3.259   3.009   6.893
 1893SOL    HW2 6579   3.256   3.148   6.808
 1894SOL     OW 6580   3.556   4.112   4.068
 1894SOL    HW1 6581   3.569   4.127   4.166
 1894SOL    HW2 6582   3.458   4.114   4.047
 1895SOL     OW 6583   4.807   0.685   1.651
 1895SOL    HW1 6584   4.889   0.699   1.597
 1895SOL    HW2 6585   4.825   0.618   1.723
 1896SOL     OW 6586   5.272   0.456   1.444
 1896SOL    HW1 6587   5.348   0.419   1.498
 1896SOL    HW2 6588   5.253   0.395   1.367
 1897SOL     OW 6589   2.357   5.553   1.671
 1897SOL    HW1 6590   2.396   5.475   1.720
 1897SOL    HW2 6591   2.264   5.531   1.641
 1898SOL     OW 6592   2.315   5.798   3.329
 1898SOL    HW1 6593   2.315   5.739   3.249
 1898SOL    HW2 6594   2.321   5.743   3.412
 1899SOL     OW 6595   0.695   1.180   1.980
 1899SOL    HW1 6596   0.624   1.211   1.917
 1899SOL    HW2 6597   0.773   1.146   1.929
 1900SOL     OW 6598   1.647   0.566   6.370
 1900SOL    HW1 6599   1.650   0.599   6.275
 1900SOL    HW2 6600   1.692   0.476   6.375
 1901SOL     OW 6601   1.657   2.330   1.095
 1901SOL    HW1 6602   1.682   2.374   1.182
 1901SOL    HW2 6603   1.731   2.345   1.029
 1902SOL     OW 6604   2.039   1.242   5.016
 1902SOL    HW1 6605   2.086   1.176   4.958
 1902SOL    HW2 6606   2.075   1.237   5.109
 1903SOL     OW 6607   0.163   3.481   2.510
 1903SOL    HW1 6608   0.131   3.573   2.530
 1903SOL    HW2 6609   0.109   3.415   2.562
 1904SOL     OW 6610   5.258   5.578   3.581
 1904SOL    HW1 6611   5.215   5.660   3.543
 1904SOL    HW2 6612   5.244   5.501   3.519
 1905SOL     OW 6613   1.190   0.208   3.707
 1905SOL    HW1 6614   1.268   0.192   3.767
 1905SOL    HW2 6615   1.105   0.185   3.755
 1906SOL     OW 6616   2.538   6.965   4.880
 1906SOL    HW1 6617   2.532   6.935   4.975
 1906SOL    HW2 6618   2.618   0.005   4.869
 1907SOL     OW 6619   3.512   1.471   1.837
 1907SOL    HW1 6620   3.511   1.568   1.860
 1907SOL    HW2 6621   3.476   1.458   1.745
 1908SOL     OW 6622   3.616   6.970   5.649
 1908SOL    HW1 6623   3.681   6.945   5.577
 1908SOL    HW2 6624   3.603   6.892   5.710
 1909SOL     OW 6625   0.304   3.840   2.732
 1909SOL    HW1 6626   0.342   3.776   2.799
 1909SOL    HW2 6627   0.369   3.852   2.657
 1910SOL     OW 6628   0.177   4.699   6.907
 1910SOL    HW1 6629   0.251   4.658   6.961
 1910SOL    HW2 6630   0.216   4.754   6.833
 1911SOL     OW 6631   0.042   3.688   5.016
 1911SOL    HW1 6632   0.139   3.709   5.008
 1911SOL    HW2 6633   0.030   3.592   5.042
 1912SOL     OW 6634   3.321   5.692   0.368
 1912SOL    HW1 6635   3.224   5.706   0.349
 1912SOL    HW2 6636   3.341   5.594   0.369
 1913SOL     OW 6637   2.515   6.546   4.628
 1913SOL    HW1 6638   2.576   6.466   4.619
 1913SOL    HW2 6639   2.500   6.565   4.724
 1914SOL     OW 6640   3.788   2.926   5.900
 1914SOL    HW1 6641   3.753   2.921   5.806
 1914SOL    HW2 6642   3.727   2.875   5.961
 1915SOL     OW 6643   3.442   2.125   4.931
 1915SOL    HW1 6644   3.441   2.225   4.938
 1915SOL    HW2 6645   3.348   2.091   4.927
 1916SOL     OW 6646   3.692   5.561   1.406
 1916SOL    HW1 6647   3.639   5.601   1.331
 1916SOL    HW2 6648   3.778   5.612   1.417
 1917SOL     OW 6649   2.188   2.987   6.701
 1917SOL    HW1 6650   2.217   3.007   6.607
 1917SOL    HW2 6651   2.268   2.981   6.760
 1918SOL     OW 6652   1.323   1.146   5.133
 1918SOL    HW1 6653   1.416   1.114   5.151
 1918SOL    HW2 6654   1.318   1.245   5.150
 1919SOL     OW 6655   1.423   0.732   1.769
 1919SOL    HW1 6656   1.361   0.750   1.846
 1919SOL    HW2 6657   1.504   0.684   1.803
 1920SOL     OW 6658   0.233   4.241   3.140
 1920SOL    HW1 6659   0.307   4.237   3.207
 1920SOL    HW2 6660   0.248   4.172   3.069
 1921SOL     OW 6661   1.563   3.440   6.365
 1921SOL    HW1 6662   1.564   3.530   6.408
 1921SOL    HW2 6663   1.627   3.439   6.288
 1922SOL     OW 6664   2.518   3.268   1.518
 1922SOL    HW1 6665   2.599   3.315   1.484
 1922SOL    HW2 6666   2.505   3.183   1.468
 1923SOL     OW 6667   4.156   1.154   5.625
 1923SOL    HW1 6668   4.088   1.084   5.602
 1923SOL    HW2 6669   4.110   1.237   5.655
 1924SOL     OW 6670   4.840   6.545   0.447
 1924SOL    HW1 6671   4.836   6.452   0.484
 1924SOL    HW2 6672   4.802   6.546   0.354
 1925SOL     OW 6673   1.917   4.825   0.697
 1925SOL    HW1 6674   1.882   4.918   0.691
 1925SOL    HW2 6675   1.954   4.808   0.788
 1926SOL     OW 6676   2.682   6.755   2.917
 1926SOL    HW1 6677   2.773   6.783   2.886
 1926SOL    HW2 6678   2.679   6.758   3.017
 1927SOL     OW 6679   2.689   4.732   0.328
 1927SOL    HW1 6680   2.611   4.750   0.388
 1927SOL    HW2 6681   2.657   4.722   0.234
 1928SOL     OW 6682   5.789   3.840   4.753
 1928SOL    HW1 6683   5.745   3.871   4.668
 1928SOL    HW2 6684   5.855   3.908   4.783
 1929SOL     OW 6685   2.536   0.143   1.277
 1929SOL    HW1 6686   2.600   0.108   1.345
 1929SOL    HW2 6687   2.504   0.068   1.219
 1930SOL     OW 6688   4.508   3.860   6.631
 1930SOL    HW1 6689   4.454   3.933   6.673
 1930SOL    HW2 6690   4.494   3.860   6.532
 1931SOL     OW 6691   0.865   2.311   1.254
 1931SOL    HW1 6692   0.872   2.366   1.171
 1931SOL    HW2 6693   0.833   2.219   1.230
 1932SOL     OW 6694   4.869   2.496   2.901
 1932SOL    HW1 6695   4.883   2.401   2.871
 1932SOL    HW2 6696   4.886   2.558   2.825
 1933SOL     OW 6697   0.981   3.563   0.676
 1933SOL    HW1 6698   0.984   3.577   0.577
 1933SOL    HW2 6699   1.032   3.635   0.722
 1934SOL     OW 6700   6.933   0.327   4.965
 1934SOL    HW1 6701   6.915   0.395   5.037
 1934SOL    HW2 6702   6.861   0.333   4.896
 1935SOL     OW 6703   4.856   5.146   3.668
 1935SOL    HW1 6704   4.870   5.238   3.702
 1935SOL    HW2 6705   4.834   5.149   3.571
 1936SOL     OW 6706   5.195   4.491   4.056
 1936SOL    HW1 6707   5.193   4.536   4.145
 1936SOL    HW2 6708   5.208   4.560   3.984
 1937SOL     OW 6709   4.089   6.172   0.277
 1937SOL    HW1 6710   4.107   6.270   0.266
 1937SOL    HW2 6711   4.117   6.123   0.195
 1938SOL     OW 6712   1.352   1.718   1.958
 1938SOL    HW1 6713   1.431   1.777   1.939
 1938SOL    HW2 6714   1.285   1.727   1.885
 1939SOL     OW 6715   6.906   6.436   4.209
 1939SOL    HW1 6716   6.911   6.410   4.113
 1939SOL    HW2 6717   6.877   6.357   4.263
 1940SOL     OW 6718   6.078   5.405   0.834
 1940SOL    HW1 6719   6.086   5.505   0.828
 1940SOL    HW2 6720   6.060   5.368   0.743
 1941SOL     OW 6721   1.375   2.895   4.230
 1941SOL    HW1 6722   1.460   2.846   4.214
 1941SOL    HW2 6723   1.336   2.868   4.318
 1942SOL     OW 6724   5.785   2.656   2.220
 1942SOL    HW1 6725   5.688   2.680   2.221
 1942SOL    HW2 6726   5.795   2.561   2.189
 1943SOL     OW 6727   1.989   6.715   3.319
 1943SOL    HW1 6728   1.891   6.730   3.311
 1943SOL    HW2 6729   2.037   6.803   3.317
 1944SOL     OW 6730   6.157   3.730   0.079
 1944SOL    HW1 6731   6.136   3.777   0.165
 1944SOL    HW2 6732   6.249   3.691   0.084
 1945SOL     OW 6733   4.087   5.394   0.322
 1945SOL    HW1 6734   4.129   5.304   0.312
 1945SOL    HW2 6735   3.988   5.383   0.335
 1946SOL     OW 6736   5.628   6.750   0.939
 1946SOL    HW1 6737   5.708   6.784   0.990
 1946SOL    HW2 6738   5.633   6.651   0.931
 1947SOL     OW 6739   5.512   6.419   4.516
 1947SOL    HW1 6740   5.479   6.503   4.558
 1947SOL    HW2 6741   5.609   6.428   4.494
 1948SOL     OW 6742   6.212   4.672   2.551
 1948SOL    HW1 6743   6.206   4.747   2.484
 1948SOL    HW2 6744   6.169   4.701   2.637
 1949SOL     OW 6745   3.654   3.472   6.742
 1949SOL    HW1 6746   3.561   3.451   6.712
 1949SOL    HW2 6747   3.653   3.500   6.838
 1950SOL     OW 6748   3.464   3.102   1.619
 1950SOL    HW1 6749   3.412   3.096   1.705
 1950SOL    HW2 6750   3.403   3.085   1.542
 1951SOL     OW 6751   6.706   4.695   6.680
 1951SOL    HW1 6752   6.804   4.691   6.659
 1951SOL    HW2 6753   6.661   4.613   6.644
 1952SOL     OW 6754   4.977   4.226   0.911
 1952SOL    HW1 6755   4.908   4.196   0.846
 1952SOL    HW2 6756   4.939   4.297   0.970
 1953SOL     OW 6757   6.739   1.643   5.883
 1953SOL    HW1 6758   6.810   1.714   5.881
 1953SOL    HW2 6759   6.707   1.631   5.977
 1954SOL     OW 6760   6.285   0.340   1.321
 1954SOL    HW1 6761   6.308   0.436   1.338
 1954SOL    HW2 6762   6.195   0.334   1.280
 1955SOL     OW 6763   0.410   0.555   2.934
 1955SOL    HW1 6764   0.474   0.522   2.865
 1955SOL    HW2 6765   0.411   0.655   2.936
 1956SOL     OW 6766   5.167   0.279   1.752
 1956SOL    HW1 6767   5.253   0.330   1.745
 1956SOL    HW2 6768   5.184   0.182   1.737
 1957SOL     OW 6769   5.123   4.947   4.009
 1957SOL    HW1 6770   5.209   4.914   3.971
 1957SOL    HW2 6771   5.084   5.017   3.949
 1958SOL     OW 6772   4.721   1.626   1.544
 1958SOL    HW1 6773   4.761   1.550   1.594
 1958SOL    HW2 6774   4.749   1.712   1.586
 1959SOL     OW 6775   0.869   6.928   3.968
 1959SOL    HW1 6776   0.934   6.901   3.897
 1959SOL    HW2 6777   0.894   6.887   4.055
 1960SOL     OW 6778   0.194   4.089   2.914
 1960SOL    HW1 6779   0.249   4.007   2.894
 1960SOL    HW2 6780   0.175   4.138   2.829
 1961SOL     OW 6781   6.211   4.268   4.467
 1961SOL    HW1 6782   6.296   4.235   4.506
 1961SOL    HW2 6783   6.193   4.219   4.381
 1962SOL     OW 6784   1.545   6.812   2.243
 1962SOL    HW1 6785   1.526   6.816   2.341
 1962SOL    HW2 6786   1.485   6.874   2.194
 1963SOL     OW 6787   1.531   1.169   1.951
 1963SOL    HW1 6788   1.520   1.269   1.954
 1963SOL    HW2 6789   1.455   1.126   1.998
 1964SOL     OW 6790   4.278   4.686   1.331
 1964SOL    HW1 6791   4.370   4.666   1.296
 1964SOL    HW2 6792   4.229   4.601   1.347
 1965SOL     OW 6793   1.923   2.461   4.399
 1965SOL    HW1 6794   1.870   2.391   4.448
 1965SOL    HW2 6795   1.983   2.416   4.333
 1966SOL     OW 6796   0.724   6.040   1.629
 1966SOL    HW1 6797   0.695   6.118   1.684
 1966SOL    HW2 6798   0.779   5.978   1.685
 1967SOL     OW 6799   5.909   2.851   3.975
 1967SOL    HW1 6800   5.831   2.811   4.023
 1967SOL    HW2 6801   5.885   2.942   3.942
 1968SOL     OW 6802   2.167   0.302   5.621
 1968SOL    HW1 6803   2.213   0.387   5.648
 1968SOL    HW2 6804   2.114   0.318   5.538
 1969SOL     OW 6805   2.847   1.373   0.995
 1969SOL    HW1 6806   2.792   1.374   0.911
 1969SOL    HW2 6807   2.943   1.363   0.971
 1970SOL     OW 6808   1.053   6.952   5.002
 1970SOL    HW1 6809   0.978   7.015   4.985
 1970SOL    HW2 6810   1.106   6.939   4.917
 1971SOL     OW 6811   0.360   0.975   5.570
 1971SOL    HW1 6812   0.261   0.982   5.573
 1971SOL    HW2 6813   0.400   1.065   5.554
 1972SOL     OW 6814   5.566   2.340   1.231
 1972SOL    HW1 6815   5.585   2.286   1.312
 1972SOL    HW2 6816   5.651   2.354   1.180
 1973SOL     OW 6817   3.058   4.015   1.389
 1973SOL    HW1 6818   3.147   4.056   1.409
 1973SOL    HW2 6819   3.066   3.953   1.311
 1974SOL     OW 6820   5.031   0.538   4.917
 1974SOL    HW1 6821   5.113   0.511   4.967
 1974SOL    HW2 6822   5.019   0.478   4.838
 1975SOL     OW 6823   1.709   2.072   3.801
 1975SOL    HW1 6824   1.686   2.001   3.868
 1975SOL    HW2 6825   1.805   2.061   3.775
 1976SOL     OW 6826   5.929   6.134   0.621
 1976SOL    HW1 6827   5.867   6.063   0.587
 1976SOL    HW2 6828   6.020   6.095   0.634
 1977SOL     OW 6829   1.654   3.323   5.216
 1977SOL    HW1 6830   1.694   3.260   5.149
 1977SOL    HW2 6831   1.722   3.392   5.242
 1978SOL     OW 6832   2.081   6.125   2.674
 1978SOL    HW1 6833   2.134   6.127   2.590
 1978SOL    HW2 6834   2.114   6.052   2.734
 1979SOL     OW 6835   5.462   5.078   6.953
 1979SOL    HW1 6836   5.559   5.058   6.969
 1979SOL    HW2 6837   5.450   5.176   6.940
 1980SOL     OW 6838   4.207   0.364   3.630
 1980SOL    HW1 6839   4.242   0.276   3.596
 1980SOL    HW2 6840   4.282   0.429   3.638
 1981SOL     OW 6841   5.533   3.045   2.617
 1981SOL    HW1 6842   5.619   3.012   2.656
 1981SOL    HW2 6843   5.550   3.128   2.564
 1982SOL     OW 6844   6.599   3.920   3.578
 1982SOL    HW1 6845   6.522   3.937   3.517
 1982SOL    HW2 6846   6.564   3.899   3.670
 1983SOL     OW 6847   1.842   0.705   1.624
 1983SOL    HW1 6848   1.833   0.689   1.525
 1983SOL    HW2 6849   1.894   0.788   1.640
 1984SOL     OW 6850   4.403   2.409   4.901
 1984SOL    HW1 6851   4.335   2.435   4.969
 1984SOL    HW2 6852   4.431   2.490   4.849
 1985SOL     OW 6853   0.041   5.973   2.544
 1985SOL    HW1 6854   0.038   6.073   2.547
 1985SOL    HW2 6855   6.975   5.938   2.503
 1986SOL     OW 6856   2.979   1.203   6.398
 1986SOL    HW1 6857   2.901   1.219   6.337
 1986SOL    HW2 6858   3.043   1.280   6.390
 1987SOL     OW 6859   2.295   1.518   3.348
 1987SOL    HW1 6860   2.307   1.522   3.249
 1987SOL    HW2 6861   2.264   1.427   3.374
 1988SOL     OW 6862   6.976   2.883   0.569
 1988SOL    HW1 6863   6.897   2.854   0.515
 1988SOL    HW2 6864   6.950   2.960   0.626
 1989SOL     OW 6865   2.098   5.488   4.937
 1989SOL    HW1 6866   2.183   5.537   4.956
 1989SOL    HW2 6867   2.111   5.391   4.958
 1990SOL     OW 6868   3.706   6.016   0.317
 1990SOL    HW1 6869   3.750   6.103   0.338
 1990SOL    HW2 6870   3.775   5.944   0.309
 1991SOL     OW 6871   2.019   6.386   0.429
 1991SOL    HW1 6872   1.997   6.398   0.525
 1991SOL    HW2 6873   1.977   6.302   0.395
 1992SOL     OW 6874   0.263   0.794   0.620
 1992SOL    HW1 6875   0.309   0.714   0.582
 1992SOL    HW2 6876   0.309   0.821   0.705
 1993SOL     OW 6877   3.136   1.916   5.833
 1993SOL    HW1 6878   3.161   1.864   5.915
 1993SOL    HW2 6879   3.207   1.985   5.815
 1994SOL     OW 6880   5.834   2.503   1.128
 1994SOL    HW1 6881   5.904   2.435   1.106
 1994SOL    HW2 6882   5.806   2.550   1.044
 1995SOL     OW 6883   5.569   3.006   3.700
 1995SOL    HW1 6884   5.609   3.091   3.667
 1995SOL    HW2 6885   5.474   2.999   3.669
 1996SOL     OW 6886   2.410   1.969   1.010
 1996SOL    HW1 6887   2.311   1.975   1.007
 1996SOL    HW2 6888   2.449   2.060   1.021
 1997SOL     OW 6889   3.914   1.805   3.872
 1997SOL    HW1 6890   4.005   1.788   3.908
 1997SOL    HW2 6891   3.857   1.846   3.943
 1998SOL     OW 6892   1.480   3.759   0.629
 1998SOL    HW1 6893   1.433   3.812   0.558
 1998SOL    HW2 6894   1.493   3.665   0.596
 1999SOL     OW 6895   1.248   0.220   5.700
 1999SOL    HW1 6896   1.160   0.188   5.664
 1999SOL    HW2 6897   1.322   0.189   5.640
 2000SOL     OW 6898   3.688   2.844   5.653
 2000SOL    HW1 6899   3.683   2.759   5.704
 2000SOL    HW2 6900   3.755   2.835   5.579
 2001SOL     OW 6901   2.101   1.462   0.955
 2001SOL    HW1 6902   2.027   1.409   0.914
 2001SOL    HW2 6903   2.151   1.405   1.019
 2002SOL     OW 6904   0.600   4.941   0.893
 2002SOL    HW1 6905   0.583   5.016   0.958
 2002SOL    HW2 6906   0.547   4.956   0.810
 2003SOL     OW 6907   6.400   4.681   2.102
 2003SOL    HW1 6908   6.434   4.760   2.050
 2003SOL    HW2 6909   6.477   4.625   2.131
 2004SOL     OW 6910   4.844   1.101   4.608
 2004SOL    HW1 6911   4.807   1.177   4.661
 2004SOL    HW2 6912   4.792   1.018   4.628
 2005SOL     OW 6913   0.052   4.835   0.438
 2005SOL    HW1 6914   0.151   4.843   0.421
 2005SOL    HW2 6915   0.020   4.917   0.485
 2006SOL     OW 6916   5.672   6.810   3.679
 2006SOL    HW1 6917   5.640   6.840   3.589
 2006SOL    HW2 6918   5.759   6.855   3.700
 2007SOL     OW 6919   5.215   4.555   0.944
 2007SOL    HW1 6920   5.264   4.640   0.958
 2007SOL    HW2 6921   5.267   4.479   0.983
 2008SOL     OW 6922   2.017   3.408   3.155
 2008SOL    HW1 6923   2.068   3.488   3.185
 2008SOL    HW2 6924   1.928   3.405   3.200
 2009SOL     OW 6925   5.000   6.541   2.565
 2009SOL    HW1 6926   5.013   6.515   2.661
 2009SOL    HW2 6927   4.911   6.509   2.534
 2010SOL     OW 6928   2.502   1.638   1.834
 2010SOL    HW1 6929   2.586   1.659   1.783
 2010SOL    HW2 6930   2.473   1.719   1.885
 2011SOL     OW 6931   0.655   1.069   4.833
 2011SOL    HW1 6932   0.750   1.069   4.802
 2011SOL    HW2 6933   0.651   1.107   4.926
 2012SOL     OW 6934   1.424   3.766   2.485
 2012SOL    HW1 6935   1.456   3.825   2.410
 2012SOL    HW2 6936   1.333   3.731   2.463
 2013SOL     OW 6937   5.820   3.261   4.070
 2013SOL    HW1 6938   5.778   3.200   4.004
 2013SOL    HW2 6939   5.800   3.228   4.163
 2014SOL     OW 6940   3.003   0.135   3.184
 2014SOL    HW1 6941   2.983   0.190   3.266
 2014SOL    HW2 6942   3.038   0.046   3.211
 2015SOL     OW 6943   2.769   6.796   1.019
 2015SOL    HW1 6944   2.840   6.821   0.953
 2015SOL    HW2 6945   2.679   6.816   0.980
 2016SOL     OW 6946   1.500   5.368   5.405
 2016SOL    HW1 6947   1.414   5.411   5.377
 2016SOL    HW2 6948   1.483   5.305   5.481
 2017SOL     OW 6949   4.174   0.187   3.100
 2017SOL    HW1 6950   4.214   0.101   3.070
 2017SOL    HW2 6951   4.114   0.223   3.029
 2018SOL     OW 6952   6.386   2.997   3.523
 2018SOL    HW1 6953   6.351   3.003   3.617
 2018SOL    HW2 6954   6.482   2.972   3.525
 2019SOL     OW 6955   5.838   4.255   6.505
 2019SOL    HW1 6956   5.837   4.351   6.476
 2019SOL    HW2 6957   5.811   4.249   6.601
 2020SOL     OW 6958   2.174   6.490   6.122
 2020SOL    HW1 6959   2.166   6.587   6.100
 2020SOL    HW2 6960   2.150   6.475   6.218
 2021SOL     OW 6961   6.484   6.422   4.475
 2021SOL    HW1 6962   6.565   6.480   4.466
 2021SOL    HW2 6963   6.430   6.452   4.554
 2022SOL     OW 6964   1.443   4.660   4.121
 2022SOL    HW1 6965   1.463   4.580   4.177
 2022SOL    HW2 6966   1.379   4.720   4.171
 2023SOL     OW 6967   0.823   0.620   7.012
 2023SOL    HW1 6968   0.828   0.562   6.931
 2023SOL    HW2 6969   0.773   0.703   6.991
 2024SOL     OW 6970   0.223   5.553   4.053
 2024SOL    HW1 6971   0.214   5.577   4.150
 2024SOL    HW2 6972   0.140   5.505   4.023
 2025SOL     OW 6973   3.821   0.819   4.336
 2025SOL    HW1 6974   3.908   0.774   4.356
 2025SOL    HW2 6975   3.771   0.835   4.421
 2026SOL     OW 6976   6.603   2.415   6.638
 2026SOL    HW1 6977   6.605   2.514   6.623
 2026SOL    HW2 6978   6.508   2.384   6.643
 2027SOL     OW 6979   1.009   0.230   1.355
 2027SOL    HW1 6980   1.107   0.249   1.359
 2027SOL    HW2 6981   0.981   0.179   1.436
 2028SOL     OW 6982   3.261   5.389   4.005
 2028SOL    HW1 6983   3.210   5.471   3.979
 2028SOL    HW2 6984   3.228   5.312   3.951
 2029SOL     OW 6985   6.466   2.532   6.910
 2029SOL    HW1 6986   6.460   2.495   7.003
 2029SOL    HW2 6987   6.558   2.567   6.894
 2030SOL     OW 6988   3.452   0.216   2.976
 2030SOL    HW1 6989   3.482   0.121   2.991
 2030SOL    HW2 6990   3.354   0.222   2.989
 2031SOL     OW 6991   6.922   6.225   2.521
 2031SOL    HW1 6992   6.909   6.236   2.423
 2031SOL    HW2 6993   6.835   6.238   2.568
 2032SOL     OW 6994   3.411   1.124   1.586
 2032SOL    HW1 6995   3.436   1.159   1.496
 2032SOL    HW2 6996   3.493   1.106   1.639
 2033SOL     OW 6997   2.371   1.333   0.643
 2033SOL    HW1 6998   2.418   1.403   0.697
 2033SOL    HW2 6999   2.338   1.260   0.703
 2034SOL     OW 7000   2.277   5.114   5.960
 2034SOL    HW1 7001   2.196   5.169   5.940
 2034SOL    HW2 7002   2.321   5.086   5.875
 2035SOL     OW 7003   6.538   6.579   3.042
 2035SOL    HW1 7004   6.497   6.650   2.984
 2035SOL    HW2 7005   6.512   6.595   3.137
 2036SOL     OW 7006   1.184   3.672   3.072
 2036SOL    HW1 7007   1.211   3.658   2.977
 2036SOL    HW2 7008   1.113   3.605   3.096
 2037SOL     OW 7009   6.266   3.064   6.296
 2037SOL    HW1 7010   6.270   3.011   6.212
 2037SOL    HW2 7011   6.321   3.019   6.366
 2038SOL     OW 7012   2.393   1.484   0.384
 2038SOL    HW1 7013   2.304   1.529   0.392
 2038SOL    HW2 7014   2.401   1.414   0.455
 2039SOL     OW 7015   0.230   6.622   3.223
 2039SOL    HW1 7016   0.151   6.605   3.281
 2039SOL    HW2 7017   0.281   6.701   3.259
 2040SOL     OW 7018   2.233   1.934   0.144
 2040SOL    HW1 7019   2.205   1.878   0.066
 2040SOL    HW2 7020   2.320   1.900   0.179
 2041SOL     OW 7021   1.480   0.465   4.985
 2041SOL    HW1 7022   1.541   0.391   5.012
 2041SOL    HW2 7023   1.392   0.454   5.031
 2042SOL     OW 7024   5.049   0.264   5.903
 2042SOL    HW1 7025   5.031   0.171   5.935
 2042SOL    HW2 7026   5.013   0.274   5.810
 2043SOL     OW 7027   6.294   2.705   2.909
 2043SOL    HW1 7028   6.197   2.689   2.930
 2043SOL    HW2 7029   6.308   2.696   2.810
 2044SOL     OW 7030   5.902   0.304   0.763
 2044SOL    HW1 7031   5.903   0.222   0.705
 2044SOL    HW2 7032   5.944   0.380   0.714
 2045SOL     OW 7033   1.111   5.015   4.891
 2045SOL    HW1 7034   1.054   4.971   4.961
 2045SOL    HW2 7035   1.081   4.986   4.800
 2046SOL     OW 7036   6.604   2.123   5.358
 2046SOL    HW1 7037   6.539   2.049   5.343
 2046SOL    HW2 7038   6.646   2.114   5.448
 2047SOL     OW 7039   6.535   3.088   1.118
 2047SOL    HW1 7040   6.475   3.155   1.075
 2047SOL    HW2 7041   6.481   3.012   1.154
 2048SOL     OW 7042   0.556   0.452   4.947
 2048SOL    HW1 7043   0.508   0.535   4.976
 2048SOL    HW2 7044   0.548   0.443   4.847
 2049SOL     OW 7045   5.671   1.732   4.124
 2049SOL    HW1 7046   5.722   1.729   4.038
 2049SOL    HW2 7047   5.642   1.826   4.142
 2050SOL     OW 7048   6.938   2.364   4.262
 2050SOL    HW1 7049   0.016   2.352   4.239
 2050SOL    HW2 7050   6.915   2.310   4.342
 2051SOL     OW 7051   1.825   6.194   6.714
 2051SOL    HW1 7052   1.907   6.217   6.767
 2051SOL    HW2 7053   1.762   6.141   6.771
 2052SOL     OW 7054   1.380   2.893   0.985
 2052SOL    HW1 7055   1.420   2.803   1.000
 2052SOL    HW2 7056   1.350   2.931   1.073
 2053SOL     OW 7057   0.955   5.515   5.069
 2053SOL    HW1 7058   0.870   5.560   5.040
 2053SOL    HW2 7059   0.952   5.419   5.041
 2054SOL     OW 7060   3.069   3.893   2.750
 2054SOL    HW1 7061   3.070   3.837   2.833
 2054SOL    HW2 7062   3.018   3.977   2.767
 2055SOL     OW 7063   6.486   3.106   5.026
 2055SOL    HW1 7064   6.563   3.124   5.087
 2055SOL    HW2 7065   6.520   3.070   4.939
 2056SOL     OW 7066   4.042   4.812   1.812
 2056SOL    HW1 7067   4.037   4.857   1.723
 2056SOL    HW2 7068   3.976   4.853   1.875
 2057SOL     OW 7069   4.993   3.573   5.473
 2057SOL    HW1 7070   5.058   3.584   5.548
 2057SOL    HW2 7071   4.907   3.537   5.509
 2058SOL     OW 7072   0.657   6.349   2.429
 2058SOL    HW1 7073   0.686   6.442   2.408
 2058SOL    HW2 7074   0.665   6.292   2.347
 2059SOL     OW 7075   2.397   6.782   6.623
 2059SOL    HW1 7076   2.304   6.772   6.587
 2059SOL    HW2 7077   2.396   6.845   6.700
 2060SOL     OW 7078   0.068   4.183   1.899
 2060SOL    HW1 7079   0.089   4.138   1.985
 2060SOL    HW2 7080   0.148   4.179   1.839
 2061SOL     OW 7081   2.012   2.273   2.630
 2061SOL    HW1 7082   1.945   2.315   2.569
 2061SOL    HW2 7083   2.089   2.336   2.644
 2062SOL     OW 7084   0.055   5.700   5.075
 2062SOL    HW1 7085   0.107   5.738   5.152
 2062SOL    HW2 7086   6.976   5.704   5.097
 2063SOL     OW 7087   1.414   6.361   5.072
 2063SOL    HW1 7088   1.442   6.422   4.998
 2063SOL    HW2 7089   1.315   6.347   5.067
 2064SOL     OW 7090   0.040   2.958   4.522
 2064SOL    HW1 7091   0.089   2.876   4.492
 2064SOL    HW2 7092   0.078   3.038   4.477
 2065SOL     OW 7093   6.009   3.103   6.020
 2065SOL    HW1 7094   5.918   3.122   5.983
 2065SOL    HW2 7095   6.037   3.011   5.993
 2066SOL     OW 7096   6.304   4.224   5.489
 2066SOL    HW1 7097   6.321   4.164   5.410
 2066SOL    HW2 7098   6.258   4.172   5.561
 2067SOL     OW 7099   6.599   5.456   0.972
 2067SOL    HW1 7100   6.528   5.499   0.916
 2067SOL    HW2 7101   6.655   5.397   0.914
 2068SOL     OW 7102   4.104   0.595   4.344
 2068SOL    HW1 7103   4.088   0.679   4.291
 2068SOL    HW2 7104   4.121   0.519   4.282
 2069SOL     OW 7105   0.412   2.491   4.156
 2069SOL    HW1 7106   0.430   2.415   4.094
 2069SOL    HW2 7107   0.364   2.458   4.237
 2070SOL     OW 7108   0.946   2.633   0.932
 2070SOL    HW1 7109   0.945   2.537   0.903
 2070SOL    HW2 7110   0.974   2.690   0.855
 2071SOL     OW 7111   6.306   1.286   6.234
 2071SOL    HW1 7112   6.229   1.308   6.175
 2071SOL    HW2 7113   6.351   1.370   6.264
 2072SOL     OW 7114   4.783   5.020   4.796
 2072SOL    HW1 7115   4.748   4.927   4.791
 2072SOL    HW2 7116   4.707   5.085   4.785
 2073SOL     OW 7117   3.507   6.338   5.313
 2073SOL    HW1 7118   3.596   6.341   5.268
 2073SOL    HW2 7119   3.502   6.410   5.382
 2074SOL     OW 7120   1.890   2.411   6.604
 2074SOL    HW1 7121   1.889   2.504   6.641
 2074SOL    HW2 7122   1.948   2.353   6.662
 2075SOL     OW 7123   6.745   2.306   2.967
 2075SOL    HW1 7124   6.704   2.301   3.058
 2075SOL    HW2 7125   6.755   2.402   2.939
 2076SOL     OW 7126   5.691   0.175   5.839
 2076SOL    HW1 7127   5.712   0.231   5.919
 2076SOL    HW2 7128   5.732   0.085   5.850
 2077SOL     OW 7129   6.603   2.230   1.884
 2077SOL    HW1 7130   6.586   2.137   1.917
 2077SOL    HW2 7131   6.690   2.263   1.922
 2078SOL     OW 7132   1.435   4.622   6.189
 2078SOL    HW1 7133   1.355   4.670   6.155
 2078SOL    HW2 7134   1.510   4.687   6.202
 2079SOL     OW 7135   6.079   1.144   3.033
 2079SOL    HW1 7136   6.064   1.238   3.003
 2079SOL    HW2 7137   6.131   1.095   2.962
 2080SOL     OW 7138   3.418   1.714   4.887
 2080SOL    HW1 7139   3.329   1.716   4.842
 2080SOL    HW2 7140   3.455   1.621   4.885
 2081SOL     OW 7141   0.817   6.231   4.134
 2081SOL    HW1 7142   0.850   6.167   4.065
 2081SOL    HW2 7143   0.809   6.323   4.094
 2082SOL     OW 7144   0.766   6.638   3.377
 2082SOL    HW1 7145   0.865   6.635   3.386
 2082SOL    HW2 7146   0.737   6.582   3.299
 2083SOL     OW 7147   1.525   5.971   4.752
 2083SOL    HW1 7148   1.583   5.926   4.684
 2083SOL    HW2 7149   1.548   6.068   4.757
 2084SOL     OW 7150   0.699   3.045   1.858
 2084SOL    HW1 7151   0.753   3.129   1.855
 2084SOL    HW2 7152   0.756   2.969   1.888
 2085SOL     OW 7153   4.865   6.362   0.970
 2085SOL    HW1 7154   4.862   6.305   1.052
 2085SOL    HW2 7155   4.839   6.456   0.993
 2086SOL     OW 7156   3.733   6.126   6.969
 2086SOL    HW1 7157   3.759   6.170   0.036
 2086SOL    HW2 7158   3.785   6.042   6.957
 2087SOL     OW 7159   4.628   2.174   0.429
 2087SOL    HW1 7160   4.616   2.174   0.330
 2087SOL    HW2 7161   4.549   2.131   0.472
 2088SOL     OW 7162   1.272   5.869   5.929
 2088SOL    HW1 7163   1.264   5.884   5.830
 2088SOL    HW2 7164   1.194   5.815   5.961
 2089SOL     OW 7165   4.439   2.320   5.302
 2089SOL    HW1 7166   4.524   2.364   5.273
 2089SOL    HW2 7167   4.451   2.220   5.299
 2090SOL     OW 7168   4.881   3.098   5.365
 2090SOL    HW1 7169   4.898   3.000   5.356
 2090SOL    HW2 7170   4.789   3.113   5.403
 2091SOL     OW 7171   6.662   5.988   0.483
 2091SOL    HW1 7172   6.660   5.927   0.403
 2091SOL    HW2 7173   6.639   5.935   0.565
 2092SOL     OW 7174   5.534   4.088   1.187
 2092SOL    HW1 7175   5.581   4.095   1.275
 2092SOL    HW2 7176   5.544   3.995   1.152
 2093SOL     OW 7177   3.705   1.758   1.886
 2093SOL    HW1 7178   3.614   1.773   1.846
 2093SOL    HW2 7179   3.694   1.727   1.981
 2094SOL     OW 7180   5.189   2.195   0.951
 2094SOL    HW1 7181   5.278   2.240   0.957
 2094SOL    HW2 7182   5.117   2.262   0.970
 2095SOL     OW 7183   5.881   6.494   3.678
 2095SOL    HW1 7184   5.892   6.401   3.713
 2095SOL    HW2 7185   5.870   6.557   3.755
 2096SOL     OW 7186   4.497   5.222   2.778
 2096SOL    HW1 7187   4.414   5.169   2.794
 2096SOL    HW2 7188   4.560   5.169   2.721
 2097SOL     OW 7189   2.887   3.400   0.037
 2097SOL    HW1 7190   2.946   3.453   0.098
 2097SOL    HW2 7191   2.916   3.305   0.037
 2098SOL     OW 7192   3.765   5.609   3.095
 2098SOL    HW1 7193   3.854   5.572   3.123
 2098SOL    HW2 7194   3.733   5.674   3.163
 2099SOL     OW 7195   4.326   1.485   6.640
 2099SOL    HW1 7196   4.232   1.475   6.607
 2099SOL    HW2 7197   4.378   1.403   6.617
 2100SOL     OW 7198   4.698   1.873   0.268
 2100SOL    HW1 7199   4.779   1.920   0.304
 2100SOL    HW2 7200   4.633   1.855   0.342
 2101SOL     OW 7201   6.834   6.354   1.268
 2101SOL    HW1 7202   6.903   6.298   1.314
 2101SOL    HW2 7203   6.878   6.435   1.229
 2102SOL     OW 7204   5.021   3.708   1.692
 2102SOL    HW1 7205   5.039   3.622   1.645
 2102SOL    HW2 7206   4.923   3.716   1.711
 2103SOL     OW 7207   3.535   3.475   0.483
 2103SOL    HW1 7208   3.510   3.532   0.562
 2103SOL    HW2 7209   3.461   3.411   0.463
 2104SOL     OW 7210   1.354   4.925   1.910
 2104SOL    HW1 7211   1.338   4.827   1.904
 2104SOL    HW2 7212   1.446   4.946   1.877
 2105SOL     OW 7213   3.783   4.979   6.720
 2105SOL    HW1 7214   3.860   5.013   6.666
 2105SOL    HW2 7215   3.700   4.981   6.663
 2106SOL     OW 7216   5.320   3.813   1.214
 2106SOL    HW1 7217   5.247   3.879   1.194
 2106SOL    HW2 7218   5.280   3.732   1.256
 2107SOL     OW 7219   6.050   2.681   5.755
 2107SOL    HW1 7220   6.104   2.621   5.815
 2107SOL    HW2 7221   6.054   2.647   5.661
 2108SOL     OW 7222   5.689   5.966   5.561
 2108SOL    HW1 7223   5.679   6.023   5.643
 2108SOL    HW2 7224   5.604   5.965   5.510
 2109SOL     OW 7225   3.029   5.919   2.070
 2109SOL    HW1 7226   3.032   5.870   2.157
 2109SOL    HW2 7227   3.112   5.974   2.060
 2110SOL     OW 7228   3.702   0.390   5.780
 2110SOL    HW1 7229   3.742   0.461   5.838
 2110SOL    HW2 7230   3.605   0.408   5.766
 2111SOL     OW 7231   1.479   2.281   5.074
 2111SOL    HW1 7232   1.562   2.278   5.019
 2111SOL    HW2 7233   1.496   2.239   5.163
 2112SOL     OW 7234   5.511   2.512   6.767
 2112SOL    HW1 7235   5.483   2.507   6.671
 2112SOL    HW2 7236   5.444   2.565   6.818
 2113SOL     OW 7237   2.246   0.120   4.785
 2113SOL    HW1 7238   2.285   0.028   4.777
 2113SOL    HW2 7239   2.157   0.122   4.739
 2114SOL     OW 7240   1.947   2.903   6.866
 2114SOL    HW1 7241   2.033   2.914   6.816
 2114SOL    HW2 7242   1.871   2.937   6.810
 2115SOL     OW 7243   1.296   4.655   1.866
 2115SOL    HW1 7244   1.234   4.626   1.939
 2115SOL    HW2 7245   1.354   4.579   1.840
 2116SOL     OW 7246   1.046   2.820   1.357
 2116SOL    HW1 7247   0.968   2.830   1.295
 2116SOL    HW2 7248   1.116   2.762   1.314
 2117SOL     OW 7249   5.186   3.238   1.765
 2117SOL    HW1 7250   5.132   3.285   1.834
 2117SOL    HW2 7251   5.194   3.141   1.789
 2118SOL     OW 7252   6.027   3.864   2.748
 2118SOL    HW1 7253   6.123   3.892   2.743
 2118SOL    HW2 7254   6.008   3.799   2.674
 2119SOL     OW 7255   1.542   1.640   0.403
 2119SOL    HW1 7256   1.485   1.690   0.469
 2119SOL    HW2 7257   1.589   1.565   0.450
 2120SOL     OW 7258   6.883   2.639   2.652
 2120SOL    HW1 7259   6.953   2.571   2.627
 2120SOL    HW2 7260   6.821   2.652   2.575
 2121SOL     OW 7261   2.138   2.308   6.244
 2121SOL    HW1 7262   2.215   2.258   6.204
 2121SOL    HW2 7263   2.136   2.401   6.209
 2122SOL     OW 7264   6.074   6.745   5.999
 2122SOL    HW1 7265   6.050   6.756   5.902
 2122SOL    HW2 7266   6.172   6.762   6.011
 2123SOL     OW 7267   6.258   6.228   2.446
 2123SOL    HW1 7268   6.289   6.277   2.528
 2123SOL    HW2 7269   6.225   6.138   2.473
 2124SOL     OW 7270   2.966   1.556   5.970
 2124SOL    HW1 7271   2.953   1.650   6.003
 2124SOL    HW2 7272   2.887   1.501   5.996
 2125SOL     OW 7273   1.366   6.089   2.456
 2125SOL    HW1 7274   1.420   6.156   2.507
 2125SOL    HW2 7275   1.426   6.035   2.398
 2126SOL     OW 7276   4.134   2.504   6.594
 2126SOL    HW1 7277   4.057   2.536   6.539
 2126SOL    HW2 7278   4.124   2.537   6.688
 2127SOL     OW 7279   0.617   1.969   5.311
 2127SOL    HW1 7280   0.625   1.906   5.389
 2127SOL    HW2 7281   0.533   1.948   5.260
 2128SOL     OW 7282   6.168   2.778   0.863
 2128SOL    HW1 7283   6.223   2.844   0.812
 2128SOL    HW2 7284   6.229   2.718   0.917
 2129SOL     OW 7285   5.169   4.632   4.308
 2129SOL    HW1 7286   5.099   4.700   4.284
 2129SOL    HW2 7287   5.175   4.625   4.408
 2130SOL     OW 7288   2.329   1.641   1.333
 2130SOL    HW1 7289   2.302   1.731   1.298
 2130SOL    HW2 7290   2.417   1.616   1.292
 2131SOL     OW 7291   5.128   2.459   0.338
 2131SOL    HW1 7292   5.173   2.390   0.282
 2131SOL    HW2 7293   5.035   2.428   0.361
 2132SOL     OW 7294   3.600   1.408   6.745
 2132SOL    HW1 7295   3.561   1.339   6.807
 2132SOL    HW2 7296   3.602   1.496   6.792
 2133SOL     OW 7297   2.796   2.104   0.991
 2133SOL    HW1 7298   2.852   2.175   1.033
 2133SOL    HW2 7299   2.798   2.022   1.049
 2134SOL     OW 7300   1.372   1.106   4.829
 2134SOL    HW1 7301   1.316   1.113   4.746
 2134SOL    HW2 7302   1.346   1.178   4.893
 2135SOL     OW 7303   0.125   1.782   4.465
 2135SOL    HW1 7304   0.079   1.695   4.444
 2135SOL    HW2 7305   0.095   1.852   4.401
 2136SOL     OW 7306   1.245   3.933   4.632
 2136SOL    HW1 7307   1.323   3.993   4.617
 2136SOL    HW2 7308   1.274   3.838   4.627
 2137SOL     OW 7309   0.541   6.811   4.579
 2137SOL    HW1 7310   0.451   6.827   4.539
 2137SOL    HW2 7311   0.601   6.771   4.510
 2138SOL     OW 7312   5.509   2.944   1.768
 2138SOL    HW1 7313   5.504   2.870   1.702
 2138SOL    HW2 7314   5.417   2.973   1.792
 2139SOL     OW 7315   4.370   1.101   3.042
 2139SOL    HW1 7316   4.397   1.190   3.004
 2139SOL    HW2 7317   4.334   1.043   2.969
 2140SOL     OW 7318   2.925   6.403   2.974
 2140SOL    HW1 7319   2.980   6.485   2.988
 2140SOL    HW2 7320   2.971   6.343   2.907
 2141SOL     OW 7321   6.515   3.294   1.867
 2141SOL    HW1 7322   6.559   3.381   1.889
 2141SOL    HW2 7323   6.572   3.244   1.802
 2142SOL     OW 7324   1.113   2.315   3.172
 2142SOL    HW1 7325   1.161   2.324   3.259
 2142SOL    HW2 7326   1.153   2.377   3.105
 2143SOL     OW 7327   3.584   5.838   0.762
 2143SOL    HW1 7328   3.646   5.913   0.784
 2143SOL    HW2 7329   3.590   5.818   0.664
 2144SOL     OW 7330   2.136   0.493   3.140
 2144SOL    HW1 7331   2.195   0.515   3.062
 2144SOL    HW2 7332   2.042   0.520   3.119
 2145SOL     OW 7333   3.608   5.483   4.250
 2145SOL    HW1 7334   3.530   5.530   4.207
 2145SOL    HW2 7335   3.600   5.385   4.235
 2146SOL     OW 7336   3.119   3.814   2.485
 2146SOL    HW1 7337   3.050   3.744   2.466
 2146SOL    HW2 7338   3.108   3.847   2.578
 2147SOL     OW 7339   0.139   1.266   0.062
 2147SOL    HW1 7340   0.093   1.205   0.126
 2147SOL    HW2 7341   0.073   1.330   0.023
 2148SOL     OW 7342   4.854   3.086   4.198
 2148SOL    HW1 7343   4.852   3.178   4.238
 2148SOL    HW2 7344   4.949   3.058   4.184
 2149SOL     OW 7345   4.081   0.257   1.456
 2149SOL    HW1 7346   4.129   0.326   1.402
 2149SOL    HW2 7347   4.131   0.241   1.541
 2150SOL     OW 7348   3.142   2.127   2.641
 2150SOL    HW1 7349   3.063   2.088   2.593
 2150SOL    HW2 7350   3.146   2.092   2.734
 2151SOL     OW 7351   2.822   2.090   4.857
 2151SOL    HW1 7352   2.816   1.998   4.819
 2151SOL    HW2 7353   2.764   2.097   4.938
 2152SOL     OW 7354   4.860   6.289   2.031
 2152SOL    HW1 7355   4.947   6.337   2.046
 2152SOL    HW2 7356   4.829   6.249   2.117
 2153SOL     OW 7357   4.357   0.961   3.587
 2153SOL    HW1 7358   4.341   0.952   3.686
 2153SOL    HW2 7359   4.294   1.028   3.550
 2154SOL     OW 7360   3.310   6.082   4.724
 2154SOL    HW1 7361   3.297   6.140   4.804
 2154SOL    HW2 7362   3.393   6.110   4.676
 2155SOL     OW 7363   1.878   5.024   6.956
 2155SOL    HW1 7364   1.913   5.017   6.863
 2155SOL    HW2 7365   1.860   5.120   6.978
 2156SOL     OW 7366   2.891   0.324   1.500
 2156SOL    HW1 7367   2.828   0.335   1.423
 2156SOL    HW2 7368   2.882   0.231   1.537
 2157SOL     OW 7369   6.320   0.899   4.307
 2157SOL    HW1 7370   6.339   0.820   4.248
 2157SOL    HW2 7371   6.353   0.879   4.400
 2158SOL     OW 7372   3.537   6.574   0.470
 2158SOL    HW1 7373   3.553   6.671   0.450
 2158SOL    HW2 7374   3.452   6.563   0.520
 2159SOL     OW 7375   1.311   5.932   5.674
 2159SOL    HW1 7376   1.276   5.845   5.639
 2159SOL    HW2 7377   1.282   6.006   5.613
 2160SOL     OW 7378   4.504   3.814   1.560
 2160SOL    HW1 7379   4.428   3.766   1.515
 2160SOL    HW2 7380   4.470   3.898   1.603
 2161SOL     OW 7381   4.887   3.586   3.733
 2161SOL    HW1 7382   4.883   3.530   3.816
 2161SOL    HW2 7383   4.835   3.670   3.747
 2162SOL     OW 7384   1.777   0.581   0.359
 2162SOL    HW1 7385   1.719   0.653   0.395
 2162SOL    HW2 7386   1.858   0.621   0.317
 2163SOL     OW 7387   0.538   6.017   6.388
 2163SOL    HW1 7388   0.585   6.104   6.407
 2163SOL    HW2 7389   0.450   6.036   6.345
 2164SOL     OW 7390   1.652   0.852   6.645
 2164SOL    HW1 7391   1.663   0.906   6.562
 2164SOL    HW2 7392   1.574   0.887   6.697
 2165SOL     OW 7393   1.670   1.598   2.220
 2165SOL    HW1 7394   1.701   1.520   2.275
 2165SOL    HW2 7395   1.731   1.610   2.141
 2166SOL     OW 7396   2.478   2.357   5.886
 2166SOL    HW1 7397   2.566   2.384   5.846
 2166SOL    HW2 7398   2.452   2.267   5.850
 2167SOL     OW 7399   2.829   6.917   2.590
 2167SOL    HW1 7400   2.862   6.875   2.506
 2167SOL    HW2 7401   2.891   6.895   2.665
 2168SOL     OW 7402   6.316   2.613   5.159
 2168SOL    HW1 7403   6.359   2.696   5.123
 2168SOL    HW2 7404   6.252   2.578   5.091
 2169SOL     OW 7405   5.378   2.095   6.120
 2169SOL    HW1 7406   5.339   2.180   6.084
 2169SOL    HW2 7407   5.434   2.051   6.050
 2170SOL     OW 7408   5.442   4.495   5.224
 2170SOL    HW1 7409   5.529   4.533   5.192
 2170SOL    HW2 7410   5.381   4.485   5.146
 2171SOL     OW 7411   6.424   2.461   0.151
 2171SOL    HW1 7412   6.345   2.517   0.176
 2171SOL    HW2 7413   6.453   2.408   0.231
 2172SOL     OW 7414   3.200   1.364   0.643
 2172SOL    HW1 7415   3.143   1.296   0.690
 2172SOL    HW2 7416   3.157   1.389   0.556
 2173SOL     OW 7417   3.726   0.323   5.497
 2173SOL    HW1 7418   3.747   0.345   5.593
 2173SOL    HW2 7419   3.659   0.249   5.494
 2174SOL     OW 7420   6.138   4.713   5.858
 2174SOL    HW1 7421   6.064   4.650   5.881
 2174SOL    HW2 7422   6.104   4.807   5.865
 2175SOL     OW 7423   3.161   1.473   2.886
 2175SOL    HW1 7424   3.134   1.413   2.811
 2175SOL    HW2 7425   3.179   1.565   2.850
 2176SOL     OW 7426   1.065   2.205   1.686
 2176SOL    HW1 7427   1.088   2.171   1.595
 2176SOL    HW2 7428   1.093   2.139   1.755
 2177SOL     OW 7429   6.563   0.585   2.341
 2177SOL    HW1 7430   6.615   0.514   2.293
 2177SOL    HW2 7431   6.627   0.646   2.389
 2178SOL     OW 7432   1.191   3.908   0.557
 2178SOL    HW1 7433   1.156   3.839   0.621
 2178SOL    HW2 7434   1.167   3.999   0.590
 2179SOL     OW 7435   2.049   5.619   4.305
 2179SOL    HW1 7436   2.145   5.607   4.278
 2179SOL    HW2 7437   2.043   5.689   4.376
 2180SOL     OW 7438   2.961   3.228   2.605
 2180SOL    HW1 7439   3.045   3.219   2.552
 2180SOL    HW2 7440   2.882   3.215   2.546
 2181SOL     OW 7441   4.298   4.192   5.849
 2181SOL    HW1 7442   4.286   4.277   5.797
 2181SOL    HW2 7443   4.215   4.137   5.842
 2182SOL     OW 7444   0.072   3.789   6.547
 2182SOL    HW1 7445   0.171   3.786   6.531
 2182SOL    HW2 7446   0.035   3.696   6.549
 2183SOL     OW 7447   3.273   2.927   0.597
 2183SOL    HW1 7448   3.189   2.981   0.605
 2183SOL    HW2 7449   3.306   2.903   0.688
 2184SOL     OW 7450   3.927   7.014   6.002
 2184SOL    HW1 7451   3.883   0.084   6.011
 2184SOL    HW2 7452   4.025   0.004   6.016
 2185SOL     OW 7453   1.739   1.738   1.139
 2185SOL    HW1 7454   1.737   1.830   1.177
 2185SOL    HW2 7455   1.820   1.690   1.172
 2186SOL     OW 7456   6.797   4.539   2.611
 2186SOL    HW1 7457   6.789   4.559   2.709
 2186SOL    HW2 7458   6.766   4.618   2.559
 2187SOL     OW 7459   0.523   1.255   1.813
 2187SOL    HW1 7460   0.437   1.219   1.775
 2187SOL    HW2 7461   0.594   1.254   1.743
 2188SOL     OW 7462   4.777   5.970   3.779
 2188SOL    HW1 7463   4.735   5.945   3.692
 2188SOL    HW2 7464   4.742   5.910   3.851
 2189SOL     OW 7465   1.345   6.882   6.041
 2189SOL    HW1 7466   1.307   6.869   6.132
 2189SOL    HW2 7467   1.315   6.971   6.005
 2190SOL     OW 7468   5.802   3.038   1.614
 2190SOL    HW1 7469   5.852   2.967   1.664
 2190SOL    HW2 7470   5.712   3.051   1.657
 2191SOL     OW 7471   3.491   1.971   6.036
 2191SOL    HW1 7472   3.411   1.918   6.065
 2191SOL    HW2 7473   3.476   2.068   6.058
 2192SOL     OW 7474   4.622   6.709   5.273
 2192SOL    HW1 7475   4.701   6.736   5.327
 2192SOL    HW2 7476   4.553   6.668   5.333
 2193SOL     OW 7477   6.880   5.334   6.074
 2193SOL    HW1 7478   6.845   5.348   6.167
 2193SOL    HW2 7479   6.928   5.247   6.069
 2194SOL     OW 7480   1.979   5.836   0.506
 2194SOL    HW1 7481   2.069   5.807   0.474
 2194SOL    HW2 7482   1.912   5.764   0.485
 2195SOL     OW 7483   0.102   6.547   1.943
 2195SOL    HW1 7484   0.179   6.504   1.990
 2195SOL    HW2 7485   0.081   6.635   1.986
 2196SOL     OW 7486   2.489   0.509   5.682
 2196SOL    HW1 7487   2.533   0.599   5.682
 2196SOL    HW2 7488   2.507   0.463   5.769
 2197SOL     OW 7489   4.865   4.067   1.530
 2197SOL    HW1 7490   4.811   4.120   1.596
 2197SOL    HW2 7491   4.962   4.075   1.553
 2198SOL     OW 7492   0.120   3.481   6.810
 2198SOL    HW1 7493   0.197   3.533   6.773
 2198SOL    HW2 7494   0.144   3.447   6.901
 2199SOL     OW 7495   5.396   6.861   1.092
 2199SOL    HW1 7496   5.421   6.811   1.009
 2199SOL    HW2 7497   5.475   6.913   1.124
 2200SOL     OW 7498   4.238   0.574   4.581
 2200SOL    HW1 7499   4.221   0.663   4.624
 2200SOL    HW2 7500   4.189   0.569   4.494
 2201SOL     OW 7501   5.575   3.707   2.109
 2201SOL    HW1 7502   5.617   3.730   2.021
 2201SOL    HW2 7503   5.646   3.686   2.175
 2202SOL     OW 7504   3.311   5.070   4.162
 2202SOL    HW1 7505   3.303   5.170   4.162
 2202SOL    HW2 7506   3.223   5.030   4.190
 2203SOL     OW 7507   2.983   1.979   2.965
 2203SOL    HW1 7508   3.008   2.030   3.047
 2203SOL    HW2 7509   3.066   1.961   2.911
 2204SOL     OW 7510   3.805   1.094   6.797
 2204SOL    HW1 7511   3.839   1.031   6.728
 2204SOL    HW2 7512   3.716   1.063   6.830
 2205SOL     OW 7513   1.543   0.571   6.988
 2205SOL    HW1 7514   1.506   0.542   0.057
 2205SOL    HW2 7515   1.628   0.522   6.969
 2206SOL     OW 7516   3.310   3.860   5.615
 2206SOL    HW1 7517   3.215   3.857   5.584
 2206SOL    HW2 7518   3.331   3.952   5.649
 2207SOL     OW 7519   0.907   4.360   6.251
 2207SOL    HW1 7520   0.936   4.405   6.167
 2207SOL    HW2 7521   0.842   4.287   6.230
 2208SOL     OW 7522   1.442   4.341   2.297
 2208SOL    HW1 7523   1.494   4.413   2.343
 2208SOL    HW2 7524   1.356   4.378   2.264
 2209SOL     OW 7525   1.521   5.953   6.039
 2209SOL    HW1 7526   1.436   5.934   5.989
 2209SOL    HW2 7527   1.586   5.878   6.023
 2210SOL     OW 7528   1.260   5.109   2.768
 2210SOL    HW1 7529   1.168   5.087   2.802
 2210SOL    HW2 7530   1.270   5.073   2.676
 2211SOL     OW 7531   6.011   1.674   5.411
 2211SOL    HW1 7532   6.014   1.693   5.313
 2211SOL    HW2 7533   6.103   1.653   5.444
 2212SOL     OW 7534   0.334   6.173   6.179
 2212SOL    HW1 7535   0.360   6.270   6.175
 2212SOL    HW2 7536   0.344   6.132   6.088
 2213SOL     OW 7537   4.342   2.333   4.314
 2213SOL    HW1 7538   4.304   2.339   4.221
 2213SOL    HW2 7539   4.295   2.261   4.364
 2214SOL     OW 7540   4.706   0.567   5.645
 2214SOL    HW1 7541   4.780   0.591   5.708
 2214SOL    HW2 7542   4.717   0.618   5.559
 2215SOL     OW 7543   0.025   1.647   5.516
 2215SOL    HW1 7544   0.092   1.671   5.586
 2215SOL    HW2 7545   6.971   1.593   5.556
 2216SOL     OW 7546   1.219   0.565   0.461
 2216SOL    HW1 7547   1.265   0.593   0.545
 2216SOL    HW2 7548   1.213   0.466   0.457
 2217SOL     OW 7549   3.917   0.404   1.174
 2217SOL    HW1 7550   3.910   0.420   1.273
 2217SOL    HW2 7551   3.937   0.490   1.128
 2218SOL     OW 7552   0.909   6.650   0.074
 2218SOL    HW1 7553   0.994   6.616   0.115
 2218SOL    HW2 7554   0.931   6.693   7.005
 2219SOL     OW 7555   1.817   3.518   2.802
 2219SOL    HW1 7556   1.822   3.430   2.757
 2219SOL    HW2 7557   1.826   3.506   2.901
 2220SOL     OW 7558   0.339   1.574   4.561
 2220SOL    HW1 7559   0.285   1.506   4.510
 2220SOL    HW2 7560   0.295   1.664   4.552
 2221SOL     OW 7561   6.541   2.118   1.023
 2221SOL    HW1 7562   6.577   2.184   1.089
 2221SOL    HW2 7563   6.506   2.038   1.071
 2222SOL     OW 7564   4.235   0.722   1.214
 2222SOL    HW1 7565   4.149   0.769   1.235
 2222SOL    HW2 7566   4.230   0.628   1.249
 2223SOL     OW 7567   6.033   5.086   3.440
 2223SOL    HW1 7568   5.972   5.158   3.407
 2223SOL    HW2 7569   6.005   5.059   3.532
 2224SOL     OW 7570   1.886   4.556   1.312
 2224SOL    HW1 7571   1.916   4.608   1.232
 2224SOL    HW2 7572   1.792   4.580   1.334
 2225SOL     OW 7573   5.701   4.975   2.468
 2225SOL    HW1 7574   5.637   4.980   2.391
 2225SOL    HW2 7575   5.779   4.918   2.443
 2226SOL     OW 7576   3.637   3.419   0.828
 2226SOL    HW1 7577   3.708   3.354   0.798
 2226SOL    HW2 7578   3.566   3.369   0.878
 2227SOL     OW 7579   6.211   4.024   6.132
 2227SOL    HW1 7580   6.156   4.057   6.055
 2227SOL    HW2 7581   6.151   3.999   6.208
 2228SOL     OW 7582   3.136   5.448   0.244
 2228SOL    HW1 7583   3.082   5.372   0.279
 2228SOL    HW2 7584   3.087   5.534   0.259
 2229SOL     OW 7585   4.556   1.719   4.231
 2229SOL    HW1 7586   4.489   1.791   4.247
 2229SOL    HW2 7587   4.648   1.759   4.228
 2230SOL     OW 7588   1.293   5.407   3.776
 2230SOL    HW1 7589   1.319   5.444   3.865
 2230SOL    HW2 7590   1.370   5.416   3.712
 2231SOL     OW 7591   1.931   1.644   2.356
 2231SOL    HW1 7592   1.931   1.721   2.419
 2231SOL    HW2 7593   1.912   1.676   2.264
 2232SOL     OW 7594   0.702   3.328   3.750
 2232SOL    HW1 7595   0.736   3.422   3.757
 2232SOL    HW2 7596   0.777   3.267   3.726
 2233SOL     OW 7597   3.865   5.352   6.538
 2233SOL    HW1 7598   3.766   5.345   6.552
 2233SOL    HW2 7599   3.887   5.332   6.443
 2234SOL     OW 7600   3.782   2.607   0.791
 2234SOL    HW1 7601   3.790   2.611   0.691
 2234SOL    HW2 7602   3.686   2.606   0.817
 2235SOL     OW 7603   1.155   0.180   6.686
 2235SOL    HW1 7604   1.158   0.147   6.780
 2235SOL    HW2 7605   1.066   0.156   6.645
 2236SOL     OW 7606   0.666   4.319   0.810
 2236SOL    HW1 7607   0.635   4.236   0.855
 2236SOL    HW2 7608   0.742   4.358   0.861
 2237SOL     OW 7609   6.571   3.447   4.274
 2237SOL    HW1 7610   6.501   3.512   4.245
 2237SOL    HW2 7611   6.530   3.379   4.335
 2238SOL     OW 7612   0.130   5.299   1.932
 2238SOL    HW1 7613   0.224   5.268   1.950
 2238SOL    HW2 7614   0.085   5.319   2.019
 2239SOL     OW 7615   4.292   4.612   3.977
 2239SOL    HW1 7616   4.260   4.518   3.989
 2239SOL    HW2 7617   4.373   4.627   4.034
 2240SOL     OW 7618   6.458   5.354   3.215
 2240SOL    HW1 7619   6.363   5.324   3.201
 2240SOL    HW2 7620   6.503   5.291   3.279
 2241SOL     OW 7621   0.192   6.246   2.233
 2241SOL    HW1 7622   0.241   6.295   2.304
 2241SOL    HW2 7623   0.221   6.279   2.143
 2242SOL     OW 7624   5.471   1.280   2.988
 2242SOL    HW1 7625   5.388   1.291   3.043
 2242SOL    HW2 7626   5.542   1.238   3.044
 2243SOL     OW 7627   2.512   6.199   5.123
 2243SOL    HW1 7628   2.610   6.187   5.104
 2243SOL    HW2 7629   2.483   6.131   5.191
 2244SOL     OW 7630   4.423   0.737   3.443
 2244SOL    HW1 7631   4.419   0.832   3.474
 2244SOL    HW2 7632   4.366   0.726   3.361
 2245SOL     OW 7633   0.088   2.026   2.265
 2245SOL    HW1 7634   0.154   2.093   2.297
 2245SOL    HW2 7635   0.089   2.024   2.165
 2246SOL     OW 7636   1.757   2.960   5.209
 2246SOL    HW1 7637   1.790   2.985   5.118
 2246SOL    HW2 7638   1.835   2.942   5.269
 2247SOL     OW 7639   2.642   2.122   5.069
 2247SOL    HW1 7640   2.629   2.216   5.036
 2247SOL    HW2 7641   2.702   2.123   5.150
 2248SOL     OW 7642   5.345   3.799   5.610
 2248SOL    HW1 7643   5.301   3.843   5.531
 2248SOL    HW2 7644   5.305   3.834   5.694
 2249SOL     OW 7645   5.750   6.220   3.090
 2249SOL    HW1 7646   5.717   6.310   3.118
 2249SOL    HW2 7647   5.676   6.171   3.044
 2250SOL     OW 7648   5.337   3.950   1.580
 2250SOL    HW1 7649   5.353   3.885   1.653
 2250SOL    HW2 7650   5.274   3.911   1.513
 2251SOL     OW 7651   6.068   1.158   0.243
 2251SOL    HW1 7652   6.048   1.083   0.180
 2251SOL    HW2 7653   6.150   1.206   0.212
 2252SOL     OW 7654   6.013   3.201   5.465
 2252SOL    HW1 7655   6.108   3.227   5.477
 2252SOL    HW2 7656   5.999   3.107   5.498
 2253SOL     OW 7657   1.815   3.045   6.189
 2253SOL    HW1 7658   1.827   3.124   6.128
 2253SOL    HW2 7659   1.825   2.961   6.137
 2254SOL     OW 7660   2.581   3.338   6.029
 2254SOL    HW1 7661   2.505   3.303   6.083
 2254SOL    HW2 7662   2.561   3.326   5.932
 2255SOL     OW 7663   5.943   2.739   1.767
 2255SOL    HW1 7664   5.954   2.654   1.715
 2255SOL    HW2 7665   5.847   2.751   1.793
 2256SOL     OW 7666   3.369   5.133   1.885
 2256SOL    HW1 7667   3.324   5.065   1.943
 2256SOL    HW2 7668   3.466   5.113   1.880
 2257SOL     OW 7669   1.559   3.164   4.281
 2257SOL    HW1 7670   1.637   3.117   4.241
 2257SOL    HW2 7671   1.586   3.257   4.307
 2258SOL     OW 7672   1.531   4.619   4.840
 2258SOL    HW1 7673   1.573   4.695   4.790
 2258SOL    HW2 7674   1.603   4.561   4.879
 2259SOL     OW 7675   5.667   4.213   6.715
 2259SOL    HW1 7676   5.587   4.172   6.671
 2259SOL    HW2 7677   5.655   4.214   6.814
 2260SOL     OW 7678   4.192   4.709   2.723
 2260SOL    HW1 7679   4.252   4.651   2.779
 2260SOL    HW2 7680   4.241   4.737   2.641
 2261SOL     OW 7681   5.367   6.574   0.797
 2261SOL    HW1 7682   5.375   6.657   0.742
 2261SOL    HW2 7683   5.328   6.501   0.742
 2262SOL     OW 7684   5.673   2.040   3.855
 2262SOL    HW1 7685   5.661   2.000   3.946
 2262SOL    HW2 7686   5.663   2.139   3.861
 2263SOL     OW 7687   2.045   5.746   6.033
 2263SOL    HW1 7688   2.126   5.766   5.979
 2263SOL    HW2 7689   1.974   5.813   6.012
 2264SOL     OW 7690   3.105   3.642   2.140
 2264SOL    HW1 7691   3.063   3.564   2.094
 2264SOL    HW2 7692   3.204   3.637   2.131
 2265SOL     OW 7693   0.538   1.086   2.674
 2265SOL    HW1 7694   0.591   1.082   2.589
 2265SOL    HW2 7695   0.590   1.045   2.749
 2266SOL     OW 7696   6.608   1.291   0.720
 2266SOL    HW1 7697   6.609   1.203   0.674
 2266SOL    HW2 7698   6.699   1.331   0.717
 2267SOL     OW 7699   5.408   2.561   5.002
 2267SOL    HW1 7700   5.485   2.622   5.021
 2267SOL    HW2 7701   5.371   2.579   4.911
 2268SOL     OW 7702   6.694   5.822   0.279
 2268SOL    HW1 7703   6.740   5.734   0.273
 2268SOL    HW2 7704   6.695   5.867   0.190
 2269SOL     OW 7705   5.940   5.418   5.548
 2269SOL    HW1 7706   6.034   5.433   5.520
 2269SOL    HW2 7707   5.917   5.321   5.540
 2270SOL     OW 7708   3.544   3.867   1.488
 2270SOL    HW1 7709   3.549   3.813   1.572
 2270SOL    HW2 7710   3.588   3.956   1.504
 2271SOL     OW 7711   6.102   4.576   1.329
 2271SOL    HW1 7712   6.070   4.558   1.236
 2271SOL    HW2 7713   6.115   4.674   1.341
 2272SOL     OW 7714   5.924   2.175   4.698
 2272SOL    HW1 7715   5.955   2.240   4.628
 2272SOL    HW2 7716   5.831   2.144   4.676
 2273SOL     OW 7717   1.356   1.371   3.280
 2273SOL    HW1 7718   1.310   1.425   3.209
 2273SOL    HW2 7719   1.293   1.355   3.356
 2274SOL     OW 7720   1.645   3.931   4.759
 2274SOL    HW1 7721   1.664   3.847   4.709
 2274SOL    HW2 7722   1.593   3.910   4.841
 2275SOL     OW 7723   5.162   6.202   4.341
 2275SOL    HW1 7724   5.185   6.120   4.393
 2275SOL    HW2 7725   5.075   6.239   4.372
 2276SOL     OW 7726   3.862   4.902   1.191
 2276SOL    HW1 7727   3.797   4.971   1.161
 2276SOL    HW2 7728   3.897   4.852   1.112
 2277SOL     OW 7729   3.374   3.138   4.896
 2277SOL    HW1 7730   3.321   3.080   4.835
 2277SOL    HW2 7731   3.454   3.174   4.848
 2278SOL     OW 7732   4.603   6.078   3.137
 2278SOL    HW1 7733   4.641   6.069   3.229
 2278SOL    HW2 7734   4.639   6.005   3.079
 2279SOL     OW 7735   5.445   4.178   4.321
 2279SOL    HW1 7736   5.477   4.198   4.228
 2279SOL    HW2 7737   5.349   4.205   4.329
 2280SOL     OW 7738   6.562   6.309   5.040
 2280SOL    HW1 7739   6.534   6.273   5.129
 2280SOL    HW2 7740   6.610   6.238   4.989
 2281SOL     OW 7741   3.683   2.003   1.553
 2281SOL    HW1 7742   3.722   2.081   1.505
 2281SOL    HW2 7743   3.595   1.978   1.512
 2282SOL     OW 7744   4.965   5.826   4.725
 2282SOL    HW1 7745   4.919   5.752   4.676
 2282SOL    HW2 7746   5.057   5.837   4.689
 2283SOL     OW 7747   6.907   3.766   2.782
 2283SOL    HW1 7748   6.960   3.682   2.790
 2283SOL    HW2 7749   6.870   3.791   2.871
 2284SOL     OW 7750   2.425   2.189   1.968
 2284SOL    HW1 7751   2.390   2.277   1.998
 2284SOL    HW2 7752   2.525   2.190   1.971
 2285SOL     OW 7753   1.353   3.894   0.883
 2285SOL    HW1 7754   1.398   3.910   0.971
 2285SOL    HW2 7755   1.409   3.833   0.827
 2286SOL     OW 7756   6.833   5.676   5.177
 2286SOL    HW1 7757   6.806   5.754   5.233
 2286SOL    HW2 7758   6.811   5.591   5.225
 2287SOL     OW 7759   2.206   2.915   1.526
 2287SOL    HW1 7760   2.227   2.819   1.548
 2287SOL    HW2 7761   2.156   2.919   1.440
 2288SOL     OW 7762   0.904   5.623   3.679
 2288SOL    HW1 7763   0.995   5.601   3.643
 2288SOL    HW2 7764   0.836   5.562   3.638
 2289SOL     OW 7765   5.250   1.881   1.792
 2289SOL    HW1 7766   5.178   1.936   1.834
 2289SOL    HW2 7767   5.339   1.921   1.814
 2290SOL     OW 7768   3.029   3.185   2.892
 2290SOL    HW1 7769   3.071   3.273   2.910
 2290SOL    HW2 7770   2.997   3.182   2.797
 2291SOL     OW 7771   1.917   2.313   1.824
 2291SOL    HW1 7772   1.895   2.345   1.917
 2291SOL    HW2 7773   1.949   2.390   1.769
 2292SOL     OW 7774   5.203   2.864   3.741
 2292SOL    HW1 7775   5.240   2.919   3.666
 2292SOL    HW2 7776   5.271   2.858   3.814
 2293SOL     OW 7777   5.425   1.254   0.666
 2293SOL    HW1 7778   5.326   1.262   0.679
 2293SOL    HW2 7779   5.446   1.166   0.625
 2294SOL     OW 7780   2.815   1.706   5.527
 2294SOL    HW1 7781   2.840   1.644   5.452
 2294SOL    HW2 7782   2.875   1.786   5.525
 2295SOL     OW 7783   6.917   0.991   1.650
 2295SOL    HW1 7784   6.897   0.921   1.581
 2295SOL    HW2 7785   6.972   0.952   1.723
 2296SOL     OW 7786   2.963   5.071   3.136
 2296SOL    HW1 7787   2.931   5.137   3.204
 2296SOL    HW2 7788   2.918   4.983   3.151
 2297SOL     OW 7789   5.258   4.687   5.823
 2297SOL    HW1 7790   5.231   4.630   5.900
 2297SOL    HW2 7791   5.176   4.722   5.777
 2298SOL     OW 7792   3.860   3.810   3.507
 2298SOL    HW1 7793   3.775   3.759   3.489
 2298SOL    HW2 7794   3.842   3.908   3.500
 2299SOL     OW 7795   4.991   3.698   4.749
 2299SOL    HW1 7796   4.936   3.730   4.673
 2299SOL    HW2 7797   4.932   3.663   4.822
 2300SOL     OW 7798   3.157   6.733   3.703
 2300SOL    HW1 7799   3.193   6.825   3.721
 2300SOL    HW2 7800   3.094   6.707   3.775
 2301SOL     OW 7801   3.335   2.938   4.006
 2301SOL    HW1 7802   3.432   2.933   4.030
 2301SOL    HW2 7803   3.319   2.886   3.921
 2302SOL     OW 7804   3.889   1.110   0.242
 2302SOL    HW1 7805   3.821   1.046   0.279
 2302SOL    HW2 7806   3.877   1.117   0.143
 2303SOL     OW 7807   2.196   2.650   1.084
 2303SOL    HW1 7808   2.175   2.699   1.000
 2303SOL    HW2 7809   2.290   2.668   1.112
 2304SOL     OW 7810   6.641   5.663   4.181
 2304SOL    HW1 7811   6.641   5.674   4.081
 2304SOL    HW2 7812   6.735   5.654   4.214
 2305SOL     OW 7813   1.522   1.012   3.587
 2305SOL    HW1 7814   1.581   1.033   3.665
 2305SOL    HW2 7815   1.553   1.062   3.507
 2306SOL     OW 7816   1.518   5.123   2.456
 2306SOL    HW1 7817   1.605   5.088   2.489
 2306SOL    HW2 7818   1.519   5.125   2.356
 2307SOL     OW 7819   1.397   2.802   5.260
 2307SOL    HW1 7820   1.312   2.814   5.311
 2307SOL    HW2 7821   1.377   2.789   5.163
 2308SOL     OW 7822   2.093   5.042   0.867
 2308SOL    HW1 7823   2.061   5.092   0.787
 2308SOL    HW2 7824   2.178   4.994   0.844
 2309SOL     OW 7825   1.697   0.502   4.207
 2309SOL    HW1 7826   1.719   0.417   4.254
 2309SOL    HW2 7827   1.765   0.520   4.136
 2310SOL     OW 7828   5.365   6.776   2.294
 2310SOL    HW1 7829   5.358   6.860   2.241
 2310SOL    HW2 7830   5.423   6.790   2.374
 2311SOL     OW 7831   1.880   6.146   0.401
 2311SOL    HW1 7832   1.787   6.157   0.367
 2311SOL    HW2 7833   1.902   6.048   0.406
 2312SOL     OW 7834   3.544   5.438   3.210
 2312SOL    HW1 7835   3.608   5.376   3.256
 2312SOL    HW2 7836   3.562   5.437   3.111
 2313SOL     OW 7837   5.099   5.296   2.439
 2313SOL    HW1 7838   5.107   5.262   2.345
 2313SOL    HW2 7839   5.061   5.388   2.437
 2314SOL     OW 7840   3.421   5.902   3.503
 2314SOL    HW1 7841   3.484   5.976   3.478
 2314SOL    HW2 7842   3.333   5.917   3.458
 2315SOL     OW 7843   4.886   2.996   6.466
 2315SOL    HW1 7844   4.908   3.060   6.392
 2315SOL    HW2 7845   4.867   3.046   6.550
 2316SOL     OW 7846   4.972   2.769   3.371
 2316SOL    HW1 7847   4.890   2.713   3.386
 2316SOL    HW2 7848   5.032   2.762   3.451
 2317SOL     OW 7849   0.940   4.787   2.485
 2317SOL    HW1 7850   0.895   4.854   2.544
 2317SOL    HW2 7851   0.905   4.695   2.505
 2318SOL     OW 7852   0.552   2.264   3.629
 2318SOL    HW1 7853   0.544   2.276   3.728
 2318SOL    HW2 7854   0.603   2.340   3.590
 2319SOL     OW 7855   2.177   4.141   4.853
 2319SOL    HW1 7856   2.208   4.079   4.925
 2319SOL    HW2 7857   2.079   4.129   4.839
 2320SOL     OW 7858   0.383   2.228   4.042
 2320SOL    HW1 7859   0.426   2.237   3.952
 2320SOL    HW2 7860   0.424   2.151   4.091
 2321SOL     OW 7861   3.421   0.430   4.971
 2321SOL    HW1 7862   3.362   0.503   4.937
 2321SOL    HW2 7863   3.385   0.396   5.058
 2322SOL     OW 7864   1.116   1.818   5.797
 2322SOL    HW1 7865   1.215   1.808   5.803
 2322SOL    HW2 7866   1.093   1.881   5.723
 2323SOL     OW 7867   4.013   5.578   3.194
 2323SOL    HW1 7868   4.087   5.626   3.242
 2323SOL    HW2 7869   4.052   5.519   3.123
 2324SOL     OW 7870   1.058   6.459   2.261
 2324SOL    HW1 7871   1.128   6.529   2.272
 2324SOL    HW2 7872   1.017   6.439   2.350
 2325SOL     OW 7873   0.979   4.045   1.737
 2325SOL    HW1 7874   0.947   4.134   1.769
 2325SOL    HW2 7875   0.990   3.984   1.816
 2326SOL     OW 7876   1.768   4.050   6.430
 2326SOL    HW1 7877   1.860   4.046   6.468
 2326SOL    HW2 7878   1.730   4.142   6.444
 2327SOL     OW 7879   4.806   2.925   4.415
 2327SOL    HW1 7880   4.805   3.006   4.357
 2327SOL    HW2 7881   4.764   2.848   4.367
 2328SOL     OW 7882   4.997   1.337   2.951
 2328SOL    HW1 7883   4.923   1.318   3.015
 2328SOL    HW2 7884   5.061   1.261   2.950
 2329SOL     OW 7885   1.289   5.550   4.063
 2329SOL    HW1 7886   1.297   5.483   4.137
 2329SOL    HW2 7887   1.193   5.579   4.055
 2330SOL     OW 7888   0.205   5.104   1.480
 2330SOL    HW1 7889   0.218   5.084   1.577
 2330SOL    HW2 7890   0.253   5.189   1.457
 2331SOL     OW 7891   0.209   4.114   5.309
 2331SOL    HW1 7892   0.141   4.188   5.308
 2331SOL    HW2 7893   0.224   4.082   5.216
 2332SOL     OW 7894   5.084   2.946   6.100
 2332SOL    HW1 7895   5.146   2.877   6.138
 2332SOL    HW2 7896   5.138   3.019   6.057
 2333SOL     OW 7897   0.823   5.088   2.670
 2333SOL    HW1 7898   0.779   5.000   2.690
 2333SOL    HW2 7899   0.824   5.144   2.753
 2334SOL     OW 7900   3.342   6.965   6.680
 2334SOL    HW1 7901   3.410   6.984   6.750
 2334SOL    HW2 7902   3.380   6.901   6.613
 2335SOL     OW 7903   5.778   0.559   3.342
 2335SOL    HW1 7904   5.687   0.530   3.312
 2335SOL    HW2 7905   5.777   0.656   3.363
 2336SOL     OW 7906   4.828   1.086   5.541
 2336SOL    HW1 7907   4.886   1.150   5.590
 2336SOL    HW2 7908   4.764   1.137   5.483
 2337SOL     OW 7909   5.742   0.920   2.908
 2337SOL    HW1 7910   5.800   0.839   2.903
 2337SOL    HW2 7911   5.799   1.002   2.919
 2338SOL     OW 7912   6.699   6.522   0.051
 2338SOL    HW1 7913   6.697   6.590   6.997
 2338SOL    HW2 7914   6.646   6.442   0.023
 2339SOL     OW 7915   3.507   4.316   6.007
 2339SOL    HW1 7916   3.531   4.407   6.042
 2339SOL    HW2 7917   3.553   4.246   6.062
 2340SOL     OW 7918   3.494   6.060   5.459
 2340SOL    HW1 7919   3.450   6.150   5.453
 2340SOL    HW2 7920   3.544   6.053   5.545
 2341SOL     OW 7921   5.935   4.846   0.686
 2341SOL    HW1 7922   5.924   4.778   0.759
 2341SOL    HW2 7923   5.871   4.826   0.612
 2342SOL     OW 7924   0.262   6.385   5.629
 2342SOL    HW1 7925   0.171   6.369   5.668
 2342SOL    HW2 7926   0.297   6.301   5.589
 2343SOL     OW 7927   1.134   6.402   1.045
 2343SOL    HW1 7928   1.233   6.401   1.027
 2343SOL    HW2 7929   1.085   6.372   0.963
 2344SOL     OW 7930   2.873   1.576   2.750
 2344SOL    HW1 7931   2.905   1.620   2.833
 2344SOL    HW2 7932   2.839   1.484   2.771
 2345SOL     OW 7933   1.630   0.599   4.702
 2345SOL    HW1 7934   1.572   0.552   4.768
 2345SOL    HW2 7935   1.693   0.660   4.750
 2346SOL     OW 7936   4.638   3.048   5.495
 2346SOL    HW1 7937   4.609   3.049   5.591
 2346SOL    HW2 7938   4.570   3.094   5.439
 2347SOL     OW 7939   1.626   3.745   2.113
 2347SOL    HW1 7940   1.671   3.661   2.142
 2347SOL    HW2 7941   1.657   3.770   2.021
 2348SOL     OW 7942   2.234   6.586   3.474
 2348SOL    HW1 7943   2.157   6.629   3.428
 2348SOL    HW2 7944   2.222   6.593   3.573
 2349SOL     OW 7945   6.966   6.659   5.741
 2349SOL    HW1 7946   6.993   6.613   5.825
 2349SOL    HW2 7947   6.966   6.594   5.665
 2350SOL     OW 7948   3.082   1.074   5.431
 2350SOL    HW1 7949   3.180   1.091   5.422
 2350SOL    HW2 7950   3.064   1.026   5.517
 2351SOL     OW 7951   2.464   5.087   3.754
 2351SOL    HW1 7952   2.383   5.145   3.755
 2351SOL    HW2 7953   2.544   5.141   3.781
 2352SOL     OW 7954   6.348   4.045   3.170
 2352SOL    HW1 7955   6.309   3.953   3.164
 2352SOL    HW2 7956   6.274   4.112   3.164
 2353SOL     OW 7957   2.549   4.012   5.586
 2353SOL    HW1 7958   2.585   4.063   5.508
 2353SOL    HW2 7959   2.620   4.005   5.657
 2354SOL     OW 7960   3.702   2.664   0.079
 2354SOL    HW1 7961   3.633   2.732   0.057
 2354SOL    HW2 7962   3.658   2.583   0.118
 2355SOL     OW 7963   0.401   6.967   1.034
 2355SOL    HW1 7964   0.370   0.006   0.959
 2355SOL    HW2 7965   0.468   6.901   1.000
 2356SOL     OW 7966   2.438   5.011   2.363
 2356SOL    HW1 7967   2.481   5.069   2.432
 2356SOL    HW2 7968   2.503   4.995   2.289
 2357SOL     OW 7969   5.394   4.668   3.150
 2357SOL    HW1 7970   5.444   4.734   3.094
 2357SOL    HW2 7971   5.365   4.712   3.235
 2358SOL     OW 7972   3.251   0.154   4.122
 2358SOL    HW1 7973   3.277   0.111   4.035
 2358SOL    HW2 7974   3.282   0.248   4.124
 2359SOL     OW 7975   2.410   1.615   5.848
 2359SOL    HW1 7976   2.445   1.667   5.926
 2359SOL    HW2 7977   2.481   1.606   5.779
 2360SOL     OW 7978   3.876   4.600   0.582
 2360SOL    HW1 7979   3.833   4.675   0.532
 2360SOL    HW2 7980   3.827   4.514   0.564
 2361SOL     OW 7981   3.113   6.999   2.996
 2361SOL    HW1 7982   3.193   6.963   3.044
 2361SOL    HW2 7983   3.088   0.068   3.036
 2362SOL     OW 7984   4.355   5.924   4.685
 2362SOL    HW1 7985   4.441   5.888   4.719
 2362SOL    HW2 7986   4.310   5.977   4.756
 2363SOL     OW 7987   3.806   1.806   6.418
 2363SOL    HW1 7988   3.790   1.900   6.388
 2363SOL    HW2 7989   3.743   1.744   6.369
 2364SOL     OW 7990   5.333   1.496   1.943
 2364SOL    HW1 7991   5.264   1.555   1.985
 2364SOL    HW2 7992   5.358   1.423   2.007
 2365SOL     OW 7993   5.395   3.699   4.807
 2365SOL    HW1 7994   5.426   3.613   4.847
 2365SOL    HW2 7995   5.337   3.679   4.727
 2366SOL     OW 7996   1.737   4.074   5.483
 2366SOL    HW1 7997   1.695   3.987   5.454
 2366SOL    HW2 7998   1.665   4.141   5.501
 2367SOL     OW 7999   1.462   3.389   5.884
 2367SOL    HW1 8000   1.441   3.374   5.787
 2367SOL    HW2 8001   1.472   3.301   5.930
 2368SOL     OW 8002   4.492   1.314   4.490
 2368SOL    HW1 8003   4.545   1.309   4.406
 2368SOL    HW2 8004   4.488   1.409   4.522
 2369SOL     OW 8005   3.731   1.705   3.247
 2369SOL    HW1 8006   3.789   1.655   3.183
 2369SOL    HW2 8007   3.643   1.724   3.205
 2370SOL     OW 8008   4.827   2.610   0.772
 2370SOL    HW1 8009   4.880   2.670   0.712
 2370SOL    HW2 8010   4.841   2.515   0.744
 2371SOL     OW 8011   0.881   6.875   2.456
 2371SOL    HW1 8012   0.955   6.810   2.439
 2371SOL    HW2 8013   0.843   6.860   2.547
 2372SOL     OW 8014   6.399   1.018   6.185
 2372SOL    HW1 8015   6.499   1.024   6.183
 2372SOL    HW2 8016   6.363   1.088   6.247
 2373SOL     OW 8017   5.818   0.952   6.394
 2373SOL    HW1 8018   5.786   1.046   6.382
 2373SOL    HW2 8019   5.902   0.939   6.341
 2374SOL     OW 8020   6.095   5.598   3.263
 2374SOL    HW1 8021   5.995   5.611   3.266
 2374SOL    HW2 8022   6.134   5.659   3.194
 2375SOL     OW 8023   0.840   0.452   3.880
 2375SOL    HW1 8024   0.749   0.424   3.911
 2375SOL    HW2 8025   0.909   0.417   3.942
 2376SOL     OW 8026   0.054   2.315   3.562
 2376SOL    HW1 8027   0.086   2.361   3.645
 2376SOL    HW2 8028   0.032   2.220   3.584
 2377SOL     OW 8029   3.297   4.590   6.154
 2377SOL    HW1 8030   3.375   4.644   6.123
 2377SOL    HW2 8031   3.329   4.505   6.196
 2378SOL     OW 8032   5.935   1.835   0.408
 2378SOL    HW1 8033   5.933   1.933   0.425
 2378SOL    HW2 8034   5.957   1.817   0.312
 2379SOL     OW 8035   6.833   4.994   0.572
 2379SOL    HW1 8036   6.751   5.048   0.593
 2379SOL    HW2 8037   6.913   5.053   0.577
 2380SOL     OW 8038   5.965   2.601   5.506
 2380SOL    HW1 8039   5.911   2.676   5.468
 2380SOL    HW2 8040   5.912   2.516   5.501
 2381SOL     OW 8041   2.183   4.651   4.966
 2381SOL    HW1 8042   2.119   4.711   4.919
 2381SOL    HW2 8043   2.173   4.663   5.065
 2382SOL     OW 8044   1.764   5.590   2.591
 2382SOL    HW1 8045   1.825   5.560   2.664
 2382SOL    HW2 8046   1.692   5.648   2.629
 2383SOL     OW 8047   5.480   5.610   5.815
 2383SOL    HW1 8048   5.404   5.675   5.807
 2383SOL    HW2 8049   5.564   5.660   5.836
 2384SOL     OW 8050   0.351   1.885   1.366
 2384SOL    HW1 8051   0.388   1.969   1.406
 2384SOL    HW2 8052   0.252   1.890   1.361
 2385SOL     OW 8053   1.191   2.113   0.361
 2385SOL    HW1 8054   1.122   2.181   0.384
 2385SOL    HW2 8055   1.275   2.131   0.414
 2386SOL     OW 8056   2.975   5.271   4.457
 2386SOL    HW1 8057   3.024   5.250   4.542
 2386SOL    HW2 8058   3.041   5.299   4.387
 2387SOL     OW 8059   0.014   2.863   4.248
 2387SOL    HW1 8060   0.023   2.865   4.148
 2387SOL    HW2 8061   6.998   2.950   4.280
 2388SOL     OW 8062   0.316   2.236   5.912
 2388SOL    HW1 8063   0.300   2.297   5.836
 2388SOL    HW2 8064   0.408   2.196   5.904
 2389SOL     OW 8065   5.224   4.563   4.568
 2389SOL    HW1 8066   5.307   4.507   4.561
 2389SOL    HW2 8067   5.180   4.546   4.656
 2390SOL     OW 8068   4.157   3.430   5.603
 2390SOL    HW1 8069   4.193   3.351   5.652
 2390SOL    HW2 8070   4.124   3.401   5.513
 2391SOL     OW 8071   3.087   3.365   6.465
 2391SOL    HW1 8072   3.085   3.327   6.373
 2391SOL    HW2 8073   2.999   3.409   6.485
 2392SOL     OW 8074   3.522   4.179   5.771
 2392SOL    HW1 8075   3.586   4.220   5.706
 2392SOL    HW2 8076   3.531   4.224   5.860
 2393SOL     OW 8077   3.787   5.657   1.728
 2393SOL    HW1 8078   3.781   5.571   1.777
 2393SOL    HW2 8079   3.698   5.703   1.729
 2394SOL     OW 8080   0.037   4.322   3.803
 2394SOL    HW1 8081   6.998   4.330   3.884
 2394SOL    HW2 8082   0.106   4.252   3.819
 2395SOL     OW 8083   0.662   2.711   6.726
 2395SOL    HW1 8084   0.626   2.624   6.693
 2395SOL    HW2 8085   0.589   2.763   6.770
 2396SOL     OW 8086   5.580   0.548   6.218
 2396SOL    HW1 8087   5.639   0.483   6.170
 2396SOL    HW2 8088   5.636   0.611   6.272
 2397SOL     OW 8089   0.242   4.321   6.122
 2397SOL    HW1 8090   0.242   4.228   6.083
 2397SOL    HW2 8091   0.149   4.356   6.125
 2398SOL     OW 8092   2.830   5.833   4.043
 2398SOL    HW1 8093   2.904   5.799   4.102
 2398SOL    HW2 8094   2.790   5.914   4.085
 2399SOL     OW 8095   3.756   2.015   3.668
 2399SOL    HW1 8096   3.686   2.023   3.597
 2399SOL    HW2 8097   3.774   1.919   3.688
 2400SOL     OW 8098   1.862   3.448   0.653
 2400SOL    HW1 8099   1.801   3.484   0.582
 2400SOL    HW2 8100   1.882   3.520   0.719
 2401SOL     OW 8101   3.810   6.731   4.447
 2401SOL    HW1 8102   3.873   6.655   4.430
 2401SOL    HW2 8103   3.849   6.815   4.408
 2402SOL     OW 8104   0.547   2.304   3.163
 2402SOL    HW1 8105   0.630   2.358   3.156
 2402SOL    HW2 8106   0.564   2.212   3.128
 2403SOL     OW 8107   3.722   3.433   1.102
 2403SOL    HW1 8108   3.667   3.465   1.025
 2403SOL    HW2 8109   3.661   3.402   1.175
 2404SOL     OW 8110   6.068   1.397   1.382
 2404SOL    HW1 8111   6.095   1.446   1.299
 2404SOL    HW2 8112   6.138   1.329   1.405
 2405SOL     OW 8113   3.173   4.877   5.786
 2405SOL    HW1 8114   3.251   4.829   5.825
 2405SOL    HW2 8115   3.140   4.827   5.706
 2406SOL     OW 8116   2.442   0.264   3.936
 2406SOL    HW1 8117   2.348   0.291   3.915
 2406SOL    HW2 8118   2.447   0.165   3.943
 2407SOL     OW 8119   4.514   2.378   3.013
 2407SOL    HW1 8120   4.484   2.440   2.941
 2407SOL    HW2 8121   4.523   2.285   2.976
 2408SOL     OW 8122   2.623   5.530   2.965
 2408SOL    HW1 8123   2.607   5.628   2.956
 2408SOL    HW2 8124   2.633   5.489   2.875
 2409SOL     OW 8125   2.596   3.012   0.717
 2409SOL    HW1 8126   2.641   3.080   0.774
 2409SOL    HW2 8127   2.506   3.046   0.689
 2410SOL     OW 8128   6.657   3.532   5.978
 2410SOL    HW1 8129   6.649   3.442   6.023
 2410SOL    HW2 8130   6.749   3.568   5.991
 2411SOL     OW 8131   2.625   3.911   6.026
 2411SOL    HW1 8132   2.694   3.972   5.985
 2411SOL    HW2 8133   2.671   3.842   6.082
 2412SOL     OW 8134   2.516   3.032   7.000
 2412SOL    HW1 8135   2.604   2.986   7.009
 2412SOL    HW2 8136   2.497   3.085   0.063
 2413SOL     OW 8137   6.379   3.132   6.845
 2413SOL    HW1 8138   6.332   3.094   6.764
 2413SOL    HW2 8139   6.473   3.156   6.821
 2414SOL     OW 8140   5.502   1.785   3.754
 2414SOL    HW1 8141   5.463   1.769   3.663
 2414SOL    HW2 8142   5.565   1.863   3.750
 2415SOL     OW 8143   2.180   6.915   0.293
 2415SOL    HW1 8144   2.105   6.910   0.227
 2415SOL    HW2 8145   2.178   6.834   0.352
 2416SOL     OW 8146   0.799   3.215   3.399
 2416SOL    HW1 8147   0.796   3.304   3.353
 2416SOL    HW2 8148   0.873   3.213   3.465
 2417SOL     OW 8149   4.492   2.477   6.821
 2417SOL    HW1 8150   4.531   2.392   6.857
 2417SOL    HW2 8151   4.453   2.530   6.896
 2418SOL     OW 8152   3.693   3.982   5.400
 2418SOL    HW1 8153   3.647   4.068   5.421
 2418SOL    HW2 8154   3.637   3.928   5.338
 2419SOL     OW 8155   2.210   6.976   4.505
 2419SOL    HW1 8156   2.284   6.924   4.549
 2419SOL    HW2 8157   2.126   6.923   4.510
 2420SOL     OW 8158   3.249   5.406   1.939
 2420SOL    HW1 8159   3.278   5.312   1.917
 2420SOL    HW2 8160   3.285   5.469   1.871
 2421SOL     OW 8161   3.890   6.773   3.685
 2421SOL    HW1 8162   3.916   6.719   3.605
 2421SOL    HW2 8163   3.922   6.727   3.768
 2422SOL     OW 8164   3.912   0.092   0.931
 2422SOL    HW1 8165   3.934   0.022   0.999
 2422SOL    HW2 8166   3.996   0.130   0.894
 2423SOL     OW 8167   1.852   5.636   1.491
 2423SOL    HW1 8168   1.778   5.592   1.541
 2423SOL    HW2 8169   1.888   5.712   1.545
 2424SOL     OW 8170   5.772   6.514   6.830
 2424SOL    HW1 8171   5.810   6.607   6.831
 2424SOL    HW2 8172   5.838   6.450   6.869
 2425SOL     OW 8173   4.750   6.036   5.838
 2425SOL    HW1 8174   4.775   6.031   5.935
 2425SOL    HW2 8175   4.794   6.115   5.796
 2426SOL     OW 8176   1.151   5.710   5.189
 2426SOL    HW1 8177   1.165   5.809   5.186
 2426SOL    HW2 8178   1.100   5.681   5.108
 2427SOL     OW 8179   4.804   6.086   6.705
 2427SOL    HW1 8180   4.808   6.154   6.779
 2427SOL    HW2 8181   4.776   6.132   6.620
 2428SOL     OW 8182   0.456   1.093   2.977
 2428SOL    HW1 8183   0.457   1.101   2.877
 2428SOL    HW2 8184   0.444   1.183   3.018
 2429SOL     OW 8185   5.096   4.665   2.244
 2429SOL    HW1 8186   5.157   4.690   2.320
 2429SOL    HW2 8187   5.037   4.589   2.271
 2430SOL     OW 8188   5.838   2.325   0.723
 2430SOL    HW1 8189   5.930   2.286   0.728
 2430SOL    HW2 8190   5.782   2.288   0.798
 2431SOL     OW 8191   5.817   1.536   1.428
 2431SOL    HW1 8192   5.757   1.459   1.407
 2431SOL    HW2 8193   5.912   1.510   1.411
 2432SOL     OW 8194   3.293   5.933   1.389
 2432SOL    HW1 8195   3.278   6.031   1.382
 2432SOL    HW2 8196   3.332   5.899   1.303
 2433SOL     OW 8197   0.694   6.107   0.183
 2433SOL    HW1 8198   0.687   6.031   0.249
 2433SOL    HW2 8199   0.741   6.184   0.225
 2434SOL     OW 8200   4.839   2.018   2.080
 2434SOL    HW1 8201   4.891   1.994   1.998
 2434SOL    HW2 8202   4.848   1.944   2.147
 2435SOL     OW 8203   5.750   5.585   0.441
 2435SOL    HW1 8204   5.800   5.500   0.424
 2435SOL    HW2 8205   5.775   5.621   0.531
 2436SOL     OW 8206   1.572   1.173   1.579
 2436SOL    HW1 8207   1.535   1.099   1.635
 2436SOL    HW2 8208   1.632   1.134   1.509
 2437SOL     OW 8209   5.818   6.011   2.048
 2437SOL    HW1 8210   5.789   6.099   2.087
 2437SOL    HW2 8211   5.866   6.028   1.962
 2438SOL     OW 8212   4.084   1.688   4.356
 2438SOL    HW1 8213   4.041   1.756   4.297
 2438SOL    HW2 8214   4.142   1.628   4.301
 2439SOL     OW 8215   0.286   5.257   6.593
 2439SOL    HW1 8216   0.330   5.216   6.513
 2439SOL    HW2 8217   0.290   5.357   6.585
 2440SOL     OW 8218   4.491   0.054   5.385
 2440SOL    HW1 8219   4.397   0.082   5.404
 2440SOL    HW2 8220   4.519   7.004   5.451
 2441SOL     OW 8221   5.711   1.211   6.896
 2441SOL    HW1 8222   5.620   1.177   6.875
 2441SOL    HW2 8223   5.733   1.190   6.992
 2442SOL     OW 8224   5.900   4.483   2.985
 2442SOL    HW1 8225   5.967   4.536   2.933
 2442SOL    HW2 8226   5.892   4.391   2.945
 2443SOL     OW 8227   2.599   0.868   6.401
 2443SOL    HW1 8228   2.691   0.905   6.418
 2443SOL    HW2 8229   2.569   0.895   6.309
 2444SOL     OW 8230   4.153   4.919   0.060
 2444SOL    HW1 8231   4.160   4.916   0.159
 2444SOL    HW2 8232   4.190   5.006   0.026
 2445SOL     OW 8233   6.486   1.260   1.890
 2445SOL    HW1 8234   6.409   1.277   1.828
 2445SOL    HW2 8235   6.468   1.178   1.944
 2446SOL     OW 8236   0.862   2.799   3.427
 2446SOL    HW1 8237   0.885   2.734   3.355
 2446SOL    HW2 8238   0.765   2.794   3.447
 2447SOL     OW 8239   2.429   0.486   1.058
 2447SOL    HW1 8240   2.449   0.511   0.963
 2447SOL    HW2 8241   2.340   0.441   1.062
 2448SOL     OW 8242   6.259   1.846   4.269
 2448SOL    HW1 8243   6.210   1.851   4.356
 2448SOL    HW2 8244   6.357   1.838   4.286
 2449SOL     OW 8245   1.179   3.164   1.861
 2449SOL    HW1 8246   1.239   3.103   1.912
 2449SOL    HW2 8247   1.173   3.252   1.909
 2450SOL     OW 8248   2.510   5.355   6.601
 2450SOL    HW1 8249   2.496   5.263   6.639
 2450SOL    HW2 8250   2.551   5.347   6.510
 2451SOL     OW 8251   0.915   0.266   3.354
 2451SOL    HW1 8252   0.909   0.173   3.318
 2451SOL    HW2 8253   0.908   0.264   3.454
 2452SOL     OW 8254   2.744   1.834   3.620
 2452SOL    HW1 8255   2.684   1.809   3.544
 2452SOL    HW2 8256   2.771   1.930   3.611
 2453SOL     OW 8257   6.897   3.195   0.473
 2453SOL    HW1 8258   6.997   3.191   0.466
 2453SOL    HW2 8259   6.867   3.290   0.473
 2454SOL     OW 8260   2.490   6.494   6.906
 2454SOL    HW1 8261   2.525   6.588   6.897
 2454SOL    HW2 8262   2.526   6.438   6.832
 2455SOL     OW 8263   4.072   1.066   0.567
 2455SOL    HW1 8264   4.069   1.031   0.473
 2455SOL    HW2 8265   4.163   1.051   0.604
 2456SOL     OW 8266   0.664   2.450   6.639
 2456SOL    HW1 8267   0.758   2.478   6.661
 2456SOL    HW2 8268   0.648   2.462   6.541
 2457SOL     OW 8269   6.524   1.205   5.384
 2457SOL    HW1 8270   6.472   1.277   5.337
 2457SOL    HW2 8271   6.610   1.243   5.418
 2458SOL     OW 8272   1.075   6.818   3.827
 2458SOL    HW1 8273   1.091   6.854   3.735
 2458SOL    HW2 8274   1.013   6.740   3.822
 2459SOL     OW 8275   2.971   5.771   6.068
 2459SOL    HW1 8276   2.899   5.741   6.130
 2459SOL    HW2 8277   2.968   5.717   5.984
 2460SOL     OW 8278   1.386   1.385   0.702
 2460SOL    HW1 8279   1.311   1.392   0.768
 2460SOL    HW2 8280   1.455   1.454   0.724
 2461SOL     OW 8281   5.366   0.948   4.127
 2461SOL    HW1 8282   5.367   0.940   4.226
 2461SOL    HW2 8283   5.276   0.921   4.092
 2462SOL     OW 8284   2.502   5.003   0.040
 2462SOL    HW1 8285   2.416   4.962   0.070
 2462SOL    HW2 8286   2.555   4.935   7.008
 2463SOL     OW 8287   6.384   1.635   0.076
 2463SOL    HW1 8288   6.340   1.548   0.050
 2463SOL    HW2 8289   6.354   1.707   0.013
 2464SOL     OW 8290   1.707   3.169   3.076
 2464SOL    HW1 8291   1.661   3.228   3.142
 2464SOL    HW2 8292   1.771   3.108   3.124
 2465SOL     OW 8293   0.254   6.301   6.457
 2465SOL    HW1 8294   0.176   6.243   6.436
 2465SOL    HW2 8295   0.265   6.370   6.384
 2466SOL     OW 8296   2.001   1.345   2.742
 2466SOL    HW1 8297   1.964   1.311   2.655
 2466SOL    HW2 8298   1.983   1.443   2.750
 2467SOL     OW 8299   4.821   1.832   5.279
 2467SOL    HW1 8300   4.745   1.786   5.232
 2467SOL    HW2 8301   4.902   1.773   5.276
 2468SOL     OW 8302   4.121   6.803   0.923
 2468SOL    HW1 8303   4.194   6.869   0.938
 2468SOL    HW2 8304   4.041   6.830   0.978
 2469SOL     OW 8305   3.832   3.311   4.834
 2469SOL    HW1 8306   3.825   3.411   4.837
 2469SOL    HW2 8307   3.876   3.278   4.917
 2470SOL     OW 8308   3.864   4.886   5.527
 2470SOL    HW1 8309   3.816   4.807   5.489
 2470SOL    HW2 8310   3.962   4.874   5.516
 2471SOL     OW 8311   3.156   6.352   0.471
 2471SOL    HW1 8312   3.128   6.377   0.378
 2471SOL    HW2 8313   3.231   6.287   0.467
 2472SOL     OW 8314   4.689   2.198   3.224
 2472SOL    HW1 8315   4.634   2.247   3.157
 2472SOL    HW2 8316   4.632   2.171   3.302
 2473SOL     OW 8317   1.437   3.839   4.968
 2473SOL    HW1 8318   1.462   3.796   5.055
 2473SOL    HW2 8319   1.359   3.900   4.982
 2474SOL     OW 8320   0.803   5.953   1.210
 2474SOL    HW1 8321   0.768   5.965   1.117
 2474SOL    HW2 8322   0.745   6.005   1.274
 2475SOL     OW 8323   4.359   0.958   2.483
 2475SOL    HW1 8324   4.271   0.940   2.525
 2475SOL    HW2 8325   4.362   1.052   2.451
 2476SOL     OW 8326   5.248   0.272   2.099
 2476SOL    HW1 8327   5.302   0.231   2.025
 2476SOL    HW2 8328   5.301   0.345   2.142
 2477SOL     OW 8329   4.554   1.032   3.237
 2477SOL    HW1 8330   4.588   0.940   3.219
 2477SOL    HW2 8331   4.477   1.052   3.176
 2478SOL     OW 8332   6.312   1.267   1.374
 2478SOL    HW1 8333   6.270   1.184   1.336
 2478SOL    HW2 8334   6.398   1.242   1.420
 2479SOL     OW 8335   1.090   2.927   2.440
 2479SOL    HW1 8336   1.178   2.963   2.470
 2479SOL    HW2 8337   1.100   2.887   2.349
 2480SOL     OW 8338   4.446   3.337   0.752
 2480SOL    HW1 8339   4.474   3.390   0.673
 2480SOL    HW2 8340   4.484   3.378   0.835
 2481SOL     OW 8341   3.572   6.299   0.715
 2481SOL    HW1 8342   3.651   6.336   0.665
 2481SOL    HW2 8343   3.509   6.257   0.649
 2482SOL     OW 8344   5.124   3.662   5.941
 2482SOL    HW1 8345   5.058   3.713   5.996
 2482SOL    HW2 8346   5.204   3.639   5.996
 2483SOL     OW 8347   1.803   1.844   0.100
 2483SOL    HW1 8348   1.818   1.940   0.076
 2483SOL    HW2 8349   1.712   1.816   0.070
 2484SOL     OW 8350   3.894   0.862   0.044
 2484SOL    HW1 8351   3.831   0.855   0.122
 2484SOL    HW2 8352   3.976   0.809   0.063
 2485SOL     OW 8353   6.048   3.449   1.286
 2485SOL    HW1 8354   6.096   3.468   1.372
 2485SOL    HW2 8355   5.967   3.393   1.304
 2486SOL     OW 8356   1.276   4.916   5.414
 2486SOL    HW1 8357   1.294   4.995   5.356
 2486SOL    HW2 8358   1.239   4.841   5.359
 2487SOL     OW 8359   4.309   6.689   0.715
 2487SOL    HW1 8360   4.235   6.724   0.772
 2487SOL    HW2 8361   4.287   6.596   0.686
 2488SOL     OW 8362   1.199   4.108   2.217
 2488SOL    HW1 8363   1.226   4.069   2.305
 2488SOL    HW2 8364   1.150   4.194   2.232
 2489SOL     OW 8365   0.645   6.395   4.298
 2489SOL    HW1 8366   0.701   6.354   4.226
 2489SOL    HW2 8367   0.556   6.350   4.301
 2490SOL     OW 8368   0.055   5.105   1.102
 2490SOL    HW1 8369   0.075   5.183   1.161
 2490SOL    HW2 8370   6.978   5.080   1.111
 2491SOL     OW 8371   3.079   4.544   0.252
 2491SOL    HW1 8372   3.078   4.624   0.192
 2491SOL    HW2 8373   3.171   4.531   0.289
 2492SOL     OW 8374   4.649   3.679   0.768
 2492SOL    HW1 8375   4.725   3.732   0.806
 2492SOL    HW2 8376   4.643   3.591   0.816
 2493SOL     OW 8377   5.719   0.216   2.034
 2493SOL    HW1 8378   5.751   0.293   2.090
 2493SOL    HW2 8379   5.686   0.143   2.093
 2494SOL     OW 8380   5.469   4.150   3.171
 2494SOL    HW1 8381   5.550   4.108   3.128
 2494SOL    HW2 8382   5.493   4.240   3.207
 2495SOL     OW 8383   5.228   6.006   3.894
 2495SOL    HW1 8384   5.279   5.970   3.972
 2495SOL    HW2 8385   5.260   5.960   3.810
 2496SOL     OW 8386   0.171   2.039   6.460
 2496SOL    HW1 8387   0.177   2.088   6.373
 2496SOL    HW2 8388   0.194   2.101   6.535
 2497SOL     OW 8389   0.097   0.048   0.696
 2497SOL    HW1 8390   0.179   0.074   0.644
 2497SOL    HW2 8391   0.081   0.114   0.769
 2498SOL     OW 8392   3.104   2.150   4.801
 2498SOL    HW1 8393   3.016   2.109   4.828
 2498SOL    HW2 8394   3.140   2.205   4.877
 2499SOL     OW 8395   5.779   2.832   2.471
 2499SOL    HW1 8396   5.784   2.932   2.478
 2499SOL    HW2 8397   5.770   2.805   2.375
 2500SOL     OW 8398   3.884   4.516   6.753
 2500SOL    HW1 8399   3.970   4.521   6.803
 2500SOL    HW2 8400   3.874   4.598   6.696
 2501SOL     OW 8401   5.128   5.202   0.662
 2501SOL    HW1 8402   5.082   5.213   0.750
 2501SOL    HW2 8403   5.060   5.183   0.591
 2502SOL     OW 8404   0.899   0.609   3.647
 2502SOL    HW1 8405   0.884   0.524   3.698
 2502SOL    HW2 8406   0.968   0.664   3.694
 2503SOL     OW 8407   2.259   6.482   4.537
 2503SOL    HW1 8408   2.206   6.557   4.498
 2503SOL    HW2 8409   2.347   6.516   4.568
 2504SOL     OW 8410   3.694   5.367   4.507
 2504SOL    HW1 8411   3.738   5.456   4.512
 2504SOL    HW2 8412   3.709   5.327   4.417
 2505SOL     OW 8413   0.348   6.895   3.344
 2505SOL    HW1 8414   0.448   6.897   3.333
 2505SOL    HW2 8415   0.314   6.988   3.358
 2506SOL     OW 8416   6.392   4.054   5.877
 2506SOL    HW1 8417   6.299   4.092   5.876
 2506SOL    HW2 8418   6.403   3.997   5.959
 2507SOL     OW 8419   6.725   3.054   0.248
 2507SOL    HW1 8420   6.799   3.026   0.308
 2507SOL    HW2 8421   6.642   3.003   0.272
 2508SOL     OW 8422   2.948   1.407   3.370
 2508SOL    HW1 8423   3.018   1.362   3.313
 2508SOL    HW2 8424   2.895   1.470   3.314
 2509SOL     OW 8425   0.245   4.037   1.049
 2509SOL    HW1 8426   0.332   4.000   1.082
 2509SOL    HW2 8427   0.260   4.130   1.014
 2510SOL     OW 8428   3.168   5.299   1.294
 2510SOL    HW1 8429   3.078   5.293   1.251
 2510SOL    HW2 8430   3.173   5.235   1.371
 2511SOL     OW 8431   3.669   1.671   4.184
 2511SOL    HW1 8432   3.718   1.591   4.148
 2511SOL    HW2 8433   3.696   1.686   4.279
 2512SOL     OW 8434   4.515   3.064   5.740
 2512SOL    HW1 8435   4.495   3.024   5.830
 2512SOL    HW2 8436   4.528   3.163   5.750
 2513SOL     OW 8437   1.847   3.899   5.134
 2513SOL    HW1 8438   1.939   3.892   5.096
 2513SOL    HW2 8439   1.827   3.994   5.156
 2514SOL     OW 8440   0.357   3.889   5.093
 2514SOL    HW1 8441   0.287   3.947   5.052
 2514SOL    HW2 8442   0.440   3.942   5.111
 2515SOL     OW 8443   1.025   0.236   1.005
 2515SOL    HW1 8444   1.087   0.211   1.079
 2515SOL    HW2 8445   0.948   0.172   1.002
 2516SOL     OW 8446   5.917   1.939   2.341
 2516SOL    HW1 8447   5.936   1.963   2.436
 2516SOL    HW2 8448   5.985   1.873   2.309
 2517SOL     OW 8449   0.541   6.738   6.000
 2517SOL    HW1 8450   0.580   6.657   6.045
 2517SOL    HW2 8451   0.555   6.818   6.057
 2518SOL     OW 8452   1.464   4.473   0.096
 2518SOL    HW1 8453   1.510   4.556   0.066
 2518SOL    HW2 8454   1.408   4.436   0.021
 2519SOL     OW 8455   4.151   6.231   2.133
 2519SOL    HW1 8456   4.149   6.204   2.036
 2519SOL    HW2 8457   4.115   6.156   2.189
 2520SOL     OW 8458   3.112   1.790   0.416
 2520SOL    HW1 8459   3.038   1.740   0.370
 2520SOL    HW2 8460   3.166   1.839   0.348
 2521SOL     OW 8461   2.787   0.754   5.469
 2521SOL    HW1 8462   2.720   0.705   5.413
 2521SOL    HW2 8463   2.756   0.848   5.484
 2522SOL     OW 8464   0.915   2.792   4.972
 2522SOL    HW1 8465   0.959   2.881   4.988
 2522SOL    HW2 8466   0.982   2.719   4.985
 2523SOL     OW 8467   0.119   3.555   1.227
 2523SOL    HW1 8468   0.073   3.643   1.238
 2523SOL    HW2 8469   0.149   3.522   1.316
 2524SOL     OW 8470   0.968   6.459   5.178
 2524SOL    HW1 8471   0.940   6.555   5.167
 2524SOL    HW2 8472   0.891   6.406   5.212
 2525SOL     OW 8473   1.502   2.451   5.678
 2525SOL    HW1 8474   1.508   2.517   5.753
 2525SOL    HW2 8475   1.589   2.403   5.668
 2526SOL     OW 8476   1.185   4.341   6.269
 2526SOL    HW1 8477   1.218   4.414   6.329
 2526SOL    HW2 8478   1.087   4.326   6.286
 2527SOL     OW 8479   5.477   5.874   5.414
 2527SOL    HW1 8480   5.451   5.945   5.348
 2527SOL    HW2 8481   5.424   5.885   5.498
 2528SOL     OW 8482   6.051   5.015   0.115
 2528SOL    HW1 8483   5.973   4.972   0.161
 2528SOL    HW2 8484   6.039   5.007   0.016
 2529SOL     OW 8485   6.689   5.909   6.290
 2529SOL    HW1 8486   6.765   5.899   6.226
 2529SOL    HW2 8487   6.705   5.990   6.348
 2530SOL     OW 8488   2.872   6.344   5.395
 2530SOL    HW1 8489   2.913   6.253   5.401
 2530SOL    HW2 8490   2.777   6.340   5.427
 2531SOL     OW 8491   5.729   5.721   4.899
 2531SOL    HW1 8492   5.659   5.668   4.852
 2531SOL    HW2 8493   5.703   5.817   4.900
 2532SOL     OW 8494   0.641   5.898   0.933
 2532SOL    HW1 8495   0.585   5.886   1.015
 2532SOL    HW2 8496   0.672   5.808   0.901
 2533SOL     OW 8497   3.200   6.380   4.468
 2533SOL    HW1 8498   3.209   6.368   4.369
 2533SOL    HW2 8499   3.283   6.420   4.505
 2534SOL     OW 8500   4.081   0.580   2.906
 2534SOL    HW1 8501   3.997   0.528   2.919
 2534SOL    HW2 8502   4.081   0.621   2.815
 2535SOL     OW 8503   3.486   2.604   5.519
 2535SOL    HW1 8504   3.537   2.641   5.442
 2535SOL    HW2 8505   3.424   2.533   5.487
 2536SOL     OW 8506   1.469   1.467   4.411
 2536SOL    HW1 8507   1.468   1.528   4.332
 2536SOL    HW2 8508   1.375   1.448   4.439
 2537SOL     OW 8509   3.653   0.161   5.954
 2537SOL    HW1 8510   3.654   0.248   5.904
 2537SOL    HW2 8511   3.634   0.086   5.891
 2538SOL     OW 8512   0.882   4.594   3.195
 2538SOL    HW1 8513   0.786   4.608   3.221
 2538SOL    HW2 8514   0.893   4.501   3.160
 2539SOL     OW 8515   6.220   0.988   4.948
 2539SOL    HW1 8516   6.183   0.981   4.856
 2539SOL    HW2 8517   6.145   0.996   5.014
 2540SOL     OW 8518   4.076   1.920   3.021
 2540SOL    HW1 8519   4.072   2.017   3.000
 2540SOL    HW2 8520   4.129   1.905   3.104
 2541SOL     OW 8521   2.761   0.467   5.098
 2541SOL    HW1 8522   2.840   0.406   5.094
 2541SOL    HW2 8523   2.705   0.454   5.016
 2542SOL     OW 8524   3.335   1.586   5.876
 2542SOL    HW1 8525   3.388   1.648   5.818
 2542SOL    HW2 8526   3.250   1.561   5.829
 2543SOL     OW 8527   1.507   1.116   3.322
 2543SOL    HW1 8528   1.444   1.038   3.319
 2543SOL    HW2 8529   1.461   1.198   3.288
 2544SOL     OW 8530   0.466   6.850   1.276
 2544SOL    HW1 8531   0.396   6.794   1.320
 2544SOL    HW2 8532   0.423   6.904   1.203
 2545SOL     OW 8533   1.087   6.949   1.925
 2545SOL    HW1 8534   1.088   0.030   1.916
 2545SOL    HW2 8535   1.160   6.910   1.870
 2546SOL     OW 8536   0.135   0.981   1.834
 2546SOL    HW1 8537   0.177   1.057   1.784
 2546SOL    HW2 8538   0.167   0.894   1.795
 2547SOL     OW 8539   6.080   5.539   0.533
 2547SOL    HW1 8540   5.999   5.524   0.476
 2547SOL    HW2 8541   6.148   5.468   0.513
 2548SOL     OW 8542   1.477   6.660   5.945
 2548SOL    HW1 8543   1.482   6.591   6.017
 2548SOL    HW2 8544   1.416   6.734   5.974
 2549SOL     OW 8545   2.104   0.440   0.708
 2549SOL    HW1 8546   2.114   0.443   0.807
 2549SOL    HW2 8547   2.173   0.379   0.669
 2550SOL     OW 8548   6.816   0.187   6.883
 2550SOL    HW1 8549   6.816   0.280   6.846
 2550SOL    HW2 8550   6.867   0.185   6.969
 2551SOL     OW 8551   2.873   5.495   0.466
 2551SOL    HW1 8552   2.810   5.555   0.417
 2551SOL    HW2 8553   2.959   5.544   0.485
 2552SOL     OW 8554   1.845   5.592   5.312
 2552SOL    HW1 8555   1.839   5.650   5.393
 2552SOL    HW2 8556   1.754   5.578   5.274
 2553SOL     OW 8557   4.943   3.374   5.713
 2553SOL    HW1 8558   4.859   3.428   5.712
 2553SOL    HW2 8559   5.021   3.434   5.729
 2554SOL     OW 8560   1.893   6.841   0.365
 2554SOL    HW1 8561   1.929   6.762   0.415
 2554SOL    HW2 8562   1.914   6.831   0.268
 2555SOL     OW 8563   5.638   6.998   5.335
 2555SOL    HW1 8564   5.678   0.070   5.323
 2555SOL    HW2 8565   5.653   6.967   5.429
 2556SOL     OW 8566   4.229   6.079   0.614
 2556SOL    HW1 8567   4.160   6.007   0.608
 2556SOL    HW2 8568   4.238   6.108   0.709
 2557SOL     OW 8569   2.526   4.152   0.152
 2557SOL    HW1 8570   2.620   4.147   0.187
 2557SOL    HW2 8571   2.489   4.243   0.170
 2558SOL     OW 8572   5.379   1.653   4.557
 2558SOL    HW1 8573   5.311   1.594   4.512
 2558SOL    HW2 8574   5.455   1.670   4.495
 2559SOL     OW 8575   0.144   3.413   4.020
 2559SOL    HW1 8576   0.243   3.404   4.008
 2559SOL    HW2 8577   0.101   3.427   3.931
 2560SOL     OW 8578   5.800   3.533   4.173
 2560SOL    HW1 8579   5.882   3.573   4.215
 2560SOL    HW2 8580   5.824   3.450   4.125
 2561SOL     OW 8581   3.322   6.250   5.556
 2561SOL    HW1 8582   3.372   6.332   5.585
 2561SOL    HW2 8583   3.329   6.180   5.627
 2562SOL     OW 8584   2.179   5.684   1.862
 2562SOL    HW1 8585   2.257   5.666   1.802
 2562SOL    HW2 8586   2.152   5.779   1.854
 2563SOL     OW 8587   3.842   2.612   0.522
 2563SOL    HW1 8588   3.766   2.651   0.470
 2563SOL    HW2 8589   3.928   2.654   0.491
 2564SOL     OW 8590   2.023   6.059   5.746
 2564SOL    HW1 8591   2.093   6.034   5.679
 2564SOL    HW2 8592   2.001   6.156   5.736
 2565SOL     OW 8593   1.038   0.411   0.201
 2565SOL    HW1 8594   0.949   0.376   0.170
 2565SOL    HW2 8595   1.066   0.488   0.143
 2566SOL     OW 8596   2.935   6.808   0.796
 2566SOL    HW1 8597   2.975   6.880   0.852
 2566SOL    HW2 8598   2.880   6.849   0.723
 2567SOL     OW 8599   0.839   1.152   0.959
 2567SOL    HW1 8600   0.913   1.176   1.021
 2567SOL    HW2 8601   0.810   1.233   0.908
 2568SOL     OW 8602   3.779   0.238   6.713
 2568SOL    HW1 8603   3.805   0.243   6.810
 2568SOL    HW2 8604   3.860   0.223   6.657
 2569SOL     OW 8605   3.244   1.588   1.839
 2569SOL    HW1 8606   3.200   1.677   1.844
 2569SOL    HW2 8607   3.212   1.530   1.914
 2570SOL     OW 8608   5.822   0.093   6.581
 2570SOL    HW1 8609   5.838   0.007   6.533
 2570SOL    HW2 8610   5.725   0.098   6.608
 2571SOL     OW 8611   2.571   4.704   6.094
 2571SOL    HW1 8612   2.484   4.714   6.143
 2571SOL    HW2 8613   2.647   4.711   6.159
 2572SOL     OW 8614   2.349   5.033   0.565
 2572SOL    HW1 8615   2.361   4.982   0.650
 2572SOL    HW2 8616   2.376   5.128   0.578
 2573SOL     OW 8617   6.855   2.353   1.988
 2573SOL    HW1 8618   6.825   2.348   2.084
 2573SOL    HW2 8619   6.838   2.445   1.953
 2574SOL     OW 8620   5.857   4.060   0.654
 2574SOL    HW1 8621   5.850   4.159   0.650
 2574SOL    HW2 8622   5.918   4.034   0.729
 2575SOL     OW 8623   5.142   5.462   1.240
 2575SOL    HW1 8624   5.123   5.378   1.290
 2575SOL    HW2 8625   5.176   5.438   1.148
 2576SOL     OW 8626   4.271   6.384   4.652
 2576SOL    HW1 8627   4.286   6.449   4.577
 2576SOL    HW2 8628   4.357   6.340   4.676
 2577SOL     OW 8629   4.536   6.596   1.701
 2577SOL    HW1 8630   4.471   6.529   1.664
 2577SOL    HW2 8631   4.559   6.572   1.795
 2578SOL     OW 8632   4.549   1.790   5.177
 2578SOL    HW1 8633   4.471   1.777   5.238
 2578SOL    HW2 8634   4.518   1.786   5.082
 2579SOL     OW 8635   1.308   6.116   3.253
 2579SOL    HW1 8636   1.323   6.201   3.303
 2579SOL    HW2 8637   1.232   6.066   3.294
 2580SOL     OW 8638   2.932   4.016   6.205
 2580SOL    HW1 8639   2.985   4.009   6.289
 2580SOL    HW2 8640   2.848   4.067   6.222
 2581SOL     OW 8641   1.530   4.846   1.476
 2581SOL    HW1 8642   1.432   4.827   1.465
 2581SOL    HW2 8643   1.565   4.887   1.392
 2582SOL     OW 8644   0.316   4.183   1.752
 2582SOL    HW1 8645   0.390   4.121   1.779
 2582SOL    HW2 8646   0.347   4.241   1.676
 2583SOL     OW 8647   1.173   1.442   6.876
 2583SOL    HW1 8648   1.257   1.392   6.895
 2583SOL    HW2 8649   1.102   1.378   6.846
 2584SOL     OW 8650   4.000   4.948   5.975
 2584SOL    HW1 8651   3.923   5.012   5.977
 2584SOL    HW2 8652   3.967   4.857   6.002
 2585SOL     OW 8653   4.471   3.159   6.883
 2585SOL    HW1 8654   4.456   3.182   6.786
 2585SOL    HW2 8655   4.401   3.094   6.913
 2586SOL     OW 8656   4.116   1.489   3.236
 2586SOL    HW1 8657   4.096   1.406   3.287
 2586SOL    HW2 8658   4.030   1.534   3.211
 2587SOL     OW 8659   0.047   0.663   3.106
 2587SOL    HW1 8660   6.979   0.617   3.116
 2587SOL    HW2 8661   0.046   0.748   3.158
 2588SOL     OW 8662   4.970   1.160   6.487
 2588SOL    HW1 8663   4.889   1.108   6.513
 2588SOL    HW2 8664   5.050   1.101   6.488
 2589SOL     OW 8665   1.122   6.623   6.002
 2589SOL    HW1 8666   1.085   6.699   5.948
 2589SOL    HW2 8667   1.159   6.553   5.942
 2590SOL     OW 8668   3.193   5.181   0.569
 2590SOL    HW1 8669   3.222   5.276   0.572
 2590SOL    HW2 8670   3.105   5.174   0.523
 2591SOL     OW 8671   6.909   5.084   3.246
 2591SOL    HW1 8672   6.851   5.066   3.167
 2591SOL    HW2 8673   6.855   5.079   3.330
 2592SOL     OW 8674   3.281   5.585   0.052
 2592SOL    HW1 8675   3.232   5.539   0.126
 2592SOL    HW2 8676   3.362   5.630   0.090
 2593SOL     OW 8677   3.646   5.535   0.261
 2593SOL    HW1 8678   3.589   5.456   0.282
 2593SOL    HW2 8679   3.641   5.556   0.164
 2594SOL     OW 8680   1.762   4.787   6.105
 2594SOL    HW1 8681   1.842   4.832   6.065
 2594SOL    HW2 8682   1.689   4.783   6.037
 2595SOL     OW 8683   7.017   0.423   3.692
 2595SOL    HW1 8684   6.946   0.493   3.697
 2595SOL    HW2 8685   7.006   0.359   3.768
 2596SOL     OW 8686   3.249   2.120   1.783
 2596SOL    HW1 8687   3.240   2.124   1.883
 2596SOL    HW2 8688   3.343   2.098   1.759
 2597SOL     OW 8689   0.238   5.010   5.343
 2597SOL    HW1 8690   0.293   4.927   5.355
 2597SOL    HW2 8691   0.196   5.035   5.430
 2598SOL     OW 8692   6.333   1.492   2.904
 2598SOL    HW1 8693   6.238   1.484   2.936
 2598SOL    HW2 8694   6.380   1.404   2.915
 2599SOL     OW 8695   1.382   5.811   1.106
 2599SOL    HW1 8696   1.454   5.797   1.039
 2599SOL    HW2 8697   1.335   5.898   1.088
 2600SOL     OW 8698   5.604   2.996   4.785
 2600SOL    HW1 8699   5.529   2.977   4.848
 2600SOL    HW2 8700   5.566   3.016   4.694
 2601SOL     OW 8701   2.054   1.439   2.094
 2601SOL    HW1 8702   2.070   1.417   2.191
 2601SOL    HW2 8703   2.137   1.480   2.056
 2602SOL     OW 8704   1.156   4.655   5.046
 2602SOL    HW1 8705   1.212   4.647   4.963
 2602SOL    HW2 8706   1.083   4.722   5.030
 2603SOL     OW 8707   3.121   0.578   3.717
 2603SOL    HW1 8708   3.174   0.651   3.674
 2603SOL    HW2 8709   3.044   0.617   3.768
 2604SOL     OW 8710   4.754   2.224   2.377
 2604SOL    HW1 8711   4.680   2.283   2.344
 2604SOL    HW2 8712   4.838   2.277   2.385
 2605SOL     OW 8713   1.920   2.768   3.587
 2605SOL    HW1 8714   1.991   2.712   3.544
 2605SOL    HW2 8715   1.914   2.855   3.538
 2606SOL     OW 8716   5.503   5.022   1.361
 2606SOL    HW1 8717   5.518   4.967   1.443
 2606SOL    HW2 8718   5.409   5.008   1.328
 2607SOL     OW 8719   1.401   1.580   2.196
 2607SOL    HW1 8720   1.501   1.579   2.190
 2607SOL    HW2 8721   1.362   1.614   2.110
 2608SOL     OW 8722   4.188   5.325   0.647
 2608SOL    HW1 8723   4.271   5.354   0.600
 2608SOL    HW2 8724   4.207   5.316   0.745
 2609SOL     OW 8725   6.425   1.025   1.994
 2609SOL    HW1 8726   6.407   1.023   2.092
 2609SOL    HW2 8727   6.470   0.940   1.967
 2610SOL     OW 8728   0.805   4.010   4.144
 2610SOL    HW1 8729   0.785   3.969   4.233
 2610SOL    HW2 8730   0.776   4.106   4.145
 2611SOL     OW 8731   3.988   6.164   0.807
 2611SOL    HW1 8732   4.015   6.073   0.838
 2611SOL    HW2 8733   4.061   6.203   0.750
 2612SOL     OW 8734   6.421   6.544   4.730
 2612SOL    HW1 8735   6.382   6.470   4.784
 2612SOL    HW2 8736   6.361   6.623   4.733
 2613SOL     OW 8737   1.726   5.746   6.125
 2613SOL    HW1 8738   1.747   5.807   6.202
 2613SOL    HW2 8739   1.764   5.785   6.041
 2614SOL     OW 8740   6.224   2.006   0.247
 2614SOL    HW1 8741   6.168   1.939   0.199
 2614SOL    HW2 8742   6.286   2.050   0.182
 2615SOL     OW 8743   0.854   3.136   2.486
 2615SOL    HW1 8744   0.878   3.064   2.420
 2615SOL    HW2 8745   0.759   3.162   2.473
 2616SOL     OW 8746   2.494   2.988   6.265
 2616SOL    HW1 8747   2.523   2.893   6.251
 2616SOL    HW2 8748   2.575   3.046   6.276
 2617SOL     OW 8749   4.393   0.385   0.520
 2617SOL    HW1 8750   4.326   0.452   0.488
 2617SOL    HW2 8751   4.432   0.337   0.441
 2618SOL     OW 8752   6.791   0.287   3.961
 2618SOL    HW1 8753   6.856   0.298   4.037
 2618SOL    HW2 8754   6.839   0.246   3.883
 2619SOL     OW 8755   5.213   1.844   1.504
 2619SOL    HW1 8756   5.202   1.750   1.471
 2619SOL    HW2 8757   5.243   1.843   1.599
 2620SOL     OW 8758   7.007   6.820   3.601
 2620SOL    HW1 8759   0.020   6.905   3.558
 2620SOL    HW2 8760   6.953   6.842   3.682
 2621SOL     OW 8761   0.730   5.344   2.264
 2621SOL    HW1 8762   0.828   5.364   2.258
 2621SOL    HW2 8763   0.716   5.256   2.309
 2622SOL     OW 8764   1.982   4.072   6.193
 2622SOL    HW1 8765   1.923   4.040   6.118
 2622SOL    HW2 8766   1.927   4.084   6.275
 2623SOL     OW 8767   0.821   0.678   5.469
 2623SOL    HW1 8768   0.902   0.656   5.415
 2623SOL    HW2 8769   0.849   0.712   5.559
 2624SOL     OW 8770   0.584   1.496   4.947
 2624SOL    HW1 8771   0.494   1.454   4.956
 2624SOL    HW2 8772   0.603   1.513   4.851
 2625SOL     OW 8773   2.594   3.750   5.783
 2625SOL    HW1 8774   2.599   3.803   5.868
 2625SOL    HW2 8775   2.685   3.722   5.755
 2626SOL     OW 8776   0.068   0.351   6.510
 2626SOL    HW1 8777   0.101   0.316   6.422
 2626SOL    HW2 8778   0.056   0.275   6.574
 2627SOL     OW 8779   1.404   0.882   6.249
 2627SOL    HW1 8780   1.331   0.893   6.182
 2627SOL    HW2 8781   1.373   0.822   6.323
 2628SOL     OW 8782   2.307   4.095   5.398
 2628SOL    HW1 8783   2.297   4.039   5.480
 2628SOL    HW2 8784   2.373   4.053   5.336
 2629SOL     OW 8785   3.916   3.361   2.048
 2629SOL    HW1 8786   3.988   3.427   2.030
 2629SOL    HW2 8787   3.956   3.272   2.071
 2630SOL     OW 8788   3.837   1.408   2.251
 2630SOL    HW1 8789   3.881   1.439   2.335
 2630SOL    HW2 8790   3.890   1.334   2.211
 2631SOL     OW 8791   5.172   0.636   6.351
 2631SOL    HW1 8792   5.079   0.601   6.361
 2631SOL    HW2 8793   5.199   0.631   6.255
 2632SOL     OW 8794   5.744   3.132   0.521
 2632SOL    HW1 8795   5.694   3.209   0.480
 2632SOL    HW2 8796   5.805   3.092   0.453
 2633SOL     OW 8797   0.038   1.498   4.667
 2633SOL    HW1 8798   0.124   1.446   4.663
 2633SOL    HW2 8799   6.980   1.435   4.672
 2634SOL     OW 8800   1.051   5.230   3.624
 2634SOL    HW1 8801   1.090   5.263   3.538
 2634SOL    HW2 8802   1.002   5.304   3.670
 2635SOL     OW 8803   0.267   6.100   4.546
 2635SOL    HW1 8804   0.230   6.104   4.453
 2635SOL    HW2 8805   0.315   6.186   4.565
 2636SOL     OW 8806   4.020   0.525   6.345
 2636SOL    HW1 8807   3.990   0.547   6.438
 2636SOL    HW2 8808   4.085   0.449   6.349
 2637SOL     OW 8809   6.263   2.073   4.125
 2637SOL    HW1 8810   6.289   2.046   4.032
 2637SOL    HW2 8811   6.276   1.995   4.187
 2638SOL     OW 8812   6.751   6.439   4.491
 2638SOL    HW1 8813   6.724   6.423   4.586
 2638SOL    HW2 8814   6.835   6.493   4.489
 2639SOL     OW 8815   6.927   6.142   0.134
 2639SOL    HW1 8816   6.957   6.237   0.131
 2639SOL    HW2 8817   6.965   6.097   0.215
 2640SOL     OW 8818   6.732   6.732   5.355
 2640SOL    HW1 8819   6.694   6.693   5.271
 2640SOL    HW2 8820   6.686   6.692   5.434
 2641SOL     OW 8821   5.518   2.546   1.893
 2641SOL    HW1 8822   5.469   2.548   1.980
 2641SOL    HW2 8823   5.463   2.496   1.826
 2642SOL     OW 8824   6.334   0.333   3.753
 2642SOL    HW1 8825   6.247   0.356   3.796
 2642SOL    HW2 8826   6.408   0.347   3.819
 2643SOL     OW 8827   1.404   3.672   3.551
 2643SOL    HW1 8828   1.328   3.612   3.527
 2643SOL    HW2 8829   1.465   3.624   3.613
 2644SOL     OW 8830   4.928   5.078   5.018
 2644SOL    HW1 8831   4.967   5.170   5.026
 2644SOL    HW2 8832   4.883   5.069   4.929
 2645SOL     OW 8833   4.360   5.314   3.836
 2645SOL    HW1 8834   4.364   5.350   3.929
 2645SOL    HW2 8835   4.343   5.215   3.839
 2646SOL     OW 8836   6.431   2.083   0.106
 2646SOL    HW1 8837   6.447   1.988   0.080
 2646SOL    HW2 8838   6.518   2.127   0.127
 2647SOL     OW 8839   6.345   0.024   1.856
 2647SOL    HW1 8840   6.335   6.986   1.774
 2647SOL    HW2 8841   6.421   0.088   1.843
 2648SOL     OW 8842   0.184   6.091   4.269
 2648SOL    HW1 8843   0.135   6.179   4.265
 2648SOL    HW2 8844   0.277   6.103   4.234
 2649SOL     OW 8845   6.383   3.275   1.015
 2649SOL    HW1 8846   6.381   3.339   1.091
 2649SOL    HW2 8847   6.301   3.288   0.958
 2650SOL     OW 8848   1.546   4.945   3.980
 2650SOL    HW1 8849   1.527   4.848   3.997
 2650SOL    HW2 8850   1.492   4.977   3.902
 2651SOL     OW 8851   2.674   1.642   1.419
 2651SOL    HW1 8852   2.767   1.673   1.400
 2651SOL    HW2 8853   2.633   1.604   1.336
 2652SOL     OW 8854   4.220   3.237   5.238
 2652SOL    HW1 8855   4.147   3.257   5.304
 2652SOL    HW2 8856   4.208   3.293   5.156
 2653SOL     OW 8857   4.619   6.338   5.959
 2653SOL    HW1 8858   4.580   6.357   6.049
 2653SOL    HW2 8859   4.550   6.354   5.888
 2654SOL     OW 8860   4.370   0.038   1.541
 2654SOL    HW1 8861   4.357   6.960   1.560
 2654SOL    HW2 8862   4.467   0.060   1.548
 2655SOL     OW 8863   5.072   5.753   3.927
 2655SOL    HW1 8864   5.151   5.778   3.982
 2655SOL    HW2 8865   5.060   5.819   3.852
 2656SOL     OW 8866   3.314   5.487   4.465
 2656SOL    HW1 8867   3.363   5.574   4.455
 2656SOL    HW2 8868   3.355   5.434   4.539
 2657SOL     OW 8869   1.693   3.900   0.196
 2657SOL    HW1 8870   1.657   3.944   0.278
 2657SOL    HW2 8871   1.629   3.914   0.120
 2658SOL     OW 8872   4.752   4.893   0.181
 2658SOL    HW1 8873   4.779   4.816   0.122
 2658SOL    HW2 8874   4.712   4.858   0.265
 2659SOL     OW 8875   4.919   3.152   5.057
 2659SOL    HW1 8876   5.011   3.167   5.093
 2659SOL    HW2 8877   4.852   3.172   5.127
 2660SOL     OW 8878   1.010   0.214   2.033
 2660SOL    HW1 8879   1.015   0.124   2.076
 2660SOL    HW2 8880   1.042   0.284   2.098
 2661SOL     OW 8881   1.894   6.501   1.365
 2661SOL    HW1 8882   1.992   6.515   1.378
 2661SOL    HW2 8883   1.877   6.406   1.338
 2662SOL     OW 8884   3.233   7.010   4.664
 2662SOL    HW1 8885   3.315   6.995   4.609
 2662SOL    HW2 8886   3.229   0.086   4.694
 2663SOL     OW 8887   4.423   4.215   6.518
 2663SOL    HW1 8888   4.326   4.236   6.526
 2663SOL    HW2 8889   4.455   4.239   6.426
 2664SOL     OW 8890   4.454   3.165   5.333
 2664SOL    HW1 8891   4.370   3.207   5.298
 2664SOL    HW2 8892   4.529   3.232   5.328
 2665SOL     OW 8893   2.563   3.448   5.375
 2665SOL    HW1 8894   2.572   3.548   5.372
 2665SOL    HW2 8895   2.646   3.408   5.414
 2666SOL     OW 8896   1.571   4.470   1.632
 2666SOL    HW1 8897   1.564   4.391   1.571
 2666SOL    HW2 8898   1.533   4.447   1.721
 2667SOL     OW 8899   1.430   5.725   3.570
 2667SOL    HW1 8900   1.335   5.698   3.552
 2667SOL    HW2 8901   1.434   5.772   3.658
 2668SOL     OW 8902   6.404   2.709   4.723
 2668SOL    HW1 8903   6.488   2.656   4.721
 2668SOL    HW2 8904   6.342   2.674   4.653
 2669SOL     OW 8905   2.903   5.220   6.308
 2669SOL    HW1 8906   2.977   5.235   6.374
 2669SOL    HW2 8907   2.905   5.294   6.240
 2670SOL     OW 8908   5.892   2.980   4.776
 2670SOL    HW1 8909   5.793   2.963   4.781
 2670SOL    HW2 8910   5.914   3.062   4.828
 2671SOL     OW 8911   4.557   5.183   6.258
 2671SOL    HW1 8912   4.598   5.175   6.348
 2671SOL    HW2 8913   4.472   5.236   6.265
 2672SOL     OW 8914   3.035   6.555   1.173
 2672SOL    HW1 8915   3.065   6.479   1.231
 2672SOL    HW2 8916   3.039   6.527   1.077
 2673SOL     OW 8917   6.388   2.328   2.118
 2673SOL    HW1 8918   6.366   2.238   2.081
 2673SOL    HW2 8919   6.477   2.325   2.163
 2674SOL     OW 8920   1.212   4.565   3.943
 2674SOL    HW1 8921   1.310   4.545   3.948
 2674SOL    HW2 8922   1.199   4.661   3.915
 2675SOL     OW 8923   6.631   6.040   3.846
 2675SOL    HW1 8924   6.638   6.017   3.943
 2675SOL    HW2 8925   6.709   6.097   3.819
 2676SOL     OW 8926   3.106   3.296   1.220
 2676SOL    HW1 8927   3.032   3.292   1.287
 2676SOL    HW2 8928   3.107   3.213   1.166
 2677SOL     OW 8929   2.437   4.620   1.150
 2677SOL    HW1 8930   2.529   4.660   1.143
 2677SOL    HW2 8931   2.371   4.681   1.108
 2678SOL     OW 8932   0.336   2.685   2.240
 2678SOL    HW1 8933   0.238   2.682   2.224
 2678SOL    HW2 8934   0.355   2.732   2.326
 2679SOL     OW 8935   1.884   4.648   2.502
 2679SOL    HW1 8936   1.944   4.584   2.454
 2679SOL    HW2 8937   1.925   4.739   2.500
 2680SOL     OW 8938   1.029   2.290   0.458
 2680SOL    HW1 8939   1.027   2.251   0.550
 2680SOL    HW2 8940   0.943   2.338   0.440
 2681SOL     OW 8941   1.150   2.071   4.707
 2681SOL    HW1 8942   1.216   2.127   4.756
 2681SOL    HW2 8943   1.177   2.064   4.611
 2682SOL     OW 8944   4.724   4.448   4.018
 2682SOL    HW1 8945   4.793   4.471   4.087
 2682SOL    HW2 8946   4.713   4.349   4.013
 2683SOL     OW 8947   2.516   4.541   2.005
 2683SOL    HW1 8948   2.474   4.563   1.917
 2683SOL    HW2 8949   2.615   4.553   1.999
 2684SOL     OW 8950   4.603   0.165   2.126
 2684SOL    HW1 8951   4.658   0.142   2.206
 2684SOL    HW2 8952   4.516   0.116   2.130
 2685SOL     OW 8953   5.381   5.356   5.817
 2685SOL    HW1 8954   5.297   5.384   5.771
 2685SOL    HW2 8955   5.447   5.431   5.815
 2686SOL     OW 8956   1.044   1.392   5.167
 2686SOL    HW1 8957   1.139   1.383   5.196
 2686SOL    HW2 8958   0.984   1.377   5.245
 2687SOL     OW 8959   3.910   5.768   0.339
 2687SOL    HW1 8960   4.009   5.750   0.336
 2687SOL    HW2 8961   3.873   5.761   0.246
 2688SOL     OW 8962   2.224   2.501   0.472
 2688SOL    HW1 8963   2.179   2.426   0.520
 2688SOL    HW2 8964   2.307   2.527   0.520
 2689SOL     OW 8965   6.841   3.822   2.309
 2689SOL    HW1 8966   6.804   3.832   2.401
 2689SOL    HW2 8967   6.792   3.883   2.246
 2690SOL     OW 8968   3.079   3.276   6.197
 2690SOL    HW1 8969   3.040   3.365   6.172
 2690SOL    HW2 8970   3.064   3.212   6.122
 2691SOL     OW 8971   0.171   4.697   3.809
 2691SOL    HW1 8972   0.206   4.622   3.864
 2691SOL    HW2 8973   0.158   4.667   3.715
 2692SOL     OW 8974   2.610   6.962   3.478
 2692SOL    HW1 8975   2.618   6.889   3.411
 2692SOL    HW2 8976   2.550   6.932   3.552
 2693SOL     OW 8977   2.671   4.731   4.124
 2693SOL    HW1 8978   2.695   4.726   4.027
 2693SOL    HW2 8979   2.572   4.741   4.133
 2694SOL     OW 8980   3.769   6.774   3.371
 2694SOL    HW1 8981   3.775   6.847   3.439
 2694SOL    HW2 8982   3.723   6.695   3.410
 2695SOL     OW 8983   5.547   0.526   2.650
 2695SOL    HW1 8984   5.477   0.597   2.649
 2695SOL    HW2 8985   5.565   0.498   2.744
 2696SOL     OW 8986   4.438   3.537   5.571
 2696SOL    HW1 8987   4.428   3.635   5.554
 2696SOL    HW2 8988   4.347   3.494   5.574
 2697SOL     OW 8989   3.897   1.531   2.507
 2697SOL    HW1 8990   3.842   1.605   2.467
 2697SOL    HW2 8991   3.991   1.564   2.522
 2698SOL     OW 8992   2.064   4.504   6.985
 2698SOL    HW1 8993   2.077   4.434   6.913
 2698SOL    HW2 8994   2.029   4.588   6.944
 2699SOL     OW 8995   2.862   5.963   0.794
 2699SOL    HW1 8996   2.874   6.014   0.709
 2699SOL    HW2 8997   2.809   6.019   0.859
 2700SOL     OW 8998   2.578   1.766   0.962
 2700SOL    HW1 8999   2.517   1.840   0.990
 2700SOL    HW2 9000   2.633   1.797   0.883
 2701SOL     OW 9001   5.358   2.342   5.944
 2701SOL    HW1 9002   5.290   2.366   5.875
 2701SOL    HW2 9003   5.449   2.372   5.914
 2702SOL     OW 9004   0.924   2.623   3.198
 2702SOL    HW1 9005   0.931   2.617   3.098
 2702SOL    HW2 9006   1.016   2.637   3.237
 2703SOL     OW 9007   1.210   5.982   1.487
 2703SOL    HW1 9008   1.198   5.909   1.554
 2703SOL    HW2 9009   1.120   6.011   1.453
 2704SOL     OW 9010   6.606   6.327   2.126
 2704SOL    HW1 9011   6.513   6.295   2.148
 2704SOL    HW2 9012   6.634   6.290   2.037
 2705SOL     OW 9013   6.616   0.385   5.157
 2705SOL    HW1 9014   6.606   0.443   5.238
 2705SOL    HW2 9015   6.578   0.432   5.078
 2706SOL     OW 9016   6.416   4.792   3.480
 2706SOL    HW1 9017   6.335   4.733   3.473
 2706SOL    HW2 9018   6.386   4.886   3.496
 2707SOL     OW 9019   4.211   0.403   4.172
 2707SOL    HW1 9020   4.293   0.374   4.220
 2707SOL    HW2 9021   4.199   0.347   4.090
 2708SOL     OW 9022   6.219   2.710   1.291
 2708SOL    HW1 9023   6.120   2.700   1.284
 2708SOL    HW2 9024   6.256   2.637   1.348
 2709SOL     OW 9025   5.144   0.042   6.600
 2709SOL    HW1 9026   5.196   0.065   6.518
 2709SOL    HW2 9027   5.160   0.110   6.671
 2710SOL     OW 9028   1.561   2.568   3.867
 2710SOL    HW1 9029   1.623   2.539   3.939
 2710SOL    HW2 9030   1.517   2.654   3.893
 2711SOL     OW 9031   2.921   0.943   3.773
 2711SOL    HW1 9032   2.940   1.021   3.714
 2711SOL    HW2 9033   2.836   0.958   3.822
 2712SOL     OW 9034   2.237   5.600   2.115
 2712SOL    HW1 9035   2.184   5.592   2.030
 2712SOL    HW2 9036   2.327   5.639   2.095
 2713SOL     OW 9037   3.177   4.034   6.670
 2713SOL    HW1 9038   3.205   4.114   6.723
 2713SOL    HW2 9039   3.248   3.964   6.676
 2714SOL     OW 9040   3.402   3.409   6.652
 2714SOL    HW1 9041   3.371   3.314   6.652
 2714SOL    HW2 9042   3.324   3.470   6.635
 2715SOL     OW 9043   5.269   2.222   0.271
 2715SOL    HW1 9044   5.349   2.231   0.212
 2715SOL    HW2 9045   5.298   2.217   0.367
 2716SOL     OW 9046   4.907   3.379   3.935
 2716SOL    HW1 9047   4.965   3.364   4.016
 2716SOL    HW2 9048   4.869   3.291   3.905
 2717SOL     OW 9049   0.590   0.026   1.689
 2717SOL    HW1 9050   0.580   0.096   1.760
 2717SOL    HW2 9051   0.522   6.973   1.704
 2718SOL     OW 9052   0.411   1.261   5.230
 2718SOL    HW1 9053   0.398   1.311   5.144
 2718SOL    HW2 9054   0.367   1.172   5.224
 2719SOL     OW 9055   1.074   4.744   1.710
 2719SOL    HW1 9056   1.147   4.716   1.772
 2719SOL    HW2 9057   0.986   4.733   1.755
 2720SOL     OW 9058   1.323   0.054   2.466
 2720SOL    HW1 9059   1.369   0.140   2.488
 2720SOL    HW2 9060   1.231   0.054   2.504
 2721SOL     OW 9061   3.209   6.558   3.321
 2721SOL    HW1 9062   3.239   6.471   3.360
 2721SOL    HW2 9063   3.133   6.594   3.376
 2722SOL     OW 9064   5.251   5.059   6.723
 2722SOL    HW1 9065   5.317   5.094   6.655
 2722SOL    HW2 9066   5.300   5.036   6.807
 2723SOL     OW 9067   1.673   5.955   6.366
 2723SOL    HW1 9068   1.665   5.946   6.465
 2723SOL    HW2 9069   1.611   6.027   6.334
 2724SOL     OW 9070   1.501   6.444   6.104
 2724SOL    HW1 9071   1.555   6.361   6.092
 2724SOL    HW2 9072   1.461   6.445   6.196
 2725SOL     OW 9073   5.272   4.149   5.187
 2725SOL    HW1 9074   5.189   4.204   5.182
 2725SOL    HW2 9075   5.351   4.209   5.205
 2726SOL     OW 9076   0.374   2.408   2.147
 2726SOL    HW1 9077   0.277   2.384   2.141
 2726SOL    HW2 9078   0.383   2.505   2.169
 2727SOL     OW 9079   1.011   3.849   4.089
 2727SOL    HW1 9080   0.995   3.827   3.993
 2727SOL    HW2 9081   0.947   3.920   4.118
 2728SOL     OW 9082   5.119   6.294   5.936
 2728SOL    HW1 9083   5.117   6.213   5.994
 2728SOL    HW2 9084   5.032   6.302   5.887
 2729SOL     OW 9085   6.448   6.424   0.300
 2729SOL    HW1 9086   6.490   6.340   0.268
 2729SOL    HW2 9087   6.518   6.484   0.340
 2730SOL     OW 9088   1.127   6.265   1.718
 2730SOL    HW1 9089   1.212   6.232   1.677
 2730SOL    HW2 9090   1.088   6.194   1.776
 2731SOL     OW 9091   3.119   3.792   2.992
 2731SOL    HW1 9092   3.184   3.718   2.977
 2731SOL    HW2 9093   3.046   3.760   3.053
 2732SOL     OW 9094   5.723   1.781   0.847
 2732SOL    HW1 9095   5.726   1.872   0.889
 2732SOL    HW2 9096   5.680   1.716   0.909
 2733SOL     OW 9097   6.692   1.509   5.232
 2733SOL    HW1 9098   6.755   1.561   5.174
 2733SOL    HW2 9099   6.604   1.499   5.186
 2734SOL     OW 9100   2.725   5.804   1.180
 2734SOL    HW1 9101   2.810   5.761   1.147
 2734SOL    HW2 9102   2.673   5.737   1.233
 2735SOL     OW 9103   1.316   2.135   2.046
 2735SOL    HW1 9104   1.352   2.219   2.007
 2735SOL    HW2 9105   1.286   2.074   1.973
 2736SOL     OW 9106   6.374   6.086   4.876
 2736SOL    HW1 9107   6.358   6.183   4.895
 2736SOL    HW2 9108   6.394   6.074   4.779
 2737SOL     OW 9109   3.055   3.582   5.401
 2737SOL    HW1 9110   3.077   3.486   5.385
 2737SOL    HW2 9111   3.006   3.619   5.323
 2738SOL     OW 9112   6.153   6.085   2.082
 2738SOL    HW1 9113   6.155   6.177   2.123
 2738SOL    HW2 9114   6.135   6.017   2.154
 2739SOL     OW 9115   1.429   4.475   0.975
 2739SOL    HW1 9116   1.472   4.386   0.957
 2739SOL    HW2 9117   1.386   4.509   0.891
 2740SOL     OW 9118   6.919   4.900   1.880
 2740SOL    HW1 9119   6.863   4.944   1.810
 2740SOL    HW2 9120   6.860   4.862   1.951
 2741SOL     OW 9121   6.467   1.218   4.719
 2741SOL    HW1 9122   6.463   1.317   4.706
 2741SOL    HW2 9123   6.479   1.173   4.630
 2742SOL     OW 9124   2.083   5.203   0.591
 2742SOL    HW1 9125   2.112   5.127   0.533
 2742SOL    HW2 9126   2.117   5.289   0.553
 2743SOL     OW 9127   0.135   4.824   2.558
 2743SOL    HW1 9128   0.036   4.824   2.568
 2743SOL    HW2 9129   0.161   4.762   2.484
 2744SOL     OW 9130   4.629   3.071   0.438
 2744SOL    HW1 9131   4.656   3.142   0.504
 2744SOL    HW2 9132   4.568   3.006   0.483
 2745SOL     OW 9133   6.973   1.126   4.811
 2745SOL    HW1 9134   0.051   1.108   4.794
 2745SOL    HW2 9135   6.961   1.153   4.907
 2746SOL     OW 9136   0.906   2.562   4.542
 2746SOL    HW1 9137   0.917   2.540   4.639
 2746SOL    HW2 9138   0.826   2.621   4.530
 2747SOL     OW 9139   4.895   5.645   6.757
 2747SOL    HW1 9140   4.821   5.653   6.690
 2747SOL    HW2 9141   4.964   5.715   6.740
 2748SOL     OW 9142   4.574   1.259   1.925
 2748SOL    HW1 9143   4.673   1.251   1.911
 2748SOL    HW2 9144   4.538   1.333   1.869
 2749SOL     OW 9145   6.500   4.699   0.893
 2749SOL    HW1 9146   6.593   4.716   0.860
 2749SOL    HW2 9147   6.494   4.604   0.925
 2750SOL     OW 9148   2.306   4.025   2.058
 2750SOL    HW1 9149   2.364   4.107   2.053
 2750SOL    HW2 9150   2.315   3.973   1.974
 2751SOL     OW 9151   0.458   2.621   1.712
 2751SOL    HW1 9152   0.479   2.671   1.629
 2751SOL    HW2 9153   0.534   2.631   1.777
 2752SOL     OW 9154   3.027   4.567   6.287
 2752SOL    HW1 9155   3.087   4.568   6.207
 2752SOL    HW2 9156   3.030   4.477   6.330
 2753SOL     OW 9157   6.801   6.398   4.801
 2753SOL    HW1 9158   6.900   6.409   4.795
 2753SOL    HW2 9159   6.779   6.303   4.826
 2754SOL     OW 9160   0.389   0.327   0.469
 2754SOL    HW1 9161   0.372   0.236   0.507
 2754SOL    HW2 9162   0.426   0.318   0.377
 2755SOL     OW 9163   3.918   6.744   2.627
 2755SOL    HW1 9164   3.938   6.663   2.572
 2755SOL    HW2 9165   4.002   6.793   2.647
 2756SOL     OW 9166   4.181   6.006   6.876
 2756SOL    HW1 9167   4.274   5.985   6.846
 2756SOL    HW2 9168   4.142   6.075   6.815
 2757SOL     OW 9169   2.247   6.444   0.308
 2757SOL    HW1 9170   2.282   6.375   0.245
 2757SOL    HW2 9171   2.161   6.412   0.347
 2758SOL     OW 9172   4.568   0.600   3.844
 2758SOL    HW1 9173   4.568   0.691   3.885
 2758SOL    HW2 9174   4.658   0.559   3.856
 2759SOL     OW 9175   5.637   6.564   5.604
 2759SOL    HW1 9176   5.654   6.601   5.513
 2759SOL    HW2 9177   5.675   6.472   5.610
 2760SOL     OW 9178   0.563   5.961   1.982
 2760SOL    HW1 9179   0.540   5.894   1.911
 2760SOL    HW2 9180   0.663   5.973   1.985
 2761SOL     OW 9181   1.967   4.602   4.377
 2761SOL    HW1 9182   2.018   4.643   4.452
 2761SOL    HW2 9183   1.960   4.503   4.391
 2762SOL     OW 9184   1.818   0.847   5.451
 2762SOL    HW1 9185   1.811   0.748   5.467
 2762SOL    HW2 9186   1.901   0.866   5.399
 2763SOL     OW 9187   5.322   1.608   3.980
 2763SOL    HW1 9188   5.317   1.515   4.017
 2763SOL    HW2 9189   5.396   1.613   3.913
 2764SOL     OW 9190   6.144   0.702   0.945
 2764SOL    HW1 9191   6.215   0.632   0.931
 2764SOL    HW2 9192   6.060   0.674   0.899
 2765SOL     OW 9193   5.485   0.437   0.678
 2765SOL    HW1 9194   5.572   0.426   0.630
 2765SOL    HW2 9195   5.458   0.350   0.719
 2766SOL     OW 9196   4.688   2.431   0.175
 2766SOL    HW1 9197   4.756   2.379   0.226
 2766SOL    HW2 9198   4.712   2.431   0.078
 2767SOL     OW 9199   6.771   5.225   6.987
 2767SOL    HW1 9200   6.869   5.206   6.986
 2767SOL    HW2 9201   6.735   5.217   6.894
 2768SOL     OW 9202   4.997   0.431   0.412
 2768SOL    HW1 9203   4.983   0.530   0.403
 2768SOL    HW2 9204   5.081   0.413   0.462
 2769SOL     OW 9205   0.559   4.371   3.883
 2769SOL    HW1 9206   0.555   4.275   3.856
 2769SOL    HW2 9207   0.634   4.416   3.835
 2770SOL     OW 9208   2.680   5.479   5.828
 2770SOL    HW1 9209   2.653   5.504   5.920
 2770SOL    HW2 9210   2.713   5.385   5.827
 2771SOL     OW 9211   6.358   0.717   2.855
 2771SOL    HW1 9212   6.261   0.722   2.880
 2771SOL    HW2 9213   6.394   0.810   2.846
 2772SOL     OW 9214   4.326   1.311   0.683
 2772SOL    HW1 9215   4.336   1.261   0.769
 2772SOL    HW2 9216   4.255   1.380   0.693
 2773SOL     OW 9217   5.799   2.363   5.419
 2773SOL    HW1 9218   5.738   2.432   5.380
 2773SOL    HW2 9219   5.859   2.327   5.348
 2774SOL     OW 9220   6.217   3.667   3.411
 2774SOL    HW1 9221   6.293   3.602   3.419
 2774SOL    HW2 9222   6.131   3.618   3.411
 2775SOL     OW 9223   0.043   5.270   6.710
 2775SOL    HW1 9224   6.988   5.210   6.681
 2775SOL    HW2 9225   0.120   5.261   6.647
 2776SOL     OW 9226   5.137   4.662   6.063
 2776SOL    HW1 9227   5.184   4.744   6.096
 2776SOL    HW2 9228   5.051   4.651   6.111
 2777SOL     OW 9229   2.444   0.874   1.797
 2777SOL    HW1 9230   2.403   0.787   1.770
 2777SOL    HW2 9231   2.543   0.865   1.802
 2778SOL     OW 9232   1.317   0.177   5.136
 2778SOL    HW1 9233   1.285   0.235   5.211
 2778SOL    HW2 9234   1.295   0.081   5.156
 2779SOL     OW 9235   5.004   6.736   1.085
 2779SOL    HW1 9236   5.079   6.681   1.050
 2779SOL    HW2 9237   4.917   6.700   1.050
 2780SOL     OW 9238   6.441   6.133   6.554
 2780SOL    HW1 9239   6.422   6.108   6.649
 2780SOL    HW2 9240   6.355   6.148   6.505
 2781SOL     OW 9241   5.932   6.005   1.771
 2781SOL    HW1 9242   5.954   5.911   1.799
 2781SOL    HW2 9243   5.943   6.014   1.672
 2782SOL     OW 9244   3.555   1.968   5.380
 2782SOL    HW1 9245   3.529   1.950   5.285
 2782SOL    HW2 9246   3.475   1.996   5.432
 2783SOL     OW 9247   5.241   3.453   4.392
 2783SOL    HW1 9248   5.198   3.506   4.319
 2783SOL    HW2 9249   5.339   3.472   4.394
 2784SOL     OW 9250   3.379   2.211   1.156
 2784SOL    HW1 9251   3.326   2.161   1.087
 2784SOL    HW2 9252   3.363   2.171   1.246
 2785SOL     OW 9253   5.611   1.976   1.032
 2785SOL    HW1 9254   5.514   1.971   1.007
 2785SOL    HW2 9255   5.620   1.993   1.130
 2786SOL     OW 9256   4.654   5.941   2.060
 2786SOL    HW1 9257   4.690   5.899   2.144
 2786SOL    HW2 9258   4.582   5.882   2.022
 2787SOL     OW 9259   3.301   1.827   6.775
 2787SOL    HW1 9260   3.341   1.788   6.693
 2787SOL    HW2 9261   3.374   1.849   6.841
 2788SOL     OW 9262   2.273   4.966   6.224
 2788SOL    HW1 9263   2.178   4.963   6.255
 2788SOL    HW2 9264   2.284   5.040   6.158
 2789SOL     OW 9265   1.814   2.007   3.401
 2789SOL    HW1 9266   1.800   1.971   3.309
 2789SOL    HW2 9267   1.910   1.998   3.426
 2790SOL     OW 9268   2.741   5.643   2.253
 2790SOL    HW1 9269   2.838   5.645   2.277
 2790SOL    HW2 9270   2.713   5.735   2.223
 2791SOL     OW 9271   0.900   4.067   3.487
 2791SOL    HW1 9272   0.833   4.138   3.465
 2791SOL    HW2 9273   0.851   3.985   3.517
 2792SOL     OW 9274   1.236   6.574   4.642
 2792SOL    HW1 9275   1.149   6.603   4.682
 2792SOL    HW2 9276   1.311   6.612   4.695
 2793SOL     OW 9277   4.861   3.471   3.443
 2793SOL    HW1 9278   4.915   3.534   3.387
 2793SOL    HW2 9279   4.832   3.518   3.527
 2794SOL     OW 9280   0.285   2.812   0.625
 2794SOL    HW1 9281   0.255   2.827   0.719
 2794SOL    HW2 9282   0.236   2.873   0.563
 2795SOL     OW 9283   1.872   3.077   0.927
 2795SOL    HW1 9284   1.948   3.067   0.863
 2795SOL    HW2 9285   1.886   3.160   0.982
 2796SOL     OW 9286   6.289   5.145   2.579
 2796SOL    HW1 9287   6.340   5.222   2.540
 2796SOL    HW2 9288   6.232   5.177   2.654
 2797SOL     OW 9289   5.330   4.929   4.473
 2797SOL    HW1 9290   5.367   4.841   4.504
 2797SOL    HW2 9291   5.354   4.942   4.376
 2798SOL     OW 9292   1.255   4.877   1.506
 2798SOL    HW1 9293   1.205   4.963   1.520
 2798SOL    HW2 9294   1.219   4.807   1.567
 2799SOL     OW 9295   6.638   6.767   0.642
 2799SOL    HW1 9296   6.729   6.725   0.651
 2799SOL    HW2 9297   6.628   6.803   0.549
 2800SOL     OW 9298   4.703   4.927   6.892
 2800SOL    HW1 9299   4.754   4.892   6.971
 2800SOL    HW2 9300   4.764   4.931   6.812
 2801SOL     OW 9301   5.524   5.123   4.927
 2801SOL    HW1 9302   5.518   5.031   4.966
 2801SOL    HW2 9303   5.602   5.128   4.866
 2802SOL     OW 9304   4.721   2.052   6.133
 2802SOL    HW1 9305   4.720   2.011   6.042
 2802SOL    HW2 9306   4.698   2.150   6.125
 2803SOL     OW 9307   3.043   5.807   6.440
 2803SOL    HW1 9308   3.106   5.843   6.371
 2803SOL    HW2 9309   3.074   5.717   6.469
 2804SOL     OW 9310   0.122   4.411   4.875
 2804SOL    HW1 9311   0.212   4.431   4.837
 2804SOL    HW2 9312   0.075   4.496   4.896
 2805SOL     OW 9313   5.189   2.899   2.052
 2805SOL    HW1 9314   5.101   2.866   2.019
 2805SOL    HW2 9315   5.182   2.923   2.149
 2806SOL     OW 9316   6.870   5.220   4.610
 2806SOL    HW1 9317   6.945   5.160   4.637
 2806SOL    HW2 9318   6.790   5.202   4.669
 2807SOL     OW 9319   4.988   5.346   3.385
 2807SOL    HW1 9320   4.992   5.356   3.286
 2807SOL    HW2 9321   4.895   5.365   3.417
 2808SOL     OW 9322   5.312   3.119   2.780
 2808SOL    HW1 9323   5.403   3.105   2.742
 2808SOL    HW2 9324   5.314   3.103   2.879
 2809SOL     OW 9325   5.672   2.942   1.355
 2809SOL    HW1 9326   5.604   3.015   1.355
 2809SOL    HW2 9327   5.696   2.919   1.449
 2810SOL     OW 9328   3.188   5.793   3.930
 2810SOL    HW1 9329   3.115   5.728   3.948
 2810SOL    HW2 9330   3.243   5.806   4.012
 2811SOL     OW 9331   1.339   1.294   2.941
 2811SOL    HW1 9332   1.423   1.241   2.950
 2811SOL    HW2 9333   1.361   1.392   2.942
 2812SOL     OW 9334   5.167   3.749   0.104
 2812SOL    HW1 9335   5.175   3.713   0.011
 2812SOL    HW2 9336   5.127   3.841   0.100
 2813SOL     OW 9337   6.847   0.170   6.258
 2813SOL    HW1 9338   6.859   0.269   6.262
 2813SOL    HW2 9339   6.754   0.146   6.286
 2814SOL     OW 9340   4.851   3.089   6.722
 2814SOL    HW1 9341   4.794   3.044   6.790
 2814SOL    HW2 9342   4.819   3.183   6.708
 2815SOL     OW 9343   6.231   1.141   5.600
 2815SOL    HW1 9344   6.159   1.205   5.573
 2815SOL    HW2 9345   6.296   1.189   5.660
 2816SOL     OW 9346   6.247   5.556   3.486
 2816SOL    HW1 9347   6.222   5.502   3.567
 2816SOL    HW2 9348   6.168   5.566   3.427
 2817SOL     OW 9349   2.837   0.488   0.990
 2817SOL    HW1 9350   2.770   0.415   1.003
 2817SOL    HW2 9351   2.811   0.568   1.044
 2818SOL     OW 9352   0.091   0.343   0.540
 2818SOL    HW1 9353   0.094   0.359   0.638
 2818SOL    HW2 9354   0.184   0.333   0.504
 2819SOL     OW 9355   0.650   0.932   1.534
 2819SOL    HW1 9356   0.632   1.026   1.505
 2819SOL    HW2 9357   0.617   0.868   1.464
 2820SOL     OW 9358   1.183   2.037   3.143
 2820SOL    HW1 9359   1.178   2.137   3.133
 2820SOL    HW2 9360   1.135   1.993   3.067
 2821SOL     OW 9361   4.022   3.642   0.012
 2821SOL    HW1 9362   3.985   3.582   0.082
 2821SOL    HW2 9363   3.955   3.653   6.958
 2822SOL     OW 9364   4.588   2.235   6.940
 2822SOL    HW1 9365   4.687   2.233   6.925
 2822SOL    HW2 9366   4.554   2.142   6.952
 2823SOL     OW 9367   3.510   6.203   0.235
 2823SOL    HW1 9368   3.577   6.130   0.250
 2823SOL    HW2 9369   3.557   6.291   0.228
 2824SOL     OW 9370   3.175   0.837   3.354
 2824SOL    HW1 9371   3.271   0.851   3.332
 2824SOL    HW2 9372   3.126   0.924   3.347
 2825SOL     OW 9373   6.632   0.644   6.740
 2825SOL    HW1 9374   6.581   0.666   6.823
 2825SOL    HW2 9375   6.570   0.609   6.670
 2826SOL     OW 9376   4.491   1.712   6.599
 2826SOL    HW1 9377   4.438   1.627   6.588
 2826SOL    HW2 9378   4.564   1.697   6.665
 2827SOL     OW 9379   6.348   0.782   5.720
 2827SOL    HW1 9380   6.302   0.760   5.805
 2827SOL    HW2 9381   6.400   0.867   5.731
 2828SOL     OW 9382   3.155   1.404   0.399
 2828SOL    HW1 9383   3.206   1.324   0.369
 2828SOL    HW2 9384   3.084   1.426   0.333
 2829SOL     OW 9385   3.492   3.550   5.778
 2829SOL    HW1 9386   3.456   3.557   5.685
 2829SOL    HW2 9387   3.418   3.564   5.844
 2830SOL     OW 9388   1.409   3.157   6.283
 2830SOL    HW1 9389   1.490   3.183   6.336
 2830SOL    HW2 9390   1.428   3.170   6.185
 2831SOL     OW 9391   0.712   5.486   3.520
 2831SOL    HW1 9392   0.713   5.429   3.438
 2831SOL    HW2 9393   0.646   5.560   3.509
 2832SOL     OW 9394   1.015   0.696   2.313
 2832SOL    HW1 9395   0.959   0.657   2.386
 2832SOL    HW2 9396   1.078   0.764   2.352
 2833SOL     OW 9397   4.170   2.250   2.223
 2833SOL    HW1 9398   4.076   2.225   2.246
 2833SOL    HW2 9399   4.182   2.248   2.124
 2834SOL     OW 9400   2.552   5.892   6.344
 2834SOL    HW1 9401   2.578   5.953   6.269
 2834SOL    HW2 9402   2.586   5.800   6.326
 2835SOL     OW 9403   6.718   0.278   1.674
 2835SOL    HW1 9404   6.629   0.239   1.648
 2835SOL    HW2 9405   6.727   0.275   1.773
 2836SOL     OW 9406   5.994   0.140   2.367
 2836SOL    HW1 9407   5.981   0.104   2.275
 2836SOL    HW2 9408   5.929   0.214   2.384
 2837SOL     OW 9409   5.247   4.023   3.043
 2837SOL    HW1 9410   5.258   4.011   2.945
 2837SOL    HW2 9411   5.332   4.061   3.081
 2838SOL     OW 9412   2.108   4.613   0.580
 2838SOL    HW1 9413   2.018   4.642   0.613
 2838SOL    HW2 9414   2.111   4.513   0.577
 2839SOL     OW 9415   6.431   1.540   1.748
 2839SOL    HW1 9416   6.483   1.624   1.763
 2839SOL    HW2 9417   6.446   1.477   1.824
 2840SOL     OW 9418   2.350   1.044   3.288
 2840SOL    HW1 9419   2.428   1.044   3.226
 2840SOL    HW2 9420   2.375   0.995   3.372
 2841SOL     OW 9421   0.983   0.458   5.859
 2841SOL    HW1 9422   1.083   0.463   5.859
 2841SOL    HW2 9423   0.947   0.512   5.936
 2842SOL     OW 9424   0.066   3.622   4.179
 2842SOL    HW1 9425   0.087   3.525   4.170
 2842SOL    HW2 9426   0.048   3.643   4.275
 2843SOL     OW 9427   3.025   1.283   2.703
 2843SOL    HW1 9428   2.930   1.286   2.736
 2843SOL    HW2 9429   3.064   1.194   2.723
 2844SOL     OW 9430   0.569   5.757   0.524
 2844SOL    HW1 9431   0.539   5.843   0.567
 2844SOL    HW2 9432   0.496   5.689   0.533
 2845SOL     OW 9433   6.581   3.230   1.440
 2845SOL    HW1 9434   6.488   3.207   1.413
 2845SOL    HW2 9435   6.599   3.195   1.532
 2846SOL     OW 9436   4.274   1.154   6.384
 2846SOL    HW1 9437   4.316   1.239   6.351
 2846SOL    HW2 9438   4.341   1.103   6.438
 2847SOL     OW 9439   4.955   3.841   3.976
 2847SOL    HW1 9440   5.028   3.772   3.970
 2847SOL    HW2 9441   4.900   3.839   3.893
 2848SOL     OW 9442   1.851   3.211   5.953
 2848SOL    HW1 9443   1.771   3.178   5.904
 2848SOL    HW2 9444   1.871   3.305   5.923
 2849SOL     OW 9445   3.258   6.599   0.569
 2849SOL    HW1 9446   3.213   6.672   0.519
 2849SOL    HW2 9447   3.216   6.511   0.545
 2850SOL     OW 9448   2.398   0.217   2.402
 2850SOL    HW1 9449   2.462   0.143   2.382
 2850SOL    HW2 9450   2.314   0.179   2.442
 2851SOL     OW 9451   6.842   1.945   5.646
 2851SOL    HW1 9452   6.813   1.873   5.583
 2851SOL    HW2 9453   6.856   1.907   5.737
 2852SOL     OW 9454   5.718   4.963   0.016
 2852SOL    HW1 9455   5.693   5.012   0.100
 2852SOL    HW2 9456   5.745   4.870   0.040
 2853SOL     OW 9457   1.786   2.629   6.916
 2853SOL    HW1 9458   1.856   2.610   6.984
 2853SOL    HW2 9459   1.728   2.705   6.947
 2854SOL     OW 9460   3.935   1.050   4.911
 2854SOL    HW1 9461   3.970   0.962   4.943
 2854SOL    HW2 9462   3.938   1.116   4.986
 2855SOL     OW 9463   2.712   1.051   6.751
 2855SOL    HW1 9464   2.663   1.136   6.730
 2855SOL    HW2 9465   2.803   1.054   6.709
 2856SOL     OW 9466   1.729   2.783   6.054
 2856SOL    HW1 9467   1.774   2.738   6.130
 2856SOL    HW2 9468   1.789   2.782   5.974
 2857SOL     OW 9469   3.352   1.541   2.208
 2857SOL    HW1 9470   3.411   1.466   2.179
 2857SOL    HW2 9471   3.378   1.624   2.159
 2858SOL     OW 9472   5.219   4.430   3.059
 2858SOL    HW1 9473   5.133   4.431   3.110
 2858SOL    HW2 9474   5.242   4.336   3.034
 2859SOL     OW 9475   5.110   2.148   0.052
 2859SOL    HW1 9476   5.090   2.059   0.012
 2859SOL    HW2 9477   5.161   2.136   0.137
 2860SOL     OW 9478   3.499   1.917   1.366
 2860SOL    HW1 9479   3.490   1.843   1.433
 2860SOL    HW2 9480   3.473   1.883   1.276
 2861SOL     OW 9481   3.776   3.674   6.230
 2861SOL    HW1 9482   3.811   3.767   6.224
 2861SOL    HW2 9483   3.681   3.676   6.263
 2862SOL     OW 9484   5.506   1.988   3.116
 2862SOL    HW1 9485   5.549   2.078   3.125
 2862SOL    HW2 9486   5.407   1.999   3.109
 2863SOL     OW 9487   4.838   1.198   7.011
 2863SOL    HW1 9488   4.789   1.281   0.019
 2863SOL    HW2 9489   4.844   1.136   0.070
 2864SOL     OW 9490   4.242   1.237   1.457
 2864SOL    HW1 9491   4.223   1.261   1.552
 2864SOL    HW2 9492   4.234   1.319   1.399
 2865SOL     OW 9493   5.085   4.321   6.592
 2865SOL    HW1 9494   5.176   4.309   6.553
 2865SOL    HW2 9495   5.072   4.255   6.666
 2866SOL     OW 9496   6.414   5.825   6.780
 2866SOL    HW1 9497   6.327   5.868   6.756
 2866SOL    HW2 9498   6.426   5.828   6.879
 2867SOL     OW 9499   5.647   3.722   2.667
 2867SOL    HW1 9500   5.715   3.710   2.740
 2867SOL    HW2 9501   5.583   3.794   2.693
 2868SOL     OW 9502   6.838   2.398   5.542
 2868SOL    HW1 9503   6.868   2.393   5.447
 2868SOL    HW2 9504   6.842   2.493   5.573
 2869SOL     OW 9505   6.653   0.593   3.374
 2869SOL    HW1 9506   6.698   0.541   3.300
 2869SOL    HW2 9507   6.555   0.572   3.374
 2870SOL     OW 9508   6.846   1.118   4.464
 2870SOL    HW1 9509   6.918   1.072   4.515
 2870SOL    HW2 9510   6.876   1.132   4.370
 2871SOL     OW 9511   0.616   1.827   0.322
 2871SOL    HW1 9512   0.673   1.745   0.323
 2871SOL    HW2 9513   0.630   1.879   0.406
 2872SOL     OW 9514   3.334   1.201   2.526
 2872SOL    HW1 9515   3.398   1.233   2.595
 2872SOL    HW2 9516   3.255   1.160   2.570
 2873SOL     OW 9517   6.877   5.013   2.849
 2873SOL    HW1 9518   6.803   5.003   2.917
 2873SOL    HW2 9519   6.922   5.101   2.863
 2874SOL     OW 9520   3.002   6.530   3.588
 2874SOL    HW1 9521   3.042   6.609   3.634
 2874SOL    HW2 9522   3.061   6.450   3.601
 2875SOL     OW 9523   4.753   6.588   1.037
 2875SOL    HW1 9524   4.731   6.549   1.126
 2875SOL    HW2 9525   4.669   6.610   0.988
 2876SOL     OW 9526   0.813   6.996   1.514
 2876SOL    HW1 9527   0.903   7.015   1.553
 2876SOL    HW2 9528   0.742   0.005   1.578
 2877SOL     OW 9529   3.277   2.460   5.390
 2877SOL    HW1 9530   3.243   2.426   5.302
 2877SOL    HW2 9531   3.227   2.543   5.414
 2878SOL     OW 9532   4.346   5.340   4.679
 2878SOL    HW1 9533   4.382   5.269   4.739
 2878SOL    HW2 9534   4.290   5.298   4.608
 2879SOL     OW 9535   5.103   4.738   0.695
 2879SOL    HW1 9536   5.043   4.660   0.712
 2879SOL    HW2 9537   5.197   4.705   0.679
 2880SOL     OW 9538   5.600   6.679   1.758
 2880SOL    HW1 9539   5.577   6.675   1.660
 2880SOL    HW2 9540   5.552   6.606   1.806
 2881SOL     OW 9541   5.331   6.113   6.813
 2881SOL    HW1 9542   5.301   6.168   6.736
 2881SOL    HW2 9543   5.308   6.159   6.899
 2882SOL     OW 9544   0.821   4.537   2.502
 2882SOL    HW1 9545   0.856   4.479   2.576
 2882SOL    HW2 9546   0.721   4.531   2.500
 2883SOL     OW 9547   6.336   6.710   3.752
 2883SOL    HW1 9548   6.345   6.804   3.720
 2883SOL    HW2 9549   6.263   6.664   3.700
 2884SOL     OW 9550   0.980   5.645   2.934
 2884SOL    HW1 9551   0.971   5.682   2.841
 2884SOL    HW2 9552   1.072   5.665   2.968
 2885SOL     OW 9553   0.578   3.176   2.366
 2885SOL    HW1 9554   0.577   3.079   2.344
 2885SOL    HW2 9555   0.491   3.201   2.409
 2886SOL     OW 9556   2.949   4.191   5.975
 2886SOL    HW1 9557   2.999   4.278   5.978
 2886SOL    HW2 9558   2.965   4.141   6.060
 2887SOL     OW 9559   1.221   0.131   4.278
 2887SOL    HW1 9560   1.123   0.114   4.290
 2887SOL    HW2 9561   1.238   0.157   4.183
 2888SOL     OW 9562   0.875   4.303   0.201
 2888SOL    HW1 9563   0.946   4.244   0.163
 2888SOL    HW2 9564   0.913   4.394   0.217
 2889SOL     OW 9565   2.219   6.981   2.135
 2889SOL    HW1 9566   2.192   0.058   2.123
 2889SOL    HW2 9567   2.161   6.924   2.077
 2890SOL     OW 9568   2.508   6.783   0.927
 2890SOL    HW1 9569   2.456   6.702   0.902
 2890SOL    HW2 9570   2.490   6.856   0.860
 2891SOL     OW 9571   1.585   4.107   3.290
 2891SOL    HW1 9572   1.616   4.200   3.272
 2891SOL    HW2 9573   1.488   4.099   3.268
 2892SOL     OW 9574   5.470   3.676   6.716
 2892SOL    HW1 9575   5.487   3.605   6.785
 2892SOL    HW2 9576   5.551   3.733   6.707
 2893SOL     OW 9577   0.167   6.722   4.609
 2893SOL    HW1 9578   0.243   6.758   4.665
 2893SOL    HW2 9579   0.081   6.738   4.657
 2894SOL     OW 9580   2.768   2.988   0.509
 2894SOL    HW1 9581   2.707   2.992   0.588
 2894SOL    HW2 9582   2.715   2.966   0.427
 2895SOL     OW 9583   4.509   2.683   6.099
 2895SOL    HW1 9584   4.470   2.678   6.006
 2895SOL    HW2 9585   4.567   2.603   6.114
 2896SOL     OW 9586   4.009   5.296   6.305
 2896SOL    HW1 9587   3.996   5.290   6.206
 2896SOL    HW2 9588   4.107   5.287   6.326
 2897SOL     OW 9589   3.698   4.934   3.610
 2897SOL    HW1 9590   3.643   4.986   3.676
 2897SOL    HW2 9591   3.644   4.919   3.528
 2898SOL     OW 9592   4.042   5.925   4.214
 2898SOL    HW1 9593   4.125   5.979   4.200
 2898SOL    HW2 9594   4.020   5.877   4.129
 2899SOL     OW 9595   0.953   1.913   0.762
 2899SOL    HW1 9596   0.902   1.833   0.731
 2899SOL    HW2 9597   0.894   1.969   0.822
 2900SOL     OW 9598   2.376   5.080   5.484
 2900SOL    HW1 9599   2.431   5.001   5.459
 2900SOL    HW2 9600   2.322   5.059   5.566
 2901SOL     OW 9601   2.201   6.591   3.758
 2901SOL    HW1 9602   2.180   6.618   3.852
 2901SOL    HW2 9603   2.193   6.491   3.750
 2902SOL     OW 9604   4.910   6.560   1.631
 2902SOL    HW1 9605   4.854   6.477   1.640
 2902SOL    HW2 9606   4.859   6.629   1.579
 2903SOL     OW 9607   2.902   0.773   0.548
 2903SOL    HW1 9608   2.999   0.755   0.559
 2903SOL    HW2 9609   2.876   0.761   0.452
 2904SOL     OW 9610   2.251   3.826   5.284
 2904SOL    HW1 9611   2.298   3.744   5.252
 2904SOL    HW2 9612   2.300   3.907   5.252
 2905SOL     OW 9613   1.051   1.992   3.579
 2905SOL    HW1 9614   1.149   1.971   3.572
 2905SOL    HW2 9615   1.038   2.091   3.571
 2906SOL     OW 9616   4.655   5.771   2.785
 2906SOL    HW1 9617   4.677   5.681   2.748
 2906SOL    HW2 9618   4.701   5.841   2.730
 2907SOL     OW 9619   0.234   1.371   4.421
 2907SOL    HW1 9620   0.243   1.273   4.405
 2907SOL    HW2 9621   0.173   1.411   4.352
 2908SOL     OW 9622   4.802   7.014   4.385
 2908SOL    HW1 9623   4.779   0.092   4.390
 2908SOL    HW2 9624   4.772   6.968   4.468
 2909SOL     OW 9625   0.706   6.766   3.617
 2909SOL    HW1 9626   0.744   6.757   3.525
 2909SOL    HW2 9627   0.623   6.821   3.614
 2910SOL     OW 9628   5.054   6.846   4.414
 2910SOL    HW1 9629   4.995   6.926   4.423
 2910SOL    HW2 9630   5.008   6.766   4.452
 2911SOL     OW 9631   2.096   5.583   3.439
 2911SOL    HW1 9632   2.061   5.581   3.346
 2911SOL    HW2 9633   2.066   5.667   3.485
 2912SOL     OW 9634   4.434   7.002   6.770
 2912SOL    HW1 9635   4.368   0.053   6.797
 2912SOL    HW2 9636   4.512   0.025   6.725
 2913SOL     OW 9637   2.287   4.418   3.099
 2913SOL    HW1 9638   2.277   4.372   3.188
 2913SOL    HW2 9639   2.226   4.375   3.033
 2914SOL     OW 9640   5.842   6.539   5.811
 2914SOL    HW1 9641   5.807   6.549   5.904
 2914SOL    HW2 9642   5.767   6.545   5.746
 2915SOL     OW 9643   5.755   1.669   5.158
 2915SOL    HW1 9644   5.688   1.602   5.188
 2915SOL    HW2 9645   5.712   1.759   5.151
 2916SOL     OW 9646   6.796   6.281   6.308
 2916SOL    HW1 9647   6.861   6.333   6.363
 2916SOL    HW2 9648   6.765   6.201   6.360
 2917SOL     OW 9649   3.748   6.464   2.501
 2917SOL    HW1 9650   3.713   6.557   2.491
 2917SOL    HW2 9651   3.848   6.466   2.492
 2918SOL     OW 9652   6.688   4.094   4.052
 2918SOL    HW1 9653   6.647   4.130   3.969
 2918SOL    HW2 9654   6.639   4.011   4.080
 2919SOL     OW 9655   6.822   0.873   0.816
 2919SOL    HW1 9656   6.884   0.908   0.887
 2919SOL    HW2 9657   6.875   0.844   0.736
 2920SOL     OW 9658   2.662   2.161   2.081
 2920SOL    HW1 9659   2.662   2.257   2.111
 2920SOL    HW2 9660   2.753   2.136   2.049
 2921SOL     OW 9661   1.109   0.758   3.194
 2921SOL    HW1 9662   1.058   0.699   3.255
 2921SOL    HW2 9663   1.200   0.776   3.231
 2922SOL     OW 9664   5.002   6.815   0.772
 2922SOL    HW1 9665   5.026   6.718   0.768
 2922SOL    HW2 9666   4.975   6.847   0.681
 2923SOL     OW 9667   6.722   4.841   2.092
 2923SOL    HW1 9668   6.751   4.746   2.085
 2923SOL    HW2 9669   6.637   4.854   2.042
 2924SOL     OW 9670   0.489   1.709   6.828
 2924SOL    HW1 9671   0.475   1.770   6.906
 2924SOL    HW2 9672   0.555   1.750   6.765
 2925SOL     OW 9673   4.762   0.860   3.171
 2925SOL    HW1 9674   4.838   0.828   3.116
 2925SOL    HW2 9675   4.794   0.881   3.264
 2926SOL     OW 9676   6.818   1.353   4.658
 2926SOL    HW1 9677   6.824   1.254   4.643
 2926SOL    HW2 9678   6.787   1.371   4.752
 2927SOL     OW 9679   1.352   2.174   2.939
 2927SOL    HW1 9680   1.322   2.139   2.850
 2927SOL    HW2 9681   1.336   2.106   3.010
 2928SOL     OW 9682   0.189   2.231   6.254
 2928SOL    HW1 9683   0.247   2.312   6.266
 2928SOL    HW2 9684   0.130   2.244   6.174
 2929SOL     OW 9685   0.567   1.131   6.184
 2929SOL    HW1 9686   0.564   1.174   6.274
 2929SOL    HW2 9687   0.475   1.128   6.145
 2930SOL     OW 9688   4.176   6.377   5.143
 2930SOL    HW1 9689   4.149   6.431   5.222
 2930SOL    HW2 9690   4.227   6.434   5.078
 2931SOL     OW 9691   5.395   5.094   0.747
 2931SOL    HW1 9692   5.310   5.117   0.699
 2931SOL    HW2 9693   5.440   5.178   0.777
 2932SOL     OW 9694   0.868   5.229   1.197
 2932SOL    HW1 9695   0.798   5.158   1.188
 2932SOL    HW2 9696   0.870   5.284   1.114
 2933SOL     OW 9697   6.129   4.205   3.099
 2933SOL    HW1 9698   6.179   4.292   3.098
 2933SOL    HW2 9699   6.148   4.156   3.014
 2934SOL     OW 9700   4.713   1.433   0.486
 2934SOL    HW1 9701   4.617   1.429   0.460
 2934SOL    HW2 9702   4.769   1.458   0.407
 2935SOL     OW 9703   6.291   3.154   1.401
 2935SOL    HW1 9704   6.232   3.084   1.441
 2935SOL    HW2 9705   6.261   3.245   1.430
 2936SOL     OW 9706   3.654   5.072   2.131
 2936SOL    HW1 9707   3.590   5.003   2.162
 2936SOL    HW2 9708   3.635   5.159   2.177
 2937SOL     OW 9709   4.116   4.895   0.342
 2937SOL    HW1 9710   4.203   4.937   0.369
 2937SOL    HW2 9711   4.124   4.795   0.350
 2938SOL     OW 9712   4.880   4.712   6.133
 2938SOL    HW1 9713   4.797   4.728   6.080
 2938SOL    HW2 9714   4.888   4.783   6.204
 2939SOL     OW 9715   0.613   0.263   3.925
 2939SOL    HW1 9716   0.592   0.240   4.020
 2939SOL    HW2 9717   0.693   0.212   3.895
 2940SOL     OW 9718   5.925   6.314   6.423
 2940SOL    HW1 9719   5.927   6.328   6.324
 2940SOL    HW2 9720   5.877   6.228   6.443
 2941SOL     OW 9721   2.265   2.795   4.182
 2941SOL    HW1 9722   2.220   2.884   4.194
 2941SOL    HW2 9723   2.264   2.745   4.268
 2942SOL     OW 9724   3.123   2.437   1.445
 2942SOL    HW1 9725   3.106   2.352   1.496
 2942SOL    HW2 9726   3.221   2.460   1.450
 2943SOL     OW 9727   5.543   4.440   2.887
 2943SOL    HW1 9728   5.637   4.469   2.904
 2943SOL    HW2 9729   5.483   4.477   2.958
 2944SOL     OW 9730   2.736   5.513   5.518
 2944SOL    HW1 9731   2.746   5.489   5.614
 2944SOL    HW2 9732   2.807   5.468   5.464
 2945SOL     OW 9733   3.766   4.073   3.561
 2945SOL    HW1 9734   3.672   4.092   3.531
 2945SOL    HW2 9735   3.769   4.075   3.661
 2946SOL     OW 9736   1.005   5.955   0.076
 2946SOL    HW1 9737   0.917   5.919   0.046
 2946SOL    HW2 9738   1.031   6.032   0.018
 2947SOL     OW 9739   0.624   3.577   6.760
 2947SOL    HW1 9740   0.579   3.494   6.726
 2947SOL    HW2 9741   0.697   3.553   6.823
 2948SOL     OW 9742   6.756   4.750   5.632
 2948SOL    HW1 9743   6.805   4.785   5.712
 2948SOL    HW2 9744   6.812   4.763   5.550
 2949SOL     OW 9745   2.785   5.690   0.743
 2949SOL    HW1 9746   2.721   5.616   0.767
 2949SOL    HW2 9747   2.773   5.766   0.806
 2950SOL     OW 9748   4.866   3.816   4.534
 2950SOL    HW1 9749   4.890   3.909   4.561
 2950SOL    HW2 9750   4.874   3.807   4.434
 2951SOL     OW 9751   5.944   2.039   1.061
 2951SOL    HW1 9752   5.954   2.132   1.097
 2951SOL    HW2 9753   5.961   2.039   0.963
 2952SOL     OW 9754   0.994   5.696   5.410
 2952SOL    HW1 9755   1.055   5.718   5.334
 2952SOL    HW2 9756   0.924   5.631   5.380
 2953SOL     OW 9757   5.146   3.412   3.402
 2953SOL    HW1 9758   5.068   3.350   3.415
 2953SOL    HW2 9759   5.185   3.397   3.311
 2954SOL     OW 9760   0.688   5.391   1.452
 2954SOL    HW1 9761   0.775   5.357   1.416
 2954SOL    HW2 9762   0.684   5.490   1.443
 2955SOL     OW 9763   0.828   4.251   1.563
 2955SOL    HW1 9764   0.794   4.157   1.571
 2955SOL    HW2 9765   0.761   4.313   1.604
 2956SOL     OW 9766   6.245   6.386   3.364
 2956SOL    HW1 9767   6.165   6.354   3.314
 2956SOL    HW2 9768   6.279   6.313   3.423
 2957SOL     OW 9769   6.039   3.187   1.825
 2957SOL    HW1 9770   6.068   3.094   1.848
 2957SOL    HW2 9771   5.946   3.202   1.859
 2958SOL     OW 9772   2.601   4.660   4.547
 2958SOL    HW1 9773   2.611   4.653   4.646
 2958SOL    HW2 9774   2.686   4.694   4.507
 2959SOL     OW 9775   4.750   5.010   0.552
 2959SOL    HW1 9776   4.685   4.968   0.489
 2959SOL    HW2 9777   4.838   5.025   0.506
 2960SOL     OW 9778   4.200   7.009   6.042
 2960SOL    HW1 9779   4.241   6.962   5.964
 2960SOL    HW2 9780   4.172   6.943   6.111
 2961SOL     OW 9781   4.759   2.354   4.378
 2961SOL    HW1 9782   4.759   2.382   4.474
 2961SOL    HW2 9783   4.813   2.419   4.324
 2962SOL     OW 9784   4.703   0.922   3.555
 2962SOL    HW1 9785   4.635   0.853   3.530
 2962SOL    HW2 9786   4.674   1.012   3.522
 2963SOL     OW 9787   2.015   0.967   5.615
 2963SOL    HW1 9788   1.942   0.944   5.550
 2963SOL    HW2 9789   1.997   1.058   5.654
 2964SOL     OW 9790   6.913   0.313   2.767
 2964SOL    HW1 9791   6.847   0.387   2.782
 2964SOL    HW2 9792   7.006   0.350   2.771
 2965SOL     OW 9793   7.011   0.687   4.657
 2965SOL    HW1 9794   0.055   0.670   4.733
 2965SOL    HW2 9795   6.927   0.634   4.671
 2966SOL     OW 9796   5.888   5.495   4.350
 2966SOL    HW1 9797   5.889   5.426   4.423
 2966SOL    HW2 9798   5.797   5.536   4.345
 2967SOL     OW 9799   6.156   1.843   4.729
 2967SOL    HW1 9800   6.153   1.777   4.804
 2967SOL    HW2 9801   6.152   1.936   4.767
 2968SOL     OW 9802   0.935   3.412   6.482
 2968SOL    HW1 9803   0.995   3.431   6.560
 2968SOL    HW2 9804   0.983   3.433   6.397
 2969SOL     OW 9805   5.872   0.856   4.936
 2969SOL    HW1 9806   5.794   0.850   4.874
 2969SOL    HW2 9807   5.848   0.813   5.024
 2970SOL     OW 9808   1.026   4.061   6.343
 2970SOL    HW1 9809   0.974   4.099   6.419
 2970SOL    HW2 9810   0.974   4.069   6.259
 2971SOL     OW 9811   5.724   3.470   6.057
 2971SOL    HW1 9812   5.795   3.426   6.003
 2971SOL    HW2 9813   5.754   3.563   6.082
 2972SOL     OW 9814   6.450   4.604   6.407
 2972SOL    HW1 9815   6.430   4.507   6.396
 2972SOL    HW2 9816   6.548   4.620   6.396
 2973SOL     OW 9817   5.729   0.911   4.476
 2973SOL    HW1 9818   5.776   0.958   4.551
 2973SOL    HW2 9819   5.746   0.960   4.391
 2974SOL     OW 9820   0.900   3.810   2.518
 2974SOL    HW1 9821   0.901   3.892   2.460
 2974SOL    HW2 9822   0.852   3.736   2.469
 2975SOL     OW 9823   0.169   2.140   4.944
 2975SOL    HW1 9824   0.171   2.045   4.911
 2975SOL    HW2 9825   0.191   2.202   4.868
 2976SOL     OW 9826   4.191   2.195   2.919
 2976SOL    HW1 9827   4.193   2.212   2.820
 2976SOL    HW2 9828   4.285   2.182   2.952
 2977SOL     OW 9829   1.880   6.697   3.944
 2977SOL    HW1 9830   1.785   6.672   3.961
 2977SOL    HW2 9831   1.886   6.794   3.921
 2978SOL     OW 9832   4.429   4.674   6.645
 2978SOL    HW1 9833   4.453   4.580   6.669
 2978SOL    HW2 9834   4.483   4.704   6.566
 2979SOL     OW 9835   4.784   0.277   4.367
 2979SOL    HW1 9836   4.732   0.329   4.436
 2979SOL    HW2 9837   4.879   0.306   4.368
 2980SOL     OW 9838   1.055   6.352   3.910
 2980SOL    HW1 9839   1.142   6.303   3.908
 2980SOL    HW2 9840   0.982   6.291   3.880
 2981SOL     OW 9841   1.647   1.449   6.035
 2981SOL    HW1 9842   1.618   1.538   6.000
 2981SOL    HW2 9843   1.626   1.379   5.967
 2982SOL     OW 9844   3.894   5.907   2.966
 2982SOL    HW1 9845   3.947   5.824   2.946
 2982SOL    HW2 9846   3.920   5.941   3.056
 2983SOL     OW 9847   0.871   1.282   4.092
 2983SOL    HW1 9848   0.821   1.223   4.155
 2983SOL    HW2 9849   0.832   1.374   4.094
 2984SOL     OW 9850   5.186   5.469   1.846
 2984SOL    HW1 9851   5.119   5.450   1.773
 2984SOL    HW2 9852   5.171   5.406   1.922
 2985SOL     OW 9853   1.657   2.218   5.598
 2985SOL    HW1 9854   1.659   2.162   5.681
 2985SOL    HW2 9855   1.746   2.214   5.553
 2986SOL     OW 9856   2.330   4.069   6.471
 2986SOL    HW1 9857   2.417   4.023   6.454
 2986SOL    HW2 9858   2.303   4.054   6.566
 2987SOL     OW 9859   5.760   1.139   3.775
 2987SOL    HW1 9860   5.670   1.145   3.819
 2987SOL    HW2 9861   5.792   1.045   3.777
 2988SOL     OW 9862   0.639   6.565   2.701
 2988SOL    HW1 9863   0.663   6.662   2.697
 2988SOL    HW2 9864   0.551   6.555   2.748
 2989SOL     OW 9865   7.002   6.179   0.514
 2989SOL    HW1 9866   6.992   6.146   0.608
 2989SOL    HW2 9867   0.010   6.103   0.455
 2990SOL     OW 9868   4.197   1.733   4.599
 2990SOL    HW1 9869   4.224   1.643   4.634
 2990SOL    HW2 9870   4.148   1.722   4.512
 2991SOL     OW 9871   6.861   4.064   6.206
 2991SOL    HW1 9872   6.792   4.084   6.276
 2991SOL    HW2 9873   6.815   4.048   6.118
 2992SOL     OW 9874   1.918   5.005   5.938
 2992SOL    HW1 9875   1.834   5.002   5.885
 2992SOL    HW2 9876   1.910   5.074   6.010
 2993SOL     OW 9877   0.528   5.034   1.337
 2993SOL    HW1 9878   0.590   4.986   1.400
 2993SOL    HW2 9879   0.473   5.100   1.388
 2994SOL     OW 9880   3.759   6.845   0.179
 2994SOL    HW1 9881   3.676   6.900   0.169
 2994SOL    HW2 9882   3.781   6.836   0.276
 2995SOL     OW 9883   2.039   3.595   6.766
 2995SOL    HW1 9884   1.966   3.640   6.713
 2995SOL    HW2 9885   2.035   3.496   6.751
 2996SOL     OW 9886   1.877   6.917   4.205
 2996SOL    HW1 9887   1.903   6.821   4.215
 2996SOL    HW2 9888   1.938   6.961   4.139
 2997SOL     OW 9889   4.909   0.638   2.296
 2997SOL    HW1 9890   4.841   0.696   2.340
 2997SOL    HW2 9891   4.925   0.670   2.202
 2998SOL     OW 9892   5.263   0.150   4.551
 2998SOL    HW1 9893   5.346   0.204   4.563
 2998SOL    HW2 9894   5.247   0.134   4.454
 2999SOL     OW 9895   3.462   4.922   3.966
 2999SOL    HW1 9896   3.400   4.961   4.035
 2999SOL    HW2 9897   3.512   4.845   4.004
 3000SOL     OW 9898   2.203   4.025   6.939
 3000SOL    HW1 9899   2.269   3.965   6.984
 3000SOL    HW2 9900   2.110   3.997   6.965
 3001SOL     OW 9901   5.827   5.768   6.645
 3001SOL    HW1 9902   5.793   5.674   6.649
 3001SOL    HW2 9903   5.927   5.767   6.638
 3002SOL     OW 9904   4.319   7.016   5.785
 3002SOL    HW1 9905   4.222   0.004   5.761
 3002SOL    HW2 9906   4.353   0.087   5.813
 3003SOL     OW 9907   2.073   0.185   6.837
 3003SOL    HW1 9908   1.990   0.208   6.787
 3003SOL    HW2 9909   2.095   0.088   6.821
 3004SOL     OW 9910   1.391   5.232   3.362
 3004SOL    HW1 9911   1.430   5.145   3.333
 3004SOL    HW2 9912   1.455   5.306   3.343
 3005SOL     OW 9913   3.143   2.263   6.928
 3005SOL    HW1 9914   3.066   2.322   6.907
 3005SOL    HW2 9915   3.139   2.181   6.871
 3006SOL     OW 9916   4.851   2.381   6.515
 3006SOL    HW1 9917   4.792   2.454   6.549
 3006SOL    HW2 9918   4.794   2.301   6.492
 3007SOL     OW 9919   5.679   5.190   1.425
 3007SOL    HW1 9920   5.726   5.239   1.352
 3007SOL    HW2 9921   5.630   5.112   1.387
 3008SOL     OW 9922   3.410   0.287   6.284
 3008SOL    HW1 9923   3.378   0.292   6.378
 3008SOL    HW2 9924   3.418   0.379   6.246
 3009SOL     OW 9925   0.722   0.452   3.273
 3009SOL    HW1 9926   0.702   0.471   3.177
 3009SOL    HW2 9927   0.801   0.390   3.279
 3010SOL     OW 9928   3.030   6.313   3.935
 3010SOL    HW1 9929   3.127   6.321   3.909
 3010SOL    HW2 9930   2.974   6.308   3.853
 3011SOL     OW 9931   5.550   1.577   0.974
 3011SOL    HW1 9932   5.553   1.579   0.874
 3011SOL    HW2 9933   5.587   1.490   1.006
 3012SOL     OW 9934   0.625   3.574   4.968
 3012SOL    HW1 9935   0.612   3.595   5.064
 3012SOL    HW2 9936   0.720   3.595   4.942
 3013SOL     OW 9937   5.565   5.590   4.735
 3013SOL    HW1 9938   5.504   5.518   4.767
 3013SOL    HW2 9939   5.644   5.548   4.690
 3014SOL     OW 9940   5.001   3.301   4.570
 3014SOL    HW1 9941   5.061   3.380   4.551
 3014SOL    HW2 9942   4.938   3.325   4.643
 3015SOL     OW 9943   2.455   2.268   0.351
 3015SOL    HW1 9944   2.536   2.312   0.389
 3015SOL    HW2 9945   2.427   2.193   0.412
 3016SOL     OW 9946   2.820   5.682   3.819
 3016SOL    HW1 9947   2.862   5.733   3.744
 3016SOL    HW2 9948   2.806   5.744   3.897
 3017SOL     OW 9949   0.952   5.310   1.735
 3017SOL    HW1 9950   0.930   5.277   1.643
 3017SOL    HW2 9951   0.997   5.237   1.786
 3018SOL     OW 9952   2.185   6.738   5.770
 3018SOL    HW1 9953   2.094   6.725   5.808
 3018SOL    HW2 9954   2.229   6.648   5.758
 3019SOL     OW 9955   1.598   6.846   0.240
 3019SOL    HW1 9956   1.579   6.762   0.190
 3019SOL    HW2 9957   1.689   6.840   0.281
 3020SOL     OW 9958   4.134   3.498   1.940
 3020SOL    HW1 9959   4.161   3.402   1.945
 3020SOL    HW2 9960   4.160   3.536   1.851
 3021SOL     OW 9961   3.363   0.272   0.036
 3021SOL    HW1 9962   3.449   0.305   7.016
 3021SOL    HW2 9963   3.286   0.301   6.997
 3022SOL     OW 9964   3.884   4.848   4.436
 3022SOL    HW1 9965   3.792   4.886   4.428
 3022SOL    HW2 9966   3.900   4.820   4.531
 3023SOL     OW 9967   4.748   0.330   2.598
 3023SOL    HW1 9968   4.837   0.291   2.571
 3023SOL    HW2 9969   4.714   0.388   2.524
 3024SOL     OW 9970   4.455   6.376   5.739
 3024SOL    HW1 9971   4.487   6.298   5.685
 3024SOL    HW2 9972   4.427   6.450   5.678
 3025SOL     OW 9973   3.737   1.391   0.237
 3025SOL    HW1 9974   3.733   1.489   0.215
 3025SOL    HW2 9975   3.791   1.344   0.167
 3026SOL     OW 9976   1.571   1.586   0.701
 3026SOL    HW1 9977   1.496   1.638   0.659
 3026SOL    HW2 9978   1.636   1.558   0.631
 3027SOL     OW 9979   4.152   0.568   2.356
 3027SOL    HW1 9980   4.139   0.564   2.257
 3027SOL    HW2 9981   4.247   0.592   2.377
 3028SOL     OW 9982   1.835   4.017   5.736
 3028SOL    HW1 9983   1.779   4.034   5.655
 3028SOL    HW2 9984   1.806   4.079   5.809
 3029SOL     OW 9985   0.318   3.587   4.448
 3029SOL    HW1 9986   0.311   3.577   4.547
 3029SOL    HW2 9987   0.360   3.505   4.408
 3030SOL     OW 9988   0.990   2.460   6.008
 3030SOL    HW1 9989   0.948   2.449   5.918
 3030SOL    HW2 9990   1.020   2.555   6.019
 3031SOL     OW 9991   0.719   2.886   0.820
 3031SOL    HW1 9992   0.806   2.917   0.858
 3031SOL    HW2 9993   0.677   2.961   0.769
 3032SOL     OW 9994   4.404   6.401   1.548
 3032SOL    HW1 9995   4.360   6.364   1.630
 3032SOL    HW2 9996   4.486   6.348   1.527
 3033SOL     OW 9997   0.054   2.278   1.791
 3033SOL    HW1 9998   7.006   2.286   1.864
 3033SOL    HW2 9999   0.142   2.314   1.822
 3034SOL     OW10000   1.997   5.751   3.625
 3034SOL    HW110001   2.035   5.746   3.717
 3034SOL    HW210002   1.899   5.733   3.627
 3035SOL     OW10003   0.322   3.332   0.234
 3035SOL    HW110004   0.286   3.238   0.238
 3035SOL    HW210005   0.413   3.334   0.274
 3036SOL     OW10006   1.708   2.557   6.408
 3036SOL    HW110007   1.669   2.647   6.427
 3036SOL    HW210008   1.744   2.518   6.493
 3037SOL     OW10009   1.283   6.078   4.639
 3037SOL    HW110010   1.380   6.086   4.613
 3037SOL    HW210011   1.249   6.167   4.667
 3038SOL     OW10012   5.625   5.852   6.466
 3038SOL    HW110013   5.699   5.838   6.532
 3038SOL    HW210014   5.549   5.899   6.510
 3039SOL     OW10015   0.093   4.245   1.491
 3039SOL    HW110016   0.177   4.251   1.438
 3039SOL    HW210017   0.014   4.251   1.429
 3040SOL     OW10018   4.219   3.269   6.184
 3040SOL    HW110019   4.143   3.300   6.126
 3040SOL    HW210020   4.212   3.170   6.198
 3041SOL     OW10021   2.212   3.026   4.890
 3041SOL    HW110022   2.296   2.996   4.935
 3041SOL    HW210023   2.217   3.004   4.793
 3042SOL     OW10024   5.041   6.488   2.117
 3042SOL    HW110025   5.124   6.446   2.152
 3042SOL    HW210026   5.050   6.502   2.018
 3043SOL     OW10027   0.821   5.818   1.770
 3043SOL    HW110028   0.820   5.738   1.709
 3043SOL    HW210029   0.834   5.788   1.864
 3044SOL     OW10030   3.214   4.259   6.104
 3044SOL    HW110031   3.207   4.215   6.193
 3044SOL    HW210032   3.302   4.238   6.062
 3045SOL     OW10033   4.789   1.265   3.150
 3045SOL    HW110034   4.815   1.241   3.243
 3045SOL    HW210035   4.696   1.233   3.132
 3046SOL     OW10036   2.543   1.915   6.512
 3046SOL    HW110037   2.524   1.817   6.524
 3046SOL    HW210038   2.468   1.957   6.461
 3047SOL     OW10039   4.899   0.036   2.313
 3047SOL    HW110040   4.967   6.995   2.356
 3047SOL    HW210041   4.811   0.025   2.359
 3048SOL     OW10042   3.891   2.324   1.751
 3048SOL    HW110043   3.929   2.413   1.729
 3048SOL    HW210044   3.797   2.334   1.784
 3049SOL     OW10045   0.874   6.366   1.612
 3049SOL    HW110046   0.954   6.307   1.622
 3049SOL    HW210047   0.898   6.444   1.554
 3050SOL     OW10048   3.293   0.785   2.614
 3050SOL    HW110049   3.345   0.806   2.530
 3050SOL    HW210050   3.351   0.733   2.677
 3051SOL     OW10051   1.730   4.400   6.854
 3051SOL    HW110052   1.709   4.302   6.853
 3051SOL    HW210053   1.753   4.428   6.947
 3052SOL     OW10054   5.325   0.029   2.237
 3052SOL    HW110055   5.271   0.024   2.322
 3052SOL    HW210056   5.310   0.118   2.194
 3053SOL     OW10057   0.155   1.482   6.837
 3053SOL    HW110058   0.165   1.545   6.914
 3053SOL    HW210059   0.245   1.451   6.806
 3054SOL     OW10060   6.924   2.411   1.342
 3054SOL    HW110061   6.912   2.390   1.439
 3054SOL    HW210062   6.983   2.341   1.300
 3055SOL     OW10063   5.256   6.741   3.958
 3055SOL    HW110064   5.243   6.766   4.053
 3055SOL    HW210065   5.349   6.766   3.929
 3056SOL     OW10066   6.250   1.568   5.489
 3056SOL    HW110067   6.312   1.501   5.449
 3056SOL    HW210068   6.227   1.540   5.582
 3057SOL     OW10069   4.166   5.781   3.310
 3057SOL    HW110070   4.259   5.800   3.278
 3057SOL    HW210071   4.155   5.815   3.404
 3058SOL     OW10072   6.892   5.503   0.861
 3058SOL    HW110073   6.825   5.449   0.810
 3058SOL    HW210074   6.863   5.599   0.861
 3059SOL     OW10075   2.644   2.238   4.142
 3059SOL    HW110076   2.600   2.314   4.191
 3059SOL    HW210077   2.742   2.238   4.161
 3060SOL     OW10078   0.763   5.917   0.378
 3060SOL    HW110079   0.840   5.859   0.351
 3060SOL    HW210080   0.738   5.898   0.472
 3061SOL     OW10081   5.509   0.464   5.624
 3061SOL    HW110082   5.491   0.560   5.600
 3061SOL    HW210083   5.427   0.425   5.666
 3062SOL     OW10084   1.404   6.709   6.779
 3062SOL    HW110085   1.442   6.619   6.800
 3062SOL    HW210086   1.398   6.764   6.863
 3063SOL     OW10087   2.878   5.284   1.626
 3063SOL    HW110088   2.815   5.222   1.581
 3063SOL    HW210089   2.837   5.319   1.711
 3064SOL     OW10090   5.381   3.809   3.848
 3064SOL    HW110091   5.391   3.888   3.908
 3064SOL    HW210092   5.471   3.768   3.832
 3065SOL     OW10093   2.046   1.002   0.051
 3065SOL    HW110094   2.124   1.006   7.007
 3065SOL    HW210095   2.047   0.915   0.100
 3066SOL     OW10096   4.799   5.254   0.882
 3066SOL    HW110097   4.720   5.220   0.829
 3066SOL    HW210098   4.803   5.205   0.970
 3067SOL     OW10099   3.790   2.041   4.533
 3067SOL    HW110100   3.705   2.070   4.576
 3067SOL    HW210101   3.863   2.038   4.601
 3068SOL     OW10102   5.718   6.619   1.210
 3068SOL    HW110103   5.672   6.563   1.141
 3068SOL    HW210104   5.787   6.564   1.257
 3069SOL     OW10105   6.863   6.208   2.258
 3069SOL    HW110106   6.935   6.260   2.213
 3069SOL    HW210107   6.774   6.229   2.216
 3070SOL     OW10108   1.048   1.215   2.104
 3070SOL    HW110109   0.976   1.271   2.145
 3070SOL    HW210110   1.044   1.122   2.143
 3071SOL     OW10111   6.121   6.020   3.167
 3071SOL    HW110112   6.095   6.114   3.190
 3071SOL    HW210113   6.087   5.999   3.075
 3072SOL     OW10114   1.113   6.887   0.221
 3072SOL    HW110115   1.109   6.970   0.277
 3072SOL    HW210116   1.088   6.909   0.127
 3073SOL     OW10117   7.011   3.411   5.111
 3073SOL    HW110118   6.934   3.383   5.053
 3073SOL    HW210119   6.981   3.416   5.206
 3074SOL     OW10120   5.134   3.584   1.053
 3074SOL    HW110121   5.161   3.679   1.038
 3074SOL    HW210122   5.177   3.526   0.984
 3075SOL     OW10123   2.349   6.021   1.682
 3075SOL    HW110124   2.337   6.031   1.780
 3075SOL    HW210125   2.400   6.099   1.646
 3076SOL     OW10126   0.084   0.496   4.282
 3076SOL    HW110127   0.059   0.592   4.293
 3076SOL    HW210128   0.182   0.489   4.264
 3077SOL     OW10129   4.693   5.349   2.587
 3077SOL    HW110130   4.729   5.371   2.678
 3077SOL    HW210131   4.603   5.391   2.575
 3078SOL     OW10132   0.908   3.239   1.841
 3078SOL    HW110133   0.890   3.318   1.899
 3078SOL    HW210134   0.988   3.189   1.876
 3079SOL     OW10135   2.350   1.821   4.620
 3079SOL    HW110136   2.392   1.906   4.589
 3079SOL    HW210137   2.360   1.750   4.550
 3080SOL     OW10138   4.926   3.973   3.516
 3080SOL    HW110139   4.966   3.963   3.425
 3080SOL    HW210140   4.997   3.960   3.586
 3081SOL     OW10141   0.571   2.526   5.933
 3081SOL    HW110142   0.609   2.586   5.863
 3081SOL    HW210143   0.642   2.504   6.000
 3082SOL     OW10144   3.400   6.979   3.983
 3082SOL    HW110145   3.497   6.957   3.980
 3082SOL    HW210146   3.362   6.953   4.072
 3083SOL     OW10147   4.624   6.539   3.553
 3083SOL    HW110148   4.555   6.493   3.496
 3083SOL    HW210149   4.617   6.504   3.646
 3084SOL     OW10150   5.126   4.214   4.553
 3084SOL    HW110151   5.173   4.173   4.475
 3084SOL    HW210152   5.089   4.303   4.526
 3085SOL     OW10153   0.343   4.707   1.372
 3085SOL    HW110154   0.437   4.701   1.407
 3085SOL    HW210155   0.324   4.801   1.344
 3086SOL     OW10156   3.898   2.132   2.226
 3086SOL    HW110157   3.908   2.042   2.183
 3086SOL    HW210158   3.833   2.187   2.173
 3087SOL     OW10159   1.297   5.125   3.755
 3087SOL    HW110160   1.226   5.177   3.709
 3087SOL    HW210161   1.370   5.186   3.784
 3088SOL     OW10162   2.618   4.934   5.935
 3088SOL    HW110163   2.670   4.896   5.859
 3088SOL    HW210164   2.586   4.861   5.995
 3089SOL     OW10165   1.193   3.378   0.338
 3089SOL    HW110166   1.253   3.347   0.264
 3089SOL    HW210167   1.230   3.348   0.425
 3090SOL     OW10168   2.004   2.040   1.890
 3090SOL    HW110169   1.955   1.984   1.823
 3090SOL    HW210170   1.963   2.131   1.893
 3091SOL     OW10171   1.140   6.956   0.851
 3091SOL    HW110172   1.073   6.912   0.791
 3091SOL    HW210173   1.126   6.926   0.945
 3092SOL     OW10174   5.033   6.567   0.663
 3092SOL    HW110175   4.950   6.539   0.614
 3092SOL    HW210176   5.104   6.498   0.650
 3093SOL     OW10177   5.089   6.071   6.112
 3093SOL    HW110178   5.112   5.983   6.153
 3093SOL    HW210179   4.991   6.087   6.122
 3094SOL     OW10180   2.343   6.286   4.361
 3094SOL    HW110181   2.331   6.356   4.432
 3094SOL    HW210182   2.293   6.204   4.386
 3095SOL     OW10183   2.011   5.557   4.658
 3095SOL    HW110184   2.049   5.540   4.749
 3095SOL    HW210185   2.058   5.634   4.616
 3096SOL     OW10186   1.439   6.603   4.872
 3096SOL    HW110187   1.495   6.656   4.809
 3096SOL    HW210188   1.380   6.664   4.924
 3097SOL     OW10189   0.042   2.640   0.687
 3097SOL    HW110190   0.116   2.661   0.751
 3097SOL    HW210191   0.002   2.725   0.653
 3098SOL     OW10192   2.880   3.360   0.691
 3098SOL    HW110193   2.832   3.426   0.633
 3098SOL    HW210194   2.813   3.302   0.738
 3099SOL     OW10195   0.529   6.467   3.441
 3099SOL    HW110196   0.615   6.480   3.489
 3099SOL    HW210197   0.452   6.481   3.504
 3100SOL     OW10198   6.591   6.868   4.948
 3100SOL    HW110199   6.527   6.847   5.022
 3100SOL    HW210200   6.617   6.784   4.902
 3101SOL     OW10201   4.861   6.290   5.807
 3101SOL    HW110202   4.843   6.321   5.714
 3101SOL    HW210203   4.775   6.288   5.859
 3102SOL     OW10204   0.186   5.043   2.705
 3102SOL    HW110205   0.156   4.978   2.635
 3102SOL    HW210206   0.228   4.992   2.781
 3103SOL     OW10207   3.735   0.807   1.770
 3103SOL    HW110208   3.669   0.732   1.764
 3103SOL    HW210209   3.782   0.803   1.858
 3104SOL     OW10210   5.006   6.433   5.116
 3104SOL    HW110211   4.944   6.511   5.126
 3104SOL    HW210212   4.963   6.351   5.153
 3105SOL     OW10213   6.177   4.470   1.589
 3105SOL    HW110214   6.272   4.451   1.564
 3105SOL    HW210215   6.129   4.512   1.512
 3106SOL     OW10216   5.653   1.432   2.579
 3106SOL    HW110217   5.621   1.379   2.657
 3106SOL    HW210218   5.715   1.503   2.610
 3107SOL     OW10219   4.080   0.862   4.245
 3107SOL    HW110220   4.000   0.909   4.208
 3107SOL    HW210221   4.144   0.841   4.171
 3108SOL     OW10222   1.379   0.310   4.630
 3108SOL    HW110223   1.353   0.253   4.552
 3108SOL    HW210224   1.353   0.405   4.613
 3109SOL     OW10225   5.558   6.433   1.969
 3109SOL    HW110226   5.488   6.505   1.963
 3109SOL    HW210227   5.613   6.447   2.051
 3110SOL     OW10228   1.838   1.687   3.750
 3110SOL    HW110229   1.802   1.601   3.787
 3110SOL    HW210230   1.776   1.722   3.680
 3111SOL     OW10231   6.183   6.032   4.025
 3111SOL    HW110232   6.274   5.993   4.044
 3111SOL    HW210233   6.128   6.028   4.108
 3112SOL     OW10234   5.210   2.739   6.249
 3112SOL    HW110235   5.231   2.642   6.261
 3112SOL    HW210236   5.141   2.767   6.317
 3113SOL     OW10237   1.891   6.254   3.965
 3113SOL    HW110238   1.981   6.215   3.948
 3113SOL    HW210239   1.821   6.192   3.929
 3114SOL     OW10240   3.927   1.941   6.960
 3114SOL    HW110241   3.874   1.937   6.875
 3114SOL    HW210242   4.012   1.990   6.943
 3115SOL     OW10243   4.220   3.263   6.574
 3115SOL    HW110244   4.299   3.278   6.514
 3115SOL    HW210245   4.141   3.309   6.535
 3116SOL     OW10246   0.303   3.709   6.960
 3116SOL    HW110247   0.205   3.708   6.980
 3116SOL    HW210248   0.317   3.701   6.861
 3117SOL     OW10249   4.298   3.555   5.193
 3117SOL    HW110250   4.355   3.627   5.153
 3117SOL    HW210251   4.277   3.487   5.123
 3118SOL     OW10252   0.421   4.380   0.681
 3118SOL    HW110253   0.409   4.479   0.687
 3118SOL    HW210254   0.517   4.356   0.699
 3119SOL     OW10255   2.029   3.290   5.435
 3119SOL    HW110256   2.094   3.285   5.511
 3119SOL    HW210257   2.062   3.354   5.366
 3120SOL     OW10258   2.981   6.728   3.908
 3120SOL    HW110259   2.985   6.826   3.891
 3120SOL    HW210260   2.885   6.698   3.909
 3121SOL     OW10261   6.952   1.585   2.603
 3121SOL    HW110262   6.984   1.675   2.632
 3121SOL    HW210263   0.005   1.517   2.617
 3122SOL     OW10264   2.997   6.112   5.744
 3122SOL    HW110265   3.057   6.039   5.777
 3122SOL    HW210266   2.952   6.082   5.660
 3123SOL     OW10267   3.679   1.138   4.045
 3123SOL    HW110268   3.584   1.156   4.073
 3123SOL    HW210269   3.688   1.042   4.020
 3124SOL     OW10270   4.305   6.505   4.928
 3124SOL    HW110271   4.319   6.596   4.889
 3124SOL    HW210272   4.256   6.448   4.861
 3125SOL     OW10273   6.791   2.185   5.170
 3125SOL    HW110274   6.710   2.156   5.221
 3125SOL    HW210275   6.829   2.268   5.211
 3126SOL     OW10276   4.568   4.653   6.393
 3126SOL    HW110277   4.621   4.578   6.352
 3126SOL    HW210278   4.625   4.734   6.401
 3127SOL     OW10279   0.781   2.932   3.845
 3127SOL    HW110280   0.843   2.909   3.770
 3127SOL    HW210281   0.690   2.952   3.808
 3128SOL     OW10282   2.026   0.509   6.614
 3128SOL    HW110283   2.078   0.536   6.695
 3128SOL    HW210284   1.942   0.564   6.608
 3129SOL     OW10285   0.458   4.320   6.523
 3129SOL    HW110286   0.427   4.257   6.452
 3129SOL    HW210287   0.558   4.319   6.528
 3130SOL     OW10288   1.465   4.436   1.889
 3130SOL    HW110289   1.509   4.488   1.962
 3130SOL    HW210290   1.448   4.342   1.920
 3131SOL     OW10291   6.757   2.567   1.752
 3131SOL    HW110292   6.779   2.664   1.767
 3131SOL    HW210293   6.661   2.551   1.775
 3132SOL     OW10294   4.126   5.141   5.795
 3132SOL    HW110295   4.222   5.168   5.806
 3132SOL    HW210296   4.105   5.066   5.857
 3133SOL     OW10297   3.115   2.161   3.643
 3133SOL    HW110298   3.133   2.174   3.545
 3133SOL    HW210299   3.202   2.148   3.690
 3134SOL     OW10300   4.632   4.254   1.411
 3134SOL    HW110301   4.532   4.254   1.415
 3134SOL    HW210302   4.668   4.226   1.499
 3135SOL     OW10303   4.991   0.783   5.279
 3135SOL    HW110304   4.943   0.821   5.359
 3135SOL    HW210305   5.053   0.711   5.309
 3136SOL     OW10306   5.193   0.807   0.241
 3136SOL    HW110307   5.107   0.783   0.286
 3136SOL    HW210308   5.185   0.898   0.200
 3137SOL     OW10309   6.403   0.439   3.372
 3137SOL    HW110310   6.349   0.424   3.290
 3137SOL    HW210311   6.473   0.368   3.380
 3138SOL     OW10312   6.486   2.511   4.085
 3138SOL    HW110313   6.463   2.527   4.180
 3138SOL    HW210314   6.546   2.431   4.078
 3139SOL     OW10315   4.339   0.097   0.615
 3139SOL    HW110316   4.391   0.012   0.611
 3139SOL    HW210317   4.385   0.168   0.561
 3140SOL     OW10318   5.605   6.960   6.894
 3140SOL    HW110319   5.568   0.024   6.852
 3140SOL    HW210320   5.678   6.923   6.836
 3141SOL     OW10321   0.451   5.643   6.169
 3141SOL    HW110322   0.494   5.720   6.123
 3141SOL    HW210323   0.435   5.666   6.265
 3142SOL     OW10324   4.826   6.234   1.696
 3142SOL    HW110325   4.817   6.235   1.796
 3142SOL    HW210326   4.737   6.254   1.655
 3143SOL     OW10327   0.034   2.345   0.063
 3143SOL    HW110328   0.045   2.260   0.013
 3143SOL    HW210329   6.956   2.369   0.067
 3144SOL     OW10330   3.430   3.877   1.237
 3144SOL    HW110331   3.478   3.849   1.320
 3144SOL    HW210332   3.331   3.873   1.252
 3145SOL     OW10333   1.989   4.913   2.449
 3145SOL    HW110334   2.046   4.976   2.396
 3145SOL    HW210335   1.916   4.964   2.494
 3146SOL     OW10336   1.282   6.895   3.131
 3146SOL    HW110337   1.349   6.893   3.057
 3146SOL    HW210338   1.254   6.989   3.149
 3147SOL     OW10339   2.993   5.196   7.003
 3147SOL    HW110340   3.009   5.293   0.003
 3147SOL    HW210341   2.990   5.182   6.904
 3148SOL     OW10342   5.259   5.782   4.831
 3148SOL    HW110343   5.349   5.822   4.817
 3148SOL    HW210344   5.238   5.720   4.756
 3149SOL     OW10345   3.055   0.426   5.288
 3149SOL    HW110346   3.085   0.502   5.230
 3149SOL    HW210347   2.988   0.460   5.354
 3150SOL     OW10348   6.863   5.691   4.339
 3150SOL    HW110349   6.895   5.760   4.274
 3150SOL    HW210350   6.937   5.668   4.402
 3151SOL     OW10351   4.236   1.169   6.102
 3151SOL    HW110352   4.242   1.078   6.062
 3151SOL    HW210353   4.249   1.164   6.201
 3152SOL     OW10354   1.285   5.310   0.908
 3152SOL    HW110355   1.225   5.233   0.885
 3152SOL    HW210356   1.377   5.292   0.876
 3153SOL     OW10357   6.112   4.397   1.871
 3153SOL    HW110358   6.200   4.364   1.906
 3153SOL    HW210359   6.127   4.444   1.784
 3154SOL     OW10360   6.467   1.724   0.771
 3154SOL    HW110361   6.447   1.628   0.750
 3154SOL    HW210362   6.385   1.779   0.758
 3155SOL     OW10363   6.644   5.362   1.230
 3155SOL    HW110364   6.613   5.369   1.135
 3155SOL    HW210365   6.699   5.442   1.253
 3156SOL     OW10366   2.885   3.439   3.550
 3156SOL    HW110367   2.911   3.535   3.542
 3156SOL    HW210368   2.794   3.425   3.510
 3157SOL     OW10369   1.893   2.830   4.921
 3157SOL    HW110370   1.897   2.927   4.895
 3157SOL    HW210371   1.957   2.813   4.995
 3158SOL     OW10372   4.296   0.080   2.021
 3158SOL    HW110373   4.198   0.065   2.036
 3158SOL    HW210374   4.318   0.176   2.041
 3159SOL     OW10375   5.570   1.012   0.616
 3159SOL    HW110376   5.605   0.966   0.534
 3159SOL    HW210377   5.599   0.961   0.698
 3160SOL     OW10378   6.950   6.242   5.276
 3160SOL    HW110379   6.891   6.266   5.354
 3160SOL    HW210380   7.017   6.315   5.261
 3161SOL     OW10381   1.727   1.265   3.372
 3161SOL    HW110382   1.642   1.216   3.352
 3161SOL    HW210383   1.804   1.217   3.330
 3162SOL     OW10384   0.970   6.249   0.859
 3162SOL    HW110385   1.004   6.173   0.914
 3162SOL    HW210386   1.030   6.264   0.781
 3163SOL     OW10387   4.083   2.209   6.668
 3163SOL    HW110388   4.104   2.300   6.630
 3163SOL    HW210389   4.016   2.218   6.741
 3164SOL     OW10390   4.265   4.165   1.469
 3164SOL    HW110391   4.177   4.121   1.454
 3164SOL    HW210392   4.314   4.118   1.542
 3165SOL     OW10393   1.412   5.742   1.813
 3165SOL    HW110394   1.383   5.699   1.727
 3165SOL    HW210395   1.427   5.840   1.798
 3166SOL     OW10396   4.620   0.995   6.569
 3166SOL    HW110397   4.616   1.054   6.650
 3166SOL    HW210398   4.532   0.950   6.557
 3167SOL     OW10399   6.892   4.300   1.631
 3167SOL    HW110400   6.986   4.300   1.596
 3167SOL    HW210401   6.888   4.249   1.717
 3168SOL     OW10402   5.376   2.946   0.203
 3168SOL    HW110403   5.417   2.939   0.112
 3168SOL    HW210404   5.276   2.947   0.194
 3169SOL     OW10405   1.568   3.215   5.459
 3169SOL    HW110406   1.607   3.256   5.376
 3169SOL    HW210407   1.638   3.160   5.505
 3170SOL     OW10408   4.659   0.857   1.104
 3170SOL    HW110409   4.722   0.783   1.129
 3170SOL    HW210410   4.595   0.872   1.180
 3171SOL     OW10411   0.198   6.428   1.274
 3171SOL    HW110412   0.210   6.397   1.368
 3171SOL    HW210413   0.274   6.487   1.248
 3172SOL     OW10414   0.323   5.102   5.635
 3172SOL    HW110415   0.413   5.077   5.600
 3172SOL    HW210416   0.297   5.191   5.599
 3173SOL     OW10417   3.157   2.023   1.113
 3173SOL    HW110418   3.080   1.997   1.055
 3173SOL    HW210419   3.145   1.982   1.204
 3174SOL     OW10420   2.777   2.668   6.687
 3174SOL    HW110421   2.699   2.670   6.624
 3174SOL    HW210422   2.862   2.676   6.635
 3175SOL     OW10423   0.199   6.672   0.405
 3175SOL    HW110424   0.237   6.616   0.331
 3175SOL    HW210425   0.257   6.662   0.486
 3176SOL     OW10426   2.034   5.045   4.703
 3176SOL    HW110427   2.021   5.142   4.681
 3176SOL    HW210428   2.125   5.017   4.673
 3177SOL     OW10429   4.797   4.792   5.478
 3177SOL    HW110430   4.713   4.846   5.470
 3177SOL    HW210431   4.777   4.696   5.459
 3178SOL     OW10432   6.855   2.828   1.005
 3178SOL    HW110433   6.846   2.893   1.079
 3178SOL    HW210434   6.926   2.761   1.028
 3179SOL     OW10435   2.304   2.742   2.291
 3179SOL    HW110436   2.362   2.718   2.369
 3179SOL    HW210437   2.329   2.686   2.212
 3180SOL     OW10438   4.800   0.320   6.870
 3180SOL    HW110439   4.861   0.323   6.791
 3180SOL    HW210440   4.827   0.245   6.930
 3181SOL     OW10441   0.976   1.135   3.144
 3181SOL    HW110442   0.981   1.110   3.241
 3181SOL    HW210443   0.903   1.201   3.131
 3182SOL     OW10444   1.551   1.091   5.630
 3182SOL    HW110445   1.452   1.085   5.638
 3182SOL    HW210446   1.590   0.999   5.620
 3183SOL     OW10447   5.124   3.824   1.464
 3183SOL    HW110448   5.175   3.760   1.407
 3183SOL    HW210449   5.072   3.774   1.533
 3184SOL     OW10450   2.284   2.360   2.746
 3184SOL    HW110451   2.225   2.316   2.813
 3184SOL    HW210452   2.366   2.394   2.790
 3185SOL     OW10453   5.887   0.906   6.653
 3185SOL    HW110454   5.825   0.917   6.575
 3185SOL    HW210455   5.966   0.851   6.625
 3186SOL     OW10456   3.623   1.566   2.903
 3186SOL    HW110457   3.656   1.655   2.872
 3186SOL    HW210458   3.688   1.495   2.877
 3187SOL     OW10459   4.608   4.270   0.102
 3187SOL    HW110460   4.642   4.182   0.135
 3187SOL    HW210461   4.509   4.273   0.113
 3188SOL     OW10462   3.555   6.204   4.270
 3188SOL    HW110463   3.476   6.180   4.213
 3188SOL    HW210464   3.582   6.123   4.323
 3189SOL     OW10465   2.485   0.872   2.884
 3189SOL    HW110466   2.501   0.864   2.785
 3189SOL    HW210467   2.472   0.781   2.922
 3190SOL     OW10468   0.635   6.383   1.486
 3190SOL    HW110469   0.722   6.369   1.534
 3190SOL    HW210470   0.563   6.332   1.533
 3191SOL     OW10471   3.649   6.781   0.805
 3191SOL    HW110472   3.643   6.854   0.873
 3191SOL    HW210473   3.745   6.760   0.787
 3192SOL     OW10474   0.323   2.394   1.154
 3192SOL    HW110475   0.277   2.438   1.232
 3192SOL    HW210476   0.365   2.308   1.184
 3193SOL     OW10477   4.389   1.763   5.731
 3193SOL    HW110478   4.314   1.826   5.751
 3193SOL    HW210479   4.374   1.676   5.778
 3194SOL     OW10480   0.767   2.728   5.836
 3194SOL    HW110481   0.833   2.728   5.911
 3194SOL    HW210482   0.814   2.747   5.750
 3195SOL     OW10483   1.961   2.767   2.765
 3195SOL    HW110484   2.029   2.719   2.709
 3195SOL    HW210485   1.870   2.736   2.740
 3196SOL     OW10486   0.190   0.601   4.890
 3196SOL    HW110487   0.222   0.525   4.834
 3196SOL    HW210488   0.141   0.566   4.970
 3197SOL     OW10489   1.744   5.668   3.600
 3197SOL    HW110490   1.706   5.604   3.668
 3197SOL    HW210491   1.675   5.687   3.531
 3198SOL     OW10492   6.266   2.528   6.337
 3198SOL    HW110493   6.211   2.507   6.418
 3198SOL    HW210494   6.293   2.442   6.292
 3199SOL     OW10495   4.342   2.764   1.581
 3199SOL    HW110496   4.340   2.724   1.489
 3199SOL    HW210497   4.276   2.840   1.585
 3200SOL     OW10498   7.013   1.775   1.599
 3200SOL    HW110499   0.040   1.797   1.685
 3200SOL    HW210500   6.956   1.852   1.571
 3201SOL     OW10501   5.116   4.432   4.783
 3201SOL    HW110502   5.030   4.411   4.830
 3201SOL    HW210503   5.147   4.352   4.733
 3202SOL     OW10504   1.050   4.525   1.945
 3202SOL    HW110505   0.951   4.526   1.952
 3202SOL    HW210506   1.079   4.443   1.895
 3203SOL     OW10507   5.302   1.113   1.077
 3203SOL    HW110508   5.275   1.189   1.136
 3203SOL    HW210509   5.378   1.141   1.019
 3204SOL     OW10510   4.734   5.700   1.718
 3204SOL    HW110511   4.754   5.623   1.779
 3204SOL    HW210512   4.770   5.784   1.758
 3205SOL     OW10513   0.210   4.161   6.698
 3205SOL    HW110514   0.290   4.103   6.683
 3205SOL    HW210515   0.178   4.198   6.611
 3206SOL     OW10516   6.830   6.887   5.797
 3206SOL    HW110517   6.830   6.925   5.890
 3206SOL    HW210518   6.881   6.801   5.796
 3207SOL     OW10519   0.406   1.468   6.749
 3207SOL    HW110520   0.441   1.458   6.656
 3207SOL    HW210521   0.440   1.554   6.787
 3208SOL     OW10522   5.094   6.484   6.239
 3208SOL    HW110523   5.139   6.459   6.153
 3208SOL    HW210524   5.073   6.582   6.239
 3209SOL     OW10525   3.164   5.635   3.426
 3209SOL    HW110526   3.215   5.652   3.511
 3209SOL    HW210527   3.189   5.703   3.358
 3210SOL     OW10528   0.604   3.890   1.890
 3210SOL    HW110529   0.693   3.892   1.846
 3210SOL    HW210530   0.616   3.897   1.989
 3211SOL     OW10531   2.200   3.991   0.637
 3211SOL    HW110532   2.231   4.042   0.557
 3211SOL    HW210533   2.141   4.049   0.693
 3212SOL     OW10534   4.128   1.539   6.342
 3212SOL    HW110535   4.122   1.638   6.328
 3212SOL    HW210536   4.085   1.515   6.429
 3213SOL     OW10537   5.945   4.956   3.185
 3213SOL    HW110538   5.915   4.861   3.182
 3213SOL    HW210539   5.908   5.000   3.267
 3214SOL     OW10540   4.837   5.940   0.639
 3214SOL    HW110541   4.737   5.937   0.649
 3214SOL    HW210542   4.867   5.863   0.584
 3215SOL     OW10543   6.650   3.649   1.089
 3215SOL    HW110544   6.688   3.578   1.030
 3215SOL    HW210545   6.614   3.607   1.173
 3216SOL     OW10546   4.888   5.688   1.992
 3216SOL    HW110547   4.986   5.695   2.012
 3216SOL    HW210548   4.867   5.595   1.963
 3217SOL     OW10549   0.695   5.090   2.403
 3217SOL    HW110550   0.742   5.110   2.489
 3217SOL    HW210551   0.608   5.044   2.424
 3218SOL     OW10552   4.115   6.295   3.133
 3218SOL    HW110553   4.159   6.326   3.049
 3218SOL    HW210554   4.164   6.333   3.212
 3219SOL     OW10555   0.341   0.735   3.305
 3219SOL    HW110556   0.287   0.725   3.222
 3219SOL    HW210557   0.346   0.647   3.352
 3220SOL     OW10558   6.280   5.171   5.989
 3220SOL    HW110559   6.355   5.121   6.033
 3220SOL    HW210560   6.287   5.164   5.890
 3221SOL     OW10561   3.077   6.257   1.995
 3221SOL    HW110562   3.112   6.337   1.946
 3221SOL    HW210563   2.988   6.279   2.036
 3222SOL     OW10564   4.880   1.985   3.494
 3222SOL    HW110565   4.803   2.045   3.517
 3222SOL    HW210566   4.898   1.924   3.571
 3223SOL     OW10567   1.595   5.407   6.608
 3223SOL    HW110568   1.556   5.471   6.542
 3223SOL    HW210569   1.589   5.447   6.700
 3224SOL     OW10570   4.219   4.917   6.106
 3224SOL    HW110571   4.298   4.960   6.063
 3224SOL    HW210572   4.136   4.943   6.057
 3225SOL     OW10573   4.207   2.435   5.506
 3225SOL    HW110574   4.268   2.397   5.576
 3225SOL    HW210575   4.122   2.467   5.549
 3226SOL     OW10576   1.653   1.139   4.771
 3226SOL    HW110577   1.687   1.127   4.865
 3226SOL    HW210578   1.554   1.151   4.773
 3227SOL     OW10579   2.988   2.064   6.536
 3227SOL    HW110580   2.891   2.056   6.555
 3227SOL    HW210581   3.006   2.043   6.440
 3228SOL     OW10582   5.103   3.309   4.130
 3228SOL    HW110583   5.187   3.349   4.093
 3228SOL    HW210584   5.117   3.211   4.146
 3229SOL     OW10585   3.132   1.403   5.834
 3229SOL    HW110586   3.072   1.467   5.880
 3229SOL    HW210587   3.113   1.404   5.736
 3230SOL     OW10588   0.436   2.856   3.986
 3230SOL    HW110589   0.432   2.943   3.938
 3230SOL    HW210590   0.347   2.810   3.980
 3231SOL     OW10591   3.366   5.886   2.250
 3231SOL    HW110592   3.323   5.911   2.163
 3231SOL    HW210593   3.460   5.855   2.234
 3232SOL     OW10594   4.568   5.439   4.317
 3232SOL    HW110595   4.656   5.479   4.291
 3232SOL    HW210596   4.583   5.365   4.382
 3233SOL     OW10597   1.953   3.558   1.232
 3233SOL    HW110598   1.938   3.654   1.255
 3233SOL    HW210599   2.047   3.533   1.255
 3234SOL     OW10600   0.009   2.405   0.560
 3234SOL    HW110601   0.023   2.490   0.610
 3234SOL    HW210602   0.023   2.421   0.462
 3235SOL     OW10603   5.570   5.852   2.057
 3235SOL    HW110604   5.508   5.930   2.058
 3235SOL    HW210605   5.663   5.883   2.041
 3236SOL     OW10606   1.603   3.195   1.981
 3236SOL    HW110607   1.513   3.154   1.995
 3236SOL    HW210608   1.674   3.133   2.012
 3237SOL     OW10609   5.281   0.822   3.576
 3237SOL    HW110610   5.271   0.737   3.523
 3237SOL    HW210611   5.378   0.845   3.583
 3238SOL     OW10612   0.053   5.168   6.959
 3238SOL    HW110613   0.146   5.133   6.969
 3238SOL    HW210614   0.047   5.226   6.877
 3239SOL     OW10615   6.162   1.331   0.583
 3239SOL    HW110616   6.089   1.394   0.559
 3239SOL    HW210617   6.166   1.258   0.515
 3240SOL     OW10618   1.409   6.680   5.208
 3240SOL    HW110619   1.312   6.701   5.195
 3240SOL    HW210620   1.420   6.621   5.288
 3241SOL     OW10621   5.455   1.349   4.306
 3241SOL    HW110622   5.537   1.316   4.258
 3241SOL    HW210623   5.438   1.290   4.385
 3242SOL     OW10624   3.252   4.388   0.728
 3242SOL    HW110625   3.220   4.328   0.654
 3242SOL    HW210626   3.174   4.424   0.778
 3243SOL     OW10627   5.635   5.193   0.470
 3243SOL    HW110628   5.686   5.169   0.553
 3243SOL    HW210629   5.539   5.207   0.492
 3244SOL     OW10630   4.847   5.320   6.605
 3244SOL    HW110631   4.914   5.315   6.678
 3244SOL    HW210632   4.886   5.368   6.527
 3245SOL     OW10633   4.690   2.602   5.591
 3245SOL    HW110634   4.674   2.542   5.669
 3245SOL    HW210635   4.784   2.592   5.559
 3246SOL     OW10636   6.449   0.602   3.118
 3246SOL    HW110637   6.367   0.544   3.111
 3246SOL    HW210638   6.440   0.680   3.055
 3247SOL     OW10639   6.976   5.261   2.925
 3247SOL    HW110640   0.023   5.293   2.857
 3247SOL    HW210641   6.976   5.325   3.002
 3248SOL     OW10642   5.816   3.676   1.953
 3248SOL    HW110643   5.897   3.666   1.895
 3248SOL    HW210644   5.772   3.587   1.963
 3249SOL     OW10645   4.102   3.943   5.759
 3249SOL    HW110646   4.043   4.022   5.744
 3249SOL    HW210647   4.046   3.861   5.772
 3250SOL     OW10648   5.637   0.035   3.209
 3250SOL    HW110649   5.613   0.005   3.117
 3250SOL    HW210650   5.658   6.975   3.266
 3251SOL     OW10651   4.126   0.998   2.288
 3251SOL    HW110652   4.215   0.980   2.245
 3251SOL    HW210653   4.082   0.911   2.312
 3252SOL     OW10654   3.542   1.247   1.978
 3252SOL    HW110655   3.461   1.199   2.013
 3252SOL    HW210656   3.514   1.336   1.942
 3253SOL     OW10657   4.871   3.151   2.609
 3253SOL    HW110658   4.818   3.080   2.563
 3253SOL    HW210659   4.869   3.136   2.708
 3254SOL     OW10660   3.561   4.963   4.703
 3254SOL    HW110661   3.559   4.973   4.603
 3254SOL    HW210662   3.655   4.963   4.735
 3255SOL     OW10663   4.531   5.809   1.000
 3255SOL    HW110664   4.487   5.785   1.086
 3255SOL    HW210665   4.624   5.773   0.998
 3256SOL     OW10666   5.520   0.245   6.143
 3256SOL    HW110667   5.464   0.311   6.192
 3256SOL    HW210668   5.606   0.288   6.116
 3257SOL     OW10669   0.739   2.067   1.169
 3257SOL    HW110670   0.642   2.092   1.167
 3257SOL    HW210671   0.772   2.060   1.075
 3258SOL     OW10672   4.578   6.216   1.970
 3258SOL    HW110673   4.518   6.182   1.898
 3258SOL    HW210674   4.647   6.146   1.992
 3259SOL     OW10675   4.602   6.135   4.509
 3259SOL    HW110676   4.515   6.096   4.479
 3259SOL    HW210677   4.665   6.142   4.431
 3260SOL     OW10678   1.953   2.555   1.149
 3260SOL    HW110679   1.904   2.574   1.064
 3260SOL    HW210680   2.043   2.597   1.145
 3261SOL     OW10681   4.270   6.413   0.659
 3261SOL    HW110682   4.276   6.370   0.570
 3261SOL    HW210683   4.281   6.344   0.731
 3262SOL     OW10684   3.993   1.870   2.762
 3262SOL    HW110685   4.056   1.890   2.837
 3262SOL    HW210686   4.032   1.799   2.704
 3263SOL     OW10687   4.925   0.186   3.647
 3263SOL    HW110688   5.014   0.182   3.692
 3263SOL    HW210689   4.916   0.108   3.585
 3264SOL     OW10690   0.651   4.922   0.158
 3264SOL    HW110691   0.628   4.842   0.103
 3264SOL    HW210692   0.750   4.930   0.166
 3265SOL     OW10693   4.171   2.211   6.225
 3265SOL    HW110694   4.157   2.305   6.194
 3265SOL    HW210695   4.234   2.165   6.163
 3266SOL     OW10696   0.313   2.436   0.501
 3266SOL    HW110697   0.230   2.482   0.470
 3266SOL    HW210698   0.318   2.344   0.461
 3267SOL     OW10699   3.589   2.348   1.082
 3267SOL    HW110700   3.646   2.287   1.027
 3267SOL    HW210701   3.508   2.298   1.113
 3268SOL     OW10702   1.059   3.642   6.779
 3268SOL    HW110703   1.103   3.625   6.868
 3268SOL    HW210704   1.129   3.652   6.709
 3269SOL     OW10705   4.072   5.239   2.111
 3269SOL    HW110706   4.011   5.318   2.112
 3269SOL    HW210707   4.022   5.158   2.142
 3270SOL     OW10708   1.257   5.979   4.900
 3270SOL    HW110709   1.276   6.018   4.810
 3270SOL    HW210710   1.306   5.892   4.910
 3271SOL     OW10711   5.355   2.485   2.621
 3271SOL    HW110712   5.432   2.523   2.672
 3271SOL    HW210713   5.277   2.547   2.626
 3272SOL     OW10714   3.764   5.452   0.904
 3272SOL    HW110715   3.748   5.486   0.811
 3272SOL    HW210716   3.854   5.409   0.908
 3273SOL     OW10717   0.840   6.498   2.107
 3273SOL    HW110718   0.927   6.501   2.156
 3273SOL    HW210719   0.820   6.589   2.070
 3274SOL     OW10720   3.958   2.443   0.043
 3274SOL    HW110721   3.860   2.432   0.053
 3274SOL    HW210722   3.996   2.481   0.128
 3275SOL     OW10723   1.270   0.415   6.669
 3275SOL    HW110724   1.367   0.421   6.645
 3275SOL    HW210725   1.240   0.320   6.665
 3276SOL     OW10726   3.258   5.121   6.713
 3276SOL    HW110727   3.286   5.105   6.807
 3276SOL    HW210728   3.161   5.146   6.710
 3277SOL     OW10729   5.885   0.594   6.490
 3277SOL    HW110730   5.803   0.642   6.459
 3277SOL    HW210731   5.876   0.496   6.470
 3278SOL     OW10732   6.797   0.788   5.407
 3278SOL    HW110733   6.705   0.827   5.405
 3278SOL    HW210734   6.791   0.689   5.413
 3279SOL     OW10735   0.361   0.610   1.250
 3279SOL    HW110736   0.356   0.694   1.196
 3279SOL    HW210737   0.271   0.590   1.288
 3280SOL     OW10738   2.363   5.474   6.018
 3280SOL    HW110739   2.279   5.459   5.965
 3280SOL    HW210740   2.399   5.386   6.049
 3281SOL     OW10741   1.852   5.347   1.028
 3281SOL    HW110742   1.945   5.374   1.003
 3281SOL    HW210743   1.842   5.347   1.127
 3282SOL     OW10744   2.562   5.268   4.175
 3282SOL    HW110745   2.617   5.231   4.250
 3282SOL    HW210746   2.466   5.242   4.187
 3283SOL     OW10747   3.108   1.841   1.899
 3283SOL    HW110748   3.087   1.809   1.991
 3283SOL    HW210749   3.050   1.919   1.877
 3284SOL     OW10750   6.377   6.835   6.483
 3284SOL    HW110751   6.466   6.856   6.443
 3284SOL    HW210752   6.344   6.916   6.532
 3285SOL     OW10753   0.000   2.721   3.279
 3285SOL    HW110754   6.955   2.654   3.243
 3285SOL    HW210755   0.093   2.698   3.251
 3286SOL     OW10756   3.917   3.115   3.888
 3286SOL    HW110757   3.919   3.074   3.979
 3286SOL    HW210758   3.866   3.056   3.826
 3287SOL     OW10759   1.229   5.953   0.570
 3287SOL    HW110760   1.132   5.936   0.586
 3287SOL    HW210761   1.282   5.875   0.602
 3288SOL     OW10762   0.784   5.796   7.002
 3288SOL    HW110763   0.828   5.755   6.922
 3288SOL    HW210764   0.742   5.724   0.038
 3289SOL     OW10765   1.549   6.490   5.764
 3289SOL    HW110766   1.528   6.545   5.845
 3289SOL    HW210767   1.530   6.394   5.783
 3290SOL     OW10768   0.409   6.833   1.693
 3290SOL    HW110769   0.311   6.837   1.715
 3290SOL    HW210770   0.425   6.755   1.632
 3291SOL     OW10771   1.178   6.624   6.642
 3291SOL    HW110772   1.255   6.626   6.705
 3291SOL    HW210773   1.173   6.711   6.592
 3292SOL     OW10774   0.663   1.230   0.145
 3292SOL    HW110775   0.641   1.307   0.085
 3292SOL    HW210776   0.579   1.200   0.192
 3293SOL     OW10777   6.761   2.118   3.307
 3293SOL    HW110778   6.730   2.202   3.262
 3293SOL    HW210779   6.833   2.140   3.374
 3294SOL     OW10780   0.336   0.079   6.232
 3294SOL    HW110781   0.365   0.166   6.192
 3294SOL    HW210782   0.236   0.077   6.237
 3295SOL     OW10783   2.444   2.444   0.950
 3295SOL    HW110784   2.453   2.539   0.981
 3295SOL    HW210785   2.458   2.440   0.851
 3296SOL     OW10786   2.100   6.579   1.070
 3296SOL    HW110787   2.070   6.612   1.160
 3296SOL    HW210788   2.032   6.602   1.001
 3297SOL     OW10789   3.022   1.379   4.240
 3297SOL    HW110790   3.016   1.381   4.340
 3297SOL    HW210791   3.001   1.287   4.207
 3298SOL     OW10792   6.322   3.156   3.095
 3298SOL    HW110793   6.301   3.059   3.110
 3298SOL    HW210794   6.286   3.184   3.006
 3299SOL     OW10795   2.451   6.861   3.677
 3299SOL    HW110796   2.491   6.770   3.669
 3299SOL    HW210797   2.392   6.865   3.758
 3300SOL     OW10798   0.088   6.981   5.976
 3300SOL    HW110799   0.161   6.916   5.957
 3300SOL    HW210800   0.121   0.055   5.960
 3301SOL     OW10801   2.034   4.277   3.708
 3301SOL    HW110802   2.022   4.252   3.612
 3301SOL    HW210803   2.107   4.345   3.716
 3302SOL     OW10804   1.288   5.136   4.705
 3302SOL    HW110805   1.354   5.211   4.711
 3302SOL    HW210806   1.240   5.127   4.791
 3303SOL     OW10807   3.186   2.771   1.766
 3303SOL    HW110808   3.135   2.685   1.777
 3303SOL    HW210809   3.122   2.846   1.750
 3304SOL     OW10810   1.538   5.006   3.248
 3304SOL    HW110811   1.589   4.938   3.301
 3304SOL    HW210812   1.510   4.967   3.161
 3305SOL     OW10813   2.504   1.860   2.302
 3305SOL    HW110814   2.567   1.786   2.326
 3305SOL    HW210815   2.493   1.863   2.203
 3306SOL     OW10816   2.393   4.562   3.487
 3306SOL    HW110817   2.359   4.573   3.394
 3306SOL    HW210818   2.404   4.652   3.530
 3307SOL     OW10819   0.051   6.132   6.548
 3307SOL    HW110820   0.095   6.084   6.624
 3307SOL    HW210821   6.992   6.184   6.583
 3308SOL     OW10822   4.385   5.749   6.472
 3308SOL    HW110823   4.452   5.809   6.515
 3308SOL    HW210824   4.430   5.667   6.437
 3309SOL     OW10825   0.457   5.251   2.505
 3309SOL    HW110826   0.527   5.314   2.539
 3309SOL    HW210827   0.435   5.184   2.576
 3310SOL     OW10828   6.790   3.786   3.032
 3310SOL    HW110829   6.723   3.859   3.046
 3310SOL    HW210830   6.882   3.823   3.044
 3311SOL     OW10831   2.759   5.157   0.731
 3311SOL    HW110832   2.822   5.217   0.780
 3311SOL    HW210833   2.716   5.208   0.656
 3312SOL     OW10834   2.738   4.203   6.199
 3312SOL    HW110835   2.711   4.233   6.107
 3312SOL    HW210836   2.691   4.260   6.267
 3313SOL     OW10837   1.161   5.416   3.142
 3313SOL    HW110838   1.207   5.347   3.085
 3313SOL    HW210839   1.203   5.505   3.126
 3314SOL     OW10840   1.734   2.606   4.931
 3314SOL    HW110841   1.658   2.617   4.995
 3314SOL    HW210842   1.789   2.689   4.930
 3315SOL     OW10843   6.810   2.632   4.306
 3315SOL    HW110844   6.892   2.685   4.326
 3315SOL    HW210845   6.836   2.536   4.290
 3316SOL     OW10846   3.551   1.407   5.648
 3316SOL    HW110847   3.603   1.387   5.730
 3316SOL    HW210848   3.550   1.506   5.632
 3317SOL     OW10849   4.567   2.781   1.730
 3317SOL    HW110850   4.559   2.870   1.774
 3317SOL    HW210851   4.496   2.772   1.659
 3318SOL     OW10852   2.720   6.938   6.935
 3318SOL    HW110853   2.672   0.005   6.921
 3318SOL    HW210854   2.807   6.954   6.981
 3319SOL     OW10855   0.018   6.632   3.398
 3319SOL    HW110856   6.992   6.557   3.447
 3319SOL    HW210857   0.017   6.714   3.454
 3320SOL     OW10858   5.808   1.409   6.084
 3320SOL    HW110859   5.783   1.443   5.993
 3320SOL    HW210860   5.731   1.421   6.146
 3321SOL     OW10861   3.031   3.034   1.774
 3321SOL    HW110862   3.039   3.124   1.731
 3321SOL    HW210863   2.942   2.994   1.753
 3322SOL     OW10864   4.824   1.868   1.614
 3322SOL    HW110865   4.893   1.907   1.552
 3322SOL    HW210866   4.813   1.929   1.693
 3323SOL     OW10867   1.892   3.681   6.980
 3323SOL    HW110868   1.947   3.646   6.905
 3323SOL    HW210869   1.929   3.769   7.011
 3324SOL     OW10870   1.117   3.874   0.052
 3324SOL    HW110871   1.022   3.846   0.039
 3324SOL    HW210872   1.149   3.842   0.141
 3325SOL     OW10873   1.989   3.218   6.977
 3325SOL    HW110874   1.929   3.194   6.900
 3325SOL    HW210875   1.942   3.195   0.044
 3326SOL     OW10876   5.472   1.529   1.480
 3326SOL    HW110877   5.525   1.444   1.479
 3326SOL    HW210878   5.486   1.578   1.394
 3327SOL     OW10879   2.355   6.563   0.940
 3327SOL    HW110880   2.270   6.587   0.987
 3327SOL    HW210881   2.394   6.481   0.982
 3328SOL     OW10882   5.013   1.450   2.051
 3328SOL    HW110883   5.054   1.539   2.072
 3328SOL    HW210884   4.926   1.465   2.003
 3329SOL     OW10885   4.740   0.333   5.270
 3329SOL    HW110886   4.740   0.277   5.187
 3329SOL    HW210887   4.688   0.417   5.253
 3330SOL     OW10888   5.635   6.512   2.215
 3330SOL    HW110889   5.731   6.490   2.233
 3330SOL    HW210890   5.597   6.563   2.293
 3331SOL     OW10891   1.516   3.307   2.598
 3331SOL    HW110892   1.588   3.265   2.653
 3331SOL    HW210893   1.506   3.403   2.622
 3332SOL     OW10894   5.839   3.985   0.369
 3332SOL    HW110895   5.832   3.997   0.468
 3332SOL    HW210896   5.934   3.965   0.345
 3333SOL     OW10897   3.099   3.455   6.857
 3333SOL    HW110898   3.151   3.489   6.779
 3333SOL    HW210899   3.032   3.524   6.884
 3334SOL     OW10900   2.078   2.993   1.935
 3334SOL    HW110901   2.030   2.937   1.868
 3334SOL    HW210902   2.132   3.063   1.888
 3335SOL     OW10903   4.483   5.439   5.623
 3335SOL    HW110904   4.581   5.457   5.635
 3335SOL    HW210905   4.431   5.517   5.658
 3336SOL     OW10906   2.275   0.092   4.267
 3336SOL    HW110907   2.259   0.032   4.346
 3336SOL    HW210908   2.332   0.044   4.201
 3337SOL     OW10909   3.545   3.167   1.931
 3337SOL    HW110910   3.625   3.172   1.872
 3337SOL    HW210911   3.573   3.146   2.024
 3338SOL     OW10912   0.291   2.396   1.877
 3338SOL    HW110913   0.270   2.486   1.839
 3338SOL    HW210914   0.354   2.405   1.954
 3339SOL     OW10915   2.065   0.101   6.003
 3339SOL    HW110916   2.047   0.117   5.906
 3339SOL    HW210917   2.003   0.030   6.036
 3340SOL     OW10918   4.992   0.632   4.022
 3340SOL    HW110919   4.940   0.554   3.987
 3340SOL    HW210920   4.954   0.660   4.111
 3341SOL     OW10921   2.427   4.603   3.214
 3341SOL    HW110922   2.357   4.673   3.201
 3341SOL    HW210923   2.400   4.521   3.164
 3342SOL     OW10924   0.034   0.644   2.808
 3342SOL    HW110925   0.093   0.617   2.732
 3342SOL    HW210926   0.088   0.648   2.892
 3343SOL     OW10927   4.930   5.444   6.365
 3343SOL    HW110928   4.898   5.386   6.290
 3343SOL    HW210929   4.888   5.534   6.358
 3344SOL     OW10930   6.311   2.886   3.147
 3344SOL    HW110931   6.310   2.815   3.077
 3344SOL    HW210932   6.390   2.874   3.207
 3345SOL     OW10933   0.687   3.982   6.592
 3345SOL    HW110934   0.742   3.904   6.623
 3345SOL    HW210935   0.743   4.064   6.589
 3346SOL     OW10936   1.827   1.120   6.963
 3346SOL    HW110937   1.916   1.082   6.988
 3346SOL    HW210938   1.767   1.120   0.023
 3347SOL     OW10939   1.459   2.464   6.132
 3347SOL    HW110940   1.396   2.534   6.165
 3347SOL    HW210941   1.514   2.430   6.208
 3348SOL     OW10942   4.260   3.898   5.537
 3348SOL    HW110943   4.355   3.873   5.555
 3348SOL    HW210944   4.216   3.927   5.622
 3349SOL     OW10945   2.165   4.882   3.799
 3349SOL    HW110946   2.230   4.824   3.751
 3349SOL    HW210947   2.196   4.897   3.893
 3350SOL     OW10948   0.946   3.224   5.869
 3350SOL    HW110949   0.904   3.255   5.784
 3350SOL    HW210950   0.884   3.163   5.918
 3351SOL     OW10951   5.735   0.918   1.412
 3351SOL    HW110952   5.637   0.930   1.400
 3351SOL    HW210953   5.780   0.914   1.322
 3352SOL     OW10954   5.107   2.504   0.672
 3352SOL    HW110955   5.019   2.461   0.691
 3352SOL    HW210956   5.093   2.582   0.611
 3353SOL     OW10957   1.907   0.124   0.462
 3353SOL    HW110958   1.902   0.034   0.420
 3353SOL    HW210959   1.959   0.186   0.404
 3354SOL     OW10960   3.840   2.993   5.224
 3354SOL    HW110961   3.800   2.906   5.251
 3354SOL    HW210962   3.931   3.002   5.264
 3355SOL     OW10963   2.175   1.486   5.870
 3355SOL    HW110964   2.266   1.525   5.854
 3355SOL    HW210965   2.156   1.418   5.800
 3356SOL     OW10966   0.706   6.389   6.464
 3356SOL    HW110967   0.732   6.301   6.424
 3356SOL    HW210968   0.622   6.378   6.517
 3357SOL     OW10969   3.555   3.459   1.581
 3357SOL    HW110970   3.459   3.473   1.604
 3357SOL    HW210971   3.562   3.404   1.498
 3358SOL     OW10972   5.570   1.330   3.312
 3358SOL    HW110973   5.516   1.412   3.292
 3358SOL    HW210974   5.585   1.323   3.411
 3359SOL     OW10975   0.422   5.079   3.841
 3359SOL    HW110976   0.373   5.166   3.832
 3359SOL    HW210977   0.512   5.087   3.798
 3360SOL     OW10978   1.020   2.243   6.592
 3360SOL    HW110979   1.109   2.271   6.555
 3360SOL    HW210980   0.979   2.319   6.642
 3361SOL     OW10981   0.959   0.128   4.248
 3361SOL    HW110982   0.942   0.225   4.228
 3361SOL    HW210983   0.874   0.084   4.275
 3362SOL     OW10984   4.395   1.508   3.232
 3362SOL    HW110985   4.295   1.513   3.231
 3362SOL    HW210986   4.428   1.468   3.147
 3363SOL     OW10987   7.013   3.795   1.869
 3363SOL    HW110988   0.005   3.709   1.918
 3363SOL    HW210989   0.062   3.861   1.903
 3364SOL     OW10990   1.439   4.569   2.710
 3364SOL    HW110991   1.362   4.628   2.688
 3364SOL    HW210992   1.406   4.477   2.731
 3365SOL     OW10993   1.593   2.700   4.504
 3365SOL    HW110994   1.681   2.664   4.537
 3365SOL    HW210995   1.542   2.627   4.459
 3366SOL     OW10996   6.335   3.745   3.751
 3366SOL    HW110997   6.428   3.752   3.789
 3366SOL    HW210998   6.277   3.693   3.813
 3367SOL     OW10999   3.388   3.224   3.800
 3367SOL    HW111000   3.446   3.218   3.719
 3367SOL    HW211001   3.324   3.147   3.800
 3368SOL     OW11002   0.514   5.973   6.853
 3368SOL    HW111003   0.611   5.978   6.880
 3368SOL    HW211004   0.459   6.027   6.916
 3369SOL     OW11005   4.660   2.168   1.481
 3369SOL    HW111006   4.569   2.127   1.484
 3369SOL    HW211007   4.727   2.104   1.518
 3370SOL     OW11008   5.656   6.806   2.034
 3370SOL    HW111009   5.735   6.784   2.090
 3370SOL    HW211010   5.676   6.783   1.938
 3371SOL     OW11011   2.059   3.729   1.917
 3371SOL    HW111012   2.107   3.653   1.961
 3371SOL    HW211013   2.123   3.804   1.900
 3372SOL     OW11014   6.468   2.382   0.418
 3372SOL    HW111015   6.560   2.420   0.430
 3372SOL    HW211016   6.400   2.454   0.430
 3373SOL     OW11017   0.642   1.704   2.513
 3373SOL    HW111018   0.622   1.703   2.611
 3373SOL    HW211019   0.574   1.649   2.465
 3374SOL     OW11020   1.310   0.301   4.083
 3374SOL    HW111021   1.276   0.392   4.060
 3374SOL    HW211022   1.359   0.304   4.171
 3375SOL     OW11023   6.778   4.640   0.578
 3375SOL    HW111024   6.702   4.604   0.525
 3375SOL    HW211025   6.743   4.677   0.664
 3376SOL     OW11026   2.934   3.540   4.984
 3376SOL    HW111027   2.958   3.448   4.952
 3376SOL    HW211028   3.013   3.600   4.974
 3377SOL     OW11029   6.722   4.800   4.442
 3377SOL    HW111030   6.779   4.865   4.491
 3377SOL    HW211031   6.696   4.839   4.353
 3378SOL     OW11032   0.233   0.107   7.017
 3378SOL    HW111033   0.146   0.142   0.032
 3378SOL    HW211034   0.232   0.007   7.018
 3379SOL     OW11035   0.654   2.857   4.855
 3379SOL    HW111036   0.714   2.813   4.921
 3379SOL    HW211037   0.696   2.942   4.824
 3380SOL     OW11038   4.157   5.304   5.241
 3380SOL    HW111039   4.078   5.347   5.197
 3380SOL    HW211040   4.227   5.282   5.173
 3381SOL     OW11041   6.946   2.979   1.389
 3381SOL    HW111042   6.902   3.017   1.308
 3381SOL    HW211043   0.020   2.950   1.366
 3382SOL     OW11044   0.197   3.341   0.842
 3382SOL    HW111045   0.210   3.299   0.931
 3382SOL    HW211046   0.108   3.387   0.839
 3383SOL     OW11047   3.544   5.300   0.341
 3383SOL    HW111048   3.517   5.335   0.430
 3383SOL    HW211049   3.470   5.243   0.304
 3384SOL     OW11050   2.739   4.595   0.843
 3384SOL    HW111051   2.755   4.496   0.841
 3384SOL    HW211052   2.707   4.622   0.934
 3385SOL     OW11053   6.296   2.987   3.798
 3385SOL    HW111054   6.243   2.941   3.869
 3385SOL    HW211055   6.384   3.016   3.836
 3386SOL     OW11056   6.378   4.727   0.196
 3386SOL    HW111057   6.359   4.641   0.243
 3386SOL    HW211058   6.344   4.722   0.102
 3387SOL     OW11059   4.760   0.301   3.138
 3387SOL    HW111060   4.785   0.317   3.042
 3387SOL    HW211061   4.839   0.322   3.196
 3388SOL     OW11062   5.068   4.422   1.611
 3388SOL    HW111063   5.048   4.498   1.550
 3388SOL    HW211064   5.115   4.457   1.693
 3389SOL     OW11065   6.615   5.473   6.783
 3389SOL    HW111066   6.536   5.500   6.837
 3389SOL    HW211067   6.586   5.411   6.709
 3390SOL     OW11068   4.309   6.230   6.230
 3390SOL    HW111069   4.273   6.138   6.250
 3390SOL    HW211070   4.315   6.242   6.131
 3391SOL     OW11071   5.215   2.067   3.132
 3391SOL    HW111072   5.170   2.156   3.126
 3391SOL    HW211073   5.184   2.019   3.214
 3392SOL     OW11074   3.351   6.808   4.246
 3392SOL    HW111075   3.263   6.792   4.292
 3392SOL    HW211076   3.423   6.760   4.295
 3393SOL     OW11077   5.072   6.816   0.220
 3393SOL    HW111078   5.126   6.872   0.157
 3393SOL    HW211079   5.129   6.787   0.297
 3394SOL     OW11080   3.992   5.099   0.581
 3394SOL    HW111081   4.023   5.008   0.608
 3394SOL    HW211082   4.059   5.167   0.611
 3395SOL     OW11083   5.007   1.670   3.151
 3395SOL    HW111084   5.027   1.765   3.176
 3395SOL    HW211085   5.076   1.638   3.087
 3396SOL     OW11086   5.497   1.097   3.907
 3396SOL    HW111087   5.474   1.055   3.995
 3396SOL    HW211088   5.417   1.142   3.869
 3397SOL     OW11089   2.475   5.899   5.996
 3397SOL    HW111090   2.527   5.814   5.995
 3397SOL    HW211091   2.522   5.968   5.940
 3398SOL     OW11092   0.592   0.532   5.421
 3398SOL    HW111093   0.542   0.599   5.476
 3398SOL    HW211094   0.688   0.557   5.418
 3399SOL     OW11095   6.486   4.918   3.239
 3399SOL    HW111096   6.452   4.855   3.308
 3399SOL    HW211097   6.409   4.953   3.185
 3400SOL     OW11098   6.430   3.461   6.401
 3400SOL    HW111099   6.350   3.421   6.356
 3400SOL    HW211100   6.427   3.440   6.499
 3401SOL     OW11101   6.160   3.718   6.168
 3401SOL    HW111102   6.111   3.786   6.114
 3401SOL    HW211103   6.220   3.664   6.108
 3402SOL     OW11104   6.373   5.646   0.600
 3402SOL    HW111105   6.403   5.598   0.517
 3402SOL    HW211106   6.372   5.583   0.677
 3403SOL     OW11107   4.772   5.665   6.259
 3403SOL    HW111108   4.763   5.612   6.174
 3403SOL    HW211109   4.696   5.729   6.266
 3404SOL     OW11110   5.118   3.146   6.863
 3404SOL    HW111111   5.171   3.067   6.895
 3404SOL    HW211112   5.048   3.114   6.799
 3405SOL     OW11113   5.594   5.010   6.008
 3405SOL    HW111114   5.523   4.955   5.964
 3405SOL    HW211115   5.616   5.088   5.949
 3406SOL     OW11116   2.137   3.593   2.441
 3406SOL    HW111117   2.208   3.664   2.440
 3406SOL    HW211118   2.065   3.618   2.506
 3407SOL     OW11119   2.702   4.272   0.569
 3407SOL    HW111120   2.764   4.204   0.530
 3407SOL    HW211121   2.735   4.363   0.546
 3408SOL     OW11122   4.460   2.358   4.602
 3408SOL    HW111123   4.390   2.301   4.644
 3408SOL    HW211124   4.431   2.383   4.509
 3409SOL     OW11125   3.195   6.146   0.851
 3409SOL    HW111126   3.211   6.057   0.808
 3409SOL    HW211127   3.137   6.202   0.791
 3410SOL     OW11128   5.728   6.479   2.781
 3410SOL    HW111129   5.660   6.405   2.787
 3410SOL    HW211130   5.820   6.440   2.791
 3411SOL     OW11131   0.149   2.882   0.373
 3411SOL    HW111132   0.062   2.869   0.420
 3411SOL    HW211133   0.158   2.815   0.299
 3412SOL     OW11134   4.878   3.803   1.162
 3412SOL    HW111135   4.834   3.858   1.234
 3412SOL    HW211136   4.886   3.709   1.193
 3413SOL     OW11137   6.334   2.334   6.624
 3413SOL    HW111138   6.330   2.306   6.720
 3413SOL    HW211139   6.275   2.414   6.611
 3414SOL     OW11140   3.730   2.171   5.732
 3414SOL    HW111141   3.680   2.256   5.721
 3414SOL    HW211142   3.776   2.170   5.821
 3415SOL     OW11143   2.046   2.116   4.051
 3415SOL    HW111144   2.048   2.016   4.058
 3415SOL    HW211145   2.136   2.153   4.073
 3416SOL     OW11146   5.994   0.258   6.719
 3416SOL    HW111147   5.966   0.169   6.682
 3416SOL    HW211148   5.916   0.321   6.717
 3417SOL     OW11149   0.368   6.339   2.434
 3417SOL    HW111150   0.466   6.342   2.416
 3417SOL    HW211151   0.334   6.432   2.447
 3418SOL     OW11152   3.673   5.686   3.619
 3418SOL    HW111153   3.732   5.633   3.558
 3418SOL    HW211154   3.636   5.765   3.569
 3419SOL     OW11155   4.091   5.463   5.808
 3419SOL    HW111156   3.992   5.455   5.809
 3419SOL    HW211157   4.124   5.455   5.714
 3420SOL     OW11158   5.128   3.040   4.192
 3420SOL    HW111159   5.193   2.969   4.165
 3420SOL    HW211160   5.088   3.016   4.280
 3421SOL     OW11161   5.363   1.516   3.230
 3421SOL    HW111162   5.321   1.539   3.318
 3421SOL    HW211163   5.379   1.600   3.178
 3422SOL     OW11164   2.398   0.515   0.482
 3422SOL    HW111165   2.379   0.452   0.557
 3422SOL    HW211166   2.313   0.559   0.453
 3423SOL     OW11167   0.658   3.943   5.904
 3423SOL    HW111168   0.657   3.869   5.971
 3423SOL    HW211169   0.588   4.010   5.928
 3424SOL     OW11170   3.497   0.266   1.469
 3424SOL    HW111171   3.414   0.282   1.522
 3424SOL    HW211172   3.473   0.250   1.373
 3425SOL     OW11173   4.352   4.865   2.277
 3425SOL    HW111174   4.427   4.904   2.223
 3425SOL    HW211175   4.283   4.826   2.216
 3426SOL     OW11176   5.151   2.843   0.821
 3426SOL    HW111177   5.247   2.864   0.837
 3426SOL    HW211178   5.117   2.898   0.745
 3427SOL     OW11179   0.719   2.041   2.110
 3427SOL    HW111180   0.621   2.050   2.092
 3427SOL    HW211181   0.733   2.019   2.207
 3428SOL     OW11182   4.755   4.477   6.242
 3428SOL    HW111183   4.813   4.557   6.229
 3428SOL    HW211184   4.788   4.424   6.320
 3429SOL     OW11185   0.747   1.193   1.330
 3429SOL    HW111186   0.842   1.194   1.361
 3429SOL    HW211187   0.722   1.100   1.304
 3430SOL     OW11188   2.017   5.261   6.325
 3430SOL    HW111189   1.961   5.294   6.248
 3430SOL    HW211190   1.961   5.258   6.408
 3431SOL     OW11191   2.027   6.823   2.004
 3431SOL    HW111192   1.935   6.863   2.012
 3431SOL    HW211193   2.027   6.732   2.046
 3432SOL     OW11194   2.175   4.822   6.536
 3432SOL    HW111195   2.249   4.765   6.501
 3432SOL    HW211196   2.092   4.766   6.544
 3433SOL     OW11197   1.829   1.087   6.124
 3433SOL    HW111198   1.731   1.070   6.126
 3433SOL    HW211199   1.865   1.087   6.218
 3434SOL     OW11200   2.922   2.076   1.875
 3434SOL    HW111201   2.917   2.105   1.780
 3434SOL    HW211202   2.961   2.149   1.931
 3435SOL     OW11203   2.715   1.259   0.206
 3435SOL    HW111204   2.731   1.270   0.304
 3435SOL    HW211205   2.654   1.181   0.191
 3436SOL     OW11206   3.969   5.239   6.819
 3436SOL    HW111207   3.981   5.295   6.901
 3436SOL    HW211208   4.011   5.286   6.741
 3437SOL     OW11209   1.484   0.044   5.747
 3437SOL    HW111210   1.560   0.081   5.693
 3437SOL    HW211211   1.476   6.965   5.729
 3438SOL     OW11212   0.577   4.130   1.420
 3438SOL    HW111213   0.580   4.105   1.323
 3438SOL    HW211214   0.640   4.073   1.472
 3439SOL     OW11215   3.101   6.077   3.445
 3439SOL    HW111216   3.049   6.001   3.407
 3439SOL    HW211217   3.068   6.098   3.537
 3440SOL     OW11218   4.157   3.708   3.821
 3440SOL    HW111219   4.133   3.684   3.915
 3440SOL    HW211220   4.202   3.797   3.819
 3441SOL     OW11221   0.503   6.282   6.614
 3441SOL    HW111222   0.421   6.293   6.559
 3441SOL    HW211223   0.483   6.304   6.710
 3442SOL     OW11224   3.462   3.597   0.717
 3442SOL    HW111225   3.376   3.555   0.746
 3442SOL    HW211226   3.539   3.545   0.756
 3443SOL     OW11227   3.202   5.485   2.529
 3443SOL    HW111228   3.112   5.510   2.564
 3443SOL    HW211229   3.264   5.470   2.606
 3444SOL     OW11230   5.059   4.880   1.539
 3444SOL    HW111231   5.077   4.875   1.638
 3444SOL    HW211232   4.991   4.811   1.514
 3445SOL     OW11233   0.322   5.237   4.218
 3445SOL    HW111234   0.345   5.302   4.290
 3445SOL    HW211235   0.391   5.164   4.215
 3446SOL     OW11236   5.512   0.453   1.165
 3446SOL    HW111237   5.483   0.544   1.135
 3446SOL    HW211238   5.589   0.461   1.228
 3447SOL     OW11239   5.546   1.293   0.216
 3447SOL    HW111240   5.516   1.200   0.239
 3447SOL    HW211241   5.645   1.300   0.227
 3448SOL     OW11242   2.331   6.496   5.741
 3448SOL    HW111243   2.308   6.450   5.827
 3448SOL    HW211244   2.297   6.442   5.664
 3449SOL     OW11245   5.823   5.079   5.265
 3449SOL    HW111246   5.877   5.006   5.306
 3449SOL    HW211247   5.726   5.062   5.279
 3450SOL     OW11248   1.343   0.858   6.669
 3450SOL    HW111249   1.342   0.772   6.720
 3450SOL    HW211250   1.355   0.934   6.733
 3451SOL     OW11251   1.840   5.635   0.378
 3451SOL    HW111252   1.893   5.585   0.310
 3451SOL    HW211253   1.745   5.603   0.376
 3452SOL     OW11254   5.980   0.938   5.813
 3452SOL    HW111255   5.986   1.036   5.793
 3452SOL    HW211256   5.899   0.921   5.870
 3453SOL     OW11257   5.081   6.263   6.391
 3453SOL    HW111258   5.061   6.348   6.343
 3453SOL    HW211259   4.995   6.216   6.413
 3454SOL     OW11260   1.492   3.122   3.969
 3454SOL    HW111261   1.392   3.125   3.961
 3454SOL    HW211262   1.518   3.140   4.064
 3455SOL     OW11263   2.371   1.592   4.467
 3455SOL    HW111264   2.415   1.645   4.395
 3455SOL    HW211265   2.297   1.537   4.428
 3456SOL     OW11266   4.382   4.583   2.106
 3456SOL    HW111267   4.346   4.496   2.073
 3456SOL    HW211268   4.480   4.574   2.122
 3457SOL     OW11269   4.105   5.210   4.897
 3457SOL    HW111270   4.140   5.177   4.810
 3457SOL    HW211271   4.180   5.216   4.963
 3458SOL     OW11272   4.550   1.983   2.147
 3458SOL    HW111273   4.483   1.993   2.074
 3458SOL    HW211274   4.635   2.028   2.121
 3459SOL     OW11275   5.323   2.003   3.635
 3459SOL    HW111276   5.272   1.958   3.562
 3459SOL    HW211277   5.421   2.001   3.613
 3460SOL     OW11278   2.977   1.931   5.538
 3460SOL    HW111279   2.977   2.028   5.514
 3460SOL    HW211280   3.040   1.916   5.614
 3461SOL     OW11281   5.925   4.781   6.694
 3461SOL    HW111282   5.873   4.713   6.746
 3461SOL    HW211283   5.862   4.836   6.639
 3462SOL     OW11284   1.492   3.795   5.720
 3462SOL    HW111285   1.494   3.887   5.682
 3462SOL    HW211286   1.409   3.748   5.691
 3463SOL     OW11287   0.674   4.086   1.165
 3463SOL    HW111288   0.757   4.032   1.179
 3463SOL    HW211289   0.655   4.093   1.067
 3464SOL     OW11290   0.415   4.549   6.688
 3464SOL    HW111291   0.409   4.466   6.632
 3464SOL    HW211292   0.505   4.591   6.678
 3465SOL     OW11293   2.275   1.680   2.063
 3465SOL    HW111294   2.350   1.747   2.060
 3465SOL    HW211295   2.242   1.662   1.971
 3466SOL     OW11296   6.938   5.554   5.891
 3466SOL    HW111297   6.935   5.494   5.971
 3466SOL    HW211298   6.887   5.638   5.910
 3467SOL     OW11299   1.992   1.543   6.831
 3467SOL    HW111300   1.996   1.443   6.831
 3467SOL    HW211301   1.896   1.572   6.838
 3468SOL     OW11302   3.222   5.175   2.840
 3468SOL    HW111303   3.263   5.121   2.768
 3468SOL    HW211304   3.220   5.122   2.925
 3469SOL     OW11305   6.302   2.210   4.378
 3469SOL    HW111306   6.292   2.187   4.281
 3469SOL    HW211307   6.326   2.307   4.387
 3470SOL     OW11308   0.565   5.411   1.134
 3470SOL    HW111309   0.524   5.467   1.206
 3470SOL    HW211310   0.634   5.464   1.085
 3471SOL     OW11311   4.608   5.019   5.398
 3471SOL    HW111312   4.531   5.083   5.395
 3471SOL    HW211313   4.693   5.070   5.406
 3472SOL     OW11314   2.463   1.040   3.681
 3472SOL    HW111315   2.465   0.976   3.605
 3472SOL    HW211316   2.537   1.018   3.745
 3473SOL     OW11317   5.600   1.816   6.061
 3473SOL    HW111318   5.516   1.779   6.020
 3473SOL    HW211319   5.607   1.913   6.040
 3474SOL     OW11320   3.025   4.878   1.440
 3474SOL    HW111321   3.045   4.976   1.432
 3474SOL    HW211322   2.968   4.863   1.521
 3475SOL     OW11323   1.214   6.509   4.090
 3475SOL    HW111324   1.128   6.474   4.054
 3475SOL    HW211325   1.281   6.435   4.095
 3476SOL     OW11326   3.642   0.085   4.482
 3476SOL    HW111327   3.666   0.036   4.566
 3476SOL    HW211328   3.713   0.151   4.460
 3477SOL     OW11329   3.456   5.270   1.214
 3477SOL    HW111330   3.499   5.359   1.199
 3477SOL    HW211331   3.357   5.280   1.211
 3478SOL     OW11332   2.203   6.298   5.624
 3478SOL    HW111333   2.118   6.320   5.673
 3478SOL    HW211334   2.182   6.275   5.529
 3479SOL     OW11335   0.615   0.022   2.809
 3479SOL    HW111336   0.605   0.055   2.903
 3479SOL    HW211337   0.539   0.056   2.754
 3480SOL     OW11338   6.712   1.375   4.176
 3480SOL    HW111339   6.679   1.286   4.207
 3480SOL    HW211340   6.805   1.365   4.141
 3481SOL     OW11341   4.264   6.967   6.512
 3481SOL    HW111342   4.186   6.942   6.570
 3481SOL    HW211343   4.339   6.999   6.569
 3482SOL     OW11344   5.689   1.326   1.081
 3482SOL    HW111345   5.754   1.268   1.130
 3482SOL    HW211346   5.732   1.413   1.058
 3483SOL     OW11347   2.705   0.819   0.920
 3483SOL    HW111348   2.640   0.808   0.995
 3483SOL    HW211349   2.660   0.798   0.833
 3484SOL     OW11350   3.196   3.416   2.933
 3484SOL    HW111351   3.278   3.365   2.906
 3484SOL    HW211352   3.179   3.490   2.868
 3485SOL     OW11353   1.757   1.140   5.032
 3485SOL    HW111354   1.766   1.238   5.013
 3485SOL    HW211355   1.843   1.105   5.068
 3486SOL     OW11356   3.750   1.645   2.137
 3486SOL    HW111357   3.773   1.559   2.183
 3486SOL    HW211358   3.769   1.721   2.199
 3487SOL     OW11359   5.817   1.748   6.721
 3487SOL    HW111360   5.755   1.810   6.770
 3487SOL    HW211361   5.766   1.699   6.651
 3488SOL     OW11362   5.732   3.183   4.306
 3488SOL    HW111363   5.701   3.098   4.349
 3488SOL    HW211364   5.748   3.252   4.377
 3489SOL     OW11365   3.233   6.937   0.729
 3489SOL    HW111366   3.253   6.855   0.783
 3489SOL    HW211367   3.170   6.996   0.780
 3490SOL     OW11368   4.706   4.456   0.273
 3490SOL    HW111369   4.684   4.389   0.203
 3490SOL    HW211370   4.623   4.504   0.302
 3491SOL     OW11371   6.957   2.865   5.854
 3491SOL    HW111372   6.862   2.851   5.881
 3491SOL    HW211373   7.003   2.922   5.923
 3492SOL     OW11374   1.009   5.787   0.295
 3492SOL    HW111375   0.944   5.716   0.269
 3492SOL    HW211376   1.046   5.829   0.212
 3493SOL     OW11377   5.856   4.913   0.325
 3493SOL    HW111378   5.926   4.865   0.378
 3493SOL    HW211379   5.769   4.864   0.332
 3494SOL     OW11380   4.143   6.820   0.323
 3494SOL    HW111381   4.154   6.919   0.338
 3494SOL    HW211382   4.230   6.774   0.342
 3495SOL     OW11383   3.989   4.818   2.267
 3495SOL    HW111384   4.065   4.809   2.204
 3495SOL    HW211385   3.951   4.727   2.287
 3496SOL     OW11386   1.202   3.196   1.565
 3496SOL    HW111387   1.102   3.192   1.565
 3496SOL    HW211388   1.235   3.203   1.658
 3497SOL     OW11389   4.172   0.475   3.152
 3497SOL    HW111390   4.191   0.377   3.150
 3497SOL    HW211391   4.162   0.508   3.059
 3498SOL     OW11392   2.878   1.884   1.141
 3498SOL    HW111393   2.909   1.841   1.226
 3498SOL    HW211394   2.876   1.816   1.068
 3499SOL     OW11395   6.519   3.565   4.629
 3499SOL    HW111396   6.535   3.484   4.573
 3499SOL    HW211397   6.504   3.644   4.570
 3500SOL     OW11398   6.694   4.428   6.214
 3500SOL    HW111399   6.636   4.461   6.140
 3500SOL    HW211400   6.734   4.507   6.261
 3501SOL     OW11401   0.291   5.059   4.696
 3501SOL    HW111402   0.209   5.062   4.638
 3501SOL    HW211403   0.353   4.989   4.661
 3502SOL     OW11404   0.419   2.035   2.042
 3502SOL    HW111405   0.430   2.077   1.952
 3502SOL    HW211406   0.405   1.937   2.032
 3503SOL     OW11407   4.814   5.670   5.142
 3503SOL    HW111408   4.757   5.689   5.222
 3503SOL    HW211409   4.812   5.572   5.122
 3504SOL     OW11410   2.701   3.600   0.912
 3504SOL    HW111411   2.679   3.536   0.985
 3504SOL    HW211412   2.671   3.563   0.824
 3505SOL     OW11413   5.363   5.632   5.073
 3505SOL    HW111414   5.370   5.701   5.145
 3505SOL    HW211415   5.345   5.677   4.985
 3506SOL     OW11416   4.109   5.741   5.082
 3506SOL    HW111417   4.162   5.658   5.100
 3506SOL    HW211418   4.124   5.807   5.156
 3507SOL     OW11419   1.127   0.974   6.520
 3507SOL    HW111420   1.053   0.926   6.566
 3507SOL    HW211421   1.215   0.949   6.562
 3508SOL     OW11422   4.824   2.527   6.964
 3508SOL    HW111423   4.844   2.542   6.867
 3508SOL    HW211424   4.781   2.609   7.002
 3509SOL     OW11425   6.161   6.188   0.082
 3509SOL    HW111426   6.179   6.245   0.002
 3509SOL    HW211427   6.247   6.164   0.127
 3510SOL     OW11428   1.791   2.201   2.187
 3510SOL    HW111429   1.715   2.138   2.198
 3510SOL    HW211430   1.857   2.188   2.261
 3511SOL     OW11431   1.540   3.122   0.150
 3511SOL    HW111432   1.475   3.197   0.160
 3511SOL    HW211433   1.527   3.057   0.225
 3512SOL     OW11434   1.245   4.122   0.316
 3512SOL    HW111435   1.156   4.092   0.350
 3512SOL    HW211436   1.242   4.131   0.216
 3513SOL     OW11437   6.258   4.676   0.768
 3513SOL    HW111438   6.240   4.589   0.814
 3513SOL    HW211439   6.348   4.711   0.795
 3514SOL     OW11440   0.196   6.797   1.348
 3514SOL    HW111441   0.146   6.873   1.388
 3514SOL    HW211442   0.208   6.725   1.416
 3515SOL     OW11443   3.157   5.754   2.800
 3515SOL    HW111444   3.068   5.778   2.761
 3515SOL    HW211445   3.146   5.676   2.862
 3516SOL     OW11446   3.179   0.844   0.753
 3516SOL    HW111447   3.159   0.753   0.715
 3516SOL    HW211448   3.230   0.834   0.838
 3517SOL     OW11449   0.494   1.043   0.602
 3517SOL    HW111450   0.582   1.088   0.609
 3517SOL    HW211451   0.493   0.962   0.660
 3518SOL     OW11452   5.206   4.047   6.321
 3518SOL    HW111453   5.205   3.948   6.309
 3518SOL    HW211454   5.112   4.079   6.336
 3519SOL     OW11455   0.813   6.841   6.825
 3519SOL    HW111456   0.726   6.835   6.777
 3519SOL    HW211457   0.813   6.921   6.885
 3520SOL     OW11458   4.050   3.970   0.895
 3520SOL    HW111459   4.047   3.928   0.986
 3520SOL    HW211460   3.963   4.015   0.876
 3521SOL     OW11461   5.326   3.227   1.532
 3521SOL    HW111462   5.285   3.222   1.623
 3521SOL    HW211463   5.357   3.320   1.514
 3522SOL     OW11464   3.085   5.217   2.013
 3522SOL    HW111465   3.129   5.295   1.969
 3522SOL    HW211466   3.066   5.239   2.109
 3523SOL     OW11467   3.091   4.682   5.290
 3523SOL    HW111468   3.017   4.632   5.246
 3523SOL    HW211469   3.140   4.736   5.221
 3524SOL     OW11470   2.651   0.726   0.675
 3524SOL    HW111471   2.580   0.767   0.618
 3524SOL    HW211472   2.739   0.731   0.628
 3525SOL     OW11473   0.491   3.442   1.912
 3525SOL    HW111474   0.556   3.368   1.929
 3525SOL    HW211475   0.473   3.449   1.813
 3526SOL     OW11476   1.255   0.503   3.326
 3526SOL    HW111477   1.164   0.537   3.348
 3526SOL    HW211478   1.312   0.500   3.408
 3527SOL     OW11479   5.029   2.763   6.469
 3527SOL    HW111480   5.079   2.780   6.554
 3527SOL    HW211481   4.945   2.818   6.469
 3528SOL     OW11482   1.219   5.915   3.002
 3528SOL    HW111483   1.130   5.960   3.012
 3528SOL    HW211484   1.279   5.945   3.076
 3529SOL     OW11485   4.240   6.412   5.550
 3529SOL    HW111486   4.173   6.338   5.546
 3529SOL    HW211487   4.205   6.484   5.610
 3530SOL     OW11488   2.882   6.019   2.690
 3530SOL    HW111489   2.785   6.043   2.694
 3530SOL    HW211490   2.935   6.085   2.741
 3531SOL     OW11491   5.559   3.899   0.339
 3531SOL    HW111492   5.652   3.906   0.374
 3531SOL    HW211493   5.512   3.987   0.349
 3532SOL     OW11494   2.258   0.761   0.116
 3532SOL    HW111495   2.328   0.820   0.076
 3532SOL    HW211496   2.290   0.667   0.118
 3533SOL     OW11497   0.765   2.179   3.451
 3533SOL    HW111498   0.796   2.250   3.388
 3533SOL    HW211499   0.684   2.211   3.501
 3534SOL     OW11500   6.018   1.638   5.122
 3534SOL    HW111501   5.920   1.652   5.136
 3534SOL    HW211502   6.033   1.604   5.029
 3535SOL     OW11503   6.749   5.690   6.861
 3535SOL    HW111504   6.773   5.735   6.775
 3535SOL    HW211505   6.688   5.613   6.842
 3536SOL     OW11506   1.584   3.356   3.480
 3536SOL    HW111507   1.513   3.287   3.494
 3536SOL    HW211508   1.597   3.409   3.564
 3537SOL     OW11509   2.664   5.014   0.959
 3537SOL    HW111510   2.727   5.069   0.905
 3537SOL    HW211511   2.571   5.051   0.948
 3538SOL     OW11512   2.950   0.695   3.906
 3538SOL    HW111513   2.933   0.787   3.869
 3538SOL    HW211514   3.032   0.698   3.963
 3539SOL     OW11515   5.941   3.445   5.397
 3539SOL    HW111516   5.983   3.364   5.437
 3539SOL    HW211517   5.972   3.526   5.447
 3540SOL     OW11518   1.643   3.114   6.888
 3540SOL    HW111519   1.595   3.087   6.971
 3540SOL    HW211520   1.586   3.177   6.835
 3541SOL     OW11521   2.352   2.814   0.150
 3541SOL    HW111522   2.252   2.817   0.145
 3541SOL    HW211523   2.391   2.860   0.070
 3542SOL     OW11524   5.781   2.891   0.220
 3542SOL    HW111525   5.854   2.848   0.166
 3542SOL    HW211526   5.697   2.837   0.210
 3543SOL     OW11527   1.386   3.203   3.646
 3543SOL    HW111528   1.453   3.192   3.719
 3543SOL    HW211529   1.294   3.184   3.682
 3544SOL     OW11530   3.250   4.260   6.830
 3544SOL    HW111531   3.328   4.271   6.769
 3544SOL    HW211532   3.273   4.296   6.921
 3545SOL     OW11533   3.707   5.448   0.534
 3545SOL    HW111534   3.709   5.527   0.472
 3545SOL    HW211535   3.615   5.436   0.570
 3546SOL     OW11536   6.573   4.458   3.426
 3546SOL    HW111537   6.636   4.518   3.375
 3546SOL    HW211538   6.603   4.363   3.417
 3547SOL     OW11539   6.783   3.339   4.990
 3547SOL    HW111540   6.707   3.404   4.989
 3547SOL    HW211541   6.785   3.289   4.903
 3548SOL     OW11542   5.009   1.502   6.129
 3548SOL    HW111543   4.962   1.427   6.174
 3548SOL    HW211544   4.950   1.542   6.058
 3549SOL     OW11545   1.832   5.281   6.498
 3549SOL    HW111546   1.785   5.213   6.442
 3549SOL    HW211547   1.765   5.343   6.539
 3550SOL     OW11548   5.036   2.273   5.030
 3550SOL    HW111549   5.014   2.304   4.938
 3550SOL    HW211550   5.022   2.174   5.037
 3551SOL     OW11551   3.583   1.897   4.961
 3551SOL    HW111552   3.538   1.986   4.950
 3551SOL    HW211553   3.517   1.824   4.944
 3552SOL     OW11554   6.408   5.491   1.519
 3552SOL    HW111555   6.361   5.412   1.557
 3552SOL    HW211556   6.501   5.495   1.554
 3553SOL     OW11557   3.218   5.998   6.298
 3553SOL    HW111558   3.290   5.992   6.366
 3553SOL    HW211559   3.198   6.095   6.279
 3554SOL     OW11560   3.756   3.861   0.856
 3554SOL    HW111561   3.666   3.876   0.898
 3554SOL    HW211562   3.812   3.803   0.915
 3555SOL     OW11563   1.546   2.173   4.582
 3555SOL    HW111564   1.633   2.220   4.597
 3555SOL    HW211565   1.548   2.128   4.493
 3556SOL     OW11566   3.555   0.963   4.845
 3556SOL    HW111567   3.609   1.047   4.846
 3556SOL    HW211568   3.478   0.972   4.908
 3557SOL     OW11569   0.711   0.778   2.722
 3557SOL    HW111570   0.698   0.688   2.764
 3557SOL    HW211571   0.708   0.848   2.793
 3558SOL     OW11572   2.301   6.299   0.546
 3558SOL    HW111573   2.262   6.372   0.489
 3558SOL    HW211574   2.247   6.216   0.535
 3559SOL     OW11575   2.634   6.581   4.872
 3559SOL    HW111576   2.674   6.494   4.902
 3559SOL    HW211577   2.688   6.618   4.797
 3560SOL     OW11578   1.680   4.805   4.711
 3560SOL    HW111579   1.664   4.823   4.614
 3560SOL    HW211580   1.758   4.743   4.721
 3561SOL     OW11581   6.096   4.072   5.078
 3561SOL    HW111582   6.099   4.168   5.048
 3561SOL    HW211583   6.054   4.066   5.169
 3562SOL     OW11584   2.823   1.622   4.271
 3562SOL    HW111585   2.807   1.679   4.191
 3562SOL    HW211586   2.912   1.576   4.262
 3563SOL     OW11587   6.265   2.279   6.232
 3563SOL    HW111588   6.169   2.265   6.258
 3563SOL    HW211589   6.274   2.273   6.133
 3564SOL     OW11590   0.339   4.960   2.988
 3564SOL    HW111591   0.401   4.913   3.049
 3564SOL    HW211592   0.389   5.030   2.936
 3565SOL     OW11593   3.621   4.938   2.807
 3565SOL    HW111594   3.719   4.939   2.828
 3565SOL    HW211595   3.607   4.899   2.716
 3566SOL     OW11596   6.960   0.891   5.207
 3566SOL    HW111597   6.918   0.982   5.206
 3566SOL    HW211598   6.912   0.833   5.273
 3567SOL     OW11599   0.556   3.271   6.341
 3567SOL    HW111600   0.645   3.226   6.333
 3567SOL    HW211601   0.489   3.205   6.376
 3568SOL     OW11602   6.716   4.044   5.970
 3568SOL    HW111603   6.676   4.135   5.960
 3568SOL    HW211604   6.644   3.977   5.987
 3569SOL     OW11605   2.043   1.532   5.513
 3569SOL    HW111606   2.009   1.440   5.533
 3569SOL    HW211607   1.984   1.599   5.558
 3570SOL     OW11608   5.235   0.485   5.729
 3570SOL    HW111609   5.174   0.471   5.651
 3570SOL    HW211610   5.193   0.549   5.793
 3571SOL     OW11611   0.177   5.702   0.220
 3571SOL    HW111612   0.274   5.707   0.194
 3571SOL    HW211613   0.122   5.745   0.149
 3572SOL     OW11614   5.334   3.894   4.216
 3572SOL    HW111615   5.338   3.941   4.128
 3572SOL    HW211616   5.416   3.915   4.269
 3573SOL     OW11617   0.697   3.883   3.905
 3573SOL    HW111618   0.642   3.801   3.923
 3573SOL    HW211619   0.731   3.921   3.991
 3574SOL     OW11620   0.603   5.001   0.427
 3574SOL    HW111621   0.622   4.959   0.337
 3574SOL    HW211622   0.648   5.090   0.432
 3575SOL     OW11623   5.767   5.289   3.327
 3575SOL    HW111624   5.700   5.242   3.385
 3575SOL    HW211625   5.725   5.312   3.239
 3576SOL     OW11626   1.547   1.292   5.828
 3576SOL    HW111627   1.548   1.273   5.730
 3576SOL    HW211628   1.461   1.261   5.868
 3577SOL     OW11629   1.298   2.649   6.196
 3577SOL    HW111630   1.276   2.710   6.272
 3577SOL    HW211631   1.258   2.685   6.112
 3578SOL     OW11632   3.885   3.683   6.783
 3578SOL    HW111633   3.847   3.772   6.809
 3578SOL    HW211634   3.816   3.612   6.798
 3579SOL     OW11635   0.081   4.114   4.622
 3579SOL    HW111636   0.077   4.020   4.656
 3579SOL    HW211637   0.155   4.163   4.668
 3580SOL     OW11638   5.862   1.537   1.038
 3580SOL    HW111639   5.877   1.634   1.052
 3580SOL    HW211640   5.944   1.495   1.000
 3581SOL     OW11641   6.598   0.292   3.565
 3581SOL    HW111642   6.690   0.316   3.533
 3581SOL    HW211643   6.550   0.375   3.595
 3582SOL     OW11644   0.624   2.189   6.337
 3582SOL    HW111645   0.687   2.119   6.369
 3582SOL    HW211646   0.675   2.272   6.313
 3583SOL     OW11647   0.535   4.422   0.023
 3583SOL    HW111648   0.477   4.359   6.990
 3583SOL    HW211649   0.560   4.379   0.110
 3584SOL     OW11650   6.309   6.219   6.254
 3584SOL    HW111651   6.358   6.305   6.265
 3584SOL    HW211652   6.368   6.153   6.206
 3585SOL     OW11653   3.400   5.392   5.678
 3585SOL    HW111654   3.414   5.461   5.749
 3585SOL    HW211655   3.370   5.436   5.593
 3586SOL     OW11656   6.607   2.594   5.484
 3586SOL    HW111657   6.701   2.597   5.449
 3586SOL    HW211658   6.592   2.672   5.546
 3587SOL     OW11659   2.643   5.819   0.535
 3587SOL    HW111660   2.686   5.897   0.489
 3587SOL    HW211661   2.713   5.766   0.583
 3588SOL     OW11662   0.920   2.819   5.629
 3588SOL    HW111663   0.922   2.767   5.543
 3588SOL    HW211664   1.014   2.835   5.660
 3589SOL     OW11665   3.212   0.754   4.349
 3589SOL    HW111666   3.146   0.776   4.421
 3589SOL    HW211667   3.194   0.812   4.269
 3590SOL     OW11668   0.096   4.515   6.607
 3590SOL    HW111669   0.162   4.535   6.679
 3590SOL    HW211670   0.135   4.447   6.544
 3591SOL     OW11671   5.017   3.346   6.538
 3591SOL    HW111672   5.084   3.414   6.569
 3591SOL    HW211673   5.063   3.258   6.526
 3592SOL     OW11674   5.401   3.626   3.415
 3592SOL    HW111675   5.428   3.608   3.320
 3592SOL    HW211676   5.349   3.711   3.420
 3593SOL     OW11677   2.340   6.178   4.644
 3593SOL    HW111678   2.307   6.272   4.656
 3593SOL    HW211679   2.270   6.115   4.678
 3594SOL     OW11680   4.137   1.200   2.508
 3594SOL    HW111681   4.133   1.160   2.416
 3594SOL    HW211682   4.053   1.178   2.558
 3595SOL     OW11683   1.947   6.113   6.106
 3595SOL    HW111684   2.035   6.101   6.061
 3595SOL    HW211685   1.955   6.085   6.202
 3596SOL     OW11686   6.760   1.257   2.882
 3596SOL    HW111687   6.789   1.252   2.787
 3596SOL    HW211688   6.661   1.273   2.887
 3597SOL     OW11689   2.771   6.186   5.051
 3597SOL    HW111690   2.791   6.168   4.955
 3597SOL    HW211691   2.808   6.275   5.078
 3598SOL     OW11692   1.247   0.470   5.913
 3598SOL    HW111693   1.256   0.410   5.834
 3598SOL    HW211694   1.324   0.453   5.975
 3599SOL     OW11695   0.875   2.099   5.766
 3599SOL    HW111696   0.819   2.023   5.799
 3599SOL    HW211697   0.960   2.062   5.726
 3600SOL     OW11698   0.132   3.617   0.553
 3600SOL    HW111699   0.099   3.703   0.515
 3600SOL    HW211700   0.229   3.624   0.574
 3601SOL     OW11701   6.679   3.965   0.612
 3601SOL    HW111702   6.772   3.937   0.636
 3601SOL    HW211703   6.620   3.955   0.692
 3602SOL     OW11704   2.114   1.076   1.193
 3602SOL    HW111705   2.066   1.115   1.272
 3602SOL    HW211706   2.177   1.144   1.156
 3603SOL     OW11707   3.682   6.288   3.816
 3603SOL    HW111708   3.618   6.221   3.780
 3603SOL    HW211709   3.633   6.352   3.875
 3604SOL     OW11710   6.572   3.802   3.871
 3604SOL    HW111711   6.627   3.739   3.815
 3604SOL    HW211712   6.588   3.783   3.967
 3605SOL     OW11713   5.933   4.525   5.894
 3605SOL    HW111714   5.948   4.472   5.810
 3605SOL    HW211715   5.901   4.464   5.966
 3606SOL     OW11716   6.501   4.866   5.659
 3606SOL    HW111717   6.589   4.818   5.663
 3606SOL    HW211718   6.515   4.956   5.618
 3607SOL     OW11719   5.166   6.518   0.993
 3607SOL    HW111720   5.250   6.552   0.950
 3607SOL    HW211721   5.142   6.430   0.954
 3608SOL     OW11722   6.629   1.864   2.186
 3608SOL    HW111723   6.551   1.869   2.248
 3608SOL    HW211724   6.659   1.769   2.177
 3609SOL     OW11725   0.359   0.511   4.367
 3609SOL    HW111726   0.319   0.572   4.436
 3609SOL    HW211727   0.347   0.416   4.396
 3610SOL     OW11728   1.054   0.545   5.391
 3610SOL    HW111729   1.131   0.520   5.450
 3610SOL    HW211730   1.088   0.564   5.299
 3611SOL     OW11731   3.667   4.696   5.463
 3611SOL    HW111732   3.613   4.640   5.400
 3611SOL    HW211733   3.609   4.764   5.506
 3612SOL     OW11734   6.665   6.973   5.597
 3612SOL    HW111735   6.715   6.932   5.673
 3612SOL    HW211736   6.728   0.007   5.540
 3613SOL     OW11737   5.182   5.183   1.362
 3613SOL    HW111738   5.230   5.150   1.443
 3613SOL    HW211739   5.247   5.197   1.287
 3614SOL     OW11740   3.783   3.332   3.777
 3614SOL    HW111741   3.836   3.260   3.821
 3614SOL    HW211742   3.830   3.420   3.790
 3615SOL     OW11743   5.765   6.521   6.096
 3615SOL    HW111744   5.861   6.515   6.120
 3615SOL    HW211745   5.710   6.467   6.160
 3616SOL     OW11746   7.007   1.351   6.138
 3616SOL    HW111747   0.005   1.415   6.062
 3616SOL    HW211748   0.032   1.385   6.221
 3617SOL     OW11749   5.275   1.371   6.587
 3617SOL    HW111750   5.300   1.307   6.515
 3617SOL    HW211751   5.339   1.362   6.664
 3618SOL     OW11752   1.394   1.796   5.748
 3618SOL    HW111753   1.471   1.851   5.778
 3618SOL    HW211754   1.392   1.792   5.648
 3619SOL     OW11755   6.400   2.118   3.458
 3619SOL    HW111756   6.492   2.147   3.485
 3619SOL    HW211757   6.333   2.157   3.521
 3620SOL     OW11758   6.076   6.030   5.613
 3620SOL    HW111759   6.026   6.003   5.695
 3620SOL    HW211760   6.031   5.990   5.533
 3621SOL     OW11761   2.686   2.015   5.599
 3621SOL    HW111762   2.731   1.951   5.537
 3621SOL    HW211763   2.698   2.109   5.565
 3622SOL     OW11764   2.365   2.191   3.148
 3622SOL    HW111765   2.346   2.127   3.074
 3622SOL    HW211766   2.464   2.198   3.161
 3623SOL     OW11767   5.869   5.729   4.006
 3623SOL    HW111768   5.910   5.678   4.081
 3623SOL    HW211769   5.807   5.799   4.043
 3624SOL     OW11770   2.183   0.044   2.487
 3624SOL    HW111771   2.232   6.999   2.545
 3624SOL    HW211772   2.146   7.017   2.407
 3625SOL     OW11773   6.437   3.278   0.092
 3625SOL    HW111774   6.494   3.357   0.111
 3625SOL    HW211775   6.494   3.201   0.063
 3626SOL     OW11776   1.622   3.842   5.475
 3626SOL    HW111777   1.570   3.805   5.398
 3626SOL    HW211778   1.586   3.803   5.560
 3627SOL     OW11779   3.746   3.107   3.448
 3627SOL    HW111780   3.835   3.145   3.424
 3627SOL    HW211781   3.692   3.176   3.496
 3628SOL     OW11782   1.903   0.106   1.591
 3628SOL    HW111783   1.923   0.180   1.656
 3628SOL    HW211784   1.940   0.020   1.627
 3629SOL     OW11785   6.013   2.286   4.476
 3629SOL    HW111786   6.043   2.364   4.422
 3629SOL    HW211787   6.061   2.203   4.446
 3630SOL     OW11788   5.780   2.801   3.247
 3630SOL    HW111789   5.877   2.825   3.253
 3630SOL    HW211790   5.752   2.754   3.331
 3631SOL     OW11791   1.925   0.171   3.613
 3631SOL    HW111792   1.981   0.253   3.609
 3631SOL    HW211793   1.828   0.197   3.621
 3632SOL     OW11794   4.913   0.181   0.374
 3632SOL    HW111795   4.932   0.179   0.276
 3632SOL    HW211796   4.946   0.267   0.413
 3633SOL     OW11797   2.845   1.838   5.858
 3633SOL    HW111798   2.935   1.881   5.859
 3633SOL    HW211799   2.832   1.791   5.771
 3634SOL     OW11800   0.789   5.500   5.364
 3634SOL    HW111801   0.709   5.498   5.303
 3634SOL    HW211802   0.829   5.409   5.369
 3635SOL     OW11803   2.556   7.013   5.927
 3635SOL    HW111804   2.495   6.957   5.982
 3635SOL    HW211805   2.536   7.000   5.830
 3636SOL     OW11806   0.771   6.167   6.350
 3636SOL    HW111807   0.802   6.119   6.433
 3636SOL    HW211808   0.850   6.203   6.301
 3637SOL     OW11809   6.862   2.009   1.634
 3637SOL    HW111810   6.773   1.993   1.592
 3637SOL    HW211811   6.859   2.093   1.688
 3638SOL     OW11812   0.234   4.423   4.479
 3638SOL    HW111813   0.195   4.372   4.402
 3638SOL    HW211814   0.300   4.490   4.445
 3639SOL     OW11815   4.158   3.930   0.617
 3639SOL    HW111816   4.255   3.909   0.608
 3639SOL    HW211817   4.137   3.959   0.710
 3640SOL     OW11818   3.715   6.979   6.617
 3640SOL    HW111819   3.734   0.056   6.634
 3640SOL    HW211820   3.653   6.944   6.687
 3641SOL     OW11821   4.727   2.704   4.238
 3641SOL    HW111822   4.637   2.672   4.266
 3641SOL    HW211823   4.774   2.631   4.188
 3642SOL     OW11824   4.559   0.990   0.123
 3642SOL    HW111825   4.562   1.012   0.220
 3642SOL    HW211826   4.518   1.066   0.073
 3643SOL     OW11827   2.557   5.222   5.244
 3643SOL    HW111828   2.582   5.311   5.281
 3643SOL    HW211829   2.538   5.158   5.319
 3644SOL     OW11830   7.000   1.180   1.434
 3644SOL    HW111831   7.014   1.264   1.487
 3644SOL    HW211832   6.958   1.111   1.492
 3645SOL     OW11833   5.909   1.459   3.816
 3645SOL    HW111834   6.006   1.449   3.796
 3645SOL    HW211835   5.884   1.400   3.893
 3646SOL     OW11836   6.728   4.646   6.359
 3646SOL    HW111837   6.736   4.720   6.292
 3646SOL    HW211838   6.786   4.666   6.438
 3647SOL     OW11839   2.186   3.444   0.239
 3647SOL    HW111840   2.169   3.474   0.145
 3647SOL    HW211841   2.134   3.501   0.302
 3648SOL     OW11842   3.154   5.550   3.008
 3648SOL    HW111843   3.185   5.522   3.099
 3648SOL    HW211844   3.060   5.521   2.994
 3649SOL     OW11845   4.816   3.125   1.662
 3649SOL    HW111846   4.751   3.102   1.734
 3649SOL    HW211847   4.909   3.123   1.699
 3650SOL     OW11848   0.371   5.300   6.994
 3650SOL    HW111849   0.385   5.355   0.057
 3650SOL    HW211850   0.449   5.239   6.982
 3651SOL     OW11851   0.681   6.178   3.147
 3651SOL    HW111852   0.763   6.142   3.192
 3651SOL    HW211853   0.600   6.152   3.199
 3652SOL     OW11854   6.002   6.270   3.251
 3652SOL    HW111855   5.937   6.252   3.325
 3652SOL    HW211856   5.952   6.291   3.167
 3653SOL     OW11857   6.865   0.196   3.241
 3653SOL    HW111858   6.874   0.186   3.142
 3653SOL    HW211859   6.795   0.133   3.274
 3654SOL     OW11860   2.127   6.685   0.454
 3654SOL    HW111861   2.227   6.679   0.455
 3654SOL    HW211862   2.090   6.641   0.536
 3655SOL     OW11863   1.428   0.191   3.833
 3655SOL    HW111864   1.465   0.099   3.842
 3655SOL    HW211865   1.379   0.216   3.916
 3656SOL     OW11866   1.221   3.383   2.016
 3656SOL    HW111867   1.279   3.379   2.097
 3656SOL    HW211868   1.224   3.474   1.976
 3657SOL     OW11869   5.176   5.619   6.031
 3657SOL    HW111870   5.162   5.522   6.014
 3657SOL    HW211871   5.178   5.668   5.944
 3658SOL     OW11872   1.431   5.954   3.771
 3658SOL    HW111873   1.352   6.002   3.735
 3658SOL    HW211874   1.512   5.974   3.715
 3659SOL     OW11875   2.669   3.174   5.607
 3659SOL    HW111876   2.632   3.115   5.535
 3659SOL    HW211877   2.718   3.251   5.565
 3660SOL     OW11878   4.692   0.050   2.756
 3660SOL    HW111879   4.656   0.133   2.713
 3660SOL    HW211880   4.628   6.994   2.744
 3661SOL     OW11881   4.788   1.649   5.935
 3661SOL    HW111882   4.813   1.669   6.029
 3661SOL    HW211883   4.732   1.724   5.899
 3662SOL     OW11884   4.943   0.637   3.397
 3662SOL    HW111885   4.943   0.648   3.497
 3662SOL    HW211886   4.865   0.581   3.369
 3663SOL     OW11887   2.089   1.889   0.703
 3663SOL    HW111888   2.083   1.950   0.783
 3663SOL    HW211889   2.043   1.932   0.625
 3664SOL     OW11890   4.567   2.293   1.237
 3664SOL    HW111891   4.494   2.259   1.178
 3664SOL    HW211892   4.626   2.216   1.263
 3665SOL     OW11893   1.003   5.952   5.725
 3665SOL    HW111894   1.013   5.987   5.632
 3665SOL    HW211895   0.948   5.869   5.724
 3666SOL     OW11896   2.100   3.880   2.875
 3666SOL    HW111897   2.073   3.926   2.791
 3666SOL    HW211898   2.151   3.943   2.934
 3667SOL     OW11899   6.443   0.559   0.684
 3667SOL    HW111900   6.540   0.582   0.685
 3667SOL    HW211901   6.406   0.564   0.777
 3668SOL     OW11902   1.538   0.606   2.216
 3668SOL    HW111903   1.621   0.566   2.254
 3668SOL    HW211904   1.562   0.670   2.142
 3669SOL     OW11905   6.032   0.842   4.078
 3669SOL    HW111906   6.024   0.930   4.030
 3669SOL    HW211907   6.002   0.853   4.172
 3670SOL     OW11908   2.619   4.063   0.712
 3670SOL    HW111909   2.550   4.101   0.773
 3670SOL    HW211910   2.647   4.132   0.645
 3671SOL     OW11911   6.381   0.014   4.174
 3671SOL    HW111912   6.357   6.951   4.227
 3671SOL    HW211913   6.451   7.010   4.107
 3672SOL     OW11914   5.538   1.670   1.231
 3672SOL    HW111915   5.526   1.634   1.138
 3672SOL    HW211916   5.597   1.750   1.229
 3673SOL     OW11917   3.846   6.841   5.804
 3673SOL    HW111918   3.874   6.864   5.897
 3673SOL    HW211919   3.900   6.895   5.739
 3674SOL     OW11920   0.311   0.120   4.836
 3674SOL    HW111921   0.381   0.142   4.904
 3674SOL    HW211922   0.221   0.122   4.879
 3675SOL     OW11923   1.909   3.094   4.921
 3675SOL    HW111924   2.006   3.084   4.900
 3675SOL    HW211925   1.898   3.160   4.996
 3676SOL     OW11926   4.639   4.798   4.715
 3676SOL    HW111927   4.571   4.814   4.787
 3676SOL    HW211928   4.655   4.700   4.704
 3677SOL     OW11929   1.642   6.719   3.563
 3677SOL    HW111930   1.663   6.809   3.601
 3677SOL    HW211931   1.728   6.671   3.544
 3678SOL     OW11932   0.984   3.693   3.464
 3678SOL    HW111933   1.043   3.757   3.413
 3678SOL    HW211934   0.938   3.743   3.538
 3679SOL     OW11935   1.850   0.617   3.451
 3679SOL    HW111936   1.822   0.551   3.381
 3679SOL    HW211937   1.948   0.608   3.467
 3680SOL     OW11938   5.833   2.137   3.573
 3680SOL    HW111939   5.881   2.055   3.543
 3680SOL    HW211940   5.829   2.138   3.673
 3681SOL     OW11941   0.724   0.778   4.745
 3681SOL    HW111942   0.645   0.824   4.787
 3681SOL    HW211943   0.713   0.775   4.646
 3682SOL     OW11944   5.714   2.616   6.909
 3682SOL    HW111945   5.642   2.571   6.856
 3682SOL    HW211946   5.696   2.603   7.007
 3683SOL     OW11947   6.886   6.429   3.909
 3683SOL    HW111948   6.800   6.466   3.873
 3683SOL    HW211949   6.948   6.410   3.834
 3684SOL     OW11950   1.815   3.520   0.167
 3684SOL    HW111951   1.868   3.550   0.087
 3684SOL    HW211952   1.718   3.535   0.150
 3685SOL     OW11953   6.433   6.450   6.629
 3685SOL    HW111954   6.435   6.352   6.648
 3685SOL    HW211955   6.395   6.499   6.707
 3686SOL     OW11956   6.624   5.791   3.739
 3686SOL    HW111957   6.620   5.889   3.762
 3686SOL    HW211958   6.543   5.765   3.687
 3687SOL     OW11959   3.742   6.355   5.853
 3687SOL    HW111960   3.832   6.364   5.895
 3687SOL    HW211961   3.708   6.445   5.825
 3688SOL     OW11962   0.690   3.315   6.584
 3688SOL    HW111963   0.770   3.365   6.549
 3688SOL    HW211964   0.623   3.305   6.511
 3689SOL     OW11965   1.533   0.411   6.651
 3689SOL    HW111966   1.566   0.481   6.588
 3689SOL    HW211967   1.609   0.375   6.705
 3690SOL     OW11968   4.419   0.324   6.209
 3690SOL    HW111969   4.472   0.279   6.281
 3690SOL    HW211970   4.325   0.338   6.241
 3691SOL     OW11971   2.636   2.178   0.144
 3691SOL    HW111972   2.722   2.225   0.165
 3691SOL    HW211973   2.580   2.174   0.226
 3692SOL     OW11974   0.566   5.839   4.876
 3692SOL    HW111975   0.651   5.806   4.916
 3692SOL    HW211976   0.572   5.837   4.777
 3693SOL     OW11977   2.173   2.600   2.670
 3693SOL    HW111978   2.202   2.507   2.693
 3693SOL    HW211979   2.245   2.646   2.618
 3694SOL     OW11980   1.978   5.571   3.196
 3694SOL    HW111981   2.007   5.569   3.100
 3694SOL    HW211982   1.882   5.547   3.202
 3695SOL     OW11983   6.352   2.655   2.633
 3695SOL    HW111984   6.396   2.735   2.593
 3695SOL    HW211985   6.347   2.582   2.566
 3696SOL     OW11986   3.475   6.032   5.118
 3696SOL    HW111987   3.485   6.033   5.217
 3696SOL    HW211988   3.433   5.945   5.090
 3697SOL     OW11989   0.409   5.553   3.053
 3697SOL    HW111990   0.368   5.639   3.019
 3697SOL    HW211991   0.386   5.479   2.990
 3698SOL     OW11992   2.865   6.673   5.136
 3698SOL    HW111993   2.839   6.724   5.054
 3698SOL    HW211994   2.958   6.696   5.162
 3699SOL     OW11995   6.922   3.393   3.069
 3699SOL    HW111996   6.977   3.432   2.996
 3699SOL    HW211997   6.982   3.354   3.139
 3700SOL     OW11998   0.246   0.384   4.749
 3700SOL    HW111999   0.253   0.290   4.783
 3700SOL    HW212000   0.176   0.388   4.677
 3701SOL     OW12001   0.481   0.849   3.675
 3701SOL    HW112002   0.452   0.755   3.657
 3701SOL    HW212003   0.403   0.903   3.706
 3702SOL     OW12004   5.550   6.588   2.497
 3702SOL    HW112005   5.458   6.573   2.461
 3702SOL    HW212006   5.584   6.503   2.537
 3703SOL     OW12007   4.408   2.532   6.545
 3703SOL    HW112008   4.310   2.514   6.541
 3703SOL    HW212009   4.443   2.506   6.635
 3704SOL     OW12010   3.063   0.798   1.447
 3704SOL    HW112011   3.092   0.742   1.370
 3704SOL    HW212012   3.002   0.745   1.506
 3705SOL     OW12013   5.404   5.594   3.803
 3705SOL    HW112014   5.345   5.597   3.722
 3705SOL    HW212015   5.495   5.627   3.779
 3706SOL     OW12016   0.804   3.262   5.089
 3706SOL    HW112017   0.855   3.292   5.009
 3706SOL    HW212018   0.706   3.275   5.074
 3707SOL     OW12019   6.237   3.479   5.163
 3707SOL    HW112020   6.178   3.499   5.085
 3707SOL    HW212021   6.267   3.565   5.204
 3708SOL     OW12022   6.362   0.802   6.028
 3708SOL    HW112023   6.391   0.875   6.090
 3708SOL    HW212024   6.441   0.746   6.003
 3709SOL     OW12025   3.762   0.823   0.266
 3709SOL    HW112026   3.784   0.734   0.305
 3709SOL    HW212027   3.667   0.824   0.236
 3710SOL     OW12028   0.008   6.422   0.640
 3710SOL    HW112029   7.005   6.353   0.571
 3710SOL    HW212030   0.072   6.383   0.707
 3711SOL     OW12031   0.005   6.401   2.144
 3711SOL    HW112032   0.037   6.456   2.067
 3711SOL    HW212033   0.073   6.332   2.168
 3712SOL     OW12034   6.367   6.171   6.846
 3712SOL    HW112035   6.311   6.248   6.875
 3712SOL    HW212036   6.312   6.087   6.847
 3713SOL     OW12037   1.705   6.059   4.431
 3713SOL    HW112038   1.630   6.060   4.364
 3713SOL    HW212039   1.678   6.112   4.511
 3714SOL     OW12040   4.780   5.291   5.209
 3714SOL    HW112041   4.836   5.259   5.286
 3714SOL    HW212042   4.702   5.343   5.245
 3715SOL     OW12043   6.037   3.697   3.699
 3715SOL    HW112044   6.094   3.685   3.780
 3715SOL    HW212045   6.095   3.703   3.618
 3716SOL     OW12046   5.585   6.709   5.375
 3716SOL    HW112047   5.496   6.732   5.415
 3716SOL    HW212048   5.584   6.731   5.277
 3717SOL     OW12049   5.804   5.641   6.097
 3717SOL    HW112050   5.850   5.729   6.087
 3717SOL    HW212051   5.716   5.654   6.143
 3718SOL     OW12052   2.014   0.380   6.209
 3718SOL    HW112053   2.008   0.387   6.110
 3718SOL    HW212054   2.088   0.316   6.233
 3719SOL     OW12055   5.710   4.815   1.260
 3719SOL    HW112056   5.801   4.843   1.230
 3719SOL    HW212057   5.641   4.867   1.210
 3720SOL     OW12058   6.164   2.106   5.423
 3720SOL    HW112059   6.117   2.174   5.480
 3720SOL    HW212060   6.169   2.019   5.471
 3721SOL     OW12061   5.267   4.873   1.303
 3721SOL    HW112062   5.186   4.885   1.246
 3721SOL    HW212063   5.243   4.820   1.384
 3722SOL     OW12064   6.408   0.047   2.228
 3722SOL    HW112065   6.454   6.987   2.269
 3722SOL    HW212066   6.323   0.017   2.186
 3723SOL     OW12067   5.995   6.536   1.896
 3723SOL    HW112068   5.957   6.612   1.844
 3723SOL    HW212069   5.952   6.450   1.867
 3724SOL     OW12070   1.785   5.194   6.105
 3724SOL    HW112071   1.742   5.174   6.193
 3724SOL    HW212072   1.758   5.285   6.075
 3725SOL     OW12073   5.507   5.732   0.841
 3725SOL    HW112074   5.457   5.648   0.862
 3725SOL    HW212075   5.580   5.745   0.908
 3726SOL     OW12076   6.744   5.367   0.679
 3726SOL    HW112077   6.684   5.373   0.600
 3726SOL    HW212078   6.838   5.352   0.648
 3727SOL     OW12079   0.106   2.971   6.040
 3727SOL    HW112080   0.143   3.045   6.096
 3727SOL    HW212081   0.138   2.883   6.075
 3728SOL     OW12082   1.375   3.705   0.123
 3728SOL    HW112083   1.411   3.796   0.102
 3728SOL    HW212084   1.319   3.710   0.206
 3729SOL     OW12085   1.610   2.181   3.421
 3729SOL    HW112086   1.685   2.116   3.408
 3729SOL    HW212087   1.573   2.171   3.513
 3730SOL     OW12088   2.627   5.335   6.351
 3730SOL    HW112089   2.580   5.290   6.274
 3730SOL    HW212090   2.714   5.288   6.368
 3731SOL     OW12091   4.115   0.240   0.763
 3731SOL    HW112092   4.054   0.273   0.690
 3731SOL    HW212093   4.189   0.187   0.722
 3732SOL     OW12094   1.300   2.303   6.558
 3732SOL    HW112095   1.285   2.335   6.652
 3732SOL    HW212096   1.370   2.232   6.558
 3733SOL     OW12097   1.468   3.649   1.603
 3733SOL    HW112098   1.453   3.591   1.523
 3733SOL    HW212099   1.455   3.595   1.687
 3734SOL     OW12100   4.234   1.354   1.705
 3734SOL    HW112101   4.332   1.361   1.687
 3734SOL    HW212102   4.220   1.322   1.799
 3735SOL     OW12103   2.118   0.884   3.549
 3735SOL    HW112104   2.143   0.843   3.462
 3735SOL    HW212105   2.157   0.976   3.556
 3736SOL     OW12106   6.815   3.084   1.155
 3736SOL    HW112107   6.716   3.081   1.144
 3736SOL    HW212108   6.851   3.167   1.112
 3737SOL     OW12109   5.362   0.338   2.886
 3737SOL    HW112110   5.322   0.429   2.899
 3737SOL    HW212111   5.448   0.332   2.937
 3738SOL     OW12112   0.139   5.647   2.295
 3738SOL    HW112113   0.208   5.608   2.357
 3738SOL    HW212114   0.056   5.668   2.346
 3739SOL     OW12115   2.139   5.044   1.574
 3739SOL    HW112116   2.119   5.073   1.668
 3739SOL    HW212117   2.060   4.994   1.536
 3740SOL     OW12118   4.672   0.117   0.469
 3740SOL    HW112119   4.677   0.124   0.569
 3740SOL    HW212120   4.764   0.104   0.432
 3741SOL     OW12121   4.622   3.283   1.566
 3741SOL    HW112122   4.703   3.230   1.592
 3741SOL    HW212123   4.568   3.230   1.500
 3742SOL     OW12124   2.394   2.235   6.144
 3742SOL    HW112125   2.431   2.144   6.162
 3742SOL    HW212126   2.413   2.260   6.049
 3743SOL     OW12127   5.408   4.379   1.086
 3743SOL    HW112128   5.481   4.333   1.137
 3743SOL    HW212129   5.327   4.321   1.083
 3744SOL     OW12130   0.587   5.898   2.641
 3744SOL    HW112131   0.625   5.990   2.647
 3744SOL    HW212132   0.612   5.857   2.553
 3745SOL     OW12133   3.567   4.917   2.503
 3745SOL    HW112134   3.641   4.980   2.526
 3745SOL    HW212135   3.552   4.917   2.405
 3746SOL     OW12136   5.339   1.907   2.655
 3746SOL    HW112137   5.335   1.811   2.629
 3746SOL    HW212138   5.327   1.915   2.754
 3747SOL     OW12139   3.271   6.954   5.689
 3747SOL    HW112140   3.351   6.933   5.634
 3747SOL    HW212141   3.235   0.025   5.663
 3748SOL     OW12142   5.117   0.921   1.495
 3748SOL    HW112143   5.169   0.837   1.484
 3748SOL    HW212144   5.148   0.970   1.577
 3749SOL     OW12145   1.902   6.409   4.178
 3749SOL    HW112146   1.932   6.354   4.257
 3749SOL    HW212147   1.913   6.356   4.094
 3750SOL     OW12148   1.770   4.131   0.604
 3750SOL    HW112149   1.730   4.042   0.586
 3750SOL    HW212150   1.798   4.174   0.518
 3751SOL     OW12151   6.568   3.680   2.406
 3751SOL    HW112152   6.636   3.729   2.460
 3751SOL    HW212153   6.584   3.697   2.309
 3752SOL     OW12154   4.893   0.604   5.849
 3752SOL    HW112155   4.980   0.651   5.838
 3752SOL    HW212156   4.895   0.547   5.931
 3753SOL     OW12157   6.140   0.686   5.203
 3753SOL    HW112158   6.164   0.772   5.248
 3753SOL    HW212159   6.047   0.693   5.166
 3754SOL     OW12160   2.734   0.419   2.077
 3754SOL    HW112161   2.694   0.495   2.129
 3754SOL    HW212162   2.730   0.440   1.979
 3755SOL     OW12163   3.769   5.356   4.908
 3755SOL    HW112164   3.790   5.293   4.834
 3755SOL    HW212165   3.675   5.340   4.939
 3756SOL     OW12166   2.527   5.662   6.609
 3756SOL    HW112167   2.581   5.724   6.667
 3756SOL    HW212168   2.529   5.570   6.648
 3757SOL     OW12169   6.303   5.260   1.628
 3757SOL    HW112170   6.342   5.211   1.549
 3757SOL    HW212171   6.237   5.201   1.674
 3758SOL     OW12172   1.936   1.461   4.331
 3758SOL    HW112173   1.878   1.519   4.275
 3758SOL    HW212174   1.885   1.379   4.358
 3759SOL     OW12175   4.582   0.550   5.155
 3759SOL    HW112176   4.625   0.630   5.196
 3759SOL    HW212177   4.528   0.579   5.076
 3760SOL     OW12178   0.797   1.419   3.406
 3760SOL    HW112179   0.785   1.378   3.315
 3760SOL    HW212180   0.892   1.411   3.434
 3761SOL     OW12181   6.561   0.756   4.777
 3761SOL    HW112182   6.649   0.804   4.779
 3761SOL    HW212183   6.503   0.790   4.851
 3762SOL     OW12184   1.544   4.261   1.456
 3762SOL    HW112185   1.476   4.292   1.389
 3762SOL    HW212186   1.565   4.164   1.439
 3763SOL     OW12187   6.370   4.229   1.015
 3763SOL    HW112188   6.456   4.277   1.032
 3763SOL    HW212189   6.388   4.142   0.970
 3764SOL     OW12190   1.981   6.854   2.622
 3764SOL    HW112191   1.963   6.886   2.529
 3764SOL    HW212192   1.967   6.755   2.626
 3765SOL     OW12193   6.238   1.548   1.210
 3765SOL    HW112194   6.338   1.551   1.205
 3765SOL    HW212195   6.202   1.638   1.231
 3766SOL     OW12196   2.310   2.161   4.218
 3766SOL    HW112197   2.352   2.147   4.308
 3766SOL    HW212198   2.378   2.144   4.147
 3767SOL     OW12199   3.223   4.211   6.371
 3767SOL    HW112200   3.175   4.263   6.441
 3767SOL    HW212201   3.225   4.115   6.396
 3768SOL     OW12202   1.054   0.505   4.889
 3768SOL    HW112203   1.059   0.530   4.793
 3768SOL    HW212204   0.958   0.493   4.916
 3769SOL     OW12205   6.182   5.391   5.197
 3769SOL    HW112206   6.125   5.309   5.200
 3769SOL    HW212207   6.231   5.394   5.109
 3770SOL     OW12208   0.944   0.961   0.105
 3770SOL    HW112209   0.975   0.886   0.164
 3770SOL    HW212210   1.020   1.023   0.087
 3771SOL     OW12211   5.860   4.347   6.943
 3771SOL    HW112212   5.791   4.417   6.961
 3771SOL    HW212213   5.950   4.384   6.962
 3772SOL     OW12214   0.444   0.681   0.240
 3772SOL    HW112215   0.516   0.701   0.306
 3772SOL    HW212216   0.410   0.767   0.200
 3773SOL     OW12217   6.322   3.060   5.780
 3773SOL    HW112218   6.260   3.107   5.718
 3773SOL    HW212219   6.407   3.038   5.732
 3774SOL     OW12220   5.522   5.598   1.597
 3774SOL    HW112221   5.495   5.641   1.683
 3774SOL    HW212222   5.448   5.608   1.530
 3775SOL     OW12223   4.110   5.109   4.011
 3775SOL    HW112224   4.037   5.177   4.010
 3775SOL    HW212225   4.097   5.046   3.934
 3776SOL     OW12226   3.708   2.455   6.296
 3776SOL    HW112227   3.648   2.449   6.376
 3776SOL    HW212228   3.775   2.380   6.299
 3777SOL     OW12229   2.571   5.945   3.916
 3777SOL    HW112230   2.671   5.943   3.917
 3777SOL    HW212231   2.537   5.939   4.010
 3778SOL     OW12232   2.557   5.670   3.519
 3778SOL    HW112233   2.596   5.618   3.595
 3778SOL    HW212234   2.578   5.767   3.530
 3779SOL     OW12235   0.602   5.158   1.112
 3779SOL    HW112236   0.576   5.102   1.191
 3779SOL    HW212237   0.582   5.254   1.131
 3780SOL     OW12238   6.927   3.687   3.933
 3780SOL    HW112239   6.855   3.713   3.999
 3780SOL    HW212240   7.008   3.658   3.983
 3781SOL     OW12241   0.630   0.203   4.543
 3781SOL    HW112242   0.658   0.196   4.639
 3781SOL    HW212243   0.650   0.294   4.509
 3782SOL     OW12244   3.396   6.449   2.336
 3782SOL    HW112245   3.462   6.516   2.300
 3782SOL    HW212246   3.311   6.455   2.284
 3783SOL     OW12247   6.689   5.375   4.207
 3783SOL    HW112248   6.715   5.472   4.210
 3783SOL    HW212249   6.737   5.326   4.279
 3784SOL     OW12250   5.327   2.372   2.365
 3784SOL    HW112251   5.319   2.273   2.378
 3784SOL    HW212252   5.301   2.419   2.449
 3785SOL     OW12253   1.520   3.174   4.842
 3785SOL    HW112254   1.435   3.197   4.795
 3785SOL    HW212255   1.534   3.075   4.841
 3786SOL     OW12256   2.208   4.018   3.279
 3786SOL    HW112257   2.149   3.937   3.285
 3786SOL    HW212258   2.238   4.031   3.185
 3787SOL     OW12259   5.345   0.712   2.665
 3787SOL    HW112260   5.264   0.730   2.610
 3787SOL    HW212261   5.361   0.789   2.726
 3788SOL     OW12262   6.172   4.692   5.105
 3788SOL    HW112263   6.086   4.739   5.126
 3788SOL    HW212264   6.247   4.757   5.108
 3789SOL     OW12265   0.193   3.663   3.088
 3789SOL    HW112266   0.280   3.661   3.038
 3789SOL    HW212267   0.204   3.618   3.176
 3790SOL     OW12268   0.962   5.003   6.426
 3790SOL    HW112269   0.907   4.930   6.387
 3790SOL    HW212270   0.945   5.089   6.377
 3791SOL     OW12271   5.175   1.899   6.775
 3791SOL    HW112272   5.187   1.801   6.763
 3791SOL    HW212273   5.205   1.948   6.693
 3792SOL     OW12274   1.197   1.436   4.453
 3792SOL    HW112275   1.156   1.390   4.374
 3792SOL    HW212276   1.144   1.414   4.536
 3793SOL     OW12277   5.627   6.251   1.557
 3793SOL    HW112278   5.680   6.333   1.539
 3793SOL    HW212279   5.564   6.234   1.481
 3794SOL     OW12280   2.373   3.002   1.720
 3794SOL    HW112281   2.334   3.082   1.765
 3794SOL    HW212282   2.317   2.978   1.641
 3795SOL     OW12283   4.066   5.094   1.268
 3795SOL    HW112284   3.992   5.032   1.242
 3795SOL    HW212285   4.144   5.041   1.300
 3796SOL     OW12286   3.935   1.890   1.059
 3796SOL    HW112287   3.889   1.941   1.131
 3796SOL    HW212288   3.922   1.792   1.074
 3797SOL     OW12289   0.845   3.867   3.005
 3797SOL    HW112290   0.832   3.784   2.951
 3797SOL    HW212291   0.899   3.933   2.954
 3798SOL     OW12292   3.135   6.141   2.325
 3798SOL    HW112293   3.184   6.106   2.246
 3798SOL    HW212294   3.038   6.154   2.301
 3799SOL     OW12295   0.044   2.977   3.712
 3799SOL    HW112296   7.006   3.022   3.644
 3799SOL    HW212297   0.052   2.880   3.691
 3800SOL     OW12298   5.278   2.282   3.934
 3800SOL    HW112299   5.305   2.185   3.935
 3800SOL    HW212300   5.226   2.301   3.852
 3801SOL     OW12301   5.420   6.682   2.001
 3801SOL    HW112302   5.501   6.739   1.992
 3801SOL    HW212303   5.374   6.702   2.088
 3802SOL     OW12304   0.139   1.125   2.450
 3802SOL    HW112305   0.082   1.188   2.397
 3802SOL    HW212306   0.081   1.052   2.487
 3803SOL     OW12307   4.019   3.505   3.304
 3803SOL    HW112308   4.075   3.543   3.377
 3803SOL    HW212309   4.073   3.498   3.220
 3804SOL     OW12310   4.081   1.180   3.650
 3804SOL    HW112311   4.041   1.234   3.576
 3804SOL    HW212312   4.008   1.143   3.707
 3805SOL     OW12313   1.396   2.378   1.976
 3805SOL    HW112314   1.465   2.411   1.911
 3805SOL    HW212315   1.377   2.449   2.043
 3806SOL     OW12316   3.351   3.592   5.508
 3806SOL    HW112317   3.337   3.567   5.413
 3806SOL    HW212318   3.324   3.687   5.522
 3807SOL     OW12319   2.239   5.258   3.823
 3807SOL    HW112320   2.282   5.347   3.812
 3807SOL    HW212321   2.165   5.264   3.890
 3808SOL     OW12322   4.351   1.005   6.828
 3808SOL    HW112323   4.399   1.051   6.903
 3808SOL    HW212324   4.252   1.009   6.845
 3809SOL     OW12325   5.604   2.462   1.602
 3809SOL    HW112326   5.545   2.394   1.557
 3809SOL    HW212327   5.651   2.419   1.679
 3810SOL     OW12328   6.366   2.567   3.286
 3810SOL    HW112329   6.321   2.641   3.335
 3810SOL    HW212330   6.465   2.579   3.292
 3811SOL     OW12331   0.315   6.522   4.473
 3811SOL    HW112332   0.365   6.481   4.549
 3811SOL    HW212333   0.252   6.592   4.508
 3812SOL     OW12334   3.458   4.724   5.779
 3812SOL    HW112335   3.461   4.628   5.749
 3812SOL    HW212336   3.495   4.783   5.708
 3813SOL     OW12337   5.658   3.602   0.676
 3813SOL    HW112338   5.647   3.554   0.590
 3813SOL    HW212339   5.584   3.576   0.739
 3814SOL     OW12340   6.653   0.062   4.373
 3814SOL    HW112341   6.635   6.990   4.410
 3814SOL    HW212342   6.727   0.056   4.305
 3815SOL     OW12343   3.876   2.976   0.895
 3815SOL    HW112344   3.934   2.945   0.820
 3815SOL    HW212345   3.854   2.899   0.955
 3816SOL     OW12346   1.002   5.236   6.167
 3816SOL    HW112347   0.963   5.149   6.137
 3816SOL    HW212348   1.092   5.248   6.124
 3817SOL     OW12349   4.914   3.855   2.367
 3817SOL    HW112350   4.948   3.769   2.327
 3817SOL    HW212351   4.990   3.920   2.376
 3818SOL     OW12352   6.962   0.985   1.024
 3818SOL    HW112353   0.015   1.015   1.087
 3818SOL    HW212354   6.908   1.063   0.995
 3819SOL     OW12355   5.412   4.684   2.661
 3819SOL    HW112356   5.341   4.636   2.713
 3819SOL    HW212357   5.483   4.619   2.634
 3820SOL     OW12358   6.024   6.567   3.429
 3820SOL    HW112359   5.977   6.541   3.514
 3820SOL    HW212360   6.107   6.511   3.419
 3821SOL     OW12361   1.328   1.063   2.095
 3821SOL    HW112362   1.287   1.076   2.185
 3821SOL    HW212363   1.275   0.995   2.045
 3822SOL     OW12364   2.093   6.951   6.674
 3822SOL    HW112365   1.993   6.952   6.674
 3822SOL    HW212366   2.126   6.897   6.597
 3823SOL     OW12367   3.742   3.472   6.459
 3823SOL    HW112368   3.831   3.515   6.440
 3823SOL    HW212369   3.717   3.488   6.554
 3824SOL     OW12370   1.115   2.464   0.710
 3824SOL    HW112371   1.076   2.411   0.786
 3824SOL    HW212372   1.061   2.450   0.628
 3825SOL     OW12373   0.949   4.634   0.457
 3825SOL    HW112374   1.038   4.654   0.499
 3825SOL    HW212375   0.963   4.608   0.361
 3826SOL     OW12376   6.964   3.775   1.212
 3826SOL    HW112377   6.884   3.738   1.260
 3826SOL    HW212378   7.009   3.843   1.269
 3827SOL     OW12379   0.976   1.249   1.515
 3827SOL    HW112380   1.014   1.214   1.601
 3827SOL    HW212381   0.981   1.348   1.514
 3828SOL     OW12382   3.566   3.832   4.045
 3828SOL    HW112383   3.550   3.899   3.973
 3828SOL    HW212384   3.627   3.871   4.114
 3829SOL     OW12385   0.460   4.779   2.222
 3829SOL    HW112386   0.374   4.748   2.182
 3829SOL    HW212387   0.505   4.843   2.159
 3830SOL     OW12388   0.428   1.224   5.497
 3830SOL    HW112389   0.368   1.285   5.549
 3830SOL    HW212390   0.432   1.255   5.401
 3831SOL     OW12391   4.590   2.444   2.328
 3831SOL    HW112392   4.593   2.503   2.247
 3831SOL    HW212393   4.607   2.500   2.409
 3832SOL     OW12394   0.128   0.430   2.384
 3832SOL    HW112395   0.090   0.411   2.474
 3832SOL    HW212396   0.055   0.462   2.323
 3833SOL     OW12397   0.221   5.975   6.728
 3833SOL    HW112398   0.307   5.927   6.739
 3833SOL    HW212399   0.214   6.047   6.797
 3834SOL     OW12400   3.869   4.491   0.866
 3834SOL    HW112401   3.775   4.477   0.899
 3834SOL    HW212402   3.868   4.553   0.788
 3835SOL     OW12403   3.883   6.188   5.439
 3835SOL    HW112404   3.867   6.285   5.420
 3835SOL    HW212405   3.856   6.134   5.360
 3836SOL     OW12406   6.740   5.100   5.774
 3836SOL    HW112407   6.751   5.036   5.851
 3836SOL    HW212408   6.806   5.174   5.783
 3837SOL     OW12409   4.270   5.032   5.577
 3837SOL    HW112410   4.297   5.077   5.492
 3837SOL    HW212411   4.231   5.099   5.639
 3838SOL     OW12412   1.041   2.368   3.617
 3838SOL    HW112413   0.955   2.412   3.591
 3838SOL    HW212414   1.106   2.373   3.541
 3839SOL     OW12415   5.479   1.531   2.809
 3839SOL    HW112416   5.536   1.574   2.879
 3839SOL    HW212417   5.450   1.441   2.841
 3840SOL     OW12418   2.979   1.400   6.631
 3840SOL    HW112419   3.041   1.342   6.684
 3840SOL    HW212420   2.960   1.484   6.683
 3841SOL     OW12421   0.822   3.612   4.188
 3841SOL    HW112422   0.852   3.704   4.215
 3841SOL    HW212423   0.833   3.550   4.266
 3842SOL     OW12424   2.302   2.789   3.489
 3842SOL    HW112425   2.309   2.806   3.587
 3842SOL    HW212426   2.254   2.865   3.445
 3843SOL     OW12427   5.170   3.494   2.470
 3843SOL    HW112428   5.126   3.406   2.454
 3843SOL    HW212429   5.198   3.500   2.566
 3844SOL     OW12430   1.376   3.096   5.948
 3844SOL    HW112431   1.428   3.045   5.880
 3844SOL    HW212432   1.279   3.071   5.942
 3845SOL     OW12433   3.091   4.892   6.240
 3845SOL    HW112434   3.025   4.951   6.194
 3845SOL    HW212435   3.090   4.801   6.198
 3846SOL     OW12436   1.210   4.125   3.504
 3846SOL    HW112437   1.110   4.119   3.498
 3846SOL    HW212438   1.251   4.048   3.455
 3847SOL     OW12439   5.468   2.985   4.531
 3847SOL    HW112440   5.424   3.058   4.480
 3847SOL    HW212441   5.403   2.911   4.548
 3848SOL     OW12442   4.842   4.182   3.061
 3848SOL    HW112443   4.851   4.083   3.055
 3848SOL    HW212444   4.894   4.215   3.139
 3849SOL     OW12445   1.110   1.175   6.343
 3849SOL    HW112446   1.043   1.145   6.274
 3849SOL    HW212447   1.155   1.095   6.382
 3850SOL     OW12448   2.837   2.925   1.616
 3850SOL    HW112449   2.900   2.881   1.552
 3850SOL    HW212450   2.749   2.879   1.614
 3851SOL     OW12451   0.414   4.173   3.379
 3851SOL    HW112452   0.455   4.100   3.324
 3851SOL    HW212453   0.328   4.141   3.419
 3852SOL     OW12454   3.932   6.402   3.807
 3852SOL    HW112455   3.839   6.368   3.824
 3852SOL    HW212456   3.931   6.462   3.727
 3853SOL     OW12457   0.771   3.815   3.296
 3853SOL    HW112458   0.817   3.821   3.208
 3853SOL    HW212459   0.822   3.868   3.364
 3854SOL     OW12460   1.302   2.454   3.031
 3854SOL    HW112461   1.353   2.376   2.994
 3854SOL    HW212462   1.366   2.515   3.078
 3855SOL     OW12463   4.660   6.522   6.766
 3855SOL    HW112464   4.625   6.614   6.784
 3855SOL    HW212465   4.679   6.512   6.668
 3856SOL     OW12466   0.292   0.440   5.624
 3856SOL    HW112467   0.254   0.374   5.560
 3856SOL    HW212468   0.388   0.418   5.641
 3857SOL     OW12469   0.734   6.152   6.647
 3857SOL    HW112470   0.646   6.194   6.625
 3857SOL    HW212471   0.737   6.133   6.745
 3858SOL     OW12472   2.799   0.976   5.846
 3858SOL    HW112473   2.819   1.041   5.920
 3858SOL    HW212474   2.708   0.994   5.809
 3859SOL     OW12475   6.542   0.998   1.426
 3859SOL    HW112476   6.519   1.076   1.485
 3859SOL    HW212477   6.470   0.929   1.432
 3860SOL     OW12478   1.529   1.566   4.151
 3860SOL    HW112479   1.527   1.520   4.062
 3860SOL    HW212480   1.510   1.663   4.140
 3861SOL     OW12481   4.355   5.417   4.120
 3861SOL    HW112482   4.305   5.497   4.152
 3861SOL    HW212483   4.441   5.409   4.170
 3862SOL     OW12484   0.745   0.866   4.214
 3862SOL    HW112485   0.818   0.821   4.162
 3862SOL    HW212486   0.763   0.965   4.217
 3863SOL     OW12487   5.958   2.198   6.903
 3863SOL    HW112488   5.969   2.120   6.841
 3863SOL    HW212489   5.896   2.265   6.862
 3864SOL     OW12490   1.706   0.890   5.832
 3864SOL    HW112491   1.654   0.968   5.868
 3864SOL    HW212492   1.789   0.877   5.887
 3865SOL     OW12493   3.912   0.898   0.997
 3865SOL    HW112494   3.962   0.973   0.954
 3865SOL    HW212495   3.819   0.928   1.020
 3866SOL     OW12496   3.916   0.226   0.575
 3866SOL    HW112497   3.854   0.304   0.580
 3866SOL    HW212498   3.869   0.144   0.604
 3867SOL     OW12499   0.512   5.682   3.571
 3867SOL    HW112500   0.419   5.681   3.535
 3867SOL    HW212501   0.519   5.619   3.648
 3868SOL     OW12502   3.127   0.402   0.188
 3868SOL    HW112503   3.153   0.324   0.245
 3868SOL    HW212504   3.131   0.376   0.091
 3869SOL     OW12505   6.202   3.289   4.327
 3869SOL    HW112506   6.212   3.241   4.240
 3869SOL    HW212507   6.123   3.350   4.323
 3870SOL     OW12508   6.624   6.842   0.334
 3870SOL    HW112509   6.556   6.874   0.399
 3870SOL    HW212510   6.638   6.743   0.345
 3871SOL     OW12511   4.158   1.155   3.203
 3871SOL    HW112512   4.124   1.063   3.181
 3871SOL    HW212513   4.250   1.166   3.166
 3872SOL     OW12514   3.348   2.909   3.714
 3872SOL    HW112515   3.265   2.966   3.710
 3872SOL    HW212516   3.386   2.899   3.622
 3873SOL     OW12517   6.406   4.113   1.482
 3873SOL    HW112518   6.327   4.137   1.426
 3873SOL    HW212519   6.490   4.142   1.436
 3874SOL     OW12520   4.711   5.842   6.921
 3874SOL    HW112521   4.807   5.839   6.892
 3874SOL    HW212522   4.703   5.895   7.005
 3875SOL     OW12523   2.146   3.392   2.639
 3875SOL    HW112524   2.138   3.464   2.708
 3875SOL    HW212525   2.150   3.433   2.548
 3876SOL     OW12526   3.537   5.669   1.205
 3876SOL    HW112527   3.444   5.702   1.190
 3876SOL    HW212528   3.584   5.661   1.117
 3877SOL     OW12529   5.764   2.657   0.896
 3877SOL    HW112530   5.666   2.667   0.913
 3877SOL    HW212531   5.809   2.746   0.903
 3878SOL     OW12532   3.854   6.574   4.682
 3878SOL    HW112533   3.829   6.647   4.618
 3878SOL    HW212534   3.775   6.551   4.738
 3879SOL     OW12535   6.200   5.148   0.961
 3879SOL    HW112536   6.235   5.062   0.922
 3879SOL    HW212537   6.161   5.204   0.889
 3880SOL     OW12538   5.816   4.747   4.604
 3880SOL    HW112539   5.726   4.775   4.640
 3880SOL    HW212540   5.826   4.782   4.511
 3881SOL     OW12541   1.353   2.986   2.000
 3881SOL    HW112542   1.306   2.973   2.088
 3881SOL    HW212543   1.377   2.897   1.962
 3882SOL     OW12544   1.297   1.142   5.861
 3882SOL    HW112545   1.270   1.086   5.939
 3882SOL    HW212546   1.279   1.092   5.776
 3883SOL     OW12547   4.683   1.119   2.433
 3883SOL    HW112548   4.683   1.100   2.531
 3883SOL    HW212549   4.703   1.034   2.383
 3884SOL     OW12550   1.146   5.422   2.511
 3884SOL    HW112551   1.134   5.324   2.496
 3884SOL    HW212552   1.240   5.439   2.542
 3885SOL     OW12553   5.665   5.983   2.563
 3885SOL    HW112554   5.717   5.939   2.490
 3885SOL    HW212555   5.669   5.926   2.645
 3886SOL     OW12556   6.044   5.154   5.149
 3886SOL    HW112557   6.080   5.094   5.078
 3886SOL    HW212558   5.958   5.117   5.184
 3887SOL     OW12559   0.576   0.652   6.762
 3887SOL    HW112560   0.621   0.575   6.715
 3887SOL    HW212561   0.533   0.618   6.846
 3888SOL     OW12562   0.107   0.363   4.514
 3888SOL    HW112563   0.077   0.447   4.470
 3888SOL    HW212564   0.039   0.292   4.500
 3889SOL     OW12565   0.096   4.184   0.355
 3889SOL    HW112566   0.180   4.191   0.302
 3889SOL    HW212567   0.026   4.137   0.300
 3890SOL     OW12568   6.089   5.609   3.747
 3890SOL    HW112569   6.061   5.516   3.722
 3890SOL    HW212570   6.024   5.675   3.710
 3891SOL     OW12571   5.853   4.441   4.625
 3891SOL    HW112572   5.845   4.420   4.528
 3891SOL    HW212573   5.868   4.539   4.637
 3892SOL     OW12574   6.884   2.389   1.601
 3892SOL    HW112575   6.968   2.368   1.650
 3892SOL    HW212576   6.828   2.452   1.655
 3893SOL     OW12577   4.471   4.611   0.294
 3893SOL    HW112578   4.408   4.612   0.216
 3893SOL    HW212579   4.427   4.565   0.371
 3894SOL     OW12580   3.901   1.437   0.853
 3894SOL    HW112581   3.953   1.512   0.892
 3894SOL    HW212582   3.910   1.438   0.754
 3895SOL     OW12583   2.105   0.785   5.002
 3895SOL    HW112584   2.070   0.710   4.946
 3895SOL    HW212585   2.205   0.782   5.003
 3896SOL     OW12586   6.866   0.590   6.010
 3896SOL    HW112587   6.810   0.672   6.020
 3896SOL    HW212588   6.963   0.615   6.006
 3897SOL     OW12589   3.309   5.442   2.832
 3897SOL    HW112590   3.252   5.496   2.895
 3897SOL    HW212591   3.280   5.346   2.835
 3898SOL     OW12592   2.887   3.673   5.215
 3898SOL    HW112593   2.862   3.611   5.140
 3898SOL    HW212594   2.813   3.739   5.230
 3899SOL     OW12595   5.535   6.963   4.909
 3899SOL    HW112596   5.450   6.992   4.865
 3899SOL    HW212597   5.599   0.020   4.913
 3900SOL     OW12598   5.303   3.288   3.765
 3900SOL    HW112599   5.261   3.200   3.744
 3900SOL    HW212600   5.234   3.360   3.757
 3901SOL     OW12601   2.841   0.416   5.841
 3901SOL    HW112602   2.830   0.333   5.786
 3901SOL    HW212603   2.752   0.460   5.854
 3902SOL     OW12604   5.358   3.545   2.031
 3902SOL    HW112605   5.350   3.513   1.937
 3902SOL    HW212606   5.434   3.610   2.037
 3903SOL     OW12607   3.880   6.053   6.521
 3903SOL    HW112608   3.808   6.013   6.464
 3903SOL    HW212609   3.839   6.123   6.580
 3904SOL     OW12610   2.258   1.662   5.051
 3904SOL    HW112611   2.319   1.586   5.071
 3904SOL    HW212612   2.220   1.651   4.958
 3905SOL     OW12613   0.254   0.568   6.526
 3905SOL    HW112614   0.245   0.618   6.612
 3905SOL    HW212615   0.177   0.505   6.515
 3906SOL     OW12616   4.707   4.881   6.392
 3906SOL    HW112617   4.806   4.866   6.389
 3906SOL    HW212618   4.688   4.977   6.411
 3907SOL     OW12619   5.738   0.145   4.942
 3907SOL    HW112620   5.734   0.178   5.037
 3907SOL    HW212621   5.810   0.193   4.893
 3908SOL     OW12622   1.257   2.125   0.826
 3908SOL    HW112623   1.168   2.122   0.871
 3908SOL    HW212624   1.330   2.115   0.894
 3909SOL     OW12625   0.437   5.209   5.221
 3909SOL    HW112626   0.368   5.165   5.279
 3909SOL    HW212627   0.476   5.142   5.158
 3910SOL     OW12628   3.816   3.478   1.473
 3910SOL    HW112629   3.837   3.405   1.407
 3910SOL    HW212630   3.731   3.455   1.521
 3911SOL     OW12631   4.899   0.892   0.067
 3911SOL    HW112632   4.934   0.819   0.009
 3911SOL    HW212633   4.806   0.869   0.096
 3912SOL     OW12634   4.363   0.238   5.852
 3912SOL    HW112635   4.343   0.272   5.760
 3912SOL    HW212636   4.310   0.291   5.919
 3913SOL     OW12637   1.879   6.963   6.085
 3913SOL    HW112638   1.822   0.026   6.079
 3913SOL    HW212639   1.910   6.952   6.180
 3914SOL     OW12640   3.544   1.597   0.690
 3914SOL    HW112641   3.561   1.693   0.665
 3914SOL    HW212642   3.448   1.574   0.670
 3915SOL     OW12643   3.537   5.570   2.435
 3915SOL    HW112644   3.481   5.620   2.501
 3915SOL    HW212645   3.484   5.551   2.353
 3916SOL     OW12646   1.948   5.973   4.150
 3916SOL    HW112647   1.908   5.903   4.091
 3916SOL    HW212648   1.876   6.032   4.185
 3917SOL     OW12649   0.481   5.312   0.486
 3917SOL    HW112650   0.575   5.277   0.481
 3917SOL    HW212651   0.421   5.253   0.431
 3918SOL     OW12652   4.626   0.044   2.385
 3918SOL    HW112653   4.651   7.002   2.460
 3918SOL    HW212654   4.534   0.022   2.353
 3919SOL     OW12655   1.991   5.712   6.358
 3919SOL    HW112656   2.069   5.713   6.420
 3919SOL    HW212657   2.021   5.687   6.266
 3920SOL     OW12658   2.885   2.586   0.371
 3920SOL    HW112659   2.838   2.625   0.292
 3920SOL    HW212660   2.883   2.651   0.447
 3921SOL     OW12661   6.933   3.383   1.170
 3921SOL    HW112662   6.994   3.461   1.181
 3921SOL    HW212663   6.911   3.371   1.074
 3922SOL     OW12664   5.905   4.172   1.906
 3922SOL    HW112665   5.979   4.239   1.901
 3922SOL    HW212666   5.852   4.188   1.989
 3923SOL     OW12667   0.001   2.084   6.888
 3923SOL    HW112668   0.040   2.020   6.821
 3923SOL    HW212669   6.982   2.033   6.965
 3924SOL     OW12670   0.811   5.209   2.953
 3924SOL    HW112671   0.826   5.279   3.022
 3924SOL    HW212672   0.843   5.121   2.987
 3925SOL     OW12673   3.714   5.067   0.679
 3925SOL    HW112674   3.678   5.012   0.604
 3925SOL    HW212675   3.800   5.109   0.651
 3926SOL     OW12676   6.553   5.552   3.407
 3926SOL    HW112677   6.490   5.591   3.475
 3926SOL    HW212678   6.504   5.488   3.349
 3927SOL     OW12679   6.653   3.215   3.449
 3927SOL    HW112680   6.632   3.154   3.374
 3927SOL    HW212681   6.674   3.306   3.414
 3928SOL     OW12682   2.773   6.151   5.943
 3928SOL    HW112683   2.812   6.080   5.883
 3928SOL    HW212684   2.725   6.219   5.887
 3929SOL     OW12685   0.170   2.005   5.899
 3929SOL    HW112686   0.195   1.987   5.995
 3929SOL    HW212687   0.212   2.090   5.869
 3930SOL     OW12688   2.088   1.865   4.061
 3930SOL    HW112689   2.165   1.837   4.004
 3930SOL    HW212690   2.107   1.841   4.156
 3931SOL     OW12691   1.892   1.916   2.446
 3931SOL    HW112692   1.892   2.000   2.391
 3931SOL    HW212693   1.909   1.939   2.542
 3932SOL     OW12694   1.374   4.294   2.739
 3932SOL    HW112695   1.412   4.248   2.819
 3932SOL    HW212696   1.415   4.256   2.656
 3933SOL     OW12697   1.788   6.474   6.990
 3933SOL    HW112698   1.791   6.492   0.069
 3933SOL    HW212699   1.879   6.446   6.959
 3934SOL     OW12700   0.159   0.649   0.963
 3934SOL    HW112701   0.069   0.692   0.971
 3934SOL    HW212702   0.151   0.566   0.906
 3935SOL     OW12703   2.517   0.293   0.166
 3935SOL    HW112704   2.468   0.372   0.129
 3935SOL    HW212705   2.615   0.307   0.158
 3936SOL     OW12706   6.749   5.105   5.421
 3936SOL    HW112707   6.667   5.104   5.480
 3936SOL    HW212708   6.721   5.118   5.326
 3937SOL     OW12709   6.956   0.502   2.194
 3937SOL    HW112710   6.933   0.587   2.145
 3937SOL    HW212711   6.874   0.467   2.239
 3938SOL     OW12712   0.013   1.714   3.815
 3938SOL    HW112713   0.047   1.638   3.869
 3938SOL    HW212714   0.055   1.713   3.725
 3939SOL     OW12715   2.460   1.873   2.017
 3939SOL    HW112716   2.418   1.963   2.014
 3939SOL    HW212717   2.556   1.879   1.993
 3940SOL     OW12718   3.893   5.466   2.132
 3940SOL    HW112719   3.802   5.452   2.172
 3940SOL    HW212720   3.944   5.531   2.189
 3941SOL     OW12721   4.903   1.732   6.570
 3941SOL    HW112722   4.920   1.828   6.549
 3941SOL    HW212723   4.990   1.685   6.584
 3942SOL     OW12724   0.591   0.470   6.320
 3942SOL    HW112725   0.637   0.398   6.267
 3942SOL    HW212726   0.513   0.432   6.369
 3943SOL     OW12727   0.965   4.016   2.815
 3943SOL    HW112728   0.999   4.110   2.810
 3943SOL    HW212729   1.025   3.956   2.762
 3944SOL     OW12730   5.501   3.211   5.606
 3944SOL    HW112731   5.454   3.269   5.541
 3944SOL    HW212732   5.596   3.239   5.614
 3945SOL     OW12733   0.781   2.380   1.800
 3945SOL    HW112734   0.825   2.338   1.879
 3945SOL    HW212735   0.788   2.319   1.721
 3946SOL     OW12736   5.495   5.975   6.244
 3946SOL    HW112737   5.535   6.028   6.318
 3946SOL    HW212738   5.521   5.879   6.254
 3947SOL     OW12739   6.145   5.510   1.126
 3947SOL    HW112740   6.240   5.513   1.156
 3947SOL    HW212741   6.141   5.484   1.030
 3948SOL     OW12742   1.164   5.801   1.678
 3948SOL    HW112743   1.142   5.705   1.697
 3948SOL    HW212744   1.115   5.860   1.740
 3949SOL     OW12745   6.234   0.444   2.822
 3949SOL    HW112746   6.316   0.459   2.877
 3949SOL    HW212747   6.257   0.455   2.725
 3950SOL     OW12748   2.678   4.163   1.506
 3950SOL    HW112749   2.656   4.157   1.408
 3950SOL    HW212750   2.727   4.248   1.524
 3951SOL     OW12751   6.566   6.982   1.178
 3951SOL    HW112752   6.467   6.989   1.190
 3951SOL    HW212753   6.597   0.036   1.117
 3952SOL     OW12754   6.297   3.945   2.706
 3952SOL    HW112755   6.389   3.951   2.743
 3952SOL    HW212756   6.300   3.948   2.606
 3953SOL     OW12757   3.971   4.264   0.663
 3953SOL    HW112758   3.947   4.349   0.711
 3953SOL    HW212759   4.054   4.226   0.704
 3954SOL     OW12760   5.791   5.496   5.118
 3954SOL    HW112761   5.756   5.564   5.054
 3954SOL    HW212762   5.831   5.543   5.197
 3955SOL     OW12763   3.163   5.333   5.975
 3955SOL    HW112764   3.140   5.370   6.065
 3955SOL    HW212765   3.249   5.374   5.943
 3956SOL     OW12766   0.267   0.920   2.783
 3956SOL    HW112767   0.309   0.865   2.711
 3956SOL    HW212768   0.325   0.918   2.864
 3957SOL     OW12769   4.844   6.620   3.845
 3957SOL    HW112770   4.897   6.540   3.817
 3957SOL    HW212771   4.747   6.595   3.852
 3958SOL     OW12772   5.675   0.798   5.972
 3958SOL    HW112773   5.678   0.894   5.999
 3958SOL    HW212774   5.753   0.750   6.013
 3959SOL     OW12775   3.757   5.859   1.277
 3959SOL    HW112776   3.686   5.799   1.240
 3959SOL    HW212777   3.750   5.949   1.235
 3960SOL     OW12778   4.528   1.427   6.886
 3960SOL    HW112779   4.592   1.462   6.818
 3960SOL    HW212780   4.442   1.478   6.880
 3961SOL     OW12781   5.965   2.370   2.110
 3961SOL    HW112782   5.890   2.304   2.111
 3961SOL    HW212783   6.010   2.367   2.021
 3962SOL     OW12784   2.654   4.821   6.917
 3962SOL    HW112785   2.664   4.743   6.856
 3962SOL    HW212786   2.745   4.852   6.946
 3963SOL     OW12787   4.665   4.318   4.730
 3963SOL    HW112788   4.613   4.236   4.709
 3963SOL    HW212789   4.741   4.327   4.665
 3964SOL     OW12790   4.083   4.806   3.825
 3964SOL    HW112791   4.140   4.749   3.885
 3964SOL    HW212792   4.141   4.857   3.762
 3965SOL     OW12793   4.679   3.165   6.060
 3965SOL    HW112794   4.595   3.219   6.069
 3965SOL    HW212795   4.667   3.077   6.106
 3966SOL     OW12796   5.215   6.003   0.993
 3966SOL    HW112797   5.143   5.935   0.979
 3966SOL    HW212798   5.207   6.042   1.084
 3967SOL     OW12799   1.562   3.929   2.299
 3967SOL    HW112800   1.602   3.853   2.249
 3967SOL    HW212801   1.565   4.012   2.242
 3968SOL     OW12802   5.001   0.145   1.056
 3968SOL    HW112803   4.968   0.056   1.085
 3968SOL    HW212804   4.944   0.180   0.982
 3969SOL     OW12805   1.759   3.889   2.503
 3969SOL    HW112806   1.702   3.912   2.583
 3969SOL    HW212807   1.705   3.902   2.420
 3970SOL     OW12808   5.861   5.996   4.160
 3970SOL    HW112809   5.764   6.001   4.184
 3970SOL    HW212810   5.916   6.008   4.243
 3971SOL     OW12811   2.495   4.933   1.755
 3971SOL    HW112812   2.578   4.905   1.802
 3971SOL    HW212813   2.430   4.970   1.821
 3972SOL     OW12814   1.105   5.120   0.840
 3972SOL    HW112815   1.113   5.120   0.740
 3972SOL    HW212816   1.010   5.136   0.866
 3973SOL     OW12817   0.940   4.468   5.995
 3973SOL    HW112818   0.980   4.379   5.972
 3973SOL    HW212819   0.989   4.541   5.947
 3974SOL     OW12820   1.322   0.890   4.532
 3974SOL    HW112821   1.296   0.982   4.561
 3974SOL    HW212822   1.277   0.823   4.590
 3975SOL     OW12823   5.676   0.762   5.502
 3975SOL    HW112824   5.662   0.789   5.597
 3975SOL    HW212825   5.603   0.699   5.474
 3976SOL     OW12826   1.438   6.305   1.919
 3976SOL    HW112827   1.434   6.315   1.819
 3976SOL    HW212828   1.434   6.395   1.962
 3977SOL     OW12829   3.139   3.989   5.856
 3977SOL    HW112830   3.068   4.056   5.879
 3977SOL    HW212831   3.200   4.029   5.787
 3978SOL     OW12832   5.400   6.415   5.106
 3978SOL    HW112833   5.405   6.321   5.071
 3978SOL    HW212834   5.459   6.474   5.050
 3979SOL     OW12835   3.041   5.665   0.601
 3979SOL    HW112836   3.054   5.748   0.546
 3979SOL    HW212837   2.967   5.679   0.666
 3980SOL     OW12838   0.516   5.768   0.202
 3980SOL    HW112839   0.560   5.782   0.291
 3980SOL    HW212840   0.540   5.678   0.167
 3981SOL     OW12841   1.985   1.347   0.580
 3981SOL    HW112842   1.945   1.387   0.662
 3981SOL    HW212843   2.067   1.399   0.554
 3982SOL     OW12844   2.112   0.342   4.156
 3982SOL    HW112845   2.124   0.419   4.093
 3982SOL    HW212846   2.034   0.287   4.128
 3983SOL     OW12847   5.137   5.469   4.826
 3983SOL    HW112848   5.119   5.465   4.728
 3983SOL    HW212849   5.229   5.435   4.844
 3984SOL     OW12850   0.075   1.120   2.833
 3984SOL    HW112851   0.158   1.069   2.811
 3984SOL    HW212852   7.016   1.058   2.833
 3985SOL     OW12853   3.512   4.671   6.477
 3985SOL    HW112854   3.451   4.593   6.469
 3985SOL    HW212855   3.505   4.727   6.394
 3986SOL     OW12856   6.755   1.838   3.009
 3986SOL    HW112857   6.681   1.784   2.971
 3986SOL    HW212858   6.843   1.800   2.981
 3987SOL     OW12859   2.690   5.262   3.786
 3987SOL    HW112860   2.707   5.274   3.884
 3987SOL    HW212861   2.777   5.247   3.739
 3988SOL     OW12862   4.113   3.867   6.842
 3988SOL    HW112863   4.162   3.799   6.787
 3988SOL    HW212864   4.068   3.821   6.918
 3989SOL     OW12865   6.733   2.630   6.908
 3989SOL    HW112866   6.700   2.709   6.959
 3989SOL    HW212867   6.813   2.656   6.854
 3990SOL     OW12868   5.434   2.320   2.997
 3990SOL    HW112869   5.335   2.322   3.008
 3990SOL    HW212870   5.470   2.413   3.006
 3991SOL     OW12871   6.169   0.962   2.319
 3991SOL    HW112872   6.267   0.968   2.301
 3991SOL    HW212873   6.120   1.027   2.262
 3992SOL     OW12874   3.910   2.239   6.874
 3992SOL    HW112875   3.814   2.215   6.886
 3992SOL    HW212876   3.941   2.291   6.954
 3993SOL     OW12877   1.075   1.817   2.688
 3993SOL    HW112878   1.087   1.888   2.618
 3993SOL    HW212879   1.016   1.745   2.653
 3994SOL     OW12880   0.758   0.891   6.198
 3994SOL    HW112881   0.714   0.981   6.203
 3994SOL    HW212882   0.739   0.840   6.282
 3995SOL     OW12883   1.984   3.772   5.372
 3995SOL    HW112884   2.079   3.761   5.343
 3995SOL    HW212885   1.943   3.848   5.322
 3996SOL     OW12886   1.101   1.210   4.262
 3996SOL    HW112887   1.029   1.252   4.207
 3996SOL    HW212888   1.139   1.131   4.213
 3997SOL     OW12889   5.326   1.215   3.565
 3997SOL    HW112890   5.285   1.178   3.648
 3997SOL    HW212891   5.267   1.195   3.487
 3998SOL     OW12892   4.675   1.180   3.444
 3998SOL    HW112893   4.624   1.151   3.363
 3998SOL    HW212894   4.645   1.272   3.471
 3999SOL     OW12895   5.792   3.471   3.720
 3999SOL    HW112896   5.760   3.376   3.722
 3999SOL    HW212897   5.892   3.473   3.727
 4000SOL     OW12898   2.891   5.478   3.038
 4000SOL    HW112899   2.872   5.446   3.131
 4000SOL    HW212900   2.809   5.522   3.001
 4001SOL     OW12901   2.440   2.171   3.982
 4001SOL    HW112902   2.509   2.229   4.025
 4001SOL    HW212903   2.363   2.227   3.952
 4002SOL     OW12904   2.354   3.120   0.639
 4002SOL    HW112905   2.292   3.187   0.680
 4002SOL    HW212906   2.359   3.135   0.540
 4003SOL     OW12907   3.112   6.036   4.024
 4003SOL    HW112908   3.074   6.109   3.968
 4003SOL    HW212909   3.106   5.949   3.974
 4004SOL     OW12910   5.545   1.986   4.079
 4004SOL    HW112911   5.530   2.035   4.165
 4004SOL    HW212912   5.464   1.993   4.022
 4005SOL     OW12913   4.568   6.276   0.612
 4005SOL    HW112914   4.644   6.319   0.661
 4005SOL    HW212915   4.546   6.189   0.656
 4006SOL     OW12916   3.524   5.704   3.264
 4006SOL    HW112917   3.534   5.740   3.357
 4006SOL    HW212918   3.539   5.605   3.266
 4007SOL     OW12919   0.744   2.576   1.496
 4007SOL    HW112920   0.824   2.535   1.453
 4007SOL    HW212921   0.662   2.526   1.468
 4008SOL     OW12922   3.288   1.748   3.579
 4008SOL    HW112923   3.385   1.735   3.560
 4008SOL    HW212924   3.235   1.732   3.495
 4009SOL     OW12925   5.142   3.606   1.312
 4009SOL    HW112926   5.056   3.578   1.354
 4009SOL    HW212927   5.142   3.582   1.215
 4010SOL     OW12928   2.375   2.616   2.049
 4010SOL    HW112929   2.365   2.690   1.983
 4010SOL    HW212930   2.310   2.542   2.028
 4011SOL     OW12931   0.112   0.841   2.178
 4011SOL    HW112932   0.044   0.907   2.207
 4011SOL    HW212933   0.194   0.850   2.234
 4012SOL     OW12934   4.028   5.681   1.615
 4012SOL    HW112935   3.948   5.647   1.665
 4012SOL    HW212936   4.091   5.726   1.679
 4013SOL     OW12937   2.869   6.826   6.446
 4013SOL    HW112938   2.815   6.855   6.525
 4013SOL    HW212939   2.966   6.846   6.462
 4014SOL     OW12940   4.395   5.870   3.185
 4014SOL    HW112941   4.387   5.967   3.160
 4014SOL    HW212942   4.441   5.821   3.111
 4015SOL     OW12943   4.830   5.281   6.161
 4015SOL    HW112944   4.896   5.218   6.120
 4015SOL    HW212945   4.738   5.245   6.149
 4016SOL     OW12946   2.252   5.702   6.535
 4016SOL    HW112947   2.247   5.667   6.442
 4016SOL    HW212948   2.284   5.630   6.597
 4017SOL     OW12949   0.497   5.921   1.160
 4017SOL    HW112950   0.398   5.933   1.170
 4017SOL    HW212951   0.545   5.976   1.228
 4018SOL     OW12952   5.124   5.730   3.388
 4018SOL    HW112953   5.053   5.797   3.368
 4018SOL    HW212954   5.187   5.724   3.310
 4019SOL     OW12955   5.975   3.875   3.024
 4019SOL    HW112956   6.054   3.858   3.083
 4019SOL    HW212957   6.004   3.868   2.928
 4020SOL     OW12958   5.156   2.003   5.725
 4020SOL    HW112959   5.223   2.076   5.737
 4020SOL    HW212960   5.082   2.014   5.791
 4021SOL     OW12961   3.544   3.996   6.345
 4021SOL    HW112962   3.543   3.899   6.369
 4021SOL    HW212963   3.450   4.030   6.339
 4022SOL     OW12964   3.864   0.215   6.977
 4022SOL    HW112965   3.805   0.197   0.036
 4022SOL    HW212966   3.960   0.212   7.007
 4023SOL     OW12967   6.097   2.086   4.872
 4023SOL    HW112968   6.034   2.046   4.939
 4023SOL    HW212969   6.045   2.125   4.796
 4024SOL     OW12970   4.059   6.299   3.428
 4024SOL    HW112971   4.135   6.266   3.484
 4024SOL    HW212972   4.014   6.222   3.383
 4025SOL     OW12973   0.947   6.055   3.926
 4025SOL    HW112974   0.926   5.964   3.890
 4025SOL    HW212975   1.046   6.065   3.936
 4026SOL     OW12976   6.281   6.071   4.558
 4026SOL    HW112977   6.294   5.972   4.565
 4026SOL    HW212978   6.367   6.117   4.577
 4027SOL     OW12979   4.037   3.929   1.973
 4027SOL    HW112980   3.938   3.932   1.980
 4027SOL    HW212981   4.074   3.866   2.041
 4028SOL     OW12982   1.036   2.125   3.956
 4028SOL    HW112983   0.993   2.043   3.919
 4028SOL    HW212984   1.072   2.181   3.882
 4029SOL     OW12985   1.470   4.162   6.558
 4029SOL    HW112986   1.550   4.201   6.514
 4029SOL    HW212987   1.412   4.118   6.489
 4030SOL     OW12988   1.523   2.077   5.914
 4030SOL    HW112989   1.446   2.137   5.938
 4030SOL    HW212990   1.591   2.081   5.986
 4031SOL     OW12991   4.770   5.933   2.981
 4031SOL    HW112992   4.829   5.990   2.924
 4031SOL    HW212993   4.739   5.854   2.928
 4032SOL     OW12994   5.794   0.161   2.839
 4032SOL    HW112995   5.804   0.098   2.916
 4032SOL    HW212996   5.862   0.235   2.848
 4033SOL     OW12997   3.679   2.875   3.353
 4033SOL    HW112998   3.710   2.968   3.374
 4033SOL    HW212999   3.748   2.810   3.385
 4034SOL     OW13000   5.494   1.619   5.389
 4034SOL    HW113001   5.555   1.562   5.334
 4034SOL    HW213002   5.423   1.562   5.431
 4035SOL     OW13003   6.554   4.473   1.036
 4035SOL    HW113004   6.502   4.497   1.118
 4035SOL    HW213005   6.635   4.420   1.063
 4036SOL     OW13006   5.274   6.447   2.685
 4036SOL    HW113007   5.258   6.451   2.586
 4036SOL    HW213008   5.256   6.536   2.725
 4037SOL     OW13009   1.760   2.832   0.798
 4037SOL    HW113010   1.849   2.792   0.775
 4037SOL    HW213011   1.773   2.915   0.851
 4038SOL     OW13012   4.570   4.904   2.094
 4038SOL    HW113013   4.539   4.922   2.000
 4038SOL    HW213014   4.637   4.829   2.093
 4039SOL     OW13015   4.881   5.154   1.175
 4039SOL    HW113016   4.814   5.084   1.199
 4039SOL    HW213017   4.968   5.110   1.150
 4040SOL     OW13018   2.625   6.365   0.381
 4040SOL    HW113019   2.594   6.352   0.288
 4040SOL    HW213020   2.670   6.455   0.389
 4041SOL     OW13021   1.855   5.782   2.406
 4041SOL    HW113022   1.798   5.711   2.448
 4041SOL    HW213023   1.809   5.870   2.412
 4042SOL     OW13024   6.082   4.442   2.490
 4042SOL    HW113025   5.996   4.443   2.541
 4042SOL    HW213026   6.134   4.525   2.511
 4043SOL     OW13027   5.995   2.311   3.833
 4043SOL    HW113028   5.978   2.400   3.875
 4043SOL    HW213029   6.002   2.242   3.904
 4044SOL     OW13030   5.930   0.701   4.429
 4044SOL    HW113031   5.853   0.758   4.457
 4044SOL    HW213032   5.896   0.610   4.403
 4045SOL     OW13033   2.581   4.241   6.004
 4045SOL    HW113034   2.591   4.340   5.987
 4045SOL    HW213035   2.484   4.217   6.003
 4046SOL     OW13036   0.548   1.995   3.451
 4046SOL    HW113037   0.495   2.078   3.464
 4046SOL    HW213038   0.645   2.016   3.455
 4047SOL     OW13039   2.110   3.410   0.886
 4047SOL    HW113040   2.104   3.365   0.975
 4047SOL    HW213041   2.033   3.473   0.875
 4048SOL     OW13042   5.881   1.172   2.012
 4048SOL    HW113043   5.924   1.087   2.041
 4048SOL    HW213044   5.868   1.172   1.913
 4049SOL     OW13045   6.179   6.034   6.407
 4049SOL    HW113046   6.080   6.025   6.393
 4049SOL    HW213047   6.216   6.099   6.340
 4050SOL     OW13048   1.472   6.650   0.080
 4050SOL    HW113049   1.397   6.629   0.142
 4050SOL    HW213050   1.492   6.569   0.024
 4051SOL     OW13051   2.919   3.839   0.200
 4051SOL    HW113052   2.836   3.790   0.226
 4051SOL    HW213053   2.896   3.935   0.182
 4052SOL     OW13054   1.039   7.015   1.227
 4052SOL    HW113055   1.022   0.092   1.250
 4052SOL    HW213056   1.077   6.969   1.308
 4053SOL     OW13057   3.526   5.069   3.768
 4053SOL    HW113058   3.499   5.015   3.848
 4053SOL    HW213059   3.468   5.151   3.763
 4054SOL     OW13060   2.410   3.101   0.367
 4054SOL    HW113061   2.496   3.051   0.364
 4054SOL    HW213062   2.382   3.127   0.275
 4055SOL     OW13063   2.923   3.114   5.707
 4055SOL    HW113064   2.836   3.137   5.664
 4055SOL    HW213065   2.915   3.027   5.755
 4056SOL     OW13066   4.726   3.361   6.694
 4056SOL    HW113067   4.756   3.360   6.789
 4056SOL    HW213068   4.753   3.447   6.651
 4057SOL     OW13069   4.882   3.470   0.645
 4057SOL    HW113070   4.964   3.464   0.702
 4057SOL    HW213071   4.876   3.561   0.604
 4058SOL     OW13072   1.623   1.076   4.508
 4058SOL    HW113073   1.684   1.103   4.583
 4058SOL    HW213074   1.585   0.986   4.527
 4059SOL     OW13075   2.202   2.198   3.383
 4059SOL    HW113076   2.128   2.262   3.364
 4059SOL    HW213077   2.261   2.189   3.303
 4060SOL     OW13078   3.621   4.950   5.070
 4060SOL    HW113079   3.705   4.988   5.033
 4060SOL    HW213080   3.565   4.914   4.996
 4061SOL     OW13081   3.367   4.491   1.684
 4061SOL    HW113082   3.286   4.545   1.661
 4061SOL    HW213083   3.429   4.545   1.741
 4062SOL     OW13084   4.543   1.717   3.340
 4062SOL    HW113085   4.481   1.648   3.303
 4062SOL    HW213086   4.597   1.757   3.266
 4063SOL     OW13087   4.287   6.336   5.955
 4063SOL    HW113088   4.198   6.332   5.909
 4063SOL    HW213089   4.360   6.327   5.887
 4064SOL     OW13090   2.387   6.376   2.546
 4064SOL    HW113091   2.394   6.462   2.598
 4064SOL    HW213092   2.477   6.354   2.508
 4065SOL     OW13093   0.916   0.061   0.353
 4065SOL    HW113094   0.903   0.089   0.258
 4065SOL    HW213095   1.012   0.074   0.379
 4066SOL     OW13096   5.394   4.939   2.023
 4066SOL    HW113097   5.417   4.861   1.966
 4066SOL    HW213098   5.343   5.006   1.969
 4067SOL     OW13099   5.645   1.797   2.940
 4067SOL    HW113100   5.613   1.856   3.014
 4067SOL    HW213101   5.647   1.702   2.971
 4068SOL     OW13102   4.741   0.540   4.898
 4068SOL    HW113103   4.834   0.576   4.902
 4068SOL    HW213104   4.713   0.511   4.990
 4069SOL     OW13105   4.635   3.635   0.219
 4069SOL    HW113106   4.609   3.682   0.304
 4069SOL    HW213107   4.658   3.702   0.149
 4070SOL     OW13108   1.814   3.264   2.716
 4070SOL    HW113109   1.867   3.248   2.632
 4070SOL    HW213110   1.796   3.177   2.761
 4071SOL     OW13111   1.724   0.854   4.943
 4071SOL    HW113112   1.735   0.948   4.974
 4071SOL    HW213113   1.782   0.838   4.863
 4072SOL     OW13114   1.888   6.652   4.312
 4072SOL    HW113115   1.879   6.575   4.250
 4072SOL    HW213116   1.798   6.682   4.343
 4073SOL     OW13117   2.013   5.466   5.975
 4073SOL    HW113118   1.923   5.454   6.017
 4073SOL    HW213119   2.029   5.563   5.958
 4074SOL     OW13120   0.618   3.214   2.051
 4074SOL    HW113121   0.535   3.201   2.105
 4074SOL    HW213122   0.621   3.147   1.977
 4075SOL     OW13123   4.943   1.981   2.846
 4075SOL    HW113124   5.017   1.917   2.865
 4075SOL    HW213125   4.875   1.938   2.786
 4076SOL     OW13126   2.605   4.152   5.340
 4076SOL    HW113127   2.623   4.239   5.294
 4076SOL    HW213128   2.545   4.096   5.282
 4077SOL     OW13129   2.467   6.125   0.833
 4077SOL    HW113130   2.482   6.036   0.876
 4077SOL    HW213131   2.523   6.133   0.752
 4078SOL     OW13132   5.883   5.356   1.997
 4078SOL    HW113133   5.832   5.440   1.973
 4078SOL    HW213134   5.821   5.278   1.993
 4079SOL     OW13135   1.766   0.409   3.290
 4079SOL    HW113136   1.695   0.407   3.219
 4079SOL    HW213137   1.840   0.347   3.264
 4080SOL     OW13138   3.337   3.734   0.277
 4080SOL    HW113139   3.347   3.706   0.181
 4080SOL    HW213140   3.278   3.814   0.282
 4081SOL     OW13141   2.085   0.924   4.580
 4081SOL    HW113142   2.148   0.864   4.531
 4081SOL    HW213143   2.125   1.015   4.589
 4082SOL     OW13144   1.878   1.508   6.456
 4082SOL    HW113145   1.802   1.572   6.464
 4082SOL    HW213146   1.964   1.558   6.455
 4083SOL     OW13147   5.860   4.390   3.691
 4083SOL    HW113148   5.848   4.305   3.639
 4083SOL    HW213149   5.775   4.443   3.685
 4084SOL     OW13150   4.826   3.006   3.246
 4084SOL    HW113151   4.884   2.931   3.277
 4084SOL    HW213152   4.809   3.068   3.323
 4085SOL     OW13153   2.826   5.238   1.239
 4085SOL    HW113154   2.780   5.293   1.309
 4085SOL    HW213155   2.817   5.141   1.262
 4086SOL     OW13156   0.287   5.182   0.355
 4086SOL    HW113157   0.282   5.089   0.393
 4086SOL    HW213158   0.199   5.205   0.314
 4087SOL     OW13159   2.899   0.767   2.745
 4087SOL    HW113160   2.972   0.739   2.683
 4087SOL    HW213161   2.911   0.724   2.834
 4088SOL     OW13162   6.549   1.036   5.768
 4088SOL    HW113163   6.645   1.041   5.796
 4088SOL    HW213164   6.501   1.118   5.801
 4089SOL     OW13165   0.465   5.314   4.486
 4089SOL    HW113166   0.506   5.405   4.496
 4089SOL    HW213167   0.538   5.246   4.476
 4090SOL     OW13168   1.873   6.220   5.317
 4090SOL    HW113169   1.905   6.140   5.267
 4090SOL    HW213170   1.825   6.191   5.400
 4091SOL     OW13171   1.283   5.054   0.341
 4091SOL    HW113172   1.293   5.068   0.242
 4091SOL    HW213173   1.279   5.143   0.387
 4092SOL     OW13174   4.906   3.369   4.834
 4092SOL    HW113175   4.835   3.431   4.867
 4092SOL    HW213176   4.910   3.288   4.893
 4093SOL     OW13177   6.251   5.881   1.950
 4093SOL    HW113178   6.244   5.968   1.999
 4093SOL    HW213179   6.163   5.857   1.911
 4094SOL     OW13180   0.805   4.751   6.897
 4094SOL    HW113181   0.862   4.682   6.942
 4094SOL    HW213182   0.853   4.839   6.896
 4095SOL     OW13183   0.727   3.357   0.412
 4095SOL    HW113184   0.725   3.258   0.422
 4095SOL    HW213185   0.636   3.395   0.431
 4096SOL     OW13186   2.021   0.955   6.381
 4096SOL    HW113187   2.079   0.875   6.392
 4096SOL    HW213188   2.076   1.038   6.393
 4097SOL     OW13189   6.069   4.493   5.263
 4097SOL    HW113190   6.115   4.558   5.204
 4097SOL    HW213191   6.126   4.472   5.342
 4098SOL     OW13192   2.021   3.184   1.637
 4098SOL    HW113193   1.961   3.124   1.690
 4098SOL    HW213194   1.968   3.260   1.600
 4099SOL     OW13195   3.673   5.228   6.874
 4099SOL    HW113196   3.714   5.234   6.965
 4099SOL    HW213197   3.738   5.185   6.811
 4100SOL     OW13198   1.134   0.755   3.787
 4100SOL    HW113199   1.103   0.850   3.797
 4100SOL    HW213200   1.230   0.748   3.814
 4101SOL     OW13201   6.671   1.031   6.185
 4101SOL    HW113202   6.756   1.018   6.133
 4101SOL    HW213203   6.682   0.992   6.276
 4102SOL     OW13204   1.818   0.775   0.871
 4102SOL    HW113205   1.849   0.857   0.821
 4102SOL    HW213206   1.734   0.741   0.829
 4103SOL     OW13207   0.216   6.930   2.219
 4103SOL    HW113208   0.183   6.960   2.309
 4103SOL    HW213209   0.308   6.965   2.204
 4104SOL     OW13210   0.223   5.274   3.181
 4104SOL    HW113211   0.188   5.213   3.252
 4104SOL    HW213212   0.147   5.314   3.130
 4105SOL     OW13213   4.943   1.106   1.726
 4105SOL    HW113214   5.011   1.071   1.661
 4105SOL    HW213215   4.979   1.187   1.771
 4106SOL     OW13216   6.906   2.299   4.001
 4106SOL    HW113217   6.809   2.297   3.978
 4106SOL    HW213218   6.918   2.339   4.092
 4107SOL     OW13219   0.253   6.186   6.918
 4107SOL    HW113220   0.348   6.216   6.916
 4107SOL    HW213221   0.208   6.221   7.000
 4108SOL     OW13222   1.038   5.589   4.053
 4108SOL    HW113223   0.956   5.539   4.080
 4108SOL    HW213224   1.014   5.663   3.990
 4109SOL     OW13225   5.855   5.903   3.717
 4109SOL    HW113226   5.826   5.959   3.794
 4109SOL    HW213227   5.947   5.931   3.688
 4110SOL     OW13228   4.144   2.957   6.666
 4110SOL    HW113229   4.165   3.048   6.630
 4110SOL    HW213230   4.080   2.911   6.604
 4111SOL     OW13231   5.915   5.076   6.150
 4111SOL    HW113232   5.830   5.128   6.155
 4111SOL    HW213233   5.894   4.979   6.136
 4112SOL     OW13234   4.990   0.000   4.717
 4112SOL    HW113235   5.082   0.008   4.678
 4112SOL    HW213236   4.990   0.034   4.811
 4113SOL     OW13237   4.518   5.185   4.835
 4113SOL    HW113238   4.508   5.086   4.840
 4113SOL    HW213239   4.576   5.217   4.910
 4114SOL     OW13240   6.093   1.596   3.208
 4114SOL    HW113241   6.039   1.673   3.172
 4114SOL    HW213242   6.187   1.626   3.223
 4115SOL     OW13243   2.935   4.824   3.295
 4115SOL    HW113244   2.894   4.740   3.331
 4115SOL    HW213245   3.027   4.834   3.331
 4116SOL     OW13246   5.446   2.534   3.393
 4116SOL    HW113247   5.456   2.492   3.483
 4116SOL    HW213248   5.524   2.510   3.335
 4117SOL     OW13249   1.404   1.967   2.529
 4117SOL    HW113250   1.399   1.868   2.515
 4117SOL    HW213251   1.459   2.008   2.457
 4118SOL     OW13252   6.295   6.683   6.267
 4118SOL    HW113253   6.295   6.747   6.190
 4118SOL    HW213254   6.305   6.734   6.353
 4119SOL     OW13255   3.196   0.646   3.151
 4119SOL    HW113256   3.187   0.702   3.233
 4119SOL    HW213257   3.265   0.575   3.166
 4120SOL     OW13258   4.329   1.386   6.240
 4120SOL    HW113259   4.427   1.399   6.223
 4120SOL    HW213260   4.292   1.469   6.282
 4121SOL     OW13261   6.638   6.269   2.570
 4121SOL    HW113262   6.682   6.343   2.520
 4121SOL    HW213263   6.556   6.303   2.616
 4122SOL     OW13264   0.926   6.467   4.708
 4122SOL    HW113265   0.827   6.484   4.708
 4122SOL    HW213266   0.943   6.373   4.738
 4123SOL     OW13267   4.382   5.607   4.558
 4123SOL    HW113268   4.378   5.514   4.595
 4123SOL    HW213269   4.450   5.660   4.609
 4124SOL     OW13270   6.537   6.547   1.322
 4124SOL    HW113271   6.446   6.567   1.284
 4124SOL    HW213272   6.607   6.578   1.258
 4125SOL     OW13273   4.764   2.805   2.768
 4125SOL    HW113274   4.755   2.822   2.866
 4125SOL    HW213275   4.843   2.746   2.752
 4126SOL     OW13276   1.750   2.979   2.115
 4126SOL    HW113277   1.714   2.886   2.105
 4126SOL    HW213278   1.707   3.023   2.194
 4127SOL     OW13279   4.274   2.179   4.677
 4127SOL    HW113280   4.206   2.190   4.750
 4127SOL    HW213281   4.230   2.141   4.596
 4128SOL     OW13282   0.358   3.144   2.107
 4128SOL    HW113283   0.316   3.192   2.183
 4128SOL    HW213284   0.324   3.050   2.104
 4129SOL     OW13285   3.209   2.331   0.401
 4129SOL    HW113286   3.210   2.354   0.303
 4129SOL    HW213287   3.143   2.258   0.417
 4130SOL     OW13288   6.305   2.574   0.530
 4130SOL    HW113289   6.231   2.605   0.471
 4130SOL    HW213290   6.270   2.507   0.596
 4131SOL     OW13291   6.565   0.590   2.722
 4131SOL    HW113292   6.481   0.617   2.769
 4131SOL    HW213293   6.640   0.586   2.788
 4132SOL     OW13294   5.945   4.138   4.041
 4132SOL    HW113295   5.908   4.045   4.038
 4132SOL    HW213296   5.963   4.170   3.948
 4133SOL     OW13297   4.880   6.226   1.209
 4133SOL    HW113298   4.890   6.290   1.286
 4133SOL    HW213299   4.838   6.142   1.242
 4134SOL     OW13300   2.450   3.357   0.841
 4134SOL    HW113301   2.420   3.450   0.862
 4134SOL    HW213302   2.414   3.330   0.751
 4135SOL     OW13303   0.386   2.052   2.819
 4135SOL    HW113304   0.452   1.995   2.867
 4135SOL    HW213305   0.386   2.028   2.722
 4136SOL     OW13306   1.163   3.637   1.650
 4136SOL    HW113307   1.149   3.728   1.611
 4136SOL    HW213308   1.205   3.577   1.582
 4137SOL     OW13309   1.146   2.640   6.790
 4137SOL    HW113310   1.141   2.708   6.864
 4137SOL    HW213311   1.206   2.565   6.817
 4138SOL     OW13312   4.263   5.297   1.155
 4138SOL    HW113313   4.175   5.256   1.178
 4138SOL    HW213314   4.313   5.319   1.240
 4139SOL     OW13315   1.327   2.028   3.819
 4139SOL    HW113316   1.305   1.935   3.788
 4139SOL    HW213317   1.262   2.055   3.890
 4140SOL     OW13318   3.329   2.130   3.820
 4140SOL    HW113319   3.300   2.160   3.911
 4140SOL    HW213320   3.422   2.093   3.826
 4141SOL     OW13321   4.642   0.143   6.682
 4141SOL    HW113322   4.640   0.192   6.769
 4141SOL    HW213323   4.734   0.111   6.663
 4142SOL     OW13324   6.814   4.178   1.916
 4142SOL    HW113325   6.784   4.099   1.863
 4142SOL    HW213326   6.911   4.194   1.900
 4143SOL     OW13327   5.502   3.581   0.917
 4143SOL    HW113328   5.420   3.627   0.883
 4143SOL    HW213329   5.502   3.486   0.885
 4144SOL     OW13330   5.145   1.814   0.420
 4144SOL    HW113331   5.110   1.730   0.462
 4144SOL    HW213332   5.229   1.842   0.467
 4145SOL     OW13333   1.173   6.246   0.702
 4145SOL    HW113334   1.208   6.323   0.648
 4145SOL    HW213335   1.231   6.166   0.686
 4146SOL     OW13336   6.144   0.100   3.985
 4146SOL    HW113337   6.200   0.075   3.906
 4146SOL    HW213338   6.175   0.049   4.066
 4147SOL     OW13339   5.772   4.720   6.134
 4147SOL    HW113340   5.818   4.702   6.221
 4147SOL    HW213341   5.711   4.644   6.112
 4148SOL     OW13342   2.796   0.223   5.624
 4148SOL    HW113343   2.826   0.305   5.575
 4148SOL    HW213344   2.698   0.211   5.613
 4149SOL     OW13345   0.433   3.444   1.636
 4149SOL    HW113346   0.489   3.409   1.561
 4149SOL    HW213347   0.340   3.459   1.604
 4150SOL     OW13348   6.513   2.366   5.284
 4150SOL    HW113349   6.570   2.294   5.323
 4150SOL    HW213350   6.571   2.430   5.233
 4151SOL     OW13351   1.889   7.010   5.096
 4151SOL    HW113352   1.983   0.010   5.124
 4151SOL    HW213353   1.825   0.027   5.163
 4152SOL     OW13354   3.846   6.006   1.809
 4152SOL    HW113355   3.758   5.990   1.855
 4152SOL    HW213356   3.829   6.017   1.711
 4153SOL     OW13357   6.815   5.072   1.686
 4153SOL    HW113358   6.736   5.098   1.741
 4153SOL    HW213359   6.891   5.135   1.705
 4154SOL     OW13360   0.660   5.606   3.149
 4154SOL    HW113361   0.710   5.531   3.192
 4154SOL    HW213362   0.568   5.574   3.123
 4155SOL     OW13363   6.646   2.264   1.233
 4155SOL    HW113364   6.647   2.364   1.232
 4155SOL    HW213365   6.582   2.233   1.304
 4156SOL     OW13366   6.455   5.258   4.938
 4156SOL    HW113367   6.355   5.269   4.936
 4156SOL    HW213368   6.493   5.322   5.005
 4157SOL     OW13369   6.132   5.992   2.593
 4157SOL    HW113370   6.111   6.049   2.673
 4157SOL    HW213371   6.206   5.929   2.616
 4158SOL     OW13372   1.724   2.682   1.901
 4158SOL    HW113373   1.787   2.759   1.890
 4158SOL    HW213374   1.706   2.668   1.998
 4159SOL     OW13375   2.641   2.218   3.185
 4159SOL    HW113376   2.706   2.172   3.245
 4159SOL    HW213377   2.639   2.172   3.096
 4160SOL     OW13378   5.501   0.236   0.196
 4160SOL    HW113379   5.581   0.214   0.140
 4160SOL    HW213380   5.468   0.327   0.171
 4161SOL     OW13381   1.584   2.275   1.455
 4161SOL    HW113382   1.514   2.346   1.457
 4161SOL    HW213383   1.665   2.308   1.408
 4162SOL     OW13384   6.410   5.829   1.546
 4162SOL    HW113385   6.366   5.768   1.612
 4162SOL    HW213386   6.486   5.782   1.502
 4163SOL     OW13387   5.500   1.213   2.721
 4163SOL    HW113388   5.438   1.164   2.660
 4163SOL    HW213389   5.454   1.231   2.808
 4164SOL     OW13390   0.760   6.838   5.364
 4164SOL    HW113391   0.669   6.800   5.379
 4164SOL    HW213392   0.755   6.938   5.369
 4165SOL     OW13393   4.478   6.783   6.086
 4165SOL    HW113394   4.427   6.839   6.152
 4165SOL    HW213395   4.574   6.777   6.113
 4166SOL     OW13396   5.962   1.100   1.476
 4166SOL    HW113397   6.050   1.076   1.435
 4166SOL    HW213398   5.897   1.026   1.462
 4167SOL     OW13399   2.859   5.028   6.102
 4167SOL    HW113400   2.769   5.027   6.058
 4167SOL    HW213401   2.857   5.090   6.180
 4168SOL     OW13402   0.260   4.183   0.605
 4168SOL    HW113403   0.198   4.199   0.529
 4168SOL    HW213404   0.309   4.267   0.627
 4169SOL     OW13405   6.052   3.840   5.404
 4169SOL    HW113406   6.034   3.777   5.480
 4169SOL    HW213407   5.966   3.878   5.370
 4170SOL     OW13408   4.807   2.947   4.881
 4170SOL    HW113409   4.707   2.947   4.886
 4170SOL    HW213410   4.843   3.016   4.942
 4171SOL     OW13411   1.238   5.375   1.200
 4171SOL    HW113412   1.138   5.380   1.198
 4171SOL    HW213413   1.272   5.374   1.106
 4172SOL     OW13414   2.629   2.948   0.287
 4172SOL    HW113415   2.678   3.010   0.226
 4172SOL    HW213416   2.639   2.854   0.254
 4173SOL     OW13417   4.846   2.919   5.729
 4173SOL    HW113418   4.775   2.914   5.659
 4173SOL    HW213419   4.856   3.013   5.760
 4174SOL     OW13420   5.052   1.616   2.371
 4174SOL    HW113421   5.069   1.532   2.319
 4174SOL    HW213422   4.971   1.604   2.427
 4175SOL     OW13423   1.713   4.421   4.947
 4175SOL    HW113424   1.778   4.373   4.888
 4175SOL    HW213425   1.763   4.479   5.011
 4176SOL     OW13426   4.045   6.509   1.596
 4176SOL    HW113427   4.028   6.479   1.689
 4176SOL    HW213428   4.096   6.439   1.547
 4177SOL     OW13429   5.201   4.439   5.090
 4177SOL    HW113430   5.161   4.489   5.014
 4177SOL    HW213431   5.131   4.420   5.159
 4178SOL     OW13432   4.598   0.128   3.020
 4178SOL    HW113433   4.643   0.192   3.082
 4178SOL    HW213434   4.667   0.078   2.969
 4179SOL     OW13435   5.101   3.957   3.250
 4179SOL    HW113436   5.169   3.978   3.180
 4179SOL    HW213437   5.120   3.866   3.289
 4180SOL     OW13438   4.987   2.714   1.004
 4180SOL    HW113439   5.053   2.751   0.939
 4180SOL    HW213440   4.912   2.670   0.954
 4181SOL     OW13441   4.921   1.034   6.802
 4181SOL    HW113442   5.016   1.029   6.770
 4181SOL    HW213443   4.912   1.107   6.870
 4182SOL     OW13444   0.511   5.138   3.223
 4182SOL    HW113445   0.430   5.185   3.189
 4182SOL    HW213446   0.499   5.040   3.215
 4183SOL     OW13447   2.679   1.033   0.540
 4183SOL    HW113448   2.691   0.970   0.463
 4183SOL    HW213449   2.761   1.090   0.550
 4184SOL     OW13450   3.724   0.217   2.363
 4184SOL    HW113451   3.657   0.261   2.304
 4184SOL    HW213452   3.731   0.120   2.339
 4185SOL     OW13453   0.733   4.001   2.683
 4185SOL    HW113454   0.817   4.020   2.734
 4185SOL    HW213455   0.756   3.952   2.599
 4186SOL     OW13456   2.340   5.950   6.490
 4186SOL    HW113457   2.422   5.934   6.435
 4186SOL    HW213458   2.305   5.863   6.524
 4187SOL     OW13459   2.456   3.332   6.521
 4187SOL    HW113460   2.538   3.280   6.546
 4187SOL    HW213461   2.399   3.345   6.602
 4188SOL     OW13462   5.206   0.996   5.027
 4188SOL    HW113463   5.284   1.059   5.027
 4188SOL    HW213464   5.171   0.986   4.933
 4189SOL     OW13465   3.628   4.982   4.371
 4189SOL    HW113466   3.532   5.007   4.384
 4189SOL    HW213467   3.643   4.954   4.276
 4190SOL     OW13468   0.530   6.938   0.691
 4190SOL    HW113469   0.530   6.899   0.783
 4190SOL    HW213470   0.622   6.969   0.668
 4191SOL     OW13471   5.359   3.519   5.204
 4191SOL    HW113472   5.445   3.565   5.183
 4191SOL    HW213473   5.284   3.566   5.157
 4192SOL     OW13474   1.146   1.816   2.130
 4192SOL    HW113475   1.204   1.784   2.055
 4192SOL    HW213476   1.059   1.848   2.094
 4193SOL     OW13477   5.147   0.620   0.790
 4193SOL    HW113478   5.154   0.556   0.712
 4193SOL    HW213479   5.206   0.588   0.864
 4194SOL     OW13480   5.189   0.134   4.278
 4194SOL    HW113481   5.118   0.105   4.214
 4194SOL    HW213482   5.268   0.167   4.227
 4195SOL     OW13483   4.203   5.136   1.863
 4195SOL    HW113484   4.172   5.180   1.947
 4195SOL    HW213485   4.124   5.102   1.812
 4196SOL     OW13486   6.994   2.172   2.854
 4196SOL    HW113487   0.038   2.147   2.927
 4196SOL    HW213488   6.912   2.213   2.894
 4197SOL     OW13489   4.398   5.174   5.371
 4197SOL    HW113490   4.453   5.243   5.417
 4197SOL    HW213491   4.324   5.218   5.320
 4198SOL     OW13492   6.693   1.446   1.292
 4198SOL    HW113493   6.763   1.375   1.297
 4198SOL    HW213494   6.627   1.433   1.367
 4199SOL     OW13495   1.073   2.475   5.335
 4199SOL    HW113496   1.067   2.384   5.295
 4199SOL    HW213497   1.115   2.468   5.426
 4200SOL     OW13498   2.805   0.594   6.258
 4200SOL    HW113499   2.864   0.552   6.188
 4200SOL    HW213500   2.742   0.658   6.214
 4201SOL     OW13501   6.220   0.255   3.484
 4201SOL    HW113502   6.223   0.277   3.582
 4201SOL    HW213503   6.284   0.313   3.435
 4202SOL     OW13504   2.251   5.509   6.313
 4202SOL    HW113505   2.200   5.431   6.350
 4202SOL    HW213506   2.272   5.494   6.217
 4203SOL     OW13507   5.010   4.500   0.494
 4203SOL    HW113508   5.081   4.485   0.563
 4203SOL    HW213509   4.939   4.430   0.504
 4204SOL     OW13510   3.868   3.590   4.844
 4204SOL    HW113511   3.914   3.605   4.931
 4204SOL    HW213512   3.935   3.586   4.771
 4205SOL     OW13513   4.231   6.104   4.849
 4205SOL    HW113514   4.163   6.068   4.912
 4205SOL    HW213515   4.197   6.187   4.805
 4206SOL     OW13516   6.430   1.911   5.315
 4206SOL    HW113517   6.347   1.902   5.260
 4206SOL    HW213518   6.414   1.872   5.406
 4207SOL     OW13519   2.277   2.824   1.897
 4207SOL    HW113520   2.326   2.889   1.839
 4207SOL    HW213521   2.199   2.870   1.940
 4208SOL     OW13522   0.025   3.841   5.964
 4208SOL    HW113523   0.016   3.940   5.952
 4208SOL    HW213524   7.012   3.794   5.881
 4209SOL     OW13525   0.079   6.266   3.401
 4209SOL    HW113526   7.002   6.246   3.388
 4209SOL    HW213527   0.135   6.193   3.361
 4210SOL     OW13528   3.447   2.877   2.555
 4210SOL    HW113529   3.468   2.925   2.641
 4210SOL    HW213530   3.463   2.779   2.568
 4211SOL     OW13531   3.675   0.549   5.331
 4211SOL    HW113532   3.645   0.522   5.240
 4211SOL    HW213533   3.687   0.468   5.388
 4212SOL     OW13534   6.184   1.936   3.154
 4212SOL    HW113535   6.212   1.940   3.058
 4212SOL    HW213536   6.229   1.860   3.200
 4213SOL     OW13537   2.987   0.148   2.622
 4213SOL    HW113538   2.941   0.237   2.627
 4213SOL    HW213539   2.919   0.077   2.602
 4214SOL     OW13540   0.445   5.669   5.370
 4214SOL    HW113541   0.371   5.607   5.397
 4214SOL    HW213542   0.465   5.656   5.273
 4215SOL     OW13543   5.133   7.018   5.190
 4215SOL    HW113544   5.226   0.004   5.226
 4215SOL    HW213545   5.132   6.962   5.107
 4216SOL     OW13546   1.582   1.178   3.002
 4216SOL    HW113547   1.616   1.271   3.012
 4216SOL    HW213548   1.645   1.114   3.046
 4217SOL     OW13549   1.016   0.993   2.728
 4217SOL    HW113550   1.032   1.076   2.782
 4217SOL    HW213551   1.015   0.913   2.789
 4218SOL     OW13552   3.200   0.503   1.603
 4218SOL    HW113553   3.238   0.477   1.515
 4218SOL    HW213554   3.249   0.582   1.639
 4219SOL     OW13555   4.377   5.796   4.343
 4219SOL    HW113556   4.367   5.719   4.406
 4219SOL    HW213557   4.381   5.881   4.395
 4220SOL     OW13558   6.542   3.403   2.192
 4220SOL    HW113559   6.547   3.499   2.164
 4220SOL    HW213560   6.633   3.361   2.183
 4221SOL     OW13561   5.816   4.205   5.492
 4221SOL    HW113562   5.742   4.207   5.559
 4221SOL    HW213563   5.812   4.287   5.436
 4222SOL     OW13564   6.906   0.927   2.812
 4222SOL    HW113565   6.822   0.888   2.849
 4222SOL    HW213566   6.971   0.853   2.792
 4223SOL     OW13567   3.625   3.802   0.608
 4223SOL    HW113568   3.674   3.854   0.678
 4223SOL    HW213569   3.565   3.735   0.652
 4224SOL     OW13570   5.608   4.977   4.487
 4224SOL    HW113571   5.538   5.047   4.473
 4224SOL    HW213572   5.576   4.911   4.555
 4225SOL     OW13573   2.048   2.792   5.150
 4225SOL    HW113574   2.107   2.867   5.182
 4225SOL    HW213575   2.020   2.737   5.229
 4226SOL     OW13576   1.012   6.081   2.965
 4226SOL    HW113577   0.923   6.044   2.989
 4226SOL    HW213578   1.019   6.089   2.865
 4227SOL     OW13579   3.587   5.673   1.977
 4227SOL    HW113580   3.534   5.694   1.894
 4227SOL    HW213581   3.637   5.588   1.963
 4228SOL     OW13582   0.545   6.379   5.655
 4228SOL    HW113583   0.448   6.391   5.634
 4228SOL    HW213584   0.581   6.464   5.693
 4229SOL     OW13585   5.008   5.841   5.927
 4229SOL    HW113586   4.983   5.874   5.837
 4229SOL    HW213587   5.049   5.915   5.980
 4230SOL     OW13588   1.940   6.270   3.217
 4230SOL    HW113589   1.872   6.328   3.171
 4230SOL    HW213590   1.911   6.175   3.213
 4231SOL     OW13591   5.175   6.968   5.981
 4231SOL    HW113592   5.076   6.960   5.985
 4231SOL    HW213593   5.205   6.959   5.886
 4232SOL     OW13594   1.376   4.484   3.161
 4232SOL    HW113595   1.423   4.523   3.082
 4232SOL    HW213596   1.375   4.384   3.153
 4233SOL     OW13597   6.349   0.754   5.025
 4233SOL    HW113598   6.296   0.832   4.992
 4233SOL    HW213599   6.288   0.689   5.071
 4234SOL     OW13600   1.963   5.065   5.123
 4234SOL    HW113601   1.984   5.111   5.209
 4234SOL    HW213602   1.885   5.110   5.078
 4235SOL     OW13603   6.608   4.317   5.800
 4235SOL    HW113604   6.550   4.237   5.788
 4235SOL    HW213605   6.596   4.380   5.723
 4236SOL     OW13606   6.142   3.633   2.251
 4236SOL    HW113607   6.165   3.597   2.161
 4236SOL    HW213608   6.060   3.691   2.245
 4237SOL     OW13609   6.075   5.130   4.113
 4237SOL    HW113610   6.166   5.095   4.092
 4237SOL    HW213611   6.045   5.191   4.039
 4238SOL     OW13612   1.511   6.749   3.155
 4238SOL    HW113613   1.524   6.784   3.062
 4238SOL    HW213614   1.428   6.790   3.195
 4239SOL     OW13615   4.852   1.569   3.353
 4239SOL    HW113616   4.921   1.593   3.285
 4239SOL    HW213617   4.761   1.594   3.319
 4240SOL     OW13618   2.197   5.664   0.388
 4240SOL    HW113619   2.268   5.714   0.437
 4240SOL    HW213620   2.188   5.572   0.427
 4241SOL     OW13621   5.535   1.159   0.925
 4241SOL    HW113622   5.495   1.183   0.836
 4241SOL    HW213623   5.595   1.233   0.955
 4242SOL     OW13624   3.248   2.146   4.090
 4242SOL    HW113625   3.203   2.059   4.069
 4242SOL    HW213626   3.214   2.180   4.178
 4243SOL     OW13627   5.583   2.574   3.056
 4243SOL    HW113628   5.584   2.674   3.058
 4243SOL    HW213629   5.658   2.539   3.113
 4244SOL     OW13630   4.327   4.412   1.450
 4244SOL    HW113631   4.311   4.314   1.448
 4244SOL    HW213632   4.306   4.447   1.542
 4245SOL     OW13633   6.468   1.961   6.062
 4245SOL    HW113634   6.544   1.921   6.113
 4245SOL    HW213635   6.388   1.901   6.069
 4246SOL     OW13636   6.586   3.648   2.827
 4246SOL    HW113637   6.620   3.587   2.899
 4246SOL    HW213638   6.623   3.740   2.841
 4247SOL     OW13639   2.265   6.119   3.550
 4247SOL    HW113640   2.337   6.063   3.590
 4247SOL    HW213641   2.306   6.194   3.499
 4248SOL     OW13642   3.366   1.393   4.051
 4248SOL    HW113643   3.452   1.396   4.000
 4248SOL    HW213644   3.305   1.325   4.009
 4249SOL     OW13645   6.713   2.863   5.125
 4249SOL    HW113646   6.725   2.956   5.162
 4249SOL    HW213647   6.798   2.812   5.137
 4250SOL     OW13648   6.441   4.376   2.821
 4250SOL    HW113649   6.434   4.456   2.761
 4250SOL    HW213650   6.538   4.357   2.838
 4251SOL     OW13651   5.871   4.752   0.995
 4251SOL    HW113652   5.894   4.805   1.077
 4251SOL    HW213653   5.886   4.655   1.014
 4252SOL     OW13654   5.786   6.520   5.246
 4252SOL    HW113655   5.708   6.529   5.184
 4252SOL    HW213656   5.796   6.603   5.300
 4253SOL     OW13657   3.247   6.721   1.100
 4253SOL    HW113658   3.245   6.697   1.003
 4253SOL    HW213659   3.168   6.682   1.146
 4254SOL     OW13660   0.838   2.619   2.460
 4254SOL    HW113661   0.823   2.544   2.395
 4254SOL    HW213662   0.900   2.588   2.532
 4255SOL     OW13663   5.657   3.585   3.492
 4255SOL    HW113664   5.673   3.545   3.582
 4255SOL    HW213665   5.561   3.610   3.483
 4256SOL     OW13666   1.421   0.055   0.848
 4256SOL    HW113667   1.422   0.042   0.947
 4256SOL    HW213668   1.340   0.012   0.809
 4257SOL     OW13669   3.590   0.348   3.993
 4257SOL    HW113670   3.573   0.289   4.071
 4257SOL    HW213671   3.503   0.377   3.953
 4258SOL     OW13672   5.386   6.016   1.662
 4258SOL    HW113673   5.294   6.037   1.693
 4258SOL    HW213674   5.451   6.082   1.699
 4259SOL     OW13675   2.735   0.985   0.004
 4259SOL    HW113676   2.722   1.023   6.931
 4259SOL    HW213677   2.831   0.964   0.017
 4260SOL     OW13678   4.670   0.026   6.284
 4260SOL    HW113679   4.656   0.109   6.337
 4260SOL    HW213680   4.581   7.004   6.262
 4261SOL     OW13681   1.918   0.342   1.791
 4261SOL    HW113682   1.913   0.353   1.890
 4261SOL    HW213683   1.956   0.425   1.751
 4262SOL     OW13684   0.320   4.268   5.525
 4262SOL    HW113685   0.273   4.194   5.477
 4262SOL    HW213686   0.416   4.243   5.540
 4263SOL     OW13687   2.755   6.426   3.477
 4263SOL    HW113688   2.850   6.458   3.469
 4263SOL    HW213689   2.702   6.458   3.399
 4264SOL     OW13690   0.273   2.453   2.821
 4264SOL    HW113691   0.262   2.366   2.773
 4264SOL    HW213692   0.269   2.437   2.920
 4265SOL     OW13693   5.477   1.528   0.715
 4265SOL    HW113694   5.456   1.431   0.699
 4265SOL    HW213695   5.486   1.575   0.628
 4266SOL     OW13696   2.036   4.865   0.227
 4266SOL    HW113697   2.063   4.885   0.321
 4266SOL    HW213698   1.957   4.921   0.202
 4267SOL     OW13699   2.016   3.370   4.763
 4267SOL    HW113700   2.047   3.459   4.733
 4267SOL    HW213701   1.919   3.375   4.788
 4268SOL     OW13702   1.006   6.368   6.361
 4268SOL    HW113703   1.054   6.360   6.449
 4268SOL    HW213704   0.918   6.412   6.375
 4269SOL     OW13705   2.154   1.392   1.702
 4269SOL    HW113706   2.077   1.330   1.687
 4269SOL    HW213707   2.236   1.339   1.724
 4270SOL     OW13708   3.866   3.580   3.892
 4270SOL    HW113709   3.935   3.572   3.964
 4270SOL    HW213710   3.852   3.676   3.870
 4271SOL     OW13711   0.388   1.284   6.955
 4271SOL    HW113712   0.289   1.284   6.973
 4271SOL    HW213713   0.408   1.341   6.876
 4272SOL     OW13714   0.302   3.686   4.927
 4272SOL    HW113715   0.341   3.757   4.985
 4272SOL    HW213716   0.333   3.596   4.958
 4273SOL     OW13717   4.647   5.720   5.361
 4273SOL    HW113718   4.561   5.771   5.366
 4273SOL    HW213719   4.701   5.736   5.444
 4274SOL     OW13720   1.749   0.146   2.224
 4274SOL    HW113721   1.656   0.174   2.198
 4274SOL    HW213722   1.774   0.064   2.173
 4275SOL     OW13723   6.413   1.195   4.991
 4275SOL    HW113724   6.342   1.126   4.979
 4275SOL    HW213725   6.451   1.220   4.902
 4276SOL     OW13726   1.834   4.579   4.019
 4276SOL    HW113727   1.810   4.500   4.075
 4276SOL    HW213728   1.922   4.616   4.050
 4277SOL     OW13729   6.135   4.782   4.425
 4277SOL    HW113730   6.049   4.793   4.375
 4277SOL    HW213731   6.161   4.685   4.425
 4278SOL     OW13732   0.374   0.738   4.572
 4278SOL    HW113733   0.403   0.783   4.657
 4278SOL    HW213734   0.333   0.805   4.511
 4279SOL     OW13735   3.638   0.200   5.046
 4279SOL    HW113736   3.726   0.246   5.055
 4279SOL    HW213737   3.604   0.212   4.952
 4280SOL     OW13738   5.298   0.849   5.673
 4280SOL    HW113739   5.390   0.820   5.697
 4280SOL    HW213740   5.284   0.837   5.574
 4281SOL     OW13741   1.369   5.203   4.109
 4281SOL    HW113742   1.452   5.202   4.165
 4281SOL    HW213743   1.324   5.113   4.115
 4282SOL     OW13744   3.510   3.663   6.356
 4282SOL    HW113745   3.428   3.656   6.299
 4282SOL    HW213746   3.539   3.572   6.384
 4283SOL     OW13747   2.467   0.860   3.490
 4283SOL    HW113748   2.565   0.849   3.507
 4283SOL    HW213749   2.423   0.770   3.484
 4284SOL     OW13750   4.395   5.382   1.366
 4284SOL    HW113751   4.482   5.393   1.317
 4284SOL    HW213752   4.405   5.419   1.459
 4285SOL     OW13753   0.582   0.799   6.023
 4285SOL    HW113754   0.641   0.847   6.088
 4285SOL    HW213755   0.492   0.784   6.065
 4286SOL     OW13756   4.712   5.846   6.562
 4286SOL    HW113757   4.696   5.900   6.480
 4286SOL    HW213758   4.733   5.907   6.638
 4287SOL     OW13759   5.512   1.486   6.710
 4287SOL    HW113760   5.511   1.565   6.649
 4287SOL    HW213761   5.592   1.429   6.691
 4288SOL     OW13762   1.094   5.980   3.366
 4288SOL    HW113763   1.107   5.881   3.367
 4288SOL    HW213764   0.996   6.001   3.367
 4289SOL     OW13765   6.774   3.168   0.741
 4289SOL    HW113766   6.790   3.194   0.646
 4289SOL    HW213767   6.855   3.123   0.778
 4290SOL     OW13768   2.353   0.006   2.763
 4290SOL    HW113769   2.396   0.060   2.835
 4290SOL    HW213770   2.385   6.930   2.769
 4291SOL     OW13771   3.886   3.698   1.020
 4291SOL    HW113772   3.916   3.602   1.023
 4291SOL    HW213773   3.827   3.717   1.098
 4292SOL     OW13774   6.350   4.338   6.396
 4292SOL    HW113775   6.307   4.363   6.309
 4292SOL    HW213776   6.298   4.264   6.438
 4293SOL     OW13777   0.782   3.325   0.834
 4293SOL    HW113778   0.818   3.351   0.744
 4293SOL    HW213779   0.828   3.378   0.905
 4294SOL     OW13780   2.949   2.742   0.060
 4294SOL    HW113781   2.881   2.669   0.074
 4294SOL    HW213782   3.019   2.737   0.131
 4295SOL     OW13783   4.093   5.921   4.586
 4295SOL    HW113784   4.075   5.823   4.575
 4295SOL    HW213785   4.183   5.933   4.629
 4296SOL     OW13786   4.179   0.578   0.460
 4296SOL    HW113787   4.205   0.674   0.447
 4296SOL    HW213788   4.119   0.570   0.540
 4297SOL     OW13789   5.416   1.118   6.812
 4297SOL    HW113790   5.398   1.038   6.869
 4297SOL    HW213791   5.352   1.191   6.836
 4298SOL     OW13792   3.052   5.717   0.211
 4298SOL    HW113793   2.991   5.797   0.214
 4298SOL    HW213794   3.075   5.696   0.116
 4299SOL     OW13795   1.224   3.000   0.300
 4299SOL    HW113796   1.192   2.999   0.395
 4299SOL    HW213797   1.317   2.964   0.295
 4300SOL     OW13798   3.497   0.784   0.225
 4300SOL    HW113799   3.457   0.712   0.282
 4300SOL    HW213800   3.446   0.869   0.240
 4301SOL     OW13801   3.390   1.812   0.867
 4301SOL    HW113802   3.327   1.766   0.805
 4301SOL    HW213803   3.478   1.764   0.867
 4302SOL     OW13804   1.365   6.787   5.686
 4302SOL    HW113805   1.389   6.778   5.782
 4302SOL    HW213806   1.424   6.729   5.631
 4303SOL     OW13807   6.077   4.814   4.096
 4303SOL    HW113808   6.069   4.912   4.114
 4303SOL    HW213809   6.086   4.798   3.997
 4304SOL     OW13810   3.011   3.952   3.527
 4304SOL    HW113811   2.913   3.970   3.521
 4304SOL    HW213812   3.054   3.978   3.441
 4305SOL     OW13813   6.406   0.816   4.562
 4305SOL    HW113814   6.472   0.786   4.631
 4305SOL    HW213815   6.334   0.747   4.552
 4306SOL     OW13816   6.430   3.398   6.662
 4306SOL    HW113817   6.506   3.340   6.691
 4306SOL    HW213818   6.350   3.379   6.718
 4307SOL     OW13819   4.451   3.345   6.082
 4307SOL    HW113820   4.485   3.413   6.147
 4307SOL    HW213821   4.364   3.308   6.115
 4308SOL     OW13822   5.593   5.687   6.253
 4308SOL    HW113823   5.496   5.680   6.228
 4308SOL    HW213824   5.600   5.728   6.345
 4309SOL     OW13825   1.354   1.708   0.582
 4309SOL    HW113826   1.265   1.663   0.575
 4309SOL    HW213827   1.342   1.798   0.625
 4310SOL     OW13828   1.591   2.598   3.179
 4310SOL    HW113829   1.599   2.499   3.169
 4310SOL    HW213830   1.547   2.636   3.098
 4311SOL     OW13831   1.730   5.971   3.702
 4311SOL    HW113832   1.809   5.996   3.646
 4311SOL    HW213833   1.743   5.878   3.738
 4312SOL     OW13834   1.450   4.962   0.640
 4312SOL    HW113835   1.390   4.918   0.574
 4312SOL    HW213836   1.474   4.897   0.712
 4313SOL     OW13837   5.017   1.311   1.321
 4313SOL    HW113838   5.000   1.223   1.364
 4313SOL    HW213839   4.939   1.372   1.337
 4314SOL     OW13840   5.895   1.647   4.226
 4314SOL    HW113841   5.803   1.677   4.201
 4314SOL    HW213842   5.957   1.659   4.149
 4315SOL     OW13843   2.587   6.747   2.302
 4315SOL    HW113844   2.546   6.788   2.220
 4315SOL    HW213845   2.621   6.820   2.362
 4316SOL     OW13846   4.908   6.925   1.256
 4316SOL    HW113847   4.983   6.976   1.298
 4316SOL    HW213848   4.945   6.861   1.189
 4317SOL     OW13849   4.282   1.966   5.024
 4317SOL    HW113850   4.257   1.928   5.114
 4317SOL    HW213851   4.202   2.009   4.984
 4318SOL     OW13852   1.059   3.446   3.762
 4318SOL    HW113853   1.100   3.436   3.853
 4318SOL    HW213854   0.965   3.479   3.772
 4319SOL     OW13855   2.073   2.773   0.084
 4319SOL    HW113856   2.018   2.811   0.010
 4319SOL    HW213857   2.043   2.813   0.171
 4320SOL     OW13858   6.845   5.889   2.410
 4320SOL    HW113859   6.761   5.923   2.452
 4320SOL    HW213860   6.835   5.890   2.311
 4321SOL     OW13861   6.680   6.625   4.754
 4321SOL    HW113862   6.736   6.546   4.778
 4321SOL    HW213863   6.584   6.597   4.747
 4322SOL     OW13864   6.018   1.963   6.760
 4322SOL    HW113865   6.038   2.004   6.671
 4322SOL    HW213866   5.957   1.885   6.748
 4323SOL     OW13867   5.072   4.078   1.323
 4323SOL    HW113868   5.092   4.132   1.405
 4323SOL    HW213869   5.071   3.981   1.348
 4324SOL     OW13870   5.529   3.890   6.365
 4324SOL    HW113871   5.594   3.846   6.427
 4324SOL    HW213872   5.561   3.982   6.343
 4325SOL     OW13873   2.119   0.809   1.242
 4325SOL    HW113874   2.123   0.904   1.214
 4325SOL    HW213875   2.197   0.788   1.302
 4326SOL     OW13876   5.557   3.326   5.037
 4326SOL    HW113877   5.619   3.313   5.114
 4326SOL    HW213878   5.542   3.238   4.990
 4327SOL     OW13879   6.134   5.184   2.076
 4327SOL    HW113880   6.050   5.217   2.032
 4327SOL    HW213881   6.153   5.091   2.047
 4328SOL     OW13882   4.065   3.406   5.962
 4328SOL    HW113883   3.970   3.374   5.961
 4328SOL    HW213884   4.075   3.484   5.899
 4329SOL     OW13885   4.026   1.707   5.942
 4329SOL    HW113886   4.014   1.788   5.999
 4329SOL    HW213887   4.116   1.666   5.961
 4330SOL     OW13888   2.753   0.820   5.073
 4330SOL    HW113889   2.753   0.811   4.974
 4330SOL    HW213890   2.769   0.730   5.115
 4331SOL     OW13891   5.012   3.030   0.632
 4331SOL    HW113892   4.971   3.037   0.723
 4331SOL    HW213893   4.941   3.007   0.565
 4332SOL     OW13894   5.241   4.804   2.488
 4332SOL    HW113895   5.322   4.771   2.535
 4332SOL    HW213896   5.178   4.846   2.554
 4333SOL     OW13897   4.330   0.651   5.317
 4333SOL    HW113898   4.410   0.599   5.285
 4333SOL    HW213899   4.343   0.677   5.413
 4334SOL     OW13900   1.690   2.073   2.674
 4334SOL    HW113901   1.628   2.135   2.722
 4334SOL    HW213902   1.779   2.118   2.662
 4335SOL     OW13903   3.571   3.838   2.760
 4335SOL    HW113904   3.539   3.924   2.721
 4335SOL    HW213905   3.671   3.842   2.770
 4336SOL     OW13906   1.257   6.810   6.299
 4336SOL    HW113907   1.318   6.734   6.319
 4336SOL    HW213908   1.206   6.834   6.382
 4337SOL     OW13909   0.985   4.451   0.727
 4337SOL    HW113910   0.940   4.496   0.805
 4337SOL    HW213911   0.941   4.479   0.642
 4338SOL     OW13912   4.816   5.897   4.300
 4338SOL    HW113913   4.724   5.860   4.301
 4338SOL    HW213914   4.812   5.996   4.286
 4339SOL     OW13915   6.606   3.304   5.418
 4339SOL    HW113916   6.656   3.376   5.465
 4339SOL    HW213917   6.515   3.294   5.459
 4340SOL     OW13918   6.428   4.713   1.694
 4340SOL    HW113919   6.412   4.690   1.597
 4340SOL    HW213920   6.359   4.666   1.750
 4341SOL     OW13921   0.722   5.736   2.463
 4341SOL    HW113922   0.771   5.649   2.459
 4341SOL    HW213923   0.668   5.747   2.379
 4342SOL     OW13924   6.333   3.589   4.272
 4342SOL    HW113925   6.340   3.669   4.332
 4342SOL    HW213926   6.266   3.525   4.309
 4343SOL     OW13927   2.556   6.291   6.404
 4343SOL    HW113928   2.553   6.317   6.500
 4343SOL    HW213929   2.465   6.261   6.374
 4344SOL     OW13930   1.749   5.489   3.073
 4344SOL    HW113931   1.733   5.587   3.056
 4344SOL    HW213932   1.788   5.448   2.991
 4345SOL     OW13933   2.184   3.011   5.286
 4345SOL    HW113934   2.277   3.029   5.255
 4345SOL    HW213935   2.159   3.078   5.355
 4346SOL     OW13936   1.866   3.264   2.151
 4346SOL    HW113937   1.895   3.300   2.063
 4346SOL    HW213938   1.861   3.339   2.217
 4347SOL     OW13939   5.844   6.944   2.978
 4347SOL    HW113940   5.855   6.888   2.896
 4347SOL    HW213941   5.869   6.891   3.059
 4348SOL     OW13942   6.727   4.263   3.155
 4348SOL    HW113943   6.793   4.192   3.179
 4348SOL    HW213944   6.650   4.261   3.219
 4349SOL     OW13945   6.761   2.231   2.546
 4349SOL    HW113946   6.846   2.280   2.567
 4349SOL    HW213947   6.772   2.181   2.461
 4350SOL     OW13948   5.315   1.982   3.924
 4350SOL    HW113949   5.232   1.933   3.952
 4350SOL    HW213950   5.321   1.984   3.824
 4351SOL     OW13951   1.776   6.610   1.122
 4351SOL    HW113952   1.766   6.707   1.104
 4351SOL    HW213953   1.778   6.595   1.221
 4352SOL     OW13954   0.592   2.797   2.730
 4352SOL    HW113955   0.640   2.765   2.648
 4352SOL    HW213956   0.567   2.719   2.787
 4353SOL     OW13957   3.374   3.703   7.001
 4353SOL    HW113958   3.445   3.650   0.027
 4353SOL    HW213959   3.318   3.642   6.945
 4354SOL     OW13960   2.304   6.764   6.222
 4354SOL    HW113961   2.377   6.698   6.241
 4354SOL    HW213962   2.304   6.785   6.124
 4355SOL     OW13963   3.416   0.267   2.648
 4355SOL    HW113964   3.348   0.335   2.622
 4355SOL    HW213965   3.411   0.250   2.746
 4356SOL     OW13966   5.188   4.202   1.113
 4356SOL    HW113967   5.207   4.151   1.029
 4356SOL    HW213968   5.164   4.138   1.186
 4357SOL     OW13969   5.919   0.124   0.190
 4357SOL    HW113970   5.971   0.139   0.106
 4357SOL    HW213971   5.832   0.080   0.169
 4358SOL     OW13972   0.068   6.362   0.123
 4358SOL    HW113973   0.137   6.361   0.195
 4358SOL    HW213974   0.015   6.447   0.129
 4359SOL     OW13975   2.180   1.993   6.077
 4359SOL    HW113976   2.211   1.903   6.048
 4359SOL    HW213977   2.159   2.049   5.997
 4360SOL     OW13978   1.349   2.400   4.173
 4360SOL    HW113979   1.418   2.414   4.244
 4360SOL    HW213980   1.261   2.433   4.205
 4361SOL     OW13981   2.585   3.417   1.259
 4361SOL    HW113982   2.615   3.330   1.221
 4361SOL    HW213983   2.662   3.480   1.265
 4362SOL     OW13984   6.263   4.772   2.960
 4362SOL    HW113985   6.195   4.744   3.028
 4362SOL    HW213986   6.317   4.847   2.996
 4363SOL     OW13987   5.118   2.882   0.115
 4363SOL    HW113988   5.132   2.783   0.103
 4363SOL    HW213989   5.035   2.909   0.066
 4364SOL     OW13990   3.303   3.436   5.287
 4364SOL    HW113991   3.362   3.424   5.207
 4364SOL    HW213992   3.265   3.348   5.314
 4365SOL     OW13993   2.219   2.433   1.938
 4365SOL    HW113994   2.191   2.360   1.875
 4365SOL    HW213995   2.146   2.448   2.005
 4366SOL     OW13996   5.788   5.989   0.305
 4366SOL    HW113997   5.745   6.062   0.358
 4366SOL    HW213998   5.880   6.016   0.280
 4367SOL     OW13999   1.883   4.646   4.746
 4367SOL    HW114000   1.939   4.567   4.721
 4367SOL    HW214001   1.937   4.710   4.800
 4368SOL     OW14002   4.270   4.545   0.899
 4368SOL    HW114003   4.283   4.502   0.810
 4368SOL    HW214004   4.201   4.494   0.950
 4369SOL     OW14005   3.521   5.635   4.046
 4369SOL    HW114006   3.503   5.545   4.004
 4369SOL    HW214007   3.618   5.643   4.067
 4370SOL     OW14008   4.815   5.139   2.878
 4370SOL    HW114009   4.893   5.143   2.815
 4370SOL    HW214010   4.731   5.128   2.825
 4371SOL     OW14011   0.433   1.149   1.427
 4371SOL    HW114012   0.504   1.197   1.479
 4371SOL    HW214013   0.470   1.120   1.338
 4372SOL     OW14014   4.061   1.306   2.967
 4372SOL    HW114015   4.002   1.239   3.011
 4372SOL    HW214016   4.125   1.344   3.034
 4373SOL     OW14017   0.308   2.165   0.014
 4373SOL    HW114018   0.240   2.170   0.087
 4373SOL    HW214019   0.390   2.214   0.042
 4374SOL     OW14020   1.185   2.025   2.306
 4374SOL    HW114021   1.161   1.954   2.241
 4374SOL    HW214022   1.285   2.028   2.318
 4375SOL     OW14023   3.771   0.650   3.400
 4375SOL    HW114024   3.852   0.592   3.397
 4375SOL    HW214025   3.714   0.632   3.320
 4376SOL     OW14026   6.466   0.038   2.640
 4376SOL    HW114027   6.555   0.059   2.599
 4376SOL    HW214028   6.479   7.003   2.722
 4377SOL     OW14029   5.435   4.158   0.426
 4377SOL    HW114030   5.487   4.219   0.365
 4377SOL    HW214031   5.438   4.193   0.519
 4378SOL     OW14032   2.164   1.133   2.834
 4378SOL    HW114033   2.108   1.216   2.833
 4378SOL    HW214034   2.162   1.093   2.926
 4379SOL     OW14035   2.045   0.988   2.633
 4379SOL    HW114036   2.099   1.037   2.702
 4379SOL    HW214037   1.977   1.050   2.594
 4380SOL     OW14038   1.816   6.993   2.867
 4380SOL    HW114039   1.899   0.020   2.836
 4380SOL    HW214040   1.771   6.949   2.788
 4381SOL     OW14041   0.460   6.275   5.372
 4381SOL    HW114042   0.462   6.229   5.461
 4381SOL    HW214043   0.448   6.207   5.300
 4382SOL     OW14044   0.846   3.462   5.304
 4382SOL    HW114045   0.858   3.500   5.396
 4382SOL    HW214046   0.804   3.372   5.310
 4383SOL     OW14047   0.711   3.123   0.033
 4383SOL    HW114048   0.759   3.104   6.966
 4383SOL    HW214049   0.613   3.108   0.020
 4384SOL     OW14050   6.132   0.423   4.859
 4384SOL    HW114051   6.140   0.434   4.759
 4384SOL    HW214052   6.217   0.386   4.895
 4385SOL     OW14053   4.673   2.676   4.966
 4385SOL    HW114054   4.672   2.630   5.055
 4385SOL    HW214055   4.609   2.630   4.905
 4386SOL     OW14056   2.090   3.409   5.962
 4386SOL    HW114057   2.017   3.475   5.946
 4386SOL    HW214058   2.178   3.457   5.967
 4387SOL     OW14059   6.471   2.843   1.511
 4387SOL    HW114060   6.571   2.844   1.512
 4387SOL    HW214061   6.439   2.869   1.420
 4388SOL     OW14062   4.239   2.294   5.735
 4388SOL    HW114063   4.161   2.339   5.778
 4388SOL    HW214064   4.227   2.195   5.740
 4389SOL     OW14065   6.468   3.384   1.240
 4389SOL    HW114066   6.416   3.407   1.322
 4389SOL    HW214067   6.547   3.328   1.265
 4390SOL     OW14068   3.850   6.886   1.556
 4390SOL    HW114069   3.940   6.842   1.550
 4390SOL    HW214070   3.820   6.886   1.652
 4391SOL     OW14071   2.206   5.485   0.001
 4391SOL    HW114072   2.240   5.473   6.927
 4391SOL    HW214073   2.177   5.579   0.014
 4392SOL     OW14074   1.083   2.595   5.043
 4392SOL    HW114075   1.077   2.576   5.141
 4392SOL    HW214076   1.157   2.541   5.004
 4393SOL     OW14077   6.243   0.879   1.561
 4393SOL    HW114078   6.308   0.804   1.572
 4393SOL    HW214079   6.219   0.916   1.651
 4394SOL     OW14080   6.624   5.572   2.440
 4394SOL    HW114081   6.664   5.612   2.523
 4394SOL    HW214082   6.692   5.515   2.395
 4395SOL     OW14083   1.703   0.623   1.835
 4395SOL    HW114084   1.759   0.649   1.914
 4395SOL    HW214085   1.742   0.662   1.752
 4396SOL     OW14086   1.750   1.446   3.847
 4396SOL    HW114087   1.651   1.452   3.860
 4396SOL    HW214088   1.793   1.410   3.930
 4397SOL     OW14089   1.689   2.435   4.081
 4397SOL    HW114090   1.616   2.368   4.080
 4397SOL    HW214091   1.773   2.395   4.044
 4398SOL     OW14092   1.634   3.615   5.900
 4398SOL    HW114093   1.589   3.685   5.844
 4398SOL    HW214094   1.580   3.530   5.898
 4399SOL     OW14095   3.425   6.019   2.471
 4399SOL    HW114096   3.495   6.089   2.458
 4399SOL    HW214097   3.401   5.978   2.383
 4400SOL     OW14098   2.368   6.847   4.693
 4400SOL    HW114099   2.429   6.890   4.760
 4400SOL    HW214100   2.295   6.799   4.740
 4401SOL     OW14101   3.049   6.848   5.545
 4401SOL    HW114102   2.962   6.863   5.593
 4401SOL    HW214103   3.125   6.862   5.608
 4402SOL     OW14104   1.550   0.138   2.813
 4402SOL    HW114105   1.618   0.179   2.874
 4402SOL    HW214106   1.478   0.205   2.795
 4403SOL     OW14107   1.077   6.905   6.955
 4403SOL    HW114108   0.991   6.946   6.925
 4403SOL    HW214109   1.074   6.806   6.938
 4404SOL     OW14110   1.285   6.177   5.880
 4404SOL    HW114111   1.379   6.177   5.847
 4404SOL    HW214112   1.253   6.083   5.893
 4405SOL     OW14113   1.861   4.681   1.688
 4405SOL    HW114114   1.763   4.686   1.707
 4405SOL    HW214115   1.880   4.602   1.629
 4406SOL     OW14116   0.796   2.664   0.623
 4406SOL    HW114117   0.696   2.658   0.633
 4406SOL    HW214118   0.825   2.759   0.639
 4407SOL     OW14119   6.832   5.542   1.355
 4407SOL    HW114120   6.877   5.459   1.390
 4407SOL    HW214121   6.902   5.604   1.319
 4408SOL     OW14122   2.278   0.219   0.218
 4408SOL    HW114123   2.372   0.230   0.186
 4408SOL    HW214124   2.242   0.131   0.187
 4409SOL     OW14125   4.490   1.303   1.645
 4409SOL    HW114126   4.568   1.328   1.587
 4409SOL    HW214127   4.485   1.204   1.655
 4410SOL     OW14128   0.913   4.862   0.162
 4410SOL    HW114129   0.967   4.921   0.102
 4410SOL    HW214130   0.920   4.895   0.256
 4411SOL     OW14131   3.794   4.134   4.997
 4411SOL    HW114132   3.871   4.146   5.059
 4411SOL    HW214133   3.801   4.200   4.922
 4412SOL     OW14134   4.951   6.322   4.150
 4412SOL    HW114135   4.998   6.406   4.179
 4412SOL    HW214136   5.015   6.264   4.100
 4413SOL     OW14137   5.533   5.351   3.904
 4413SOL    HW114138   5.599   5.371   3.976
 4413SOL    HW214139   5.477   5.432   3.888
 4414SOL     OW14140   3.300   5.831   1.134
 4414SOL    HW114141   3.279   5.762   1.065
 4414SOL    HW214142   3.330   5.915   1.089
 4415SOL     OW14143   4.707   3.278   6.982
 4415SOL    HW114144   4.615   3.251   6.952
 4415SOL    HW214145   4.702   3.317   0.055
 4416SOL     OW14146   4.163   1.812   4.003
 4416SOL    HW114147   4.128   1.811   4.096
 4416SOL    HW214148   4.236   1.744   3.995
 4417SOL     OW14149   5.835   3.884   4.098
 4417SOL    HW114150   5.757   3.885   4.160
 4417SOL    HW214151   5.886   3.798   4.110
 4418SOL     OW14152   6.411   1.910   2.949
 4418SOL    HW114153   6.482   1.975   2.976
 4418SOL    HW214154   6.350   1.954   2.883
 4419SOL     OW14155   6.413   0.349   5.449
 4419SOL    HW114156   6.426   0.252   5.468
 4419SOL    HW214157   6.319   0.365   5.421
 4420SOL     OW14158   4.013   1.645   1.859
 4420SOL    HW114159   4.024   1.709   1.935
 4420SOL    HW214160   3.916   1.620   1.851
 4421SOL     OW14161   1.996   1.830   5.003
 4421SOL    HW114162   2.018   1.924   5.029
 4421SOL    HW214163   2.074   1.770   5.026
 4422SOL     OW14164   1.102   4.678   6.728
 4422SOL    HW114165   1.021   4.735   6.745
 4422SOL    HW214166   1.125   4.627   6.811
 4423SOL     OW14167   0.133   3.961   5.659
 4423SOL    HW114168   0.038   3.929   5.657
 4423SOL    HW214169   0.154   4.008   5.574
 4424SOL     OW14170   5.460   0.229   4.312
 4424SOL    HW114171   5.429   0.318   4.280
 4424SOL    HW214172   5.487   0.235   4.409
 4425SOL     OW14173   3.356   4.838   0.421
 4425SOL    HW114174   3.336   4.743   0.445
 4425SOL    HW214175   3.273   4.882   0.386
 4426SOL     OW14176   0.399   1.168   4.048
 4426SOL    HW114177   0.369   1.263   4.064
 4426SOL    HW214178   0.438   1.161   3.956
 4427SOL     OW14179   5.705   7.013   2.641
 4427SOL    HW114180   5.742   6.924   2.667
 4427SOL    HW214181   5.733   0.062   2.708
 4428SOL     OW14182   4.429   0.955   3.846
 4428SOL    HW114183   4.512   0.910   3.880
 4428SOL    HW214184   4.363   0.964   3.920
 4429SOL     OW14185   3.202   6.792   2.530
 4429SOL    HW114186   3.224   6.876   2.581
 4429SOL    HW214187   3.124   6.810   2.469
 4430SOL     OW14188   5.391   4.879   5.153
 4430SOL    HW114189   5.322   4.951   5.140
 4430SOL    HW214190   5.370   4.827   5.236
 4431SOL     OW14191   2.947   0.681   3.007
 4431SOL    HW114192   2.948   0.780   3.024
 4431SOL    HW214193   3.017   0.636   3.062
 4432SOL     OW14194   2.667   3.608   6.020
 4432SOL    HW114195   2.725   3.649   5.949
 4432SOL    HW214196   2.660   3.510   6.004
 4433SOL     OW14197   6.395   2.559   4.342
 4433SOL    HW114198   6.475   2.567   4.402
 4433SOL    HW214199   6.312   2.570   4.396
 4434SOL     OW14200   5.626   1.570   3.080
 4434SOL    HW114201   5.669   1.579   3.170
 4434SOL    HW214202   5.632   1.475   3.050
 4435SOL     OW14203   4.038   3.489   0.909
 4435SOL    HW114204   4.020   3.546   0.829
 4435SOL    HW214205   4.064   3.397   0.879
 4436SOL     OW14206   4.697   1.117   1.573
 4436SOL    HW114207   4.671   1.049   1.641
 4436SOL    HW214208   4.794   1.140   1.584
 4437SOL     OW14209   1.121   3.064   2.781
 4437SOL    HW114210   1.156   3.156   2.763
 4437SOL    HW214211   1.039   3.048   2.726
 4438SOL     OW14212   4.669   6.842   6.478
 4438SOL    HW114213   4.706   6.914   6.419
 4438SOL    HW214214   4.645   6.881   6.566
 4439SOL     OW14215   6.897   4.605   1.676
 4439SOL    HW114216   6.800   4.603   1.700
 4439SOL    HW214217   6.923   4.517   1.636
 4440SOL     OW14218   3.323   4.613   0.582
 4440SOL    HW114219   3.402   4.656   0.626
 4440SOL    HW214220   3.300   4.528   0.630
 4441SOL     OW14221   6.996   1.605   1.312
 4441SOL    HW114222   6.898   1.613   1.296
 4441SOL    HW214223   7.018   1.645   1.401
 4442SOL     OW14224   1.463   4.952   4.914
 4442SOL    HW114225   1.420   4.864   4.894
 4442SOL    HW214226   1.531   4.973   4.844
 4443SOL     OW14227   1.889   3.529   5.856
 4443SOL    HW114228   1.915   3.575   5.771
 4443SOL    HW214229   1.796   3.555   5.881
 4444SOL     OW14230   4.069   4.138   6.787
 4444SOL    HW114231   4.055   4.182   6.876
 4444SOL    HW214232   4.074   4.039   6.800
 4445SOL     OW14233   1.356   6.133   0.397
 4445SOL    HW114234   1.286   6.156   0.329
 4445SOL    HW214235   1.319   6.064   0.460
 4446SOL     OW14236   5.215   2.239   0.618
 4446SOL    HW114237   5.207   2.335   0.647
 4446SOL    HW214238   5.311   2.211   0.621
 4447SOL     OW14239   6.544   4.228   5.167
 4447SOL    HW114240   6.528   4.264   5.075
 4447SOL    HW214241   6.638   4.193   5.172
 4448SOL     OW14242   2.309   5.592   1.181
 4448SOL    HW114243   2.396   5.555   1.213
 4448SOL    HW214244   2.248   5.606   1.259
 4449SOL     OW14245   5.310   1.153   6.412
 4449SOL    HW114246   5.336   1.134   6.318
 4449SOL    HW214247   5.242   1.086   6.442
 4450SOL     OW14248   3.101   1.673   6.467
 4450SOL    HW114249   3.146   1.586   6.448
 4450SOL    HW214250   3.008   1.671   6.430
 4451SOL     OW14251   4.937   5.192   4.436
 4451SOL    HW114252   4.845   5.232   4.432
 4451SOL    HW214253   4.977   5.209   4.526
 4452SOL     OW14254   5.761   5.536   3.858
 4452SOL    HW114255   5.811   5.611   3.901
 4452SOL    HW214256   5.722   5.568   3.772
 4453SOL     OW14257   1.438   2.746   1.900
 4453SOL    HW114258   1.534   2.726   1.882
 4453SOL    HW214259   1.384   2.724   1.819
 4454SOL     OW14260   1.558   1.780   7.014
 4454SOL    HW114261   1.481   1.835   6.981
 4454SOL    HW214262   1.523   1.700   0.044
 4455SOL     OW14263   5.722   5.760   5.733
 4455SOL    HW114264   5.810   5.727   5.701
 4455SOL    HW214265   5.695   5.840   5.680
 4456SOL     OW14266   2.682   6.270   2.969
 4456SOL    HW114267   2.589   6.301   2.989
 4456SOL    HW214268   2.745   6.348   2.972
 4457SOL     OW14269   3.419   1.500   3.343
 4457SOL    HW114270   3.423   1.489   3.244
 4457SOL    HW214271   3.426   1.410   3.387
 4458SOL     OW14272   2.332   3.290   1.236
 4458SOL    HW114273   2.308   3.283   1.333
 4458SOL    HW214274   2.415   3.344   1.226
 4459SOL     OW14275   4.155   2.099   4.440
 4459SOL    HW114276   4.062   2.109   4.405
 4459SOL    HW214277   4.203   2.030   4.386
 4460SOL     OW14278   0.916   2.678   0.246
 4460SOL    HW114279   0.864   2.616   0.304
 4460SOL    HW214280   0.858   2.753   0.215
 4461SOL     OW14281   1.577   0.849   1.277
 4461SOL    HW114282   1.528   0.936   1.282
 4461SOL    HW214283   1.555   0.803   1.191
 4462SOL     OW14284   5.863   4.871   1.970
 4462SOL    HW114285   5.809   4.794   2.004
 4462SOL    HW214286   5.809   4.923   1.904
 4463SOL     OW14287   4.625   1.159   0.811
 4463SOL    HW114288   4.559   1.232   0.795
 4463SOL    HW214289   4.577   1.076   0.838
 4464SOL     OW14290   0.474   5.949   0.717
 4464SOL    HW114291   0.512   5.923   0.805
 4464SOL    HW214292   0.383   5.989   0.730
 4465SOL     OW14293   3.449   5.351   0.593
 4465SOL    HW114294   3.469   5.281   0.661
 4465SOL    HW214295   3.376   5.410   0.626
 4466SOL     OW14296   1.329   1.913   2.799
 4466SOL    HW114297   1.364   1.918   2.705
 4466SOL    HW214298   1.252   1.849   2.802
 4467SOL     OW14299   2.382   5.100   3.196
 4467SOL    HW114300   2.421   5.187   3.165
 4467SOL    HW214301   2.456   5.037   3.221
 4468SOL     OW14302   2.014   4.144   0.766
 4468SOL    HW114303   2.051   4.236   0.781
 4468SOL    HW214304   1.941   4.147   0.698
 4469SOL     OW14305   2.999   0.786   1.022
 4469SOL    HW114306   2.945   0.781   0.938
 4469SOL    HW214307   3.093   0.758   1.002
 4470SOL     OW14308   0.815   1.986   2.368
 4470SOL    HW114309   0.774   1.969   2.458
 4470SOL    HW214310   0.903   2.032   2.379
 4471SOL     OW14311   0.774   3.031   6.770
 4471SOL    HW114312   0.846   2.964   6.786
 4471SOL    HW214313   0.810   3.108   6.717
 4472SOL     OW14314   0.272   2.466   1.419
 4472SOL    HW114315   0.232   2.381   1.453
 4472SOL    HW214316   0.247   2.541   1.480
 4473SOL     OW14317   5.684   2.867   4.414
 4473SOL    HW114318   5.594   2.897   4.447
 4473SOL    HW214319   5.677   2.841   4.318
 4474SOL     OW14320   3.195   6.529   1.482
 4474SOL    HW114321   3.218   6.459   1.548
 4474SOL    HW214322   3.122   6.587   1.518
 4475SOL     OW14323   1.221   3.624   1.904
 4475SOL    HW114324   1.183   3.641   1.813
 4475SOL    HW214325   1.299   3.685   1.919
 4476SOL     OW14326   6.422   1.018   3.792
 4476SOL    HW114327   6.469   1.027   3.880
 4476SOL    HW214328   6.436   0.926   3.756
 4477SOL     OW14329   1.739   0.591   5.039
 4477SOL    HW114330   1.651   0.550   5.065
 4477SOL    HW214331   1.726   0.689   5.023
 4478SOL     OW14332   2.530   6.622   2.591
 4478SOL    HW114333   2.528   6.659   2.498
 4478SOL    HW214334   2.625   6.614   2.621
 4479SOL     OW14335   0.406   2.115   1.555
 4479SOL    HW114336   0.465   2.168   1.617
 4479SOL    HW214337   0.313   2.153   1.557
 4480SOL     OW14338   0.137   4.012   5.025
 4480SOL    HW114339   0.067   4.083   5.015
 4480SOL    HW214340   0.124   3.943   4.954
 4481SOL     OW14341   2.320   4.950   5.177
 4481SOL    HW114342   2.352   4.962   5.084
 4481SOL    HW214343   2.279   5.035   5.210
 4482SOL     OW14344   2.330   2.791   5.561
 4482SOL    HW114345   2.338   2.767   5.464
 4482SOL    HW214346   2.285   2.880   5.569
 4483SOL     OW14347   6.857   2.662   2.071
 4483SOL    HW114348   6.846   2.708   1.983
 4483SOL    HW214349   6.786   2.695   2.134
 4484SOL     OW14350   2.957   2.450   6.576
 4484SOL    HW114351   2.964   2.545   6.545
 4484SOL    HW214352   2.871   2.411   6.545
 4485SOL     OW14353   5.915   2.367   4.959
 4485SOL    HW114354   5.819   2.356   4.984
 4485SOL    HW214355   5.930   2.333   4.866
 4486SOL     OW14356   6.247   5.070   4.721
 4486SOL    HW114357   6.256   5.166   4.746
 4486SOL    HW214358   6.179   5.060   4.649
 4487SOL     OW14359   2.726   2.585   6.952
 4487SOL    HW114360   2.654   2.518   6.967
 4487SOL    HW214361   2.739   2.599   6.854
 4488SOL     OW14362   0.910   3.361   4.863
 4488SOL    HW114363   0.979   3.433   4.863
 4488SOL    HW214364   0.833   3.388   4.806
 4489SOL     OW14365   4.704   5.380   4.977
 4489SOL    HW114366   4.623   5.433   5.005
 4489SOL    HW214367   4.735   5.325   5.054
 4490SOL     OW14368   5.476   1.810   1.595
 4490SOL    HW114369   5.471   1.728   1.538
 4490SOL    HW214370   5.426   1.885   1.552
 4491SOL     OW14371   0.255   3.579   3.673
 4491SOL    HW114372   0.300   3.644   3.734
 4491SOL    HW214373   0.163   3.610   3.652
 4492SOL     OW14374   5.746   3.313   1.540
 4492SOL    HW114375   5.778   3.218   1.549
 4492SOL    HW214376   5.814   3.374   1.580
 4493SOL     OW14377   4.765   6.314   4.865
 4493SOL    HW114378   4.728   6.383   4.927
 4493SOL    HW214379   4.765   6.225   4.911
 4494SOL     OW14380   0.326   0.768   6.091
 4494SOL    HW114381   0.313   0.753   6.189
 4494SOL    HW214382   0.262   0.712   6.040
 4495SOL     OW14383   4.816   0.287   4.074
 4495SOL    HW114384   4.792   0.327   4.163
 4495SOL    HW214385   4.887   0.218   4.087
 4496SOL     OW14386   5.487   6.197   0.674
 4496SOL    HW114387   5.441   6.116   0.708
 4496SOL    HW214388   5.555   6.228   0.741
 4497SOL     OW14389   4.536   2.085   6.524
 4497SOL    HW114390   4.521   2.178   6.490
 4497SOL    HW214391   4.525   2.084   6.623
 4498SOL     OW14392   6.943   4.709   6.543
 4498SOL    HW114393   7.004   4.629   6.546
 4498SOL    HW214394   6.960   4.767   6.622
 4499SOL     OW14395   6.334   3.224   3.363
 4499SOL    HW114396   6.349   3.142   3.417
 4499SOL    HW214397   6.319   3.199   3.267
 4500SOL     OW14398   3.651   4.334   6.445
 4500SOL    HW114399   3.737   4.385   6.458
 4500SOL    HW214400   3.671   4.236   6.443
 4501SOL     OW14401   6.652   3.433   3.045
 4501SOL    HW114402   6.751   3.420   3.039
 4501SOL    HW214403   6.606   3.371   2.982
 4502SOL     OW14404   1.118   3.578   0.030
 4502SOL    HW114405   1.195   3.627   0.070
 4502SOL    HW214406   1.076   3.518   0.099
 4503SOL     OW14407   3.772   6.588   2.088
 4503SOL    HW114408   3.859   6.550   2.121
 4503SOL    HW214409   3.791   6.664   2.025
 4504SOL     OW14410   7.013   1.466   4.303
 4504SOL    HW114411   6.935   1.502   4.355
 4504SOL    HW214412   6.982   1.440   4.212
 4505SOL     OW14413   6.211   4.687   1.915
 4505SOL    HW114414   6.295   4.686   1.970
 4505SOL    HW214415   6.173   4.595   1.912
 4506SOL     OW14416   4.924   2.804   3.746
 4506SOL    HW114417   4.930   2.713   3.788
 4506SOL    HW214418   5.015   2.844   3.740
 4507SOL     OW14419   6.865   3.232   3.972
 4507SOL    HW114420   6.848   3.316   3.920
 4507SOL    HW214421   6.863   3.154   3.909
 4508SOL     OW14422   1.261   5.081   0.066
 4508SOL    HW114423   1.329   5.123   0.006
 4508SOL    HW214424   1.178   5.061   0.013
 4509SOL     OW14425   5.026   1.958   3.279
 4509SOL    HW114426   4.965   1.963   3.358
 4509SOL    HW214427   4.976   1.984   3.196
 4510SOL     OW14428   4.303   1.536   4.297
 4510SOL    HW114429   4.337   1.480   4.372
 4510SOL    HW214430   4.378   1.556   4.234
 4511SOL     OW14431   6.028   3.443   0.072
 4511SOL    HW114432   6.080   3.480   7.014
 4511SOL    HW214433   5.966   3.512   0.108
 4512SOL     OW14434   3.311   0.854   5.903
 4512SOL    HW114435   3.257   0.927   5.945
 4512SOL    HW214436   3.408   0.876   5.911
 4513SOL     OW14437   0.948   5.636   6.811
 4513SOL    HW114438   1.004   5.617   6.730
 4513SOL    HW214439   0.867   5.577   6.810
 4514SOL     OW14440   3.462   2.493   6.517
 4514SOL    HW114441   3.373   2.453   6.536
 4514SOL    HW214442   3.451   2.577   6.465
 4515SOL     OW14443   5.931   1.936   5.414
 4515SOL    HW114444   5.952   1.838   5.415
 4515SOL    HW214445   5.860   1.954   5.346
 4516SOL     OW14446   2.613   0.154   6.893
 4516SOL    HW114447   2.619   0.193   6.801
 4516SOL    HW214448   2.544   0.204   6.945
 4517SOL     OW14449   4.672   6.782   6.852
 4517SOL    HW114450   4.610   6.829   6.913
 4517SOL    HW214451   4.766   6.809   6.873
 4518SOL     OW14452   0.490   6.471   1.850
 4518SOL    HW114453   0.539   6.383   1.842
 4518SOL    HW214454   0.494   6.520   1.763
 4519SOL     OW14455   5.384   6.800   0.649
 4519SOL    HW114456   5.344   6.850   0.726
 4519SOL    HW214457   5.481   6.822   0.642
 4520SOL     OW14458   4.253   5.922   5.979
 4520SOL    HW114459   4.216   5.869   6.055
 4520SOL    HW214460   4.182   5.938   5.911
 4521SOL     OW14461   5.313   2.026   5.080
 4521SOL    HW114462   5.310   2.124   5.097
 4521SOL    HW214463   5.252   1.978   5.143
 4522SOL     OW14464   5.877   4.425   3.268
 4522SOL    HW114465   5.974   4.406   3.288
 4522SOL    HW214466   5.862   4.419   3.169
 4523SOL     OW14467   1.107   4.148   0.027
 4523SOL    HW114468   1.134   4.052   0.032
 4523SOL    HW214469   1.045   4.162   6.970
 4524SOL     OW14470   6.200   3.561   2.705
 4524SOL    HW114471   6.234   3.641   2.655
 4524SOL    HW214472   6.222   3.570   2.802
 4525SOL     OW14473   3.965   2.003   5.702
 4525SOL    HW114474   3.892   2.070   5.714
 4525SOL    HW214475   3.929   1.911   5.719
 4526SOL     OW14476   6.320   0.428   6.972
 4526SOL    HW114477   6.227   0.442   7.005
 4526SOL    HW214478   6.357   0.344   7.012
 4527SOL     OW14479   6.399   6.780   2.523
 4527SOL    HW114480   6.490   6.768   2.561
 4527SOL    HW214481   6.381   6.878   2.512
 4528SOL     OW14482   4.348   0.936   6.555
 4528SOL    HW114483   4.354   0.960   6.652
 4528SOL    HW214484   4.252   0.929   6.529
 4529SOL     OW14485   2.333   1.175   5.444
 4529SOL    HW114486   2.395   1.216   5.377
 4529SOL    HW214487   2.357   1.209   5.536
 4530SOL     OW14488   2.362   5.643   3.096
 4530SOL    HW114489   2.456   5.630   3.063
 4530SOL    HW214490   2.320   5.555   3.113
 4531SOL     OW14491   0.796   3.124   6.341
 4531SOL    HW114492   0.861   3.089   6.273
 4531SOL    HW214493   0.838   3.124   6.431
 4532SOL     OW14494   6.109   1.124   2.570
 4532SOL    HW114495   6.107   1.214   2.526
 4532SOL    HW214496   6.156   1.059   2.511
 4533SOL     OW14497   2.155   0.766   2.955
 4533SOL    HW114498   2.083   0.697   2.955
 4533SOL    HW214499   2.201   0.766   2.866
 4534SOL     OW14500   4.995   2.807   5.385
 4534SOL    HW114501   5.036   2.790   5.474
 4534SOL    HW214502   4.895   2.801   5.392
 4535SOL     OW14503   3.824   1.325   1.720
 4535SOL    HW114504   3.883   1.267   1.776
 4535SOL    HW214505   3.728   1.308   1.743
 4536SOL     OW14506   3.516   1.810   4.605
 4536SOL    HW114507   3.523   1.752   4.687
 4536SOL    HW214508   3.523   1.906   4.631
 4537SOL     OW14509   4.253   3.199   1.388
 4537SOL    HW114510   4.200   3.182   1.305
 4537SOL    HW214511   4.191   3.214   1.465
 4538SOL     OW14512   2.611   0.564   2.277
 4538SOL    HW114513   2.522   0.539   2.313
 4538SOL    HW214514   2.681   0.548   2.346
 4539SOL     OW14515   2.990   5.439   5.342
 4539SOL    HW114516   3.053   5.381   5.289
 4539SOL    HW214517   3.010   5.535   5.323
 4540SOL     OW14518   2.265   1.173   0.415
 4540SOL    HW114519   2.177   1.184   0.367
 4540SOL    HW214520   2.254   1.198   0.511
 4541SOL     OW14521   5.444   1.625   6.920
 4541SOL    HW114522   5.532   1.667   6.943
 4541SOL    HW214523   5.455   1.567   6.839
 4542SOL     OW14524   0.098   2.649   1.901
 4542SOL    HW114525   0.089   2.623   1.997
 4542SOL    HW214526   0.183   2.700   1.888
 4543SOL     OW14527   4.868   2.000   1.169
 4543SOL    HW114528   4.774   2.027   1.147
 4543SOL    HW214529   4.876   1.900   1.166
 4544SOL     OW14530   3.787   5.179   0.090
 4544SOL    HW114531   3.818   5.195   0.184
 4544SOL    HW214532   3.821   5.091   0.058
 4545SOL     OW14533   6.906   3.666   5.279
 4545SOL    HW114534   6.817   3.691   5.241
 4545SOL    HW214535   6.978   3.711   5.226
 4546SOL     OW14536   3.123   6.360   4.192
 4546SOL    HW114537   3.096   6.321   4.104
 4546SOL    HW214538   3.112   6.459   4.189
 4547SOL     OW14539   6.428   1.503   0.397
 4547SOL    HW114540   6.432   1.601   0.381
 4547SOL    HW214541   6.396   1.486   0.491
 4548SOL     OW14542   2.662   2.240   3.764
 4548SOL    HW114543   2.592   2.196   3.820
 4548SOL    HW214544   2.655   2.339   3.774
 4549SOL     OW14545   5.359   3.671   2.351
 4549SOL    HW114546   5.298   3.600   2.387
 4549SOL    HW214547   5.322   3.706   2.265
 4550SOL     OW14548   1.115   4.255   2.758
 4550SOL    HW114549   1.209   4.268   2.791
 4550SOL    HW214550   1.070   4.344   2.750
 4551SOL     OW14551   0.883   3.902   5.109
 4551SOL    HW114552   0.886   3.802   5.108
 4551SOL    HW214553   0.919   3.936   5.196
 4552SOL     OW14554   5.431   2.336   0.980
 4552SOL    HW114555   5.426   2.420   0.926
 4552SOL    HW214556   5.494   2.349   1.056
 4553SOL     OW14557   5.387   4.128   6.776
 4553SOL    HW114558   5.290   4.147   6.762
 4553SOL    HW214559   5.397   4.051   6.839
 4554SOL     OW14560   6.476   0.207   1.567
 4554SOL    HW114561   6.398   0.233   1.510
 4554SOL    HW214562   6.471   0.110   1.589
 4555SOL     OW14563   1.296   1.036   5.573
 4555SOL    HW114564   1.347   1.005   5.494
 4555SOL    HW214565   1.206   1.069   5.544
 4556SOL     OW14566   6.173   3.424   4.679
 4556SOL    HW114567   6.272   3.436   4.689
 4556SOL    HW214568   6.155   3.355   4.609
 4557SOL     OW14569   5.087   5.170   4.198
 4557SOL    HW114570   5.062   5.146   4.292
 4557SOL    HW214571   5.118   5.087   4.151
 4558SOL     OW14572   6.729   3.870   4.774
 4558SOL    HW114573   6.651   3.809   4.792
 4558SOL    HW214574   6.782   3.834   4.697
 4559SOL     OW14575   0.008   3.250   2.612
 4559SOL    HW114576   6.938   3.293   2.627
 4559SOL    HW214577   0.011   3.212   2.520
 4560SOL     OW14578   5.710   3.968   1.772
 4560SOL    HW114579   5.721   4.066   1.785
 4560SOL    HW214580   5.749   3.920   1.851
 4561SOL     OW14581   3.653   2.037   3.176
 4561SOL    HW114582   3.655   2.087   3.089
 4561SOL    HW214583   3.737   2.053   3.226
 4562SOL     OW14584   1.185   0.036   0.421
 4562SOL    HW114585   1.244   6.994   0.473
 4562SOL    HW214586   1.209   0.131   0.442
 4563SOL     OW14587   0.263   3.671   0.816
 4563SOL    HW114588   0.345   3.693   0.869
 4563SOL    HW214589   0.266   3.576   0.787
 4564SOL     OW14590   6.642   6.145   1.887
 4564SOL    HW114591   6.551   6.151   1.846
 4564SOL    HW214592   6.702   6.214   1.846
 4565SOL     OW14593   1.547   1.157   4.002
 4565SOL    HW114594   1.497   1.237   3.969
 4565SOL    HW214595   1.625   1.187   4.057
 4566SOL     OW14596   6.738   3.907   1.513
 4566SOL    HW114597   6.684   3.964   1.451
 4566SOL    HW214598   6.835   3.928   1.502
 4567SOL     OW14599   0.073   1.391   6.397
 4567SOL    HW114600   0.125   1.308   6.417
 4567SOL    HW214601   0.001   1.403   6.465
 4568SOL     OW14602   1.813   3.544   5.336
 4568SOL    HW114603   1.835   3.484   5.413
 4568SOL    HW214604   1.870   3.626   5.341
 4569SOL     OW14605   2.906   0.340   3.425
 4569SOL    HW114606   2.991   0.360   3.474
 4569SOL    HW214607   2.866   0.425   3.391
 4570SOL     OW14608   6.208   6.340   2.203
 4570SOL    HW114609   6.247   6.432   2.190
 4570SOL    HW214610   6.232   6.307   2.294
 4571SOL     OW14611   4.606   2.847   6.784
 4571SOL    HW114612   4.625   2.884   6.875
 4571SOL    HW214613   4.543   2.770   6.792
 4572SOL     OW14614   2.193   0.756   6.556
 4572SOL    HW114615   2.132   0.677   6.549
 4572SOL    HW214616   2.203   0.782   6.652
 4573SOL     OW14617   0.025   6.901   0.490
 4573SOL    HW114618   0.076   6.932   0.570
 4573SOL    HW214619   6.972   6.837   0.519
 4574SOL     OW14620   5.414   4.602   0.375
 4574SOL    HW114621   5.368   4.591   0.463
 4574SOL    HW214622   5.349   4.635   0.307
 4575SOL     OW14623   5.698   0.477   5.401
 4575SOL    HW114624   5.608   0.512   5.373
 4575SOL    HW214625   5.699   0.464   5.500
 4576SOL     OW14626   2.841   5.211   5.421
 4576SOL    HW114627   2.928   5.260   5.420
 4576SOL    HW214628   2.836   5.149   5.344
 4577SOL     OW14629   1.378   2.876   3.750
 4577SOL    HW114630   1.302   2.916   3.801
 4577SOL    HW214631   1.460   2.877   3.806
 4578SOL     OW14632   0.790   1.455   4.403
 4578SOL    HW114633   0.852   1.510   4.458
 4578SOL    HW214634   0.808   1.471   4.306
 4579SOL     OW14635   4.740   1.036   2.145
 4579SOL    HW114636   4.755   0.985   2.061
 4579SOL    HW214637   4.646   1.072   2.146
 4580SOL     OW14638   5.374   3.828   0.616
 4580SOL    HW114639   5.334   3.881   0.541
 4580SOL    HW214640   5.472   3.850   0.623
 4581SOL     OW14641   2.358   6.125   2.300
 4581SOL    HW114642   2.434   6.069   2.334
 4581SOL    HW214643   2.281   6.118   2.363
 4582SOL     OW14644   4.966   0.632   3.680
 4582SOL    HW114645   5.014   0.716   3.706
 4582SOL    HW214646   4.917   0.597   3.759
 4583SOL     OW14647   2.976   1.109   6.663
 4583SOL    HW114648   3.065   1.083   6.700
 4583SOL    HW214649   2.988   1.157   6.577
 4584SOL     OW14650   1.548   5.385   5.147
 4584SOL    HW114651   1.488   5.311   5.115
 4584SOL    HW214652   1.549   5.386   5.247
 4585SOL     OW14653   2.245   4.886   3.139
 4585SOL    HW114654   2.207   4.875   3.047
 4585SOL    HW214655   2.297   4.971   3.144
 4586SOL     OW14656   4.254   3.733   0.245
 4586SOL    HW114657   4.159   3.730   0.274
 4586SOL    HW214658   4.294   3.641   0.252
 4587SOL     OW14659   3.418   3.792   3.753
 4587SOL    HW114660   3.474   3.760   3.677
 4587SOL    HW214661   3.381   3.883   3.730
 4588SOL     OW14662   3.229   2.669   5.995
 4588SOL    HW114663   3.215   2.667   5.896
 4588SOL    HW214664   3.146   2.702   6.040
 4589SOL     OW14665   5.436   0.560   1.678
 4589SOL    HW114666   5.480   0.491   1.621
 4589SOL    HW214667   5.479   0.561   1.768
 4590SOL     OW14668   4.289   4.963   1.336
 4590SOL    HW114669   4.280   4.864   1.325
 4590SOL    HW214670   4.315   4.983   1.431
 4591SOL     OW14671   2.138   0.129   5.059
 4591SOL    HW114672   2.183   0.049   5.100
 4591SOL    HW214673   2.180   0.149   4.971
 4592SOL     OW14674   3.782   0.738   2.878
 4592SOL    HW114675   3.796   0.646   2.913
 4592SOL    HW214676   3.822   0.745   2.786
 4593SOL     OW14677   6.417   6.485   1.906
 4593SOL    HW114678   6.390   6.389   1.898
 4593SOL    HW214679   6.337   6.541   1.926
 4594SOL     OW14680   3.591   0.611   3.182
 4594SOL    HW114681   3.577   0.580   3.088
 4594SOL    HW214682   3.511   0.662   3.213
 4595SOL     OW14683   4.903   3.157   5.859
 4595SOL    HW114684   4.907   3.240   5.803
 4595SOL    HW214685   4.818   3.157   5.911
 4596SOL     OW14686   6.938   0.127   2.567
 4596SOL    HW114687   7.014   0.175   2.524
 4596SOL    HW214688   6.903   0.181   2.643
 4597SOL     OW14689   2.591   5.609   6.346
 4597SOL    HW114690   2.590   5.509   6.340
 4597SOL    HW214691   2.562   5.636   6.438
 4598SOL     OW14692   1.451   5.581   1.359
 4598SOL    HW114693   1.419   5.523   1.434
 4598SOL    HW214694   1.519   5.645   1.392
 4599SOL     OW14695   1.622   4.574   1.358
 4599SOL    HW114696   1.581   4.663   1.336
 4599SOL    HW214697   1.590   4.544   1.448
 4600SOL     OW14698   0.199   6.559   5.413
 4600SOL    HW114699   0.264   6.630   5.386
 4600SOL    HW214700   0.243   6.496   5.477
 4601SOL     OW14701   0.901   1.786   5.434
 4601SOL    HW114702   0.924   1.753   5.342
 4601SOL    HW214703   0.826   1.730   5.472
 4602SOL     OW14704   2.756   6.611   0.393
 4602SOL    HW114705   2.737   6.699   0.348
 4602SOL    HW214706   2.739   6.620   0.492
 4603SOL     OW14707   3.587   5.780   0.510
 4603SOL    HW114708   3.674   5.765   0.463
 4603SOL    HW214709   3.511   5.769   0.446
 4604SOL     OW14710   4.973   0.359   6.638
 4604SOL    HW114711   5.046   0.311   6.590
 4604SOL    HW214712   4.896   0.373   6.575
 4605SOL     OW14713   2.183   0.002   1.306
 4605SOL    HW114714   2.155   7.007   1.211
 4605SOL    HW214715   2.179   0.100   1.328
 4606SOL     OW14716   0.475   6.749   2.514
 4606SOL    HW114717   0.552   6.698   2.476
 4606SOL    HW214718   0.506   6.801   2.594
 4607SOL     OW14719   1.913   3.038   3.216
 4607SOL    HW114720   1.891   2.951   3.173
 4607SOL    HW214721   2.011   3.056   3.207
 4608SOL     OW14722   6.851   4.144   3.632
 4608SOL    HW114723   6.798   4.185   3.707
 4608SOL    HW214724   6.900   4.216   3.583
 4609SOL     OW14725   5.101   4.804   6.855
 4609SOL    HW114726   5.169   4.821   6.926
 4609SOL    HW214727   5.062   4.891   6.825
 4610SOL     OW14728   4.328   1.923   0.101
 4610SOL    HW114729   4.320   1.827   0.127
 4610SOL    HW214730   4.421   1.940   0.067
 4611SOL     OW14731   0.575   6.946   6.225
 4611SOL    HW114732   0.482   6.979   6.239
 4611SOL    HW214733   0.623   6.943   6.313
 4612SOL     OW14734   2.420   6.920   0.680
 4612SOL    HW114735   2.467   6.920   0.592
 4612SOL    HW214736   2.466   6.983   0.742
 4613SOL     OW14737   1.660   5.794   2.757
 4613SOL    HW114738   1.710   5.864   2.807
 4613SOL    HW214739   1.562   5.817   2.754
 4614SOL     OW14740   5.914   3.038   3.545
 4614SOL    HW114741   5.959   3.127   3.543
 4614SOL    HW214742   5.950   2.981   3.471
 4615SOL     OW14743   1.156   1.385   0.937
 4615SOL    HW114744   1.198   1.461   0.986
 4615SOL    HW214745   1.075   1.417   0.888
 4616SOL     OW14746   5.574   1.599   4.347
 4616SOL    HW114747   5.516   1.518   4.343
 4616SOL    HW214748   5.583   1.639   4.256
 4617SOL     OW14749   1.808   2.383   2.505
 4617SOL    HW114750   1.764   2.320   2.441
 4617SOL    HW214751   1.738   2.427   2.561
 4618SOL     OW14752   2.203   3.690   5.594
 4618SOL    HW114753   2.241   3.781   5.577
 4618SOL    HW214754   2.105   3.697   5.612
 4619SOL     OW14755   2.828   6.283   3.714
 4619SOL    HW114756   2.795   6.331   3.632
 4619SOL    HW214757   2.753   6.272   3.779
 4620SOL     OW14758   0.901   4.562   1.220
 4620SOL    HW114759   0.942   4.538   1.307
 4620SOL    HW214760   0.852   4.649   1.229
 4621SOL     OW14761   5.259   1.056   2.260
 4621SOL    HW114762   5.309   1.020   2.180
 4621SOL    HW214763   5.221   1.145   2.237
 4622SOL     OW14764   3.975   5.227   0.950
 4622SOL    HW114765   3.996   5.148   1.008
 4622SOL    HW214766   4.059   5.276   0.928
 4623SOL     OW14767   4.560   5.467   1.104
 4623SOL    HW114768   4.552   5.539   1.173
 4623SOL    HW214769   4.479   5.468   1.045
 4624SOL     OW14770   3.584   0.453   2.940
 4624SOL    HW114771   3.679   0.423   2.936
 4624SOL    HW214772   3.524   0.373   2.946
 4625SOL     OW14773   1.898   5.321   1.867
 4625SOL    HW114774   1.876   5.415   1.843
 4625SOL    HW214775   1.837   5.289   1.939
 4626SOL     OW14776   4.592   4.521   1.850
 4626SOL    HW114777   4.575   4.436   1.901
 4626SOL    HW214778   4.513   4.541   1.792
 4627SOL     OW14779   1.086   5.384   5.294
 4627SOL    HW114780   1.177   5.414   5.264
 4627SOL    HW214781   1.016   5.442   5.253
 4628SOL     OW14782   4.542   4.528   4.822
 4628SOL    HW114783   4.486   4.532   4.904
 4628SOL    HW214784   4.573   4.434   4.807
 4629SOL     OW14785   2.316   4.679   5.273
 4629SOL    HW114786   2.252   4.694   5.348
 4629SOL    HW214787   2.328   4.765   5.222
 4630SOL     OW14788   2.205   5.334   2.183
 4630SOL    HW114789   2.285   5.289   2.143
 4630SOL    HW214790   2.204   5.430   2.156
 4631SOL     OW14791   0.862   6.628   3.804
 4631SOL    HW114792   0.799   6.669   3.739
 4631SOL    HW214793   0.924   6.566   3.756
 4632SOL     OW14794   2.520   4.535   2.903
 4632SOL    HW114795   2.511   4.497   2.811
 4632SOL    HW214796   2.482   4.470   2.969
 4633SOL     OW14797   5.592   1.146   4.734
 4633SOL    HW114798   5.636   1.235   4.736
 4633SOL    HW214799   5.655   1.076   4.768
 4634SOL     OW14800   2.697   3.855   5.246
 4634SOL    HW114801   2.648   3.824   5.327
 4634SOL    HW214802   2.632   3.887   5.178
 4635SOL     OW14803   4.328   4.470   1.725
 4635SOL    HW114804   4.368   4.385   1.757
 4635SOL    HW214805   4.228   4.463   1.725
 4636SOL     OW14806   2.132   4.358   0.448
 4636SOL    HW114807   2.143   4.401   0.358
 4636SOL    HW214808   2.180   4.270   0.449
 4637SOL     OW14809   0.801   6.850   1.138
 4637SOL    HW114810   0.845   6.760   1.134
 4637SOL    HW214811   0.855   6.911   1.194
 4638SOL     OW14812   3.661   5.669   6.566
 4638SOL    HW114813   3.585   5.722   6.605
 4638SOL    HW214814   3.748   5.705   6.600
 4639SOL     OW14815   2.814   2.835   6.317
 4639SOL    HW114816   2.802   2.934   6.328
 4639SOL    HW214817   2.752   2.788   6.380
 4640SOL     OW14818   6.030   3.485   4.367
 4640SOL    HW114819   5.976   3.411   4.406
 4640SOL    HW214820   6.026   3.565   4.427
 4641SOL     OW14821   2.429   0.420   4.154
 4641SOL    HW114822   2.449   0.518   4.144
 4641SOL    HW214823   2.430   0.377   4.064
 4642SOL     OW14824   1.829   6.467   2.793
 4642SOL    HW114825   1.921   6.461   2.832
 4642SOL    HW214826   1.832   6.516   2.706
 4643SOL     OW14827   6.711   2.090   6.924
 4643SOL    HW114828   6.709   2.106   0.004
 4643SOL    HW214829   6.693   1.993   6.906
 4644SOL     OW14830   6.897   0.149   5.742
 4644SOL    HW114831   6.840   0.067   5.744
 4644SOL    HW214832   6.915   0.180   5.835
 4645SOL     OW14833   2.241   1.273   4.024
 4645SOL    HW114834   2.229   1.289   4.123
 4645SOL    HW214835   2.152   1.275   3.980
 4646SOL     OW14836   2.360   5.490   3.734
 4646SOL    HW114837   2.325   5.560   3.796
 4646SOL    HW214838   2.460   5.490   3.736
 4647SOL     OW14839   2.105   0.285   2.915
 4647SOL    HW114840   2.100   0.212   2.846
 4647SOL    HW214841   2.189   0.275   2.968
 4648SOL     OW14842   3.158   0.939   4.147
 4648SOL    HW114843   3.212   1.019   4.173
 4648SOL    HW214844   3.173   0.919   4.050
 4649SOL     OW14845   6.225   0.608   0.498
 4649SOL    HW114846   6.306   0.583   0.551
 4649SOL    HW214847   6.227   0.705   0.477
 4650SOL     OW14848   4.556   5.288   2.184
 4650SOL    HW114849   4.606   5.242   2.110
 4650SOL    HW214850   4.476   5.234   2.209
 4651SOL     OW14851   6.255   3.442   6.921
 4651SOL    HW114852   6.311   3.520   6.947
 4651SOL    HW214853   6.287   3.360   6.969
 4652SOL     OW14854   6.223   6.459   5.148
 4652SOL    HW114855   6.292   6.457   5.220
 4652SOL    HW214856   6.154   6.528   5.171
 4653SOL     OW14857   5.003   5.841   1.016
 4653SOL    HW114858   4.929   5.778   1.038
 4653SOL    HW214859   4.964   5.927   0.981
 4654SOL     OW14860   0.529   5.861   6.012
 4654SOL    HW114861   0.560   5.949   6.046
 4654SOL    HW214862   0.532   5.860   5.912
 4655SOL     OW14863   5.500   4.156   1.548
 4655SOL    HW114864   5.431   4.084   1.560
 4655SOL    HW214865   5.583   4.118   1.508
 4656SOL     OW14866   1.164   1.041   1.678
 4656SOL    HW114867   1.141   1.008   1.586
 4656SOL    HW214868   1.221   0.973   1.724
 4657SOL     OW14869   4.524   5.492   1.901
 4657SOL    HW114870   4.487   5.404   1.870
 4657SOL    HW214871   4.455   5.542   1.953
 4658SOL     OW14872   3.185   1.759   4.715
 4658SOL    HW114873   3.224   1.790   4.628
 4658SOL    HW214874   3.128   1.831   4.754
 4659SOL     OW14875   2.772   4.392   6.930
 4659SOL    HW114876   2.772   4.293   6.915
 4659SOL    HW214877   2.782   4.411   0.008
 4660SOL     OW14878   1.293   6.348   4.398
 4660SOL    HW114879   1.332   6.440   4.392
 4660SOL    HW214880   1.205   6.347   4.350
 4661SOL     OW14881   2.744   4.816   5.721
 4661SOL    HW114882   2.732   4.889   5.654
 4661SOL    HW214883   2.759   4.729   5.674
 4662SOL     OW14884   3.113   0.159   5.629
 4662SOL    HW114885   3.015   0.162   5.609
 4662SOL    HW214886   3.127   0.172   5.727
 4663SOL     OW14887   0.504   0.551   0.717
 4663SOL    HW114888   0.430   0.530   0.653
 4663SOL    HW214889   0.473   0.534   0.810
 4664SOL     OW14890   0.648   0.792   0.424
 4664SOL    HW114891   0.676   0.697   0.434
 4664SOL    HW214892   0.689   0.846   0.497
 4665SOL     OW14893   2.602   0.214   6.069
 4665SOL    HW114894   2.684   0.205   6.126
 4665SOL    HW214895   2.588   0.129   6.019
 4666SOL     OW14896   2.257   2.066   6.783
 4666SOL    HW114897   2.333   2.006   6.805
 4666SOL    HW214898   2.173   2.030   6.825
 4667SOL     OW14899   6.260   3.729   1.981
 4667SOL    HW114900   6.243   3.823   2.011
 4667SOL    HW214901   6.331   3.729   1.911
 4668SOL     OW14902   5.040   1.700   4.276
 4668SOL    HW114903   4.995   1.617   4.245
 4668SOL    HW214904   5.066   1.690   4.372
 4669SOL     OW14905   5.321   6.794   6.533
 4669SOL    HW114906   5.252   6.826   6.599
 4669SOL    HW214907   5.316   6.849   6.450
 4670SOL     OW14908   0.921   2.818   6.483
 4670SOL    HW114909   1.011   2.789   6.449
 4670SOL    HW214910   0.921   2.917   6.497
 4671SOL     OW14911   0.836   3.751   6.644
 4671SOL    HW114912   0.763   3.685   6.658
 4671SOL    HW214913   0.922   3.714   6.680
 4672SOL     OW14914   3.871   4.748   6.099
 4672SOL    HW114915   3.780   4.780   6.072
 4672SOL    HW214916   3.877   4.743   6.198
 4673SOL     OW14917   4.806   6.949   0.919
 4673SOL    HW114918   4.877   6.890   0.882
 4673SOL    HW214919   4.748   6.983   0.844
 4674SOL     OW14920   5.578   1.697   0.512
 4674SOL    HW114921   5.536   1.710   0.423
 4674SOL    HW214922   5.677   1.706   0.504
 4675SOL     OW14923   3.615   0.424   0.054
 4675SOL    HW114924   3.705   0.446   0.014
 4675SOL    HW214925   3.619   0.434   0.153
 4676SOL     OW14926   0.344   6.794   4.796
 4676SOL    HW114927   0.352   6.824   4.891
 4676SOL    HW214928   0.433   6.799   4.751
 4677SOL     OW14929   2.975   0.642   0.255
 4677SOL    HW114930   2.960   0.589   0.338
 4677SOL    HW214931   3.058   0.610   0.209
 4678SOL     OW14932   2.203   4.626   2.307
 4678SOL    HW114933   2.175   4.690   2.235
 4678SOL    HW214934   2.291   4.655   2.344
 4679SOL     OW14935   3.880   1.270   7.014
 4679SOL    HW114936   3.937   1.332   6.959
 4679SOL    HW214937   3.799   1.245   6.961
 4680SOL     OW14938   1.941   0.343   2.065
 4680SOL    HW114939   2.030   0.299   2.069
 4680SOL    HW214940   1.881   0.305   2.135
 4681SOL     OW14941   6.328   5.663   5.589
 4681SOL    HW114942   6.330   5.760   5.613
 4681SOL    HW214943   6.367   5.609   5.664
 4682SOL     OW14944   4.933   4.606   6.743
 4682SOL    HW114945   4.980   4.592   6.656
 4682SOL    HW214946   4.955   4.697   6.778
 4683SOL     OW14947   5.177   4.562   2.770
 4683SOL    HW114948   5.200   4.469   2.800
 4683SOL    HW214949   5.089   4.560   2.722
 4684SOL     OW14950   6.780   2.077   4.197
 4684SOL    HW114951   6.730   1.993   4.177
 4684SOL    HW214952   6.764   2.103   4.293
 4685SOL     OW14953   0.569   6.101   4.467
 4685SOL    HW114954   0.646   6.109   4.530
 4685SOL    HW214955   0.591   6.149   4.382
 4686SOL     OW14956   5.154   5.811   0.344
 4686SOL    HW114957   5.059   5.796   0.368
 4686SOL    HW214958   5.170   5.782   0.249
 4687SOL     OW14959   6.649   5.119   5.173
 4687SOL    HW114960   6.721   5.153   5.112
 4687SOL    HW214961   6.560   5.143   5.135
 4688SOL     OW14962   0.114   3.333   5.984
 4688SOL    HW114963   0.136   3.274   6.061
 4688SOL    HW214964   0.064   3.413   6.016
 4689SOL     OW14965   5.475   0.664   6.919
 4689SOL    HW114966   5.423   0.626   6.842
 4689SOL    HW214967   5.551   0.718   6.885
 4690SOL     OW14968   1.183   1.637   0.216
 4690SOL    HW114969   1.274   1.611   0.181
 4690SOL    HW214970   1.193   1.709   0.284
 4691SOL     OW14971   3.200   4.173   1.697
 4691SOL    HW114972   3.242   4.134   1.615
 4691SOL    HW214973   3.154   4.259   1.673
 4692SOL     OW14974   6.597   5.192   2.458
 4692SOL    HW114975   6.653   5.229   2.533
 4692SOL    HW214976   6.590   5.259   2.385
 4693SOL     OW14977   0.978   0.399   4.138
 4693SOL    HW114978   1.049   0.456   4.095
 4693SOL    HW214979   0.922   0.456   4.198
 4694SOL     OW14980   2.794   0.622   0.040
 4694SOL    HW114981   2.865   0.641   0.108
 4694SOL    HW214982   2.780   0.524   0.032
 4695SOL     OW14983   2.839   3.388   1.039
 4695SOL    HW114984   2.878   3.369   1.130
 4695SOL    HW214985   2.896   3.455   0.992
 4696SOL     OW14986   0.689   4.453   5.736
 4696SOL    HW114987   0.654   4.408   5.818
 4696SOL    HW214988   0.659   4.403   5.655
 4697SOL     OW14989   1.199   3.393   0.771
 4697SOL    HW114990   1.166   3.334   0.845
 4697SOL    HW214991   1.123   3.445   0.733
 4698SOL     OW14992   4.247   5.535   3.007
 4698SOL    HW114993   4.337   5.530   2.964
 4698SOL    HW214994   4.197   5.613   2.971
 4699SOL     OW14995   1.266   6.655   2.257
 4699SOL    HW114996   1.326   6.719   2.304
 4699SOL    HW214997   1.259   6.680   2.160
 4700SOL     OW14998   6.096   1.520   2.114
 4700SOL    HW114999   6.109   1.524   2.014
 4700SOL    HW215000   6.007   1.481   2.135
 4701SOL     OW15001   1.271   2.496   0.427
 4701SOL    HW115002   1.182   2.533   0.398
 4701SOL    HW215003   1.338   2.510   0.355
 4702SOL     OW15004   5.963   5.111   6.606
 4702SOL    HW115005   6.059   5.095   6.625
 4702SOL    HW215006   5.953   5.192   6.548
 4703SOL     OW15007   1.182   2.516   2.114
 4703SOL    HW115008   1.168   2.420   2.135
 4703SOL    HW215009   1.125   2.542   2.036
 4704SOL     OW15010   7.002   6.521   6.808
 4704SOL    HW115011   6.981   6.585   6.883
 4704SOL    HW215012   0.078   6.492   6.815
 4705SOL     OW15013   3.757   3.390   2.704
 4705SOL    HW115014   3.701   3.445   2.642
 4705SOL    HW215015   3.728   3.406   2.799
 4706SOL     OW15016   3.808   6.243   6.707
 4706SOL    HW115017   3.761   6.230   6.794
 4706SOL    HW215018   3.865   6.325   6.711
 4707SOL     OW15019   2.121   6.079   0.828
 4707SOL    HW115020   2.163   6.110   0.742
 4707SOL    HW215021   2.036   6.031   0.809
 4708SOL     OW15022   1.532   2.318   6.867
 4708SOL    HW115023   1.548   2.367   6.953
 4708SOL    HW215024   1.551   2.221   6.879
 4709SOL     OW15025   3.537   5.000   5.344
 4709SOL    HW115026   3.596   4.975   5.267
 4709SOL    HW215027   3.446   5.024   5.309
 4710SOL     OW15028   3.725   1.222   5.539
 4710SOL    HW115029   3.652   1.289   5.548
 4710SOL    HW215030   3.685   1.132   5.521
 4711SOL     OW15031   4.907   0.356   2.275
 4711SOL    HW115032   4.903   0.445   2.319
 4711SOL    HW215033   4.948   0.289   2.337
 4712SOL     OW15034   2.797   4.543   0.498
 4712SOL    HW115035   2.818   4.607   0.425
 4712SOL    HW215036   2.824   4.582   0.586
 4713SOL     OW15037   2.669   3.885   0.950
 4713SOL    HW115038   2.681   3.786   0.948
 4713SOL    HW215039   2.755   3.930   0.927
 4714SOL     OW15040   1.920   1.583   0.102
 4714SOL    HW115041   1.860   1.663   0.104
 4714SOL    HW215042   1.963   1.577   0.012
 4715SOL     OW15043   6.772   3.931   1.783
 4715SOL    HW115044   6.842   3.865   1.809
 4715SOL    HW215045   6.747   3.917   1.687
 4716SOL     OW15046   3.897   5.811   6.660
 4716SOL    HW115047   3.893   5.903   6.621
 4716SOL    HW215048   3.969   5.759   6.613
 4717SOL     OW15049   0.486   6.140   3.420
 4717SOL    HW115050   0.562   6.098   3.470
 4717SOL    HW215051   0.491   6.239   3.430
 4718SOL     OW15052   5.452   2.110   6.388
 4718SOL    HW115053   5.418   2.107   6.294
 4718SOL    HW215054   5.506   2.028   6.406
 4719SOL     OW15055   4.853   3.080   2.867
 4719SOL    HW115056   4.945   3.055   2.897
 4719SOL    HW215057   4.786   3.037   2.926
 4720SOL     OW15058   2.350   5.905   5.597
 4720SOL    HW115059   2.424   5.841   5.615
 4720SOL    HW215060   2.370   5.993   5.640
 4721SOL     OW15061   6.443   2.215   1.421
 4721SOL    HW115062   6.510   2.240   1.490
 4721SOL    HW215063   6.368   2.164   1.464
 4722SOL     OW15064   1.429   6.271   0.045
 4722SOL    HW115065   1.466   6.343   7.005
 4722SOL    HW215066   1.504   6.214   0.078
 4723SOL     OW15067   1.850   5.094   5.464
 4723SOL    HW115068   1.806   5.182   5.481
 4723SOL    HW215069   1.797   5.043   5.396
 4724SOL     OW15070   4.568   5.688   3.042
 4724SOL    HW115071   4.599   5.719   2.952
 4724SOL    HW215072   4.545   5.590   3.038
 4725SOL     OW15073   5.743   6.354   2.480
 4725SOL    HW115074   5.833   6.397   2.486
 4725SOL    HW215075   5.714   6.323   2.571
 4726SOL     OW15076   1.608   3.100   6.480
 4726SOL    HW115077   1.588   3.013   6.437
 4726SOL    HW215078   1.707   3.106   6.498
 4727SOL     OW15079   6.585   6.312   6.952
 4727SOL    HW115080   6.665   6.277   6.903
 4727SOL    HW215081   6.502   6.274   6.910
 4728SOL     OW15082   4.861   1.709   1.320
 4728SOL    HW115083   4.770   1.730   1.285
 4728SOL    HW215084   4.853   1.671   1.412
 4729SOL     OW15085   3.004   1.290   2.443
 4729SOL    HW115086   3.008   1.299   2.542
 4729SOL    HW215087   2.909   1.298   2.413
 4730SOL     OW15088   2.109   5.465   5.290
 4730SOL    HW115089   2.026   5.520   5.303
 4730SOL    HW215090   2.181   5.522   5.249
 4731SOL     OW15091   4.334   0.559   6.486
 4731SOL    HW115092   4.354   0.577   6.389
 4731SOL    HW215093   4.413   0.585   6.541
 4732SOL     OW15094   6.961   3.449   6.259
 4732SOL    HW115095   6.959   3.351   6.239
 4732SOL    HW215096   6.879   3.474   6.310
 4733SOL     OW15097   1.092   4.106   3.153
 4733SOL    HW115098   1.031   4.156   3.213
 4733SOL    HW215099   1.072   4.008   3.159
 4734SOL     OW15100   4.847   3.677   6.883
 4734SOL    HW115101   4.892   3.589   6.898
 4734SOL    HW215102   4.751   3.662   6.861
 4735SOL     OW15103   0.754   5.452   4.335
 4735SOL    HW115104   0.757   5.484   4.240
 4735SOL    HW215105   0.847   5.436   4.367
 4736SOL     OW15106   0.615   1.740   6.396
 4736SOL    HW115107   0.555   1.737   6.315
 4736SOL    HW215108   0.573   1.797   6.466
 4737SOL     OW15109   0.988   5.311   2.197
 4737SOL    HW115110   1.061   5.379   2.189
 4737SOL    HW215111   0.996   5.244   2.123
 4738SOL     OW15112   6.890   5.858   3.029
 4738SOL    HW115113   6.959   5.904   3.086
 4738SOL    HW215114   6.860   5.920   2.956
 4739SOL     OW15115   4.548   6.588   3.167
 4739SOL    HW115116   4.501   6.669   3.131
 4739SOL    HW215117   4.602   6.615   3.247
 4740SOL     OW15118   0.285   1.158   1.679
 4740SOL    HW115119   0.244   1.242   1.644
 4740SOL    HW215120   0.344   1.118   1.608
 4741SOL     OW15121   3.499   2.449   1.668
 4741SOL    HW115122   3.559   2.392   1.723
 4741SOL    HW215123   3.404   2.427   1.690
 4742SOL     OW15124   1.994   6.742   5.969
 4742SOL    HW115125   1.926   6.672   5.990
 4742SOL    HW215126   1.952   6.833   5.974
 4743SOL     OW15127   2.119   3.611   2.821
 4743SOL    HW115128   2.041   3.553   2.847
 4743SOL    HW215129   2.093   3.707   2.827
 4744SOL     OW15130   2.158   5.156   1.125
 4744SOL    HW115131   2.193   5.080   1.180
 4744SOL    HW215132   2.115   5.120   1.042
 4745SOL     OW15133   3.355   3.827   6.729
 4745SOL    HW115134   3.385   3.826   6.824
 4745SOL    HW215135   3.432   3.847   6.669
 4746SOL     OW15136   4.363   6.350   3.812
 4746SOL    HW115137   4.417   6.271   3.783
 4746SOL    HW215138   4.269   6.339   3.781
 4747SOL     OW15139   0.867   4.009   0.650
 4747SOL    HW115140   0.862   3.953   0.733
 4747SOL    HW215141   0.851   3.952   0.570
 4748SOL     OW15142   1.671   6.662   1.474
 4748SOL    HW115143   1.757   6.614   1.458
 4748SOL    HW215144   1.608   6.602   1.523
 4749SOL     OW15145   1.703   0.056   6.404
 4749SOL    HW115146   1.683   6.999   6.343
 4749SOL    HW215147   1.619   0.104   6.427
 4750SOL     OW15148   6.261   3.338   5.452
 4750SOL    HW115149   6.207   3.408   5.404
 4750SOL    HW215150   6.311   3.284   5.385
 4751SOL     OW15151   4.709   2.614   3.108
 4751SOL    HW115152   4.746   2.569   3.026
 4751SOL    HW215153   4.625   2.567   3.136
 4752SOL     OW15154   4.643   0.429   0.318
 4752SOL    HW115155   4.688   0.361   0.376
 4752SOL    HW215156   4.555   0.392   0.286
 4753SOL     OW15157   0.797   6.517   4.058
 4753SOL    HW115158   0.816   6.564   3.972
 4753SOL    HW215159   0.794   6.584   4.132
 4754SOL     OW15160   4.962   3.834   5.058
 4754SOL    HW115161   4.894   3.765   5.033
 4754SOL    HW215162   4.993   3.818   5.151
 4755SOL     OW15163   2.490   0.526   0.773
 4755SOL    HW115164   2.417   0.592   0.788
 4755SOL    HW215165   2.552   0.560   0.703
 4756SOL     OW15166   6.404   3.864   5.698
 4756SOL    HW115167   6.394   3.944   5.757
 4756SOL    HW215168   6.342   3.792   5.729
 4757SOL     OW15169   1.723   2.663   1.485
 4757SOL    HW115170   1.819   2.680   1.507
 4757SOL    HW215171   1.666   2.727   1.535
 4758SOL     OW15172   1.167   6.908   3.472
 4758SOL    HW115173   1.192   6.976   3.403
 4758SOL    HW215174   1.247   6.887   3.528
 4759SOL     OW15175   0.945   6.022   6.499
 4759SOL    HW115176   0.910   5.934   6.467
 4759SOL    HW215177   0.901   6.046   6.586
 4760SOL     OW15178   1.818   1.396   0.843
 4760SOL    HW115179   1.863   1.330   0.902
 4760SOL    HW215180   1.753   1.450   0.897
 4761SOL     OW15181   1.415   0.917   0.793
 4761SOL    HW115182   1.465   0.997   0.761
 4761SOL    HW215183   1.326   0.911   0.747
 4762SOL     OW15184   1.720   5.840   1.908
 4762SOL    HW115185   1.645   5.791   1.952
 4762SOL    HW215186   1.686   5.923   1.865
 4763SOL     OW15187   4.497   0.678   2.704
 4763SOL    HW115188   4.572   0.643   2.759
 4763SOL    HW215189   4.532   0.741   2.634
 4764SOL     OW15190   4.582   3.391   5.363
 4764SOL    HW115191   4.647   3.449   5.315
 4764SOL    HW215192   4.532   3.446   5.430
 4765SOL     OW15193   3.943   0.887   5.809
 4765SOL    HW115194   3.902   0.805   5.849
 4765SOL    HW215195   4.010   0.925   5.873
 4766SOL     OW15196   5.954   6.470   4.131
 4766SOL    HW115197   5.910   6.410   4.199
 4766SOL    HW215198   6.039   6.428   4.100
 4767SOL     OW15199   2.714   5.005   5.544
 4767SOL    HW115200   2.766   5.090   5.537
 4767SOL    HW215201   2.669   4.987   5.456
 4768SOL     OW15202   3.840   3.189   5.936
 4768SOL    HW115203   3.852   3.091   5.922
 4768SOL    HW215204   3.805   3.205   6.028
 4769SOL     OW15205   3.215   6.136   0.263
 4769SOL    HW115206   3.305   6.177   0.250
 4769SOL    HW215207   3.158   6.154   0.183
 4770SOL     OW15208   6.708   1.957   5.006
 4770SOL    HW115209   6.730   1.860   5.010
 4770SOL    HW215210   6.761   2.006   5.075
 4771SOL     OW15211   2.480   6.546   6.180
 4771SOL    HW115212   2.534   6.521   6.260
 4771SOL    HW215213   2.452   6.463   6.131
 4772SOL     OW15214   3.316   4.735   1.507
 4772SOL    HW115215   3.227   4.773   1.532
 4772SOL    HW215216   3.304   4.645   1.465
 4773SOL     OW15217   1.235   6.324   4.777
 4773SOL    HW115218   1.199   6.416   4.763
 4773SOL    HW215219   1.216   6.294   4.871
 4774SOL     OW15220   1.115   4.288   1.540
 4774SOL    HW115221   1.164   4.272   1.454
 4774SOL    HW215222   1.018   4.269   1.527
 4775SOL     OW15223   5.052   0.353   4.377
 4775SOL    HW115224   5.111   0.419   4.425
 4775SOL    HW215225   5.104   0.270   4.358
 4776SOL     OW15226   0.975   0.879   4.764
 4776SOL    HW115227   0.887   0.850   4.802
 4776SOL    HW215228   0.971   0.975   4.739
 4777SOL     OW15229   1.598   5.547   0.865
 4777SOL    HW115230   1.619   5.550   0.963
 4777SOL    HW215231   1.676   5.507   0.816
 4778SOL     OW15232   6.977   3.062   4.751
 4778SOL    HW115233   0.010   3.043   4.834
 4778SOL    HW215234   7.013   3.007   4.676
 4779SOL     OW15235   5.554   6.630   3.983
 4779SOL    HW115236   5.538   6.615   4.081
 4779SOL    HW215237   5.538   6.727   3.961
 4780SOL     OW15238   5.872   2.383   6.531
 4780SOL    HW115239   5.926   2.323   6.473
 4780SOL    HW215240   5.827   2.453   6.475
 4781SOL     OW15241   2.604   5.056   2.167
 4781SOL    HW115242   2.678   5.039   2.102
 4781SOL    HW215243   2.641   5.104   2.247
 4782SOL     OW15244   6.750   5.643   6.293
 4782SOL    HW115245   6.701   5.564   6.329
 4782SOL    HW215246   6.716   5.726   6.339
 4783SOL     OW15247   5.851   3.640   0.156
 4783SOL    HW115248   5.758   3.651   0.120
 4783SOL    HW215249   5.882   3.727   0.195
 4784SOL     OW15250   6.010   2.209   6.294
 4784SOL    HW115251   5.975   2.285   6.240
 4784SOL    HW215252   5.981   2.123   6.253
 4785SOL     OW15253   0.350   6.837   2.815
 4785SOL    HW115254   0.388   6.817   2.905
 4785SOL    HW215255   0.304   6.756   2.779
 4786SOL     OW15256   2.435   6.911   0.202
 4786SOL    HW115257   2.438   6.855   0.119
 4786SOL    HW215258   2.341   6.916   0.236
 4787SOL     OW15259   3.908   1.873   3.374
 4787SOL    HW115260   3.841   1.816   3.325
 4787SOL    HW215261   3.899   1.858   3.472
 4788SOL     OW15262   6.271   6.194   0.380
 4788SOL    HW115263   6.179   6.222   0.408
 4788SOL    HW215264   6.326   6.275   0.362
 4789SOL     OW15265   4.866   1.474   1.689
 4789SOL    HW115266   4.834   1.488   1.783
 4789SOL    HW215267   4.966   1.470   1.689
 4790SOL     OW15268   5.477   1.958   5.430
 4790SOL    HW115269   5.530   2.032   5.472
 4790SOL    HW215270   5.497   1.872   5.476
 4791SOL     OW15271   6.936   3.038   1.682
 4791SOL    HW115272   7.000   3.107   1.715
 4791SOL    HW215273   6.951   3.023   1.584
 4792SOL     OW15274   2.381   4.465   4.493
 4792SOL    HW115275   2.383   4.397   4.567
 4792SOL    HW215276   2.461   4.524   4.501
 4793SOL     OW15277   1.819   3.531   5.051
 4793SOL    HW115278   1.903   3.480   5.031
 4793SOL    HW215279   1.820   3.563   5.146
 4794SOL     OW15280   4.232   6.671   4.218
 4794SOL    HW115281   4.303   6.682   4.288
 4794SOL    HW215282   4.270   6.622   4.140
 4795SOL     OW15283   6.686   1.710   4.647
 4795SOL    HW115284   6.696   1.630   4.587
 4795SOL    HW215285   6.593   1.712   4.684
 4796SOL     OW15286   3.745   0.205   6.224
 4796SOL    HW115287   3.699   0.150   6.153
 4796SOL    HW215288   3.764   0.296   6.188
 4797SOL     OW15289   0.617   5.879   4.609
 4797SOL    HW115290   0.573   5.944   4.547
 4797SOL    HW215291   0.716   5.894   4.609
 4798SOL     OW15292   5.704   5.202   5.848
 4798SOL    HW115293   5.715   5.288   5.798
 4798SOL    HW215294   5.734   5.126   5.791
 4799SOL     OW15295   4.266   1.374   0.214
 4799SOL    HW115296   4.188   1.369   0.277
 4799SOL    HW215297   4.234   1.397   0.122
 4800SOL     OW15298   1.380   4.017   6.775
 4800SOL    HW115299   1.321   3.949   6.731
 4800SOL    HW215300   1.407   4.086   6.708
 4801SOL     OW15301   3.726   2.908   6.656
 4801SOL    HW115302   3.792   2.961   6.710
 4801SOL    HW215303   3.772   2.868   6.577
 4802SOL     OW15304   6.644   6.611   1.793
 4802SOL    HW115305   6.710   6.536   1.789
 4802SOL    HW215306   6.555   6.575   1.822
 4803SOL     OW15307   6.436   4.952   0.992
 4803SOL    HW115308   6.449   4.863   0.947
 4803SOL    HW215309   6.437   4.940   1.091
 4804SOL     OW15310   5.703   0.084   0.915
 4804SOL    HW115311   5.678   0.076   0.818
 4804SOL    HW215312   5.796   0.119   0.923
 4805SOL     OW15313   6.687   0.771   2.546
 4805SOL    HW115314   6.685   0.854   2.601
 4805SOL    HW215315   6.632   0.700   2.590
 4806SOL     OW15316   1.300   3.632   2.808
 4806SOL    HW115317   1.390   3.614   2.771
 4806SOL    HW215318   1.233   3.636   2.733
 4807SOL     OW15319   1.459   3.543   6.696
 4807SOL    HW115320   1.448   3.594   6.611
 4807SOL    HW215321   1.475   3.607   6.771
 4808SOL     OW15322   4.516   5.478   0.600
 4808SOL    HW115323   4.441   5.484   0.535
 4808SOL    HW215324   4.542   5.382   0.612
 4809SOL     OW15325   4.014   4.014   1.504
 4809SOL    HW115326   3.953   4.088   1.533
 4809SOL    HW215327   3.962   3.930   1.493
 4810SOL     OW15328   1.656   4.827   3.451
 4810SOL    HW115329   1.656   4.905   3.515
 4810SOL    HW215330   1.733   4.768   3.472
 4811SOL     OW15331   3.891   3.855   3.795
 4811SOL    HW115332   3.968   3.791   3.794
 4811SOL    HW215333   3.859   3.869   3.701
 4812SOL     OW15334   0.242   6.659   2.190
 4812SOL    HW115335   0.246   6.759   2.183
 4812SOL    HW215336   0.231   6.633   2.286
 4813SOL     OW15337   6.233   1.931   6.238
 4813SOL    HW115338   6.256   1.943   6.334
 4813SOL    HW215339   6.143   1.970   6.220
 4814SOL     OW15340   0.068   3.571   2.022
 4814SOL    HW115341   0.101   3.488   1.976
 4814SOL    HW215342   0.084   3.563   2.120
 4815SOL     OW15343   5.141   4.844   2.776
 4815SOL    HW115344   5.047   4.856   2.745
 4815SOL    HW215345   5.160   4.747   2.786
 4816SOL     OW15346   2.318   5.953   1.255
 4816SOL    HW115347   2.334   5.866   1.301
 4816SOL    HW215348   2.361   6.027   1.308
 4817SOL     OW15349   3.191   1.164   1.787
 4817SOL    HW115350   3.102   1.189   1.748
 4817SOL    HW215351   3.252   1.137   1.713
 4818SOL     OW15352   1.207   1.605   3.951
 4818SOL    HW115353   1.220   1.536   4.023
 4818SOL    HW215354   1.178   1.691   3.991
 4819SOL     OW15355   3.251   1.858   1.592
 4819SOL    HW115356   3.332   1.818   1.636
 4819SOL    HW215357   3.207   1.922   1.655
 4820SOL     OW15358   6.494   2.302   0.826
 4820SOL    HW115359   6.533   2.387   0.861
 4820SOL    HW215360   6.511   2.228   0.892
 4821SOL     OW15361   6.314   6.651   1.632
 4821SOL    HW115362   6.258   6.625   1.553
 4821SOL    HW215363   6.370   6.572   1.660
 4822SOL     OW15364   1.881   2.865   3.976
 4822SOL    HW115365   1.886   2.778   4.025
 4822SOL    HW215366   1.966   2.880   3.926
 4823SOL     OW15367   6.887   0.901   3.773
 4823SOL    HW115368   6.956   0.874   3.840
 4823SOL    HW215369   6.882   1.001   3.769
 4824SOL     OW15370   5.844   1.720   3.909
 4824SOL    HW115371   5.873   1.628   3.881
 4824SOL    HW215372   5.902   1.788   3.864
 4825SOL     OW15373   2.253   2.674   4.439
 4825SOL    HW115374   2.167   2.626   4.453
 4825SOL    HW215375   2.327   2.625   4.485
 4826SOL     OW15376   0.786   0.320   0.086
 4826SOL    HW115377   0.687   0.307   0.076
 4826SOL    HW215378   0.814   0.398   0.031
 4827SOL     OW15379   6.048   0.665   1.692
 4827SOL    HW115380   6.045   0.715   1.778
 4827SOL    HW215381   5.982   0.705   1.628
 4828SOL     OW15382   5.645   3.579   1.156
 4828SOL    HW115383   5.684   3.501   1.205
 4828SOL    HW215384   5.592   3.546   1.078
 4829SOL     OW15385   3.991   6.429   6.765
 4829SOL    HW115386   3.952   6.508   6.812
 4829SOL    HW215387   4.026   6.458   6.675
 4830SOL     OW15388   5.558   5.887   3.858
 4830SOL    HW115389   5.480   5.921   3.805
 4830SOL    HW215390   5.597   5.807   3.812
 4831SOL     OW15391   6.618   5.361   5.961
 4831SOL    HW115392   6.714   5.346   5.981
 4831SOL    HW215393   6.570   5.273   5.955
 4832SOL     OW15394   2.908   2.617   5.933
 4832SOL    HW115395   2.922   2.681   6.009
 4832SOL    HW215396   2.902   2.524   5.969
 4833SOL     OW15397   5.139   1.598   2.906
 4833SOL    HW115398   5.078   1.520   2.897
 4833SOL    HW215399   5.229   1.574   2.870
 4834SOL     OW15400   3.632   0.428   0.316
 4834SOL    HW115401   3.572   0.448   0.393
 4834SOL    HW215402   3.653   0.330   0.313
 4835SOL     OW15403   1.341   0.611   6.809
 4835SOL    HW115404   1.316   0.529   6.757
 4835SOL    HW215405   1.417   0.590   6.869
 4836SOL     OW15406   4.678   2.612   3.678
 4836SOL    HW115407   4.682   2.631   3.580
 4836SOL    HW215408   4.717   2.689   3.729
 4837SOL     OW15409   4.047   2.886   1.311
 4837SOL    HW115410   3.961   2.896   1.361
 4837SOL    HW215411   4.124   2.906   1.372
 4838SOL     OW15412   2.401   5.099   1.551
 4838SOL    HW115413   2.302   5.093   1.561
 4838SOL    HW215414   2.445   5.031   1.609
 4839SOL     OW15415   1.895   3.742   5.635
 4839SOL    HW115416   1.927   3.749   5.540
 4839SOL    HW215417   1.868   3.833   5.667
 4840SOL     OW15418   0.166   6.782   6.211
 4840SOL    HW115419   0.211   6.837   6.140
 4840SOL    HW215420   0.112   6.842   6.269
 4841SOL     OW15421   2.895   5.891   1.369
 4841SOL    HW115422   2.824   5.936   1.423
 4841SOL    HW215423   2.859   5.869   1.279
 4842SOL     OW15424   3.246   4.755   1.820
 4842SOL    HW115425   3.182   4.811   1.873
 4842SOL    HW215426   3.328   4.736   1.874
 4843SOL     OW15427   5.958   3.982   0.899
 4843SOL    HW115428   6.033   3.917   0.904
 4843SOL    HW215429   5.934   4.013   0.991
 4844SOL     OW15430   6.857   3.583   5.646
 4844SOL    HW115431   6.772   3.537   5.620
 4844SOL    HW215432   6.913   3.521   5.700
 4845SOL     OW15433   6.790   5.792   4.660
 4845SOL    HW115434   6.890   5.805   4.662
 4845SOL    HW215435   6.768   5.712   4.603
 4846SOL     OW15436   6.756   3.221   2.358
 4846SOL    HW115437   6.839   3.274   2.341
 4846SOL    HW215438   6.697   3.271   2.422
 4847SOL     OW15439   3.494   1.857   5.788
 4847SOL    HW115440   3.480   1.917   5.709
 4847SOL    HW215441   3.480   1.909   5.872
 4848SOL     OW15442   1.838   0.876   3.588
 4848SOL    HW115443   1.934   0.905   3.592
 4848SOL    HW215444   1.826   0.809   3.515
 4849SOL     OW15445   0.933   0.019   6.606
 4849SOL    HW115446   0.921   0.035   6.508
 4849SOL    HW215447   0.860   0.065   6.656
 4850SOL     OW15448   4.452   1.188   2.305
 4850SOL    HW115449   4.449   1.259   2.234
 4850SOL    HW215450   4.545   1.178   2.339
 4851SOL     OW15451   3.283   5.794   4.613
 4851SOL    HW115452   3.301   5.882   4.655
 4851SOL    HW215453   3.190   5.764   4.636
 4852SOL     OW15454   0.700   0.219   6.639
 4852SOL    HW115455   0.629   0.279   6.602
 4852SOL    HW215456   0.771   0.274   6.682
 4853SOL     OW15457   3.057   1.068   2.299
 4853SOL    HW115458   2.966   1.043   2.266
 4853SOL    HW215459   3.050   1.148   2.358
 4854SOL     OW15460   5.227   6.371   2.262
 4854SOL    HW115461   5.165   6.297   2.284
 4854SOL    HW215462   5.229   6.437   2.337
 4855SOL     OW15463   6.052   2.713   2.305
 4855SOL    HW115464   6.115   2.643   2.272
 4855SOL    HW215465   5.960   2.694   2.271
 4856SOL     OW15466   1.900   4.087   2.901
 4856SOL    HW115467   1.941   4.090   2.810
 4856SOL    HW215468   1.807   4.052   2.894
 4857SOL     OW15469   1.928   2.263   5.578
 4857SOL    HW115470   2.010   2.206   5.578
 4857SOL    HW215471   1.948   2.349   5.625
 4858SOL     OW15472   1.830   0.873   4.388
 4858SOL    HW115473   1.903   0.878   4.456
 4858SOL    HW215474   1.744   0.851   4.434
 4859SOL     OW15475   1.283   0.563   4.535
 4859SOL    HW115476   1.258   0.595   4.443
 4859SOL    HW215477   1.237   0.620   4.603
 4860SOL     OW15478   3.577   4.950   1.806
 4860SOL    HW115479   3.565   4.902   1.893
 4860SOL    HW215480   3.673   4.948   1.779
 4861SOL     OW15481   5.124   5.150   0.148
 4861SOL    HW115482   5.151   5.063   0.106
 4861SOL    HW215483   5.205   5.204   0.168
 4862SOL     OW15484   2.890   4.833   4.874
 4862SOL    HW115485   2.854   4.754   4.923
 4862SOL    HW215486   2.886   4.815   4.775
 4863SOL     OW15487   5.946   4.273   1.600
 4863SOL    HW115488   5.888   4.242   1.675
 4863SOL    HW215489   6.000   4.352   1.629
 4864SOL     OW15490   3.859   1.133   3.792
 4864SOL    HW115491   3.800   1.174   3.723
 4864SOL    HW215492   3.825   1.157   3.883
 4865SOL     OW15493   2.047   0.638   5.562
 4865SOL    HW115494   1.959   0.657   5.605
 4865SOL    HW215495   2.121   0.673   5.620
 4866SOL     OW15496   6.849   3.389   0.907
 4866SOL    HW115497   6.910   3.445   0.851
 4866SOL    HW215498   6.813   3.314   0.852
 4867SOL     OW15499   3.833   5.560   3.439
 4867SOL    HW115500   3.795   5.477   3.397
 4867SOL    HW215501   3.915   5.588   3.389
 4868SOL     OW15502   6.463   4.996   2.715
 4868SOL    HW115503   6.402   5.026   2.642
 4868SOL    HW215504   6.495   5.076   2.766
 4869SOL     OW15505   1.712   1.704   1.784
 4869SOL    HW115506   1.636   1.643   1.808
 4869SOL    HW215507   1.677   1.795   1.763
 4870SOL     OW15508   0.831   6.246   1.994
 4870SOL    HW115509   0.857   6.336   2.029
 4870SOL    HW215510   0.865   6.175   2.056
 4871SOL     OW15511   0.732   1.094   3.510
 4871SOL    HW115512   0.654   1.086   3.447
 4871SOL    HW215513   0.753   1.004   3.549
 4872SOL     OW15514   6.011   0.184   3.155
 4872SOL    HW115515   5.989   0.282   3.160
 4872SOL    HW215516   6.000   0.143   3.246
 4873SOL     OW15517   6.964   5.151   3.952
 4873SOL    HW115518   6.972   5.248   3.928
 4873SOL    HW215519   6.977   5.095   3.870
 4874SOL     OW15520   5.186   3.925   2.340
 4874SOL    HW115521   5.184   3.885   2.248
 4874SOL    HW215522   5.271   3.899   2.386
 4875SOL     OW15523   6.313   1.319   0.204
 4875SOL    HW115524   6.354   1.380   0.272
 4875SOL    HW215525   6.386   1.267   0.158
 4876SOL     OW15526   6.799   1.871   3.474
 4876SOL    HW115527   6.751   1.925   3.406
 4876SOL    HW215528   6.754   1.782   3.486
 4877SOL     OW15529   0.478   1.631   5.558
 4877SOL    HW115530   0.560   1.600   5.511
 4877SOL    HW215531   0.434   1.703   5.504
 4878SOL     OW15532   6.495   1.220   1.587
 4878SOL    HW115533   6.573   1.214   1.648
 4878SOL    HW215534   6.413   1.242   1.640
 4879SOL     OW15535   4.333   1.790   1.960
 4879SOL    HW115536   4.237   1.770   1.938
 4879SOL    HW215537   4.354   1.884   1.935
 4880SOL     OW15538   5.609   3.408   6.939
 4880SOL    HW115539   5.577   3.313   6.937
 4880SOL    HW215540   5.576   3.452   0.004
 4881SOL     OW15541   1.553   1.289   0.080
 4881SOL    HW115542   1.620   1.329   0.142
 4881SOL    HW215543   1.526   1.199   0.113
 4882SOL     OW15544   4.723   0.960   4.957
 4882SOL    HW115545   4.694   1.015   5.034
 4882SOL    HW215546   4.820   0.935   4.967
 4883SOL     OW15547   4.811   4.186   1.200
 4883SOL    HW115548   4.905   4.155   1.213
 4883SOL    HW215549   4.774   4.217   1.288
 4884SOL     OW15550   3.088   5.721   1.446
 4884SOL    HW115551   3.106   5.738   1.543
 4884SOL    HW215552   3.018   5.784   1.414
 4885SOL     OW15553   2.144   5.437   0.987
 4885SOL    HW115554   2.210   5.495   1.035
 4885SOL    HW215555   2.161   5.342   1.010
 4886SOL     OW15556   2.127   6.470   1.697
 4886SOL    HW115557   2.105   6.375   1.719
 4886SOL    HW215558   2.102   6.488   1.602
 4887SOL     OW15559   6.937   6.602   1.505
 4887SOL    HW115560   6.931   6.504   1.525
 4887SOL    HW215561   6.922   6.616   1.407
 4888SOL     OW15562   2.930   0.094   4.183
 4888SOL    HW115563   3.014   0.043   4.202
 4888SOL    HW215564   2.953   0.186   4.152
 4889SOL     OW15565   0.146   1.513   5.074
 4889SOL    HW115566   0.062   1.562   5.099
 4889SOL    HW215567   0.217   1.580   5.050
 4890SOL     OW15568   0.118   1.265   5.478
 4890SOL    HW115569   0.130   1.264   5.379
 4890SOL    HW215570   0.169   1.342   5.516
 4891SOL     OW15571   2.272   4.827   0.085
 4891SOL    HW115572   2.193   4.843   0.145
 4891SOL    HW215573   2.243   4.831   7.009
 4892SOL     OW15574   4.050   5.683   2.256
 4892SOL    HW115575   4.078   5.758   2.198
 4892SOL    HW215576   4.123   5.661   2.321
 4893SOL     OW15577   5.769   2.937   2.084
 4893SOL    HW115578   5.857   2.891   2.077
 4893SOL    HW215579   5.699   2.873   2.117
 4894SOL     OW15580   3.622   0.900   3.023
 4894SOL    HW115581   3.637   0.875   3.119
 4894SOL    HW215582   3.672   0.836   2.964
 4895SOL     OW15583   0.690   4.845   4.249
 4895SOL    HW115584   0.602   4.893   4.253
 4895SOL    HW215585   0.746   4.883   4.175
 4896SOL     OW15586   2.360   4.309   2.241
 4896SOL    HW115587   2.291   4.371   2.204
 4896SOL    HW215588   2.422   4.280   2.169
 4897SOL     OW15589   1.696   4.939   5.271
 4897SOL    HW115590   1.684   4.858   5.214
 4897SOL    HW215591   1.680   5.021   5.216
 4898SOL     OW15592   4.232   1.118   4.934
 4898SOL    HW115593   4.173   1.181   4.984
 4898SOL    HW215594   4.286   1.065   5.000
 4899SOL     OW15595   5.999   5.284   2.972
 4899SOL    HW115596   5.939   5.223   3.024
 4899SOL    HW215597   5.957   5.374   2.965
 4900SOL     OW15598   3.720   6.024   4.968
 4900SOL    HW115599   3.642   6.042   5.029
 4900SOL    HW215600   3.721   5.927   4.945
 4901SOL     OW15601   2.068   1.640   5.227
 4901SOL    HW115602   2.150   1.647   5.170
 4901SOL    HW215603   2.092   1.600   5.315
 4902SOL     OW15604   1.680   1.401   4.594
 4902SOL    HW115605   1.609   1.438   4.534
 4902SOL    HW215606   1.665   1.303   4.608
 4903SOL     OW15607   3.891   5.542   6.918
 4903SOL    HW115608   3.940   5.585   6.993
 4903SOL    HW215609   3.793   5.544   6.937
 4904SOL     OW15610   1.720   0.097   5.612
 4904SOL    HW115611   1.800   0.126   5.665
 4904SOL    HW215612   1.747   0.025   5.548
 4905SOL     OW15613   3.575   0.741   3.549
 4905SOL    HW115614   3.656   0.701   3.506
 4905SOL    HW215615   3.527   0.671   3.602
 4906SOL     OW15616   5.050   1.920   6.362
 4906SOL    HW115617   4.963   1.938   6.408
 4906SOL    HW215618   5.049   1.963   6.271
 4907SOL     OW15619   4.751   6.864   1.825
 4907SOL    HW115620   4.770   6.813   1.908
 4907SOL    HW215621   4.652   6.878   1.816
 4908SOL     OW15622   5.470   6.568   6.831
 4908SOL    HW115623   5.441   6.487   6.882
 4908SOL    HW215624   5.569   6.566   6.818
 4909SOL     OW15625   0.079   5.608   3.416
 4909SOL    HW115626   0.138   5.530   3.394
 4909SOL    HW215627   0.136   5.686   3.443
 4910SOL     OW15628   5.470   0.840   4.539
 4910SOL    HW115629   5.416   0.912   4.495
 4910SOL    HW215630   5.567   0.854   4.519
 4911SOL     OW15631   1.797   3.938   3.262
 4911SOL    HW115632   1.714   3.992   3.265
 4911SOL    HW215633   1.814   3.897   3.352
 4912SOL     OW15634   5.845   1.717   6.141
 4912SOL    HW115635   5.869   1.680   6.231
 4912SOL    HW215636   5.749   1.744   6.140
 4913SOL     OW15637   3.951   3.239   5.115
 4913SOL    HW115638   3.934   3.301   5.192
 4913SOL    HW215639   3.908   3.151   5.134
 4914SOL     OW15640   4.615   6.493   5.051
 4914SOL    HW115641   4.529   6.469   5.005
 4914SOL    HW215642   4.618   6.592   5.066
 4915SOL     OW15643   2.421   6.152   5.683
 4915SOL    HW115644   2.471   6.212   5.746
 4915SOL    HW215645   2.333   6.194   5.659
 4916SOL     OW15646   0.762   0.981   3.932
 4916SOL    HW115647   0.707   1.059   3.902
 4916SOL    HW215648   0.703   0.901   3.944
 4917SOL     OW15649   2.616   5.628   1.343
 4917SOL    HW115650   2.536   5.573   1.367
 4917SOL    HW215651   2.687   5.615   1.412
 4918SOL     OW15652   5.457   6.087   2.021
 4918SOL    HW115653   5.493   6.119   1.934
 4918SOL    HW215654   5.470   6.157   2.091
 4919SOL     OW15655   2.706   3.216   0.854
 4919SOL    HW115656   2.758   3.267   0.923
 4919SOL    HW215657   2.616   3.258   0.843
 4920SOL     OW15658   5.500   0.256   4.572
 4920SOL    HW115659   5.561   0.177   4.573
 4920SOL    HW215660   5.543   0.332   4.622
 4921SOL     OW15661   1.207   5.934   6.857
 4921SOL    HW115662   1.130   5.872   6.870
 4921SOL    HW215663   1.258   5.908   6.775
 4922SOL     OW15664   2.909   2.212   4.178
 4922SOL    HW115665   2.938   2.246   4.088
 4922SOL    HW215666   2.935   2.116   4.187
 4923SOL     OW15667   3.489   0.916   2.436
 4923SOL    HW115668   3.497   1.002   2.486
 4923SOL    HW215669   3.412   0.922   2.372
 4924SOL     OW15670   3.285   1.163   4.221
 4924SOL    HW115671   3.358   1.170   4.289
 4924SOL    HW215672   3.273   1.252   4.176
 4925SOL     OW15673   5.605   0.819   2.347
 4925SOL    HW115674   5.586   0.911   2.312
 4925SOL    HW215675   5.633   0.825   2.443
 4926SOL     OW15676   5.786   1.798   1.402
 4926SOL    HW115677   5.793   1.698   1.412
 4926SOL    HW215678   5.793   1.841   1.491
 4927SOL     OW15679   2.882   3.542   4.661
 4927SOL    HW115680   2.869   3.581   4.752
 4927SOL    HW215681   2.881   3.442   4.667
 4928SOL     OW15682   1.586   1.167   0.454
 4928SOL    HW115683   1.499   1.131   0.422
 4928SOL    HW215684   1.660   1.127   0.400
 4929SOL     OW15685   6.466   0.200   4.532
 4929SOL    HW115686   6.507   0.172   4.619
 4929SOL    HW215687   6.518   0.161   4.456
 4930SOL     OW15688   5.670   0.438   2.888
 4930SOL    HW115689   5.740   0.372   2.862
 4930SOL    HW215690   5.630   0.412   2.976
 4931SOL     OW15691   6.198   6.594   1.400
 4931SOL    HW115692   6.260   6.598   1.322
 4931SOL    HW215693   6.109   6.560   1.371
 4932SOL     OW15694   3.910   3.048   2.885
 4932SOL    HW115695   3.974   3.079   2.815
 4932SOL    HW215696   3.846   2.982   2.846
 4933SOL     OW15697   2.562   6.960   2.533
 4933SOL    HW115698   2.644   6.954   2.590
 4933SOL    HW215699   2.481   6.958   2.592
 4934SOL     OW15700   3.316   6.101   3.072
 4934SOL    HW115701   3.344   6.158   2.994
 4934SOL    HW215702   3.397   6.067   3.119
 4935SOL     OW15703   1.734   1.903   6.363
 4935SOL    HW115704   1.831   1.892   6.340
 4935SOL    HW215705   1.725   1.939   6.455
 4936SOL     OW15706   3.512   5.133   1.442
 4936SOL    HW115707   3.581   5.181   1.496
 4936SOL    HW215708   3.489   5.187   1.361
 4937SOL     OW15709   6.303   3.372   5.719
 4937SOL    HW115710   6.206   3.391   5.735
 4937SOL    HW215711   6.322   3.375   5.621
 4938SOL     OW15712   1.726   5.549   5.675
 4938SOL    HW115713   1.653   5.609   5.642
 4938SOL    HW215714   1.814   5.594   5.660
 4939SOL     OW15715   5.559   2.030   4.937
 4939SOL    HW115716   5.466   2.027   4.973
 4939SOL    HW215717   5.588   2.126   4.928
 4940SOL     OW15718   0.784   1.214   4.557
 4940SOL    HW115719   0.841   1.213   4.640
 4940SOL    HW215720   0.785   1.306   4.517
 4941SOL     OW15721   4.328   2.080   6.044
 4941SOL    HW115722   4.386   2.115   5.970
 4941SOL    HW215723   4.375   2.005   6.091
 4942SOL     OW15724   5.088   3.264   5.509
 4942SOL    HW115725   5.055   3.294   5.599
 4942SOL    HW215726   5.009   3.244   5.451
 4943SOL     OW15727   4.163   3.371   0.239
 4943SOL    HW115728   4.169   3.386   0.141
 4943SOL    HW215729   4.242   3.414   0.284
 4944SOL     OW15730   2.316   4.272   2.750
 4944SOL    HW115731   2.297   4.226   2.662
 4944SOL    HW215732   2.232   4.315   2.783
 4945SOL     OW15733   1.019   1.003   3.841
 4945SOL    HW115734   1.071   1.079   3.881
 4945SOL    HW215735   0.927   1.001   3.880
 4946SOL     OW15736   0.191   3.130   1.168
 4946SOL    HW115737   0.161   3.208   1.222
 4946SOL    HW215738   0.193   3.048   1.226
 4947SOL     OW15739   1.309   0.887   1.035
 4947SOL    HW115740   1.340   0.934   0.953
 4947SOL    HW215741   1.301   0.952   1.110
 4948SOL     OW15742   2.336   0.534   2.742
 4948SOL    HW115743   2.423   0.521   2.694
 4948SOL    HW215744   2.347   0.508   2.838
 4949SOL     OW15745   4.647   6.958   5.161
 4949SOL    HW115746   4.596   7.013   5.228
 4949SOL    HW215747   4.639   6.861   5.185
 4950SOL     OW15748   2.994   5.470   3.942
 4950SOL    HW115749   2.954   5.555   3.907
 4950SOL    HW215750   2.923   5.416   3.987
 4951SOL     OW15751   5.437   1.517   4.799
 4951SOL    HW115752   5.403   1.538   4.707
 4951SOL    HW215753   5.529   1.479   4.793
 4952SOL     OW15754   0.466   0.882   4.799
 4952SOL    HW115755   0.519   0.954   4.844
 4952SOL    HW215756   0.429   0.820   4.868
 4953SOL     OW15757   2.119   6.564   1.965
 4953SOL    HW115758   2.036   6.526   2.007
 4953SOL    HW215759   2.131   6.526   1.873
 4954SOL     OW15760   4.662   4.197   6.640
 4954SOL    HW115761   4.568   4.207   6.607
 4954SOL    HW215762   4.666   4.120   6.704
 4955SOL     OW15763   1.566   6.882   6.272
 4955SOL    HW115764   1.599   6.795   6.235
 4955SOL    HW215765   1.488   6.865   6.332
 4956SOL     OW15766   2.833   6.842   4.917
 4956SOL    HW115767   2.814   6.936   4.889
 4956SOL    HW215768   2.832   6.782   4.837
 4957SOL     OW15769   0.251   0.961   3.433
 4957SOL    HW115770   0.283   0.879   3.385
 4957SOL    HW215771   0.288   0.962   3.526
 4958SOL     OW15772   7.002   6.280   5.692
 4958SOL    HW115773   6.945   6.356   5.662
 4958SOL    HW215774   6.960   6.194   5.663
 4959SOL     OW15775   6.736   1.306   6.212
 4959SOL    HW115776   6.699   1.215   6.228
 4959SOL    HW215777   6.825   1.298   6.166
 4960SOL     OW15778   3.504   6.103   3.740
 4960SOL    HW115779   3.489   6.130   3.644
 4960SOL    HW215780   3.417   6.076   3.781
 4961SOL     OW15781   5.296   1.562   5.557
 4961SOL    HW115782   5.270   1.658   5.549
 4961SOL    HW215783   5.215   1.504   5.543
 4962SOL     OW15784   6.022   3.050   1.447
 4962SOL    HW115785   5.929   3.044   1.484
 4962SOL    HW215786   6.019   3.035   1.348
 4963SOL     OW15787   5.932   5.867   0.516
 4963SOL    HW115788   5.889   5.885   0.428
 4963SOL    HW215789   6.030   5.854   0.504
 4964SOL     OW15790   3.501   6.344   3.278
 4964SOL    HW115791   3.496   6.380   3.185
 4964SOL    HW215792   3.423   6.284   3.295
 4965SOL     OW15793   0.025   0.176   3.827
 4965SOL    HW115794   7.001   0.086   3.812
 4965SOL    HW215795   0.124   0.164   3.838
 4966SOL     OW15796   2.186   6.901   5.198
 4966SOL    HW115797   2.168   6.810   5.236
 4966SOL    HW215798   2.276   6.932   5.228
 4967SOL     OW15799   3.856   3.244   6.260
 4967SOL    HW115800   3.772   3.247   6.315
 4967SOL    HW215801   3.932   3.283   6.312
 4968SOL     OW15802   5.381   2.993   3.113
 4968SOL    HW115803   5.403   3.062   3.182
 4968SOL    HW215804   5.351   2.909   3.160
 4969SOL     OW15805   2.058   1.032   2.013
 4969SOL    HW115806   1.999   1.109   1.987
 4969SOL    HW215807   2.153   1.054   1.991
 4970SOL     OW15808   1.303   2.319   4.632
 4970SOL    HW115809   1.392   2.272   4.628
 4970SOL    HW215810   1.270   2.335   4.539
 4971SOL     OW15811   6.522   6.162   3.177
 4971SOL    HW115812   6.612   6.183   3.138
 4971SOL    HW215813   6.451   6.205   3.121
 4972SOL     OW15814   1.637   3.149   0.747
 4972SOL    HW115815   1.694   3.130   0.827
 4972SOL    HW215816   1.600   3.241   0.754
 4973SOL     OW15817   6.908   6.991   1.704
 4973SOL    HW115818   6.837   6.928   1.671
 4973SOL    HW215819   6.928   6.971   1.799
 4974SOL     OW15820   6.194   4.411   0.878
 4974SOL    HW115821   6.181   4.377   0.785
 4974SOL    HW215822   6.246   4.344   0.931
 4975SOL     OW15823   5.940   6.009   6.825
 4975SOL    HW115824   5.958   5.913   6.848
 4975SOL    HW215825   5.842   6.021   6.809
 4976SOL     OW15826   3.427   0.349   4.577
 4976SOL    HW115827   3.375   0.392   4.503
 4976SOL    HW215828   3.487   0.416   4.620
 4977SOL     OW15829   4.737   4.097   0.831
 4977SOL    HW115830   4.656   4.081   0.889
 4977SOL    HW215831   4.791   4.013   0.826
 4978SOL     OW15832   6.849   3.132   5.922
 4978SOL    HW115833   6.861   3.125   5.823
 4978SOL    HW215834   6.927   3.180   5.962
 4979SOL     OW15835   6.865   1.169   5.202
 4979SOL    HW115836   6.776   1.139   5.166
 4979SOL    HW215837   6.850   1.229   5.280
 4980SOL     OW15838   4.515   6.819   3.603
 4980SOL    HW115839   4.560   6.767   3.530
 4980SOL    HW215840   4.573   6.897   3.628
 4981SOL     OW15841   4.847   5.626   5.851
 4981SOL    HW115842   4.893   5.701   5.897
 4981SOL    HW215843   4.852   5.544   5.908
 4982SOL     OW15844   2.401   1.546   0.000
 4982SOL    HW115845   2.371   1.454   0.026
 4982SOL    HW215846   2.492   1.562   0.038
 4983SOL     OW15847   5.067   3.038   4.476
 4983SOL    HW115848   4.974   3.007   4.497
 4983SOL    HW215849   5.074   3.136   4.491
 4984SOL     OW15850   5.491   3.651   4.136
 4984SOL    HW115851   5.462   3.745   4.115
 4984SOL    HW215852   5.510   3.643   4.234
 4985SOL     OW15853   6.818   5.845   3.578
 4985SOL    HW115854   6.732   5.829   3.626
 4985SOL    HW215855   6.806   5.830   3.480
 4986SOL     OW15856   6.802   4.511   3.263
 4986SOL    HW115857   6.800   4.415   3.236
 4986SOL    HW215858   6.880   4.556   3.220
 4987SOL     OW15859   0.457   2.169   1.252
 4987SOL    HW115860   0.388   2.119   1.199
 4987SOL    HW215861   0.443   2.150   1.350
 4988SOL     OW15862   6.655   1.444   3.437
 4988SOL    HW115863   6.732   1.411   3.381
 4988SOL    HW215864   6.572   1.396   3.409
 4989SOL     OW15865   6.061   0.706   1.215
 4989SOL    HW115866   6.145   0.675   1.259
 4989SOL    HW215867   6.080   0.729   1.119
 4990SOL     OW15868   1.200   1.414   6.195
 4990SOL    HW115869   1.135   1.430   6.121
 4990SOL    HW215870   1.154   1.367   6.271
 4991SOL     OW15871   0.713   4.283   3.469
 4991SOL    HW115872   0.738   4.317   3.559
 4991SOL    HW215873   0.613   4.279   3.462
 4992SOL     OW15874   5.209   0.459   3.951
 4992SOL    HW115875   5.278   0.513   3.902
 4992SOL    HW215876   5.131   0.517   3.972
 4993SOL     OW15877   2.736   4.688   3.842
 4993SOL    HW115878   2.830   4.706   3.869
 4993SOL    HW215879   2.710   4.749   3.767
 4994SOL     OW15880   1.110   0.409   2.204
 4994SOL    HW115881   1.201   0.413   2.245
 4994SOL    HW215882   1.062   0.495   2.222
 4995SOL     OW15883   6.675   2.851   5.901
 4995SOL    HW115884   6.658   2.927   5.838
 4995SOL    HW215885   6.662   2.883   5.995
 4996SOL     OW15886   1.708   0.591   2.578
 4996SOL    HW115887   1.706   0.572   2.480
 4996SOL    HW215888   1.615   0.591   2.614
 4997SOL     OW15889   6.158   2.372   2.801
 4997SOL    HW115890   6.090   2.444   2.787
 4997SOL    HW215891   6.166   2.351   2.899
 4998SOL     OW15892   2.079   3.841   5.006
 4998SOL    HW115893   2.169   3.876   5.032
 4998SOL    HW215894   2.073   3.745   5.032
 4999SOL     OW15895   5.258   5.740   1.110
 4999SOL    HW115896   5.297   5.814   1.166
 4999SOL    HW215897   5.181   5.776   1.057
 5000SOL     OW15898   1.435   0.396   4.301
 5000SOL    HW115899   1.390   0.440   4.379
 5000SOL    HW215900   1.532   0.383   4.322
 5001SOL     OW15901   1.826   4.198   5.971
 5001SOL    HW115902   1.743   4.252   5.954
 5001SOL    HW215903   1.889   4.252   6.027
 5002SOL     OW15904   1.243   2.939   3.189
 5002SOL    HW115905   1.187   3.011   3.229
 5002SOL    HW215906   1.340   2.960   3.205
 5003SOL     OW15907   0.936   6.323   3.350
 5003SOL    HW115908   1.013   6.263   3.371
 5003SOL    HW215909   0.962   6.418   3.369
 5004SOL     OW15910   2.425   5.363   5.701
 5004SOL    HW115911   2.514   5.403   5.723
 5004SOL    HW215912   2.434   5.264   5.692
 5005SOL     OW15913   3.456   2.115   0.837
 5005SOL    HW115914   3.425   2.091   0.745
 5005SOL    HW215915   3.442   2.037   0.898
 5006SOL     OW15916   5.224   6.960   6.273
 5006SOL    HW115917   5.313   7.007   6.268
 5006SOL    HW215918   5.175   6.974   6.187
 5007SOL     OW15919   2.442   0.390   6.483
 5007SOL    HW115920   2.435   0.490   6.494
 5007SOL    HW215921   2.351   0.349   6.489
 5008SOL     OW15922   6.769   6.836   4.063
 5008SOL    HW115923   6.836   6.897   4.106
 5008SOL    HW215924   6.731   6.775   4.133
 5009SOL     OW15925   2.009   6.890   1.720
 5009SOL    HW115926   1.932   6.828   1.708
 5009SOL    HW215927   2.041   6.887   1.814
 5010SOL     OW15928   3.133   3.293   3.559
 5010SOL    HW115929   3.040   3.311   3.530
 5010SOL    HW215930   3.180   3.379   3.579
 5011SOL     OW15931   2.060   3.550   2.173
 5011SOL    HW115932   2.123   3.596   2.236
 5011SOL    HW215933   2.105   3.471   2.131
 5012SOL     OW15934   5.497   2.857   6.965
 5012SOL    HW115935   5.433   2.804   6.909
 5012SOL    HW215936   5.585   2.810   6.968
 5013SOL     OW15937   5.109   1.046   0.122
 5013SOL    HW115938   5.029   0.990   0.103
 5013SOL    HW215939   5.096   1.094   0.209
 5014SOL     OW15940   5.491   5.324   0.885
 5014SOL    HW115941   5.449   5.409   0.916
 5014SOL    HW215942   5.590   5.333   0.884
 5015SOL     OW15943   4.379   1.844   3.734
 5015SOL    HW115944   4.334   1.775   3.791
 5015SOL    HW215945   4.454   1.802   3.683
 5016SOL     OW15946   2.657   1.464   2.156
 5016SOL    HW115947   2.656   1.516   2.242
 5016SOL    HW215948   2.580   1.493   2.099
 5017SOL     OW15949   1.992   2.676   0.740
 5017SOL    HW115950   2.085   2.646   0.760
 5017SOL    HW215951   1.976   2.672   0.641
 5018SOL     OW15952   0.667   4.842   1.199
 5018SOL    HW115953   0.606   4.834   1.120
 5018SOL    HW215954   0.618   4.883   1.276
 5019SOL     OW15955   2.835   4.435   0.192
 5019SOL    HW115956   2.927   4.466   0.214
 5019SOL    HW215957   2.771   4.472   0.260
 5020SOL     OW15958   5.085   6.506   5.417
 5020SOL    HW115959   5.172   6.480   5.459
 5020SOL    HW215960   5.072   6.454   5.332
 5021SOL     OW15961   1.490   2.946   5.676
 5021SOL    HW115962   1.555   2.931   5.602
 5021SOL    HW215963   1.426   2.870   5.681
 5022SOL     OW15964   1.376   0.629   1.124
 5022SOL    HW115965   1.460   0.615   1.176
 5022SOL    HW215966   1.375   0.723   1.089
 5023SOL     OW15967   6.488   3.520   0.846
 5023SOL    HW115968   6.507   3.440   0.790
 5023SOL    HW215969   6.473   3.492   0.940
 5024SOL     OW15970   6.780   4.295   2.882
 5024SOL    HW115971   6.777   4.284   2.981
 5024SOL    HW215972   6.808   4.389   2.860
 5025SOL     OW15973   4.417   2.038   1.872
 5025SOL    HW115974   4.502   2.083   1.845
 5025SOL    HW215975   4.345   2.107   1.885
 5026SOL     OW15976   5.892   5.940   6.288
 5026SOL    HW115977   5.896   6.014   6.222
 5026SOL    HW215978   5.807   5.946   6.340
 5027SOL     OW15979   0.740   6.842   2.671
 5027SOL    HW115980   0.802   6.797   2.736
 5027SOL    HW215981   0.689   6.914   2.717
 5028SOL     OW15982   0.336   6.424   2.068
 5028SOL    HW115983   0.412   6.423   2.003
 5028SOL    HW215984   0.334   6.512   2.116
 5029SOL     OW15985   0.018   3.083   3.132
 5029SOL    HW115986   0.081   3.011   3.104
 5029SOL    HW215987   6.983   3.113   3.054
 5030SOL     OW15988   6.431   0.680   6.981
 5030SOL    HW115989   6.398   0.586   6.975
 5030SOL    HW215990   6.369   0.740   6.930
 5031SOL     OW15991   5.699   1.385   4.810
 5031SOL    HW115992   5.758   1.361   4.888
 5031SOL    HW215993   5.736   1.466   4.764
 5032SOL     OW15994   1.349   4.168   0.942
 5032SOL    HW115995   1.261   4.215   0.941
 5032SOL    HW215996   1.341   4.080   0.894
 5033SOL     OW15997   1.894   4.726   6.911
 5033SOL    HW115998   1.837   4.737   6.829
 5033SOL    HW215999   1.912   4.816   6.951
 5034SOL     OW16000   0.060   3.682   2.299
 5034SOL    HW116001   6.984   3.707   2.314
 5034SOL    HW216002   0.116   3.765   2.292
 5035SOL     OW16003   5.969   4.892   1.203
 5035SOL    HW116004   6.032   4.881   1.280
 5035SOL    HW216005   5.994   4.974   1.151
 5036SOL     OW16006   0.512   5.729   6.733
 5036SOL    HW116007   0.523   5.815   6.783
 5036SOL    HW216008   0.448   5.670   6.783
 5037SOL     OW16009   4.627   2.601   2.570
 5037SOL    HW116010   4.550   2.544   2.597
 5037SOL    HW216011   4.659   2.654   2.648
 5038SOL     OW16012   1.540   5.247   5.864
 5038SOL    HW116013   1.503   5.252   5.772
 5038SOL    HW216014   1.545   5.338   5.904
 5039SOL     OW16015   2.091   3.559   5.087
 5039SOL    HW116016   2.078   3.554   5.186
 5039SOL    HW216017   2.173   3.508   5.061
 5040SOL     OW16018   2.691   4.044   6.649
 5040SOL    HW116019   2.639   4.020   6.567
 5040SOL    HW216020   2.631   4.091   6.714
 5041SOL     OW16021   0.884   3.870   1.162
 5041SOL    HW116022   0.926   3.926   1.234
 5041SOL    HW216023   0.839   3.791   1.203
 5042SOL     OW16024   0.477   2.786   6.953
 5042SOL    HW116025   0.378   2.777   6.947
 5042SOL    HW216026   0.508   2.762   0.026
 5043SOL     OW16027   3.303   0.833   5.391
 5043SOL    HW116028   3.382   0.782   5.423
 5043SOL    HW216029   3.220   0.780   5.406
 5044SOL     OW16030   6.423   6.760   3.365
 5044SOL    HW116031   6.324   6.764   3.373
 5044SOL    HW216032   6.453   6.664   3.368
 5045SOL     OW16033   4.995   3.692   0.509
 5045SOL    HW116034   5.011   3.617   0.445
 5045SOL    HW216035   4.979   3.776   0.457
 5046SOL     OW16036   3.829   2.973   4.651
 5046SOL    HW116037   3.907   3.032   4.631
 5046SOL    HW216038   3.809   2.977   4.749
 5047SOL     OW16039   6.483   2.119   2.639
 5047SOL    HW116040   6.394   2.083   2.667
 5047SOL    HW216041   6.553   2.089   2.703
 5048SOL     OW16042   6.302   2.280   1.158
 5048SOL    HW116043   6.330   2.211   1.092
 5048SOL    HW216044   6.346   2.262   1.246
 5049SOL     OW16045   6.647   0.849   3.257
 5049SOL    HW116046   6.563   0.901   3.267
 5049SOL    HW216047   6.639   0.762   3.305
 5050SOL     OW16048   0.281   1.720   2.409
 5050SOL    HW116049   0.349   1.647   2.407
 5050SOL    HW216050   0.226   1.718   2.326
 5051SOL     OW16051   3.967   3.027   0.250
 5051SOL    HW116052   3.909   3.057   0.174
 5051SOL    HW216053   4.018   2.946   0.223
 5052SOL     OW16054   2.481   5.075   6.360
 5052SOL    HW116055   2.395   5.031   6.331
 5052SOL    HW216056   2.462   5.139   6.434
 5053SOL     OW16057   2.022   3.812   3.170
 5053SOL    HW116058   1.946   3.865   3.206
 5053SOL    HW216059   2.016   3.809   3.070
 5054SOL     OW16060   3.684   5.761   4.981
 5054SOL    HW116061   3.712   5.718   5.067
 5054SOL    HW216062   3.750   5.736   4.909
 5055SOL     OW16063   6.698   1.500   4.450
 5055SOL    HW116064   6.653   1.460   4.370
 5055SOL    HW216065   6.742   1.427   4.503
 5056SOL     OW16066   6.482   3.887   6.128
 5056SOL    HW116067   6.540   3.829   6.186
 5056SOL    HW216068   6.411   3.930   6.185
 5057SOL     OW16069   1.521   5.417   3.627
 5057SOL    HW116070   1.518   5.429   3.528
 5057SOL    HW216071   1.586   5.344   3.650
 5058SOL     OW16072   3.589   3.837   6.578
 5058SOL    HW116073   3.649   3.904   6.534
 5058SOL    HW216074   3.606   3.747   6.538
 5059SOL     OW16075   5.182   3.365   4.793
 5059SOL    HW116076   5.083   3.375   4.791
 5059SOL    HW216077   5.208   3.272   4.767
 5060SOL     OW16078   6.917   2.689   5.141
 5060SOL    HW116079   6.999   2.729   5.182
 5060SOL    HW216080   6.937   2.659   5.048
 5061SOL     OW16081   3.009   3.431   3.808
 5061SOL    HW116082   2.982   3.424   3.712
 5061SOL    HW216083   2.990   3.345   3.855
 5062SOL     OW16084   5.840   1.442   2.109
 5062SOL    HW116085   5.803   1.358   2.070
 5062SOL    HW216086   5.774   1.516   2.097
 5063SOL     OW16087   0.980   6.091   1.373
 5063SOL    HW116088   0.977   6.189   1.351
 5063SOL    HW216089   0.913   6.042   1.316
 5064SOL     OW16090   4.750   5.671   0.971
 5064SOL    HW116091   4.773   5.616   1.052
 5064SOL    HW216092   4.739   5.611   0.892
 5065SOL     OW16093   1.386   0.392   2.791
 5065SOL    HW116094   1.338   0.402   2.878
 5065SOL    HW216095   1.392   0.482   2.746
 5066SOL     OW16096   2.516   4.397   1.308
 5066SOL    HW116097   2.572   4.442   1.378
 5066SOL    HW216098   2.465   4.466   1.257
 5067SOL     OW16099   4.415   2.084   2.357
 5067SOL    HW116100   4.479   2.040   2.294
 5067SOL    HW216101   4.362   2.154   2.309
 5068SOL     OW16102   2.912   5.956   0.074
 5068SOL    HW116103   2.818   5.935   0.102
 5068SOL    HW216104   2.921   6.054   0.060
 5069SOL     OW16105   2.138   3.010   5.603
 5069SOL    HW116106   2.076   2.969   5.670
 5069SOL    HW216107   2.197   3.077   5.648
 5070SOL     OW16108   5.801   4.085   4.405
 5070SOL    HW116109   5.781   4.183   4.403
 5070SOL    HW216110   5.887   4.069   4.453
 5071SOL     OW16111   4.267   2.172   3.393
 5071SOL    HW116112   4.294   2.254   3.444
 5071SOL    HW216113   4.195   2.124   3.443
 5072SOL     OW16114   2.220   1.631   1.785
 5072SOL    HW116115   2.193   1.544   1.743
 5072SOL    HW216116   2.316   1.649   1.765
 5073SOL     OW16117   1.602   5.618   1.647
 5073SOL    HW116118   1.558   5.670   1.720
 5073SOL    HW216119   1.647   5.537   1.685
 5074SOL     OW16120   3.844   1.786   1.616
 5074SOL    HW116121   3.807   1.797   1.709
 5074SOL    HW216122   3.820   1.866   1.561
 5075SOL     OW16123   0.850   2.422   0.010
 5075SOL    HW116124   0.928   2.359   0.002
 5075SOL    HW216125   0.881   2.515   7.008
 5076SOL     OW16126   5.206   0.206   6.815
 5076SOL    HW116127   5.299   0.235   6.795
 5076SOL    HW216128   5.143   0.283   6.803
 5077SOL     OW16129   0.836   3.606   5.934
 5077SOL    HW116130   0.785   3.663   5.999
 5077SOL    HW216131   0.887   3.536   5.983
 5078SOL     OW16132   0.294   0.973   4.443
 5078SOL    HW116133   0.374   1.013   4.487
 5078SOL    HW216134   0.268   1.029   4.364
 5079SOL     OW16135   2.417   2.776   5.849
 5079SOL    HW116136   2.478   2.855   5.850
 5079SOL    HW216137   2.381   2.763   5.757
 5080SOL     OW16138   5.883   5.632   5.359
 5080SOL    HW116139   5.880   5.571   5.438
 5080SOL    HW216140   5.905   5.725   5.389
 5081SOL     OW16141   3.059   4.725   5.565
 5081SOL    HW116142   3.092   4.687   5.479
 5081SOL    HW216143   2.959   4.714   5.570
 5082SOL     OW16144   4.438   6.755   0.023
 5082SOL    HW116145   4.445   6.668   6.993
 5082SOL    HW216146   4.342   6.773   0.045
 5083SOL     OW16147   3.453   0.149   0.814
 5083SOL    HW116148   3.476   0.058   0.848
 5083SOL    HW216149   3.534   0.207   0.815
 5084SOL     OW16150   0.463   4.979   4.280
 5084SOL    HW116151   0.505   5.035   4.351
 5084SOL    HW216152   0.364   4.976   4.293
 5085SOL     OW16153   1.445   3.395   5.605
 5085SOL    HW116154   1.482   3.339   5.531
 5085SOL    HW216155   1.431   3.488   5.573
 5086SOL     OW16156   0.126   4.567   2.388
 5086SOL    HW116157   0.029   4.565   2.363
 5086SOL    HW216158   0.170   4.481   2.362
 5087SOL     OW16159   6.731   5.624   2.696
 5087SOL    HW116160   6.664   5.698   2.693
 5087SOL    HW216161   6.752   5.603   2.792
 5088SOL     OW16162   4.459   6.761   3.860
 5088SOL    HW116163   4.478   6.747   3.763
 5088SOL    HW216164   4.488   6.854   3.887
 5089SOL     OW16165   5.454   4.375   4.573
 5089SOL    HW116166   5.527   4.393   4.640
 5089SOL    HW216167   5.450   4.277   4.555
 5090SOL     OW16168   2.586   1.168   2.749
 5090SOL    HW116169   2.623   1.080   2.720
 5090SOL    HW216170   2.499   1.153   2.796
 5091SOL     OW16171   5.873   0.453   0.999
 5091SOL    HW116172   5.862   0.388   0.924
 5091SOL    HW216173   5.794   0.515   1.001
 5092SOL     OW16174   3.365   3.205   3.407
 5092SOL    HW116175   3.277   3.251   3.398
 5092SOL    HW216176   3.419   3.248   3.479
 5093SOL     OW16177   2.930   1.662   1.315
 5093SOL    HW116178   2.950   1.566   1.294
 5093SOL    HW216179   3.016   1.713   1.323
 5094SOL     OW16180   1.870   5.693   6.603
 5094SOL    HW116181   1.872   5.705   6.504
 5094SOL    HW216182   1.796   5.748   6.642
 5095SOL     OW16183   0.612   1.910   2.812
 5095SOL    HW116184   0.669   1.950   2.741
 5095SOL    HW216185   0.636   1.813   2.823
 5096SOL     OW16186   4.967   4.861   6.376
 5096SOL    HW116187   5.029   4.782   6.384
 5096SOL    HW216188   5.017   4.945   6.397
 5097SOL     OW16189   6.997   0.219   0.069
 5097SOL    HW116190   6.974   0.177   0.157
 5097SOL    HW216191   0.018   0.309   0.085
 5098SOL     OW16192   3.726   2.177   0.896
 5098SOL    HW116193   3.755   2.082   0.907
 5098SOL    HW216194   3.634   2.180   0.858
 5099SOL     OW16195   7.011   5.925   1.885
 5099SOL    HW116196   0.001   5.846   1.825
 5099SOL    HW216197   0.012   5.898   1.979
 5100SOL     OW16198   2.936   5.265   3.652
 5100SOL    HW116199   2.996   5.280   3.731
 5100SOL    HW216200   2.980   5.300   3.569
 5101SOL     OW16201   5.039   0.192   4.994
 5101SOL    HW116202   4.947   0.153   4.992
 5101SOL    HW216203   5.087   0.162   5.076
 5102SOL     OW16204   5.400   6.302   4.243
 5102SOL    HW116205   5.311   6.260   4.259
 5102SOL    HW216206   5.432   6.346   4.326
 5103SOL     OW16207   0.994   1.406   4.672
 5103SOL    HW116208   0.913   1.465   4.674
 5103SOL    HW216209   1.063   1.442   4.735
 5104SOL     OW16210   2.647   5.985   1.396
 5104SOL    HW116211   2.588   6.065   1.404
 5104SOL    HW216212   2.598   5.912   1.347
 5105SOL     OW16213   2.992   2.730   6.517
 5105SOL    HW116214   3.040   2.813   6.545
 5105SOL    HW216215   2.944   2.746   6.431
 5106SOL     OW16216   3.668   1.391   1.020
 5106SOL    HW116217   3.632   1.316   0.963
 5106SOL    HW216218   3.751   1.428   0.977
 5107SOL     OW16219   5.126   2.475   1.270
 5107SOL    HW116220   5.071   2.547   1.313
 5107SOL    HW216221   5.079   2.445   1.186
 5108SOL     OW16222   3.991   3.881   4.984
 5108SOL    HW116223   3.982   3.955   5.051
 5108SOL    HW216224   3.930   3.806   5.009
 5109SOL     OW16225   1.350   2.631   0.687
 5109SOL    HW116226   1.402   2.619   0.603
 5109SOL    HW216227   1.277   2.563   0.691
 5110SOL     OW16228   0.294   0.768   6.377
 5110SOL    HW116229   0.391   0.791   6.387
 5110SOL    HW216230   0.272   0.688   6.433
 5111SOL     OW16231   0.868   6.797   4.202
 5111SOL    HW116232   0.826   6.871   4.255
 5111SOL    HW216233   0.944   6.758   4.254
 5112SOL     OW16234   1.115   0.639   2.678
 5112SOL    HW116235   1.029   0.598   2.647
 5112SOL    HW216236   1.099   0.690   2.763
 5113SOL     OW16237   1.751   5.844   1.309
 5113SOL    HW116238   1.654   5.867   1.316
 5113SOL    HW216239   1.771   5.768   1.370
 5114SOL     OW16240   3.665   6.570   6.645
 5114SOL    HW116241   3.756   6.605   6.666
 5114SOL    HW216242   3.635   6.510   6.718
 5115SOL     OW16243   1.690   4.518   2.293
 5115SOL    HW116244   1.784   4.485   2.284
 5115SOL    HW216245   1.685   4.589   2.363
 5116SOL     OW16246   1.855   6.522   0.258
 5116SOL    HW116247   1.937   6.479   0.295
 5116SOL    HW216248   1.805   6.569   0.331
 5117SOL     OW16249   0.730   3.890   3.585
 5117SOL    HW116250   0.683   3.976   3.607
 5117SOL    HW216251   0.677   3.814   3.622
 5118SOL     OW16252   5.654   0.990   0.069
 5118SOL    HW116253   5.621   0.945   7.005
 5118SOL    HW216254   5.748   0.960   0.088
 5119SOL     OW16255   4.554   1.488   1.351
 5119SOL    HW116256   4.609   1.404   1.343
 5119SOL    HW216257   4.591   1.544   1.425
 5120SOL     OW16258   4.694   6.348   5.282
 5120SOL    HW116259   4.774   6.290   5.267
 5120SOL    HW216260   4.678   6.404   5.200
 5121SOL     OW16261   3.134   3.232   6.700
 5121SOL    HW116262   3.104   3.297   6.770
 5121SOL    HW216263   3.112   3.268   6.610
 5122SOL     OW16264   3.122   5.911   3.017
 5122SOL    HW116265   3.193   5.979   3.034
 5122SOL    HW216266   3.141   5.863   2.931
 5123SOL     OW16267   6.009   2.154   4.038
 5123SOL    HW116268   5.948   2.106   4.102
 5123SOL    HW216269   6.104   2.143   4.069
 5124SOL     OW16270   2.423   5.953   4.142
 5124SOL    HW116271   2.412   5.986   4.236
 5124SOL    HW216272   2.338   5.968   4.091
 5125SOL     OW16273   6.967   2.061   3.584
 5125SOL    HW116274   6.942   1.996   3.512
 5125SOL    HW216275   6.972   2.014   3.672
 5126SOL     OW16276   0.524   6.278   6.882
 5126SOL    HW116277   0.609   6.227   6.894
 5126SOL    HW216278   0.536   6.371   6.917
 5127SOL     OW16279   0.573   5.099   6.984
 5127SOL    HW116280   0.611   5.025   0.020
 5127SOL    HW216281   0.493   5.065   6.934
 5128SOL     OW16282   6.913   6.676   0.685
 5128SOL    HW116283   6.944   6.724   0.767
 5128SOL    HW216284   6.942   6.580   0.690
 5129SOL     OW16285   5.022   6.542   2.849
 5129SOL    HW116286   5.091   6.472   2.868
 5129SOL    HW216287   5.046   6.626   2.897
 5130SOL     OW16288   6.833   5.563   2.939
 5130SOL    HW116289   6.848   5.490   3.006
 5130SOL    HW216290   6.882   5.645   2.967
 5131SOL     OW16291   2.099   3.616   4.628
 5131SOL    HW116292   2.120   3.691   4.691
 5131SOL    HW216293   2.019   3.639   4.573
 5132SOL     OW16294   4.374   2.986   5.979
 5132SOL    HW116295   4.429   2.986   6.063
 5132SOL    HW216296   4.335   2.896   5.964
 5133SOL     OW16297   2.620   5.174   0.256
 5133SOL    HW116298   2.583   5.118   0.181
 5133SOL    HW216299   2.703   5.131   0.291
 5134SOL     OW16300   6.522   2.548   1.873
 5134SOL    HW116301   6.528   2.487   1.952
 5134SOL    HW216302   6.433   2.537   1.830
 5135SOL     OW16303   6.573   2.548   4.917
 5135SOL    HW116304   6.609   2.457   4.937
 5135SOL    HW216305   6.648   2.610   4.893
 5136SOL     OW16306   4.746   6.883   5.851
 5136SOL    HW116307   4.722   6.980   5.860
 5136SOL    HW216308   4.787   6.851   5.937
 5137SOL     OW16309   5.669   3.539   6.445
 5137SOL    HW116310   5.710   3.495   6.365
 5137SOL    HW216311   5.682   3.482   6.525
 5138SOL     OW16312   3.062   2.489   5.716
 5138SOL    HW116313   3.044   2.532   5.805
 5138SOL    HW216314   3.080   2.560   5.648
 5139SOL     OW16315   1.382   6.816   3.602
 5139SOL    HW116316   1.384   6.817   3.702
 5139SOL    HW216317   1.468   6.779   3.567
 5140SOL     OW16318   3.331   1.486   0.107
 5140SOL    HW116319   3.323   1.567   0.165
 5140SOL    HW216320   3.293   1.506   0.016
 5141SOL     OW16321   0.082   4.104   0.813
 5141SOL    HW116322   0.090   4.075   0.908
 5141SOL    HW216323   0.171   4.134   0.780
 5142SOL     OW16324   6.169   1.171   4.168
 5142SOL    HW116325   6.093   1.155   4.105
 5142SOL    HW216326   6.185   1.089   4.223
 5143SOL     OW16327   0.734   4.651   3.977
 5143SOL    HW116328   0.768   4.743   3.994
 5143SOL    HW216329   0.668   4.652   3.902
 5144SOL     OW16330   0.715   5.503   6.772
 5144SOL    HW116331   0.646   5.573   6.792
 5144SOL    HW216332   0.726   5.444   6.852
 5145SOL     OW16333   1.618   4.429   6.232
 5145SOL    HW116334   1.697   4.455   6.176
 5145SOL    HW216335   1.550   4.503   6.229
 5146SOL     OW16336   4.004   3.313   5.384
 5146SOL    HW116337   3.961   3.247   5.445
 5146SOL    HW216338   3.976   3.406   5.409
 5147SOL     OW16339   6.659   4.746   2.463
 5147SOL    HW116340   6.586   4.812   2.446
 5147SOL    HW216341   6.643   4.665   2.406
 5148SOL     OW16342   0.920   6.581   1.120
 5148SOL    HW116343   0.992   6.514   1.102
 5148SOL    HW216344   0.841   6.535   1.161
 5149SOL     OW16345   6.151   5.770   4.367
 5149SOL    HW116346   6.170   5.706   4.293
 5149SOL    HW216347   6.179   5.862   4.339
 5150SOL     OW16348   1.938   5.300   2.597
 5150SOL    HW116349   1.991   5.377   2.560
 5150SOL    HW216350   1.993   5.252   2.665
 5151SOL     OW16351   5.359   1.873   0.579
 5151SOL    HW116352   5.435   1.808   0.582
 5151SOL    HW216353   5.307   1.866   0.664
 5152SOL     OW16354   2.200   4.418   6.705
 5152SOL    HW116355   2.249   4.505   6.705
 5152SOL    HW216356   2.263   4.344   6.728
 5153SOL     OW16357   2.336   0.872   6.806
 5153SOL    HW116358   2.419   0.848   6.756
 5153SOL    HW216359   2.360   0.916   6.892
 5154SOL     OW16360   1.724   2.886   6.703
 5154SOL    HW116361   1.671   2.862   6.622
 5154SOL    HW216362   1.677   2.960   6.752
 5155SOL     OW16363   3.591   6.634   2.279
 5155SOL    HW116364   3.669   6.621   2.218
 5155SOL    HW216365   3.606   6.716   2.334
 5156SOL     OW16366   0.057   3.371   5.722
 5156SOL    HW116367   0.092   3.340   5.810
 5156SOL    HW216368   0.109   3.451   5.691
 5157SOL     OW16369   4.276   2.356   3.619
 5157SOL    HW116370   4.279   2.262   3.653
 5157SOL    HW216371   4.182   2.380   3.596
 5158SOL     OW16372   3.131   1.148   1.218
 5158SOL    HW116373   3.199   1.119   1.150
 5158SOL    HW216374   3.162   1.122   1.310
 5159SOL     OW16375   0.380   3.020   4.325
 5159SOL    HW116376   0.376   3.046   4.229
 5159SOL    HW216377   0.401   2.923   4.333
 5160SOL     OW16378   0.528   4.402   3.063
 5160SOL    HW116379   0.487   4.421   2.974
 5160SOL    HW216380   0.467   4.434   3.136
 5161SOL     OW16381   1.679   3.682   4.207
 5161SOL    HW116382   1.746   3.751   4.235
 5161SOL    HW216383   1.697   3.654   4.113
 5162SOL     OW16384   1.134   4.837   3.951
 5162SOL    HW116385   1.133   4.916   3.890
 5162SOL    HW216386   1.187   4.859   4.033
 5163SOL     OW16387   3.892   5.292   1.304
 5163SOL    HW116388   3.815   5.260   1.249
 5163SOL    HW216389   3.964   5.223   1.306
 5164SOL     OW16390   5.315   2.621   6.902
 5164SOL    HW116391   5.231   2.667   6.873
 5164SOL    HW216392   5.297   2.523   6.911
 5165SOL     OW16393   6.277   3.744   5.240
 5165SOL    HW116394   6.277   3.778   5.146
 5165SOL    HW216395   6.198   3.781   5.289
 5166SOL     OW16396   0.955   5.999   2.083
 5166SOL    HW116397   0.937   5.921   2.144
 5166SOL    HW216398   1.014   6.064   2.130
 5167SOL     OW16399   6.061   6.823   5.747
 5167SOL    HW116400   6.010   6.907   5.727
 5167SOL    HW216401   6.156   6.833   5.717
 5168SOL     OW16402   5.317   2.811   3.333
 5168SOL    HW116403   5.347   2.715   3.336
 5168SOL    HW216404   5.220   2.814   3.312
 5169SOL     OW16405   3.737   2.142   5.464
 5169SOL    HW116406   3.717   2.146   5.562
 5169SOL    HW216407   3.692   2.062   5.424
 5170SOL     OW16408   6.906   3.627   6.045
 5170SOL    HW116409   6.942   3.591   6.131
 5170SOL    HW216410   6.933   3.723   6.035
 5171SOL     OW16411   2.067   4.901   4.101
 5171SOL    HW116412   1.971   4.925   4.118
 5171SOL    HW216413   2.123   4.983   4.102
 5172SOL     OW16414   6.584   2.849   2.055
 5172SOL    HW116415   6.540   2.759   2.056
 5172SOL    HW216416   6.612   2.871   1.962
 5173SOL     OW16417   5.816   4.882   5.918
 5173SOL    HW116418   5.824   4.788   5.952
 5173SOL    HW216419   5.739   4.927   5.962
 5174SOL     OW16420   1.893   4.811   3.750
 5174SOL    HW116421   1.877   4.869   3.670
 5174SOL    HW216422   1.991   4.811   3.773
 5175SOL     OW16423   2.602   4.153   6.895
 5175SOL    HW116424   2.570   4.187   6.984
 5175SOL    HW216425   2.694   4.115   6.905
 5176SOL     OW16426   4.426   3.477   0.267
 5176SOL    HW116427   4.516   3.517   0.253
 5176SOL    HW216428   4.380   3.464   0.179
 5177SOL     OW16429   4.637   0.115   5.724
 5177SOL    HW116430   4.661   0.210   5.705
 5177SOL    HW216431   4.551   0.092   5.678
 5178SOL     OW16432   1.973   3.069   1.212
 5178SOL    HW116433   1.909   3.143   1.192
 5178SOL    HW216434   2.063   3.091   1.175
 5179SOL     OW16435   4.085   5.961   5.264
 5179SOL    HW116436   3.996   6.007   5.267
 5179SOL    HW216437   4.152   6.014   5.316
 5180SOL     OW16438   2.838   2.940   6.744
 5180SOL    HW116439   2.806   2.851   6.777
 5180SOL    HW216440   2.928   2.929   6.701
 5181SOL     OW16441   5.047   2.020   1.884
 5181SOL    HW116442   5.089   2.077   1.955
 5181SOL    HW216443   5.027   2.076   1.804
 5182SOL     OW16444   4.326   4.990   1.607
 5182SOL    HW116445   4.415   5.035   1.594
 5182SOL    HW216446   4.291   5.012   1.698
 5183SOL     OW16447   3.990   0.698   2.668
 5183SOL    HW116448   4.041   0.780   2.692
 5183SOL    HW216449   3.942   0.711   2.581
 5184SOL     OW16450   0.789   2.280   4.058
 5184SOL    HW116451   0.758   2.343   4.129
 5184SOL    HW216452   0.873   2.315   4.017
 5185SOL     OW16453   4.906   6.994   3.477
 5185SOL    HW116454   4.915   6.914   3.537
 5185SOL    HW216455   4.810   7.006   3.453
 5186SOL     OW16456   5.310   3.762   0.854
 5186SOL    HW116457   5.363   3.809   0.924
 5186SOL    HW216458   5.318   3.810   0.767
 5187SOL     OW16459   6.534   0.594   3.675
 5187SOL    HW116460   6.567   0.581   3.769
 5187SOL    HW216461   6.563   0.684   3.642
 5188SOL     OW16462   1.015   5.125   0.584
 5188SOL    HW116463   1.004   5.057   0.512
 5188SOL    HW216464   0.931   5.178   0.593
 5189SOL     OW16465   4.994   4.727   1.181
 5189SOL    HW116466   5.013   4.779   1.098
 5189SOL    HW216467   5.032   4.635   1.172
 5190SOL     OW16468   0.682   2.498   4.221
 5190SOL    HW116469   0.730   2.564   4.164
 5190SOL    HW216470   0.584   2.499   4.199
 5191SOL     OW16471   4.327   0.339   2.077
 5191SOL    HW116472   4.412   0.382   2.047
 5191SOL    HW216473   4.252   0.404   2.070
 5192SOL     OW16474   3.391   5.693   2.657
 5192SOL    HW116475   3.311   5.719   2.711
 5192SOL    HW216476   3.460   5.766   2.661
 5193SOL     OW16477   4.885   5.258   4.017
 5193SOL    HW116478   4.787   5.260   4.036
 5193SOL    HW216479   4.933   5.208   4.090
 5194SOL     OW16480   4.445   0.661   6.836
 5194SOL    HW116481   4.488   0.740   6.881
 5194SOL    HW216482   4.429   0.682   6.740
 5195SOL     OW16483   0.030   5.868   4.252
 5195SOL    HW116484   0.081   5.954   4.249
 5195SOL    HW216485   0.089   5.794   4.282
 5196SOL     OW16486   1.170   3.511   1.099
 5196SOL    HW116487   1.182   3.413   1.114
 5196SOL    HW216488   1.225   3.540   1.021
 5197SOL     OW16489   1.795   5.852   4.647
 5197SOL    HW116490   1.838   5.837   4.736
 5197SOL    HW216491   1.861   5.893   4.585
 5198SOL     OW16492   3.969   0.335   3.806
 5198SOL    HW116493   4.053   0.388   3.796
 5198SOL    HW216494   3.989   0.249   3.854
 5199SOL     OW16495   1.841   5.911   0.153
 5199SOL    HW116496   1.921   5.874   0.202
 5199SOL    HW216497   1.872   5.975   0.083
 5200SOL     OW16498   1.132   1.827   5.066
 5200SOL    HW116499   1.044   1.778   5.066
 5200SOL    HW216500   1.180   1.806   5.151
 5201SOL     OW16501   5.459   5.681   4.272
 5201SOL    HW116502   5.452   5.696   4.371
 5201SOL    HW216503   5.463   5.582   4.253
 5202SOL     OW16504   5.946   3.665   6.304
 5202SOL    HW116505   5.933   3.567   6.320
 5202SOL    HW216506   6.036   3.680   6.263
 5203SOL     OW16507   1.987   0.698   6.999
 5203SOL    HW116508   2.050   0.649   6.939
 5203SOL    HW216509   1.935   0.764   6.944
 5204SOL     OW16510   3.549   6.484   0.215
 5204SOL    HW116511   3.541   6.504   0.312
 5204SOL    HW216512   3.468   6.518   0.167
 5205SOL     OW16513   6.802   5.563   0.325
 5205SOL    HW116514   6.888   5.557   0.375
 5205SOL    HW216515   6.753   5.476   0.332
 5206SOL     OW16516   0.817   4.956   6.118
 5206SOL    HW116517   0.824   4.953   6.019
 5206SOL    HW216518   0.824   4.863   6.155
 5207SOL     OW16519   0.763   0.834   3.587
 5207SOL    HW116520   0.677   0.852   3.636
 5207SOL    HW216521   0.801   0.747   3.617
 5208SOL     OW16522   4.390   2.700   0.392
 5208SOL    HW116523   4.427   2.782   0.436
 5208SOL    HW216524   4.388   2.713   0.293
 5209SOL     OW16525   5.741   0.837   1.683
 5209SOL    HW116526   5.720   0.829   1.586
 5209SOL    HW216527   5.656   0.844   1.736
 5210SOL     OW16528   5.102   3.909   1.077
 5210SOL    HW116529   5.091   3.964   0.994
 5210SOL    HW216530   5.013   3.877   1.108
 5211SOL     OW16531   5.339   1.854   4.733
 5211SOL    HW116532   5.374   1.845   4.826
 5211SOL    HW216533   5.359   1.770   4.682
 5212SOL     OW16534   1.244   2.550   1.029
 5212SOL    HW116535   1.323   2.491   1.015
 5212SOL    HW216536   1.168   2.517   0.974
 5213SOL     OW16537   4.076   3.559   1.316
 5213SOL    HW116538   4.127   3.510   1.245
 5213SOL    HW216539   3.992   3.509   1.336
 5214SOL     OW16540   5.356   3.324   5.424
 5214SOL    HW116541   5.261   3.305   5.446
 5214SOL    HW216542   5.363   3.357   5.330
 5215SOL     OW16543   0.550   4.667   4.470
 5215SOL    HW116544   0.550   4.575   4.509
 5215SOL    HW216545   0.574   4.662   4.373
 5216SOL     OW16546   4.922   5.695   1.239
 5216SOL    HW116547   5.012   5.700   1.196
 5216SOL    HW216548   4.891   5.600   1.240
 5217SOL     OW16549   3.911   5.606   4.842
 5217SOL    HW116550   3.996   5.613   4.894
 5217SOL    HW216551   3.864   5.521   4.866
 5218SOL     OW16552   0.167   1.027   1.267
 5218SOL    HW116553   0.136   1.085   1.342
 5218SOL    HW216554   0.136   0.934   1.282
 5219SOL     OW16555   3.621   1.819   3.939
 5219SOL    HW116556   3.645   1.770   4.022
 5219SOL    HW216557   3.561   1.896   3.961
 5220SOL     OW16558   1.840   4.892   2.715
 5220SOL    HW116559   1.788   4.806   2.717
 5220SOL    HW216560   1.819   4.945   2.797
 5221SOL     OW16561   0.003   0.246   2.130
 5221SOL    HW116562   0.035   0.341   2.129
 5221SOL    HW216563   0.052   0.195   2.200
 5222SOL     OW16564   3.650   5.822   2.188
 5222SOL    HW116565   3.712   5.771   2.247
 5222SOL    HW216566   3.626   5.766   2.109
 5223SOL     OW16567   0.514   2.666   0.604
 5223SOL    HW116568   0.430   2.720   0.598
 5223SOL    HW216569   0.498   2.576   0.563
 5224SOL     OW16570   0.039   2.016   4.245
 5224SOL    HW116571   0.071   2.109   4.223
 5224SOL    HW216572   6.958   2.016   4.251
 5225SOL     OW16573   6.853   0.633   3.695
 5225SOL    HW116574   6.786   0.614   3.624
 5225SOL    HW216575   6.857   0.732   3.712
 5226SOL     OW16576   0.338   5.965   3.276
 5226SOL    HW116577   0.396   5.884   3.286
 5226SOL    HW216578   0.385   6.044   3.315
 5227SOL     OW16579   6.913   3.835   5.624
 5227SOL    HW116580   6.839   3.892   5.589
 5227SOL    HW216581   6.884   3.739   5.627
 5228SOL     OW16582   0.697   2.178   0.391
 5228SOL    HW116583   0.616   2.195   0.447
 5228SOL    HW216584   0.732   2.087   0.411
 5229SOL     OW16585   3.265   6.393   0.033
 5229SOL    HW116586   3.243   6.326   6.981
 5229SOL    HW216587   3.180   6.425   0.075
 5230SOL     OW16588   6.334   0.164   2.960
 5230SOL    HW116589   6.431   0.141   2.966
 5230SOL    HW216590   6.283   0.087   2.924
 5231SOL     OW16591   4.383   2.426   3.875
 5231SOL    HW116592   4.337   2.378   3.800
 5231SOL    HW216593   4.459   2.480   3.839
 5232SOL     OW16594   0.949   4.066   6.063
 5232SOL    HW116595   1.023   4.016   6.018
 5232SOL    HW216596   0.861   4.028   6.034
 5233SOL     OW16597   3.574   0.347   2.182
 5233SOL    HW116598   3.587   0.438   2.144
 5233SOL    HW216599   3.542   0.285   2.111
 5234SOL     OW16600   2.701   3.164   6.628
 5234SOL    HW116601   2.742   3.091   6.683
 5234SOL    HW216602   2.711   3.251   6.676
 5235SOL     OW16603   1.804   2.506   0.889
 5235SOL    HW116604   1.861   2.565   0.832
 5235SOL    HW216605   1.715   2.548   0.902
 5236SOL     OW16606   3.443   5.258   2.368
 5236SOL    HW116607   3.419   5.169   2.330
 5236SOL    HW216608   3.384   5.329   2.328
 5237SOL     OW16609   2.295   1.144   4.405
 5237SOL    HW116610   2.294   1.126   4.504
 5237SOL    HW216611   2.366   1.088   4.362
 5238SOL     OW16612   0.905   5.695   1.144
 5238SOL    HW116613   0.993   5.651   1.163
 5238SOL    HW216614   0.899   5.781   1.194
 5239SOL     OW16615   3.629   3.013   0.248
 5239SOL    HW116616   3.696   3.074   0.206
 5239SOL    HW216617   3.589   3.057   0.329
 5240SOL     OW16618   2.880   2.321   5.220
 5240SOL    HW116619   2.823   2.356   5.146
 5240SOL    HW216620   2.973   2.356   5.211
 5241SOL     OW16621   0.689   5.566   2.823
 5241SOL    HW116622   0.629   5.595   2.898
 5241SOL    HW216623   0.777   5.614   2.830
 5242SOL     OW16624   4.975   7.014   2.055
 5242SOL    HW116625   4.958   0.074   1.996
 5242SOL    HW216626   4.927   0.006   2.142
 5243SOL     OW16627   2.495   6.215   1.449
 5243SOL    HW116628   2.432   6.242   1.377
 5243SOL    HW216629   2.526   6.296   1.499
 5244SOL     OW16630   4.559   3.920   0.371
 5244SOL    HW116631   4.477   3.975   0.387
 5244SOL    HW216632   4.556   3.838   0.428
 5245SOL     OW16633   3.712   4.874   0.874
 5245SOL    HW116634   3.806   4.860   0.905
 5245SOL    HW216635   3.711   4.942   0.800
 5246SOL     OW16636   6.528   2.615   2.254
 5246SOL    HW116637   6.547   2.517   2.266
 5246SOL    HW216638   6.431   2.628   2.237
 5247SOL     OW16639   3.359   0.541   6.100
 5247SOL    HW116640   3.343   0.551   6.002
 5247SOL    HW216641   3.279   0.500   6.142
 5248SOL     OW16642   0.230   2.058   3.242
 5248SOL    HW116643   0.287   2.114   3.303
 5248SOL    HW216644   0.165   2.006   3.297
 5249SOL     OW16645   1.414   6.151   6.726
 5249SOL    HW116646   1.319   6.136   6.755
 5249SOL    HW216647   1.427   6.112   6.635
 5250SOL     OW16648   0.713   5.687   0.748
 5250SOL    HW116649   0.669   5.699   0.659
 5250SOL    HW216650   0.812   5.694   0.737
 5251SOL     OW16651   1.249   4.446   0.764
 5251SOL    HW116652   1.150   4.448   0.755
 5251SOL    HW216653   1.288   4.393   0.689
 5252SOL     OW16654   2.351   6.702   1.282
 5252SOL    HW116655   2.437   6.663   1.249
 5252SOL    HW216656   2.371   6.771   1.352
 5253SOL     OW16657   6.830   3.757   4.549
 5253SOL    HW116658   6.915   3.717   4.515
 5253SOL    HW216659   6.783   3.803   4.474
 5254SOL     OW16660   5.977   0.246   3.689
 5254SOL    HW116661   6.035   0.246   3.771
 5254SOL    HW216662   5.905   0.178   3.699
 5255SOL     OW16663   5.295   2.602   4.725
 5255SOL    HW116664   5.220   2.554   4.680
 5255SOL    HW216665   5.381   2.556   4.705
 5256SOL     OW16666   4.850   2.126   4.244
 5256SOL    HW116667   4.929   2.129   4.182
 5256SOL    HW216668   4.839   2.215   4.288
 5257SOL     OW16669   4.363   0.264   1.381
 5257SOL    HW116670   4.358   0.190   1.448
 5257SOL    HW216671   4.454   0.267   1.341
 5258SOL     OW16672   5.599   2.436   2.330
 5258SOL    HW116673   5.502   2.409   2.340
 5258SOL    HW216674   5.609   2.533   2.351
 5259SOL     OW16675   4.923   6.113   2.851
 5259SOL    HW116676   4.839   6.167   2.846
 5259SOL    HW216677   4.966   6.110   2.761
 5260SOL     OW16678   4.391   5.054   0.746
 5260SOL    HW116679   4.429   4.961   0.752
 5260SOL    HW216680   4.346   5.077   0.832
 5261SOL     OW16681   6.639   4.172   6.321
 5261SOL    HW116682   6.542   4.161   6.340
 5261SOL    HW216683   6.653   4.255   6.267
 5262SOL     OW16684   3.252   1.299   3.470
 5262SOL    HW116685   3.205   1.219   3.432
 5262SOL    HW216686   3.196   1.340   3.542
 5263SOL     OW16687   1.644   1.446   2.993
 5263SOL    HW116688   1.613   1.492   2.910
 5263SOL    HW216689   1.633   1.507   3.071
 5264SOL     OW16690   6.305   2.796   1.719
 5264SOL    HW116691   6.272   2.702   1.711
 5264SOL    HW216692   6.348   2.824   1.633
 5265SOL     OW16693   6.267   2.938   4.340
 5265SOL    HW116694   6.344   2.999   4.356
 5265SOL    HW216695   6.202   2.945   4.417
 5266SOL     OW16696   2.674   6.134   6.884
 5266SOL    HW116697   2.729   6.216   6.867
 5266SOL    HW216698   2.677   6.113   6.982
 5267SOL     OW16699   5.055   2.451   4.389
 5267SOL    HW116700   5.034   2.527   4.450
 5267SOL    HW216701   5.046   2.481   4.294
 5268SOL     OW16702   4.977   0.712   0.384
 5268SOL    HW116703   4.989   0.758   0.472
 5268SOL    HW216704   4.892   0.743   0.341
 5269SOL     OW16705   0.705   6.632   2.360
 5269SOL    HW116706   0.744   6.709   2.411
 5269SOL    HW216707   0.737   6.635   2.265
 5270SOL     OW16708   5.788   1.573   1.709
 5270SOL    HW116709   5.709   1.601   1.764
 5270SOL    HW216710   5.759   1.556   1.615
 5271SOL     OW16711   5.670   4.602   5.083
 5271SOL    HW116712   5.723   4.550   5.016
 5271SOL    HW216713   5.723   4.612   5.167
 5272SOL     OW16714   3.163   5.580   1.211
 5272SOL    HW116715   3.153   5.647   1.284
 5272SOL    HW216716   3.205   5.497   1.247
 5273SOL     OW16717   0.556   3.418   2.896
 5273SOL    HW116718   0.493   3.408   2.819
 5273SOL    HW216719   0.643   3.373   2.874
 5274SOL     OW16720   5.413   6.991   2.767
 5274SOL    HW116721   5.383   0.067   2.763
 5274SOL    HW216722   5.448   6.963   2.677
 5275SOL     OW16723   3.834   0.918   0.691
 5275SOL    HW116724   3.841   0.912   0.790
 5275SOL    HW216725   3.880   1.001   0.659
 5276SOL     OW16726   2.178   0.376   1.003
 5276SOL    HW116727   2.111   0.369   1.076
 5276SOL    HW216728   2.179   0.290   0.951
 5277SOL     OW16729   2.796   1.312   2.824
 5277SOL    HW116730   2.782   1.322   2.922
 5277SOL    HW216731   2.709   1.289   2.780
 5278SOL     OW16732   4.914   5.680   4.133
 5278SOL    HW116733   4.976   5.714   4.062
 5278SOL    HW216734   4.890   5.756   4.194
 5279SOL     OW16735   2.716   5.672   0.320
 5279SOL    HW116736   2.659   5.723   0.385
 5279SOL    HW216737   2.707   5.713   0.229
 5280SOL     OW16738   3.293   6.390   5.165
 5280SOL    HW116739   3.293   6.324   5.089
 5280SOL    HW216740   3.374   6.375   5.222
 5281SOL     OW16741   6.462   1.875   2.430
 5281SOL    HW116742   6.444   1.972   2.410
 5281SOL    HW216743   6.377   1.828   2.451
 5282SOL     OW16744   3.957   1.505   3.576
 5282SOL    HW116745   3.878   1.449   3.601
 5282SOL    HW216746   4.012   1.456   3.508
 5283SOL     OW16747   4.878   6.669   2.300
 5283SOL    HW116748   4.878   6.569   2.310
 5283SOL    HW216749   4.859   6.692   2.204
 5284SOL     OW16750   5.378   4.415   3.311
 5284SOL    HW116751   5.313   4.339   3.314
 5284SOL    HW216752   5.349   4.482   3.243
 5285SOL     OW16753   3.068   4.976   4.287
 5285SOL    HW116754   3.078   4.955   4.384
 5285SOL    HW216755   2.972   4.963   4.260
 5286SOL     OW16756   2.267   4.807   1.072
 5286SOL    HW116757   2.274   4.870   1.149
 5286SOL    HW216758   2.171   4.783   1.057
 5287SOL     OW16759   2.764   1.337   0.680
 5287SOL    HW116760   2.727   1.335   0.588
 5287SOL    HW216761   2.853   1.291   0.681
 5288SOL     OW16762   3.279   0.234   1.726
 5288SOL    HW116763   3.295   0.222   1.823
 5288SOL    HW216764   3.240   0.324   1.709
 5289SOL     OW16765   1.398   4.827   6.879
 5289SOL    HW116766   1.485   4.874   6.896
 5289SOL    HW216767   1.415   4.744   6.826
 5290SOL     OW16768   2.490   5.218   6.120
 5290SOL    HW116769   2.429   5.184   6.048
 5290SOL    HW216770   2.475   5.164   6.204
 5291SOL     OW16771   2.763   5.844   5.370
 5291SOL    HW116772   2.772   5.746   5.384
 5291SOL    HW216773   2.768   5.865   5.272
 5292SOL     OW16774   6.058   2.736   0.441
 5292SOL    HW116775   6.025   2.829   0.425
 5292SOL    HW216776   5.990   2.685   0.494
 5293SOL     OW16777   0.661   0.827   4.490
 5293SOL    HW116778   0.596   0.898   4.514
 5293SOL    HW216779   0.700   0.847   4.400
 5294SOL     OW16780   4.900   3.621   6.163
 5294SOL    HW116781   4.835   3.545   6.162
 5294SOL    HW216782   4.893   3.669   6.251
 5295SOL     OW16783   5.399   0.904   2.846
 5295SOL    HW116784   5.472   0.967   2.870
 5295SOL    HW216785   5.324   0.914   2.911
 5296SOL     OW16786   1.544   5.234   6.968
 5296SOL    HW116787   1.506   5.274   0.032
 5296SOL    HW216788   1.642   5.256   6.963
 5297SOL     OW16789   1.557   2.807   1.307
 5297SOL    HW116790   1.460   2.783   1.302
 5297SOL    HW216791   1.607   2.735   1.354
 5298SOL     OW16792   6.490   5.826   2.096
 5298SOL    HW116793   6.479   5.825   2.196
 5298SOL    HW216794   6.400   5.829   2.053
 5299SOL     OW16795   2.759   0.936   1.437
 5299SOL    HW116796   2.716   1.008   1.491
 5299SOL    HW216797   2.820   0.978   1.369
 5300SOL     OW16798   0.707   5.320   3.305
 5300SOL    HW116799   0.643   5.252   3.268
 5300SOL    HW216800   0.777   5.340   3.236
 5301SOL     OW16801   4.167   1.426   6.916
 5301SOL    HW116802   4.190   1.408   6.821
 5301SOL    HW216803   4.148   1.523   6.928
 5302SOL     OW16804   6.204   4.295   2.132
 5302SOL    HW116805   6.112   4.327   2.111
 5302SOL    HW216806   6.247   4.359   2.196
 5303SOL     OW16807   6.478   5.959   4.149
 5303SOL    HW116808   6.571   5.964   4.185
 5303SOL    HW216809   6.431   5.881   4.189
 5304SOL     OW16810   5.083   2.071   6.128
 5304SOL    HW116811   5.182   2.078   6.131
 5304SOL    HW216812   5.043   2.162   6.134
 5305SOL     OW16813   1.508   0.731   4.249
 5305SOL    HW116814   1.554   0.643   4.236
 5305SOL    HW216815   1.541   0.773   4.334
 5306SOL     OW16816   2.416   6.428   5.268
 5306SOL    HW116817   2.349   6.501   5.252
 5306SOL    HW216818   2.456   6.401   5.181
 5307SOL     OW16819   4.128   6.055   6.395
 5307SOL    HW116820   4.045   6.062   6.449
 5307SOL    HW216821   4.148   5.958   6.377
 5308SOL     OW16822   0.355   0.551   3.964
 5308SOL    HW116823   0.327   0.456   3.981
 5308SOL    HW216824   0.430   0.575   4.026
 5309SOL     OW16825   4.097   3.493   3.009
 5309SOL    HW116826   4.185   3.471   2.966
 5309SOL    HW216827   4.044   3.409   3.020
 5310SOL     OW16828   4.811   2.676   1.789
 5310SOL    HW116829   4.871   2.699   1.713
 5310SOL    HW216830   4.716   2.693   1.763
 5311SOL     OW16831   1.173   6.149   6.525
 5311SOL    HW116832   1.106   6.079   6.500
 5311SOL    HW216833   1.128   6.222   6.575
 5312SOL     OW16834   0.537   5.003   2.076
 5312SOL    HW116835   0.464   5.046   2.129
 5312SOL    HW216836   0.596   5.073   2.036
 5313SOL     OW16837   0.758   5.301   6.936
 5313SOL    HW116838   0.801   5.277   6.849
 5313SOL    HW216839   0.702   5.224   6.968
 5314SOL     OW16840   4.353   5.437   0.420
 5314SOL    HW116841   4.257   5.464   0.417
 5314SOL    HW216842   4.379   5.395   0.334
 5315SOL     OW16843   4.813   4.347   1.990
 5315SOL    HW116844   4.730   4.297   2.017
 5315SOL    HW216845   4.801   4.383   1.897
 5316SOL     OW16846   0.254   5.354   4.836
 5316SOL    HW116847   0.189   5.308   4.897
 5316SOL    HW216848   0.233   5.332   4.741
 5317SOL     OW16849   5.693   1.261   3.545
 5317SOL    HW116850   5.736   1.213   3.622
 5317SOL    HW216851   5.707   1.360   3.555
 5318SOL     OW16852   6.644   2.334   4.637
 5318SOL    HW116853   6.687   2.343   4.727
 5318SOL    HW216854   6.544   2.333   4.648
 5319SOL     OW16855   5.551   0.082   6.599
 5319SOL    HW116856   5.505   0.054   6.515
 5319SOL    HW216857   5.509   0.166   6.634
 5320SOL     OW16858   6.064   4.589   6.954
 5320SOL    HW116859   6.130   4.597   6.879
 5320SOL    HW216860   6.106   4.540   0.011
 5321SOL     OW16861   1.705   5.145   4.131
 5321SOL    HW116862   1.676   5.126   4.224
 5321SOL    HW216863   1.661   5.080   4.068
 5322SOL     OW16864   3.855   6.644   6.879
 5322SOL    HW116865   3.809   6.605   6.959
 5322SOL    HW216866   3.853   6.744   6.884
 5323SOL     OW16867   4.049   2.535   1.355
 5323SOL    HW116868   3.963   2.580   1.333
 5323SOL    HW216869   4.056   2.449   1.304
 5324SOL     OW16870   3.806   1.980   1.991
 5324SOL    HW116871   3.766   1.912   1.930
 5324SOL    HW216872   3.745   2.059   1.998
 5325SOL     OW16873   4.856   6.742   2.716
 5325SOL    HW116874   4.859   6.817   2.782
 5325SOL    HW216875   4.924   6.673   2.741
 5326SOL     OW16876   6.969   5.358   1.730
 5326SOL    HW116877   6.874   5.358   1.761
 5326SOL    HW216878   0.009   5.326   1.804
 5327SOL     OW16879   0.292   6.524   4.833
 5327SOL    HW116880   0.206   6.502   4.878
 5327SOL    HW216881   0.290   6.620   4.803
 5328SOL     OW16882   3.446   2.917   5.788
 5328SOL    HW116883   3.537   2.900   5.749
 5328SOL    HW216884   3.395   2.980   5.730
 5329SOL     OW16885   0.145   4.579   0.499
 5329SOL    HW116886   0.141   4.544   0.405
 5329SOL    HW216887   0.117   4.675   0.500
 5330SOL     OW16888   3.890   3.488   0.218
 5330SOL    HW116889   3.978   3.450   0.247
 5330SOL    HW216890   3.820   3.418   0.222
 5331SOL     OW16891   4.198   2.321   0.643
 5331SOL    HW116892   4.207   2.419   0.660
 5331SOL    HW216893   4.232   2.270   0.721
 5332SOL     OW16894   6.233   5.263   0.449
 5332SOL    HW116895   6.318   5.212   0.435
 5332SOL    HW216896   6.170   5.245   0.374
 5333SOL     OW16897   2.158   0.959   4.019
 5333SOL    HW116898   2.159   0.890   3.947
 5333SOL    HW216899   2.133   1.048   3.979
 5334SOL     OW16900   4.483   4.817   4.195
 5334SOL    HW116901   4.435   4.824   4.282
 5334SOL    HW216902   4.501   4.720   4.175
 5335SOL     OW16903   6.218   4.133   2.509
 5335SOL    HW116904   6.151   4.071   2.467
 5335SOL    HW216905   6.178   4.224   2.519
 5336SOL     OW16906   1.793   1.868   3.982
 5336SOL    HW116907   1.810   1.797   3.913
 5336SOL    HW216908   1.876   1.885   4.034
 5337SOL     OW16909   6.149   4.827   1.410
 5337SOL    HW116910   6.127   4.825   1.508
 5337SOL    HW216911   6.247   4.812   1.398
 5338SOL     OW16912   5.989   2.806   0.085
 5338SOL    HW116913   6.075   2.856   0.083
 5338SOL    HW216914   6.007   2.708   0.086
 5339SOL     OW16915   5.964   2.015   2.006
 5339SOL    HW116916   5.996   1.929   1.965
 5339SOL    HW216917   5.875   2.001   2.048
 5340SOL     OW16918   5.083   3.187   2.054
 5340SOL    HW116919   5.160   3.154   2.110
 5340SOL    HW216920   4.998   3.147   2.088
 5341SOL     OW16921   4.813   4.591   3.422
 5341SOL    HW116922   4.769   4.680   3.423
 5341SOL    HW216923   4.864   4.577   3.507
 5342SOL     OW16924   5.411   6.702   5.743
 5342SOL    HW116925   5.380   6.638   5.814
 5342SOL    HW216926   5.496   6.668   5.703
 5343SOL     OW16927   3.637   3.728   4.857
 5343SOL    HW116928   3.716   3.676   4.824
 5343SOL    HW216929   3.553   3.678   4.835
 5344SOL     OW16930   0.712   1.168   0.565
 5344SOL    HW116931   0.746   1.155   0.471
 5344SOL    HW216932   0.790   1.175   0.627
 5345SOL     OW16933   4.687   1.387   0.083
 5345SOL    HW116934   4.615   1.390   0.014
 5345SOL    HW216935   4.666   1.452   0.156
 5346SOL     OW16936   2.377   5.051   4.247
 5346SOL    HW116937   2.288   5.017   4.278
 5346SOL    HW216938   2.390   5.025   4.151
 5347SOL     OW16939   0.019   2.702   3.605
 5347SOL    HW116940   6.963   2.654   3.558
 5347SOL    HW216941   0.105   2.682   3.559
 5348SOL     OW16942   6.349   1.362   5.227
 5348SOL    HW116943   6.382   1.290   5.167
 5348SOL    HW216944   6.358   1.451   5.182
 5349SOL     OW16945   0.271   2.866   1.889
 5349SOL    HW116946   0.295   2.932   1.817
 5349SOL    HW216947   0.351   2.849   1.946
 5350SOL     OW16948   1.528   0.355   5.439
 5350SOL    HW116949   1.443   0.320   5.401
 5350SOL    HW216950   1.512   0.389   5.531
 5351SOL     OW16951   0.067   5.523   1.545
 5351SOL    HW116952   0.001   5.499   1.616
 5351SOL    HW216953   0.120   5.441   1.520
 5352SOL     OW16954   2.090   4.324   2.942
 5352SOL    HW116955   2.056   4.231   2.929
 5352SOL    HW216956   2.016   4.382   2.976
 5353SOL     OW16957   3.846   5.393   3.870
 5353SOL    HW116958   3.893   5.379   3.957
 5353SOL    HW216959   3.898   5.349   3.796
 5354SOL     OW16960   3.570   4.676   0.700
 5354SOL    HW116961   3.637   4.726   0.754
 5354SOL    HW216962   3.595   4.681   0.603
 5355SOL     OW16963   5.340   5.279   5.374
 5355SOL    HW116964   5.354   5.225   5.291
 5355SOL    HW216965   5.428   5.300   5.415
 5356SOL     OW16966   6.617   3.603   1.844
 5356SOL    HW116967   6.573   3.675   1.791
 5356SOL    HW216968   6.696   3.568   1.793
 5357SOL     OW16969   4.065   4.538   1.722
 5357SOL    HW116970   4.048   4.622   1.772
 5357SOL    HW216971   4.016   4.540   1.635
 5358SOL     OW16972   4.333   1.658   0.200
 5358SOL    HW116973   4.346   1.681   0.296
 5358SOL    HW216974   4.280   1.573   0.193
 5359SOL     OW16975   2.101   2.228   0.321
 5359SOL    HW116976   2.193   2.253   0.349
 5359SOL    HW216977   2.105   2.180   0.233
 5360SOL     OW16978   5.463   5.029   3.819
 5360SOL    HW116979   5.404   5.067   3.748
 5360SOL    HW216980   5.485   5.100   3.886
 5361SOL     OW16981   3.074   6.201   2.818
 5361SOL    HW116982   3.099   6.157   2.731
 5361SOL    HW216983   3.156   6.214   2.873
 5362SOL     OW16984   5.488   6.860   2.533
 5362SOL    HW116985   5.572   6.914   2.526
 5362SOL    HW216986   5.511   6.764   2.550
 5363SOL     OW16987   5.131   6.590   4.925
 5363SOL    HW116988   5.153   6.534   4.845
 5363SOL    HW216989   5.103   6.530   5.001
 5364SOL     OW16990   5.215   0.773   2.390
 5364SOL    HW116991   5.225   0.870   2.370
 5364SOL    HW216992   5.242   0.719   2.310
 5365SOL     OW16993   3.162   3.364   3.189
 5365SOL    HW116994   3.114   3.277   3.200
 5365SOL    HW216995   3.184   3.378   3.092
 5366SOL     OW16996   6.963   0.419   1.695
 5366SOL    HW116997   6.896   0.373   1.638
 5366SOL    HW216998   6.936   0.411   1.791
 5367SOL     OW16999   5.505   0.093   0.430
 5367SOL    HW117000   5.507   0.177   0.376
 5367SOL    HW217001   5.521   0.015   0.369
 5368SOL     OW17002   6.599   5.571   2.107
 5368SOL    HW117003   6.557   5.660   2.089
 5368SOL    HW217004   6.698   5.581   2.114
 5369SOL     OW17005   2.679   5.125   1.512
 5369SOL    HW117006   2.684   5.038   1.462
 5369SOL    HW217007   2.583   5.146   1.532
 5370SOL     OW17008   4.192   3.664   1.704
 5370SOL    HW117009   4.249   3.652   1.622
 5370SOL    HW217010   4.197   3.759   1.734
 5371SOL     OW17011   6.696   5.175   4.813
 5371SOL    HW117012   6.705   5.078   4.834
 5371SOL    HW217013   6.600   5.203   4.820
 5372SOL     OW17014   2.179   6.962   3.040
 5372SOL    HW117015   2.176   6.873   2.996
 5372SOL    HW217016   2.089   6.986   3.076
 5373SOL     OW17017   4.234   6.686   6.297
 5373SOL    HW117018   4.281   6.658   6.381
 5373SOL    HW217019   4.287   6.657   6.217
 5374SOL     OW17020   2.314   4.797   1.505
 5374SOL    HW117021   2.290   4.875   1.564
 5374SOL    HW217022   2.237   4.735   1.499
 5375SOL     OW17023   0.808   6.676   5.596
 5375SOL    HW117024   0.792   6.740   5.521
 5375SOL    HW217025   0.721   6.654   5.641
 5376SOL     OW17026   1.329   2.150   1.512
 5376SOL    HW117027   1.240   2.106   1.513
 5376SOL    HW217028   1.367   2.150   1.604
 5377SOL     OW17029   2.154   0.989   3.101
 5377SOL    HW117030   2.229   0.989   3.167
 5377SOL    HW217031   2.158   0.905   3.046
 5378SOL     OW17032   5.444   0.231   1.050
 5378SOL    HW117033   5.456   0.317   1.099
 5378SOL    HW217034   5.495   0.234   0.964
 5379SOL     OW17035   1.717   2.684   5.581
 5379SOL    HW117036   1.710   2.764   5.521
 5379SOL    HW217037   1.702   2.601   5.528
 5380SOL     OW17038   3.710   0.255   1.226
 5380SOL    HW117039   3.798   0.287   1.190
 5380SOL    HW217040   3.725   0.201   1.309
 5381SOL     OW17041   5.825   6.773   2.723
 5381SOL    HW117042   5.759   6.707   2.687
 5381SOL    HW217043   5.899   6.785   2.657
 5382SOL     OW17044   4.252   1.941   2.554
 5382SOL    HW117045   4.267   2.030   2.509
 5382SOL    HW217046   4.325   1.925   2.620
 5383SOL     OW17047   1.218   2.982   4.040
 5383SOL    HW117048   1.153   3.050   4.074
 5383SOL    HW217049   1.285   2.962   4.112
 5384SOL     OW17050   4.601   5.433   5.335
 5384SOL    HW117051   4.603   5.423   5.435
 5384SOL    HW217052   4.605   5.530   5.312
 5385SOL     OW17053   6.633   2.938   6.156
 5385SOL    HW117054   6.712   2.935   6.217
 5385SOL    HW217055   6.550   2.919   6.209
 5386SOL     OW17056   5.809   3.068   3.833
 5386SOL    HW117057   5.855   3.133   3.774
 5386SOL    HW217058   5.721   3.043   3.793
 5387SOL     OW17059   2.726   0.121   3.078
 5387SOL    HW117060   2.731   0.167   2.989
 5387SOL    HW217061   2.818   0.105   3.113
 5388SOL     OW17062   1.111   6.495   3.121
 5388SOL    HW117063   1.094   6.579   3.171
 5388SOL    HW217064   1.025   6.446   3.107
 5389SOL     OW17065   4.475   2.110   4.866
 5389SOL    HW117066   4.422   2.058   4.933
 5389SOL    HW217067   4.415   2.143   4.793
 5390SOL     OW17068   6.013   3.377   3.893
 5390SOL    HW117069   6.021   3.471   3.925
 5390SOL    HW217070   5.973   3.320   3.964
 5391SOL     OW17071   2.247   2.378   6.976
 5391SOL    HW117072   2.340   2.411   6.961
 5391SOL    HW217073   2.206   2.428   0.033
 5392SOL     OW17074   4.693   2.683   3.394
 5392SOL    HW117075   4.610   2.628   3.395
 5392SOL    HW217076   4.722   2.700   3.300
 5393SOL     OW17077   4.271   0.026   5.145
 5393SOL    HW117078   4.268   6.953   5.184
 5393SOL    HW217079   4.355   0.071   5.175
 5394SOL     OW17080   1.132   6.792   1.078
 5394SOL    HW117081   1.079   6.849   1.140
 5394SOL    HW217082   1.102   6.697   1.085
 5395SOL     OW17083   4.872   1.537   0.915
 5395SOL    HW117084   4.852   1.561   0.820
 5395SOL    HW217085   4.912   1.616   0.962
 5396SOL     OW17086   5.498   5.645   2.587
 5396SOL    HW117087   5.432   5.650   2.662
 5396SOL    HW217088   5.576   5.589   2.616
 5397SOL     OW17089   6.244   1.763   2.544
 5397SOL    HW117090   6.156   1.773   2.590
 5397SOL    HW217091   6.301   1.697   2.593
 5398SOL     OW17092   4.836   2.287   3.953
 5398SOL    HW117093   4.743   2.273   3.986
 5398SOL    HW217094   4.833   2.316   3.857
 5399SOL     OW17095   1.714   6.842   4.955
 5399SOL    HW117096   1.621   6.877   4.956
 5399SOL    HW217097   1.778   6.918   4.966
 5400SOL     OW17098   3.724   3.027   0.664
 5400SOL    HW117099   3.704   3.119   0.628
 5400SOL    HW217100   3.752   3.034   0.759
 5401SOL     OW17101   5.117   4.990   3.210
 5401SOL    HW117102   5.126   4.896   3.177
 5401SOL    HW217103   5.021   5.018   3.207
 5402SOL     OW17104   2.785   6.905   0.561
 5402SOL    HW117105   2.855   6.844   0.523
 5402SOL    HW217106   2.703   6.903   0.504
 5403SOL     OW17107   5.611   3.107   0.183
 5403SOL    HW117108   5.698   3.059   0.181
 5403SOL    HW217109   5.540   3.047   0.221
 5404SOL     OW17110   0.981   0.940   1.181
 5404SOL    HW117111   0.976   0.867   1.113
 5404SOL    HW217112   0.962   1.028   1.137
 5405SOL     OW17113   5.365   5.588   0.102
 5405SOL    HW117114   5.459   5.618   0.118
 5405SOL    HW217115   5.359   5.489   0.114
 5406SOL     OW17116   2.597   0.929   4.674
 5406SOL    HW117117   2.520   0.925   4.610
 5406SOL    HW217118   2.602   0.843   4.724
 5407SOL     OW17119   2.734   0.711   1.292
 5407SOL    HW117120   2.758   0.794   1.343
 5407SOL    HW217121   2.642   0.721   1.254
 5408SOL     OW17122   3.009   1.960   4.158
 5408SOL    HW117123   3.090   1.906   4.131
 5408SOL    HW217124   2.930   1.899   4.167
 5409SOL     OW17125   6.475   2.547   1.511
 5409SOL    HW117126   6.399   2.541   1.576
 5409SOL    HW217127   6.506   2.642   1.506
 5410SOL     OW17128   6.976   2.627   1.131
 5410SOL    HW117129   6.880   2.652   1.146
 5410SOL    HW217130   6.995   2.540   1.176
 5411SOL     OW17131   5.250   4.929   0.031
 5411SOL    HW117132   5.333   4.979   0.006
 5411SOL    HW217133   5.275   4.852   0.090
 5412SOL     OW17134   1.456   1.290   6.151
 5412SOL    HW117135   1.375   1.343   6.177
 5412SOL    HW217136   1.533   1.352   6.137
 5413SOL     OW17137   5.972   0.233   5.492
 5413SOL    HW117138   6.033   0.304   5.458
 5413SOL    HW217139   5.905   0.273   5.554
 5414SOL     OW17140   0.252   4.491   5.356
 5414SOL    HW117141   0.220   4.414   5.302
 5414SOL    HW217142   0.258   4.465   5.452
 5415SOL     OW17143   3.085   5.903   0.478
 5415SOL    HW117144   3.087   5.997   0.513
 5415SOL    HW217145   3.138   5.898   0.394
 5416SOL     OW17146   2.778   5.081   5.194
 5416SOL    HW117147   2.699   5.142   5.193
 5416SOL    HW217148   2.746   4.986   5.200
 5417SOL     OW17149   5.143   6.058   3.492
 5417SOL    HW117150   5.097   6.061   3.403
 5417SOL    HW217151   5.139   6.148   3.534
 5418SOL     OW17152   6.027   4.550   4.161
 5418SOL    HW117153   6.095   4.512   4.224
 5418SOL    HW217154   6.066   4.630   4.115
 5419SOL     OW17155   4.086   6.852   6.685
 5419SOL    HW117156   4.075   6.888   6.778
 5419SOL    HW217157   3.996   6.843   6.643
 5420SOL     OW17158   1.517   1.532   1.722
 5420SOL    HW117159   1.498   1.564   1.630
 5420SOL    HW217160   1.431   1.531   1.775
 5421SOL     OW17161   3.322   5.476   2.275
 5421SOL    HW117162   3.268   5.539   2.221
 5421SOL    HW217163   3.267   5.440   2.350
 5422SOL     OW17164   2.159   6.199   3.878
 5422SOL    HW117165   2.135   6.251   3.795
 5422SOL    HW217166   2.234   6.244   3.925
 5423SOL     OW17167   6.881   5.656   2.091
 5423SOL    HW117168   6.905   5.747   2.126
 5423SOL    HW217169   6.907   5.650   1.995
 5424SOL     OW17170   4.889   4.088   5.153
 5424SOL    HW117171   4.809   4.074   5.211
 5424SOL    HW217172   4.929   4.000   5.129
 5425SOL     OW17173   0.426   3.355   5.253
 5425SOL    HW117174   0.471   3.441   5.278
 5425SOL    HW217175   0.365   3.327   5.327
 5426SOL     OW17176   5.134   5.288   2.024
 5426SOL    HW117177   5.214   5.291   2.084
 5426SOL    HW217178   5.054   5.257   2.076
 5427SOL     OW17179   4.722   2.597   6.671
 5427SOL    HW117180   4.718   2.662   6.595
 5427SOL    HW217181   4.629   2.576   6.702
 5428SOL     OW17182   6.158   5.734   3.022
 5428SOL    HW117183   6.205   5.664   2.968
 5428SOL    HW217184   6.071   5.756   2.978
 5429SOL     OW17185   3.396   0.747   3.950
 5429SOL    HW117186   3.307   0.742   3.995
 5429SOL    HW217187   3.463   0.694   4.003
 5430SOL     OW17188   2.348   3.826   6.036
 5430SOL    HW117189   2.300   3.889   6.098
 5430SOL    HW217190   2.446   3.835   6.050
 5431SOL     OW17191   3.512   4.858   6.278
 5431SOL    HW117192   3.586   4.907   6.324
 5431SOL    HW217193   3.452   4.923   6.233
 5432SOL     OW17194   5.538   5.971   1.451
 5432SOL    HW117195   5.467   5.956   1.382
 5432SOL    HW217196   5.495   5.997   1.538
 5433SOL     OW17197   1.212   0.599   0.797
 5433SOL    HW117198   1.203   0.619   0.895
 5433SOL    HW217199   1.262   0.513   0.785
 5434SOL     OW17200   5.166   1.293   4.711
 5434SOL    HW117201   5.153   1.200   4.675
 5434SOL    HW217202   5.146   1.293   4.809
 5435SOL     OW17203   6.503   3.989   0.864
 5435SOL    HW117204   6.451   3.903   0.860
 5435SOL    HW217205   6.560   3.989   0.946
 5436SOL     OW17206   1.153   5.883   2.440
 5436SOL    HW117207   1.228   5.948   2.423
 5436SOL    HW217208   1.163   5.846   2.532
 5437SOL     OW17209   2.975   4.993   6.505
 5437SOL    HW117210   2.885   5.013   6.466
 5437SOL    HW217211   3.034   4.954   6.434
 5438SOL     OW17212   4.861   4.058   2.168
 5438SOL    HW117213   4.941   4.107   2.202
 5438SOL    HW217214   4.869   3.961   2.190
 5439SOL     OW17215   0.684   4.239   0.533
 5439SOL    HW117216   0.766   4.295   0.546
 5439SOL    HW217217   0.641   4.222   0.621
 5440SOL     OW17218   5.684   6.789   3.336
 5440SOL    HW117219   5.719   6.720   3.399
 5440SOL    HW217220   5.594   6.760   3.302
 5441SOL     OW17221   4.755   2.893   4.039
 5441SOL    HW117222   4.710   2.827   4.099
 5441SOL    HW217223   4.766   2.980   4.087
 5442SOL     OW17224   5.541   0.104   3.982
 5442SOL    HW117225   5.537   0.187   3.927
 5442SOL    HW217226   5.618   0.110   4.046
 5443SOL     OW17227   4.939   6.761   4.726
 5443SOL    HW117228   5.003   6.706   4.779
 5443SOL    HW217229   4.965   6.857   4.731
 5444SOL     OW17230   0.432   1.474   4.085
 5444SOL    HW117231   0.463   1.532   4.160
 5444SOL    HW217232   0.438   1.525   3.999
 5445SOL     OW17233   5.200   5.053   5.150
 5445SOL    HW117234   5.123   5.003   5.188
 5445SOL    HW217235   5.171   5.103   5.069
 5446SOL     OW17236   0.232   4.709   4.778
 5446SOL    HW117237   0.290   4.629   4.766
 5446SOL    HW217238   0.221   4.757   4.691
 5447SOL     OW17239   1.735   1.970   1.253
 5447SOL    HW117240   1.661   2.010   1.199
 5447SOL    HW217241   1.780   2.042   1.305
 5448SOL     OW17242   4.540   6.122   3.718
 5448SOL    HW117243   4.490   6.036   3.716
 5448SOL    HW217244   4.636   6.104   3.740
 5449SOL     OW17245   3.377   1.781   2.092
 5449SOL    HW117246   3.282   1.811   2.102
 5449SOL    HW217247   3.438   1.861   2.096
 5450SOL     OW17248   3.766   6.392   1.738
 5450SOL    HW117249   3.815   6.334   1.672
 5450SOL    HW217250   3.678   6.419   1.700
 5451SOL     OW17251   1.145   0.136   3.185
 5451SOL    HW117252   1.216   0.144   3.115
 5451SOL    HW217253   1.176   0.179   3.270
 5452SOL     OW17254   1.745   4.924   1.287
 5452SOL    HW117255   1.751   5.022   1.302
 5452SOL    HW217256   1.808   4.876   1.348
 5453SOL     OW17257   5.442   4.389   2.648
 5453SOL    HW117258   5.500   4.404   2.728
 5453SOL    HW217259   5.431   4.291   2.633
 5454SOL     OW17260   5.696   5.818   2.797
 5454SOL    HW117261   5.742   5.732   2.776
 5454SOL    HW217262   5.725   5.849   2.888
 5455SOL     OW17263   0.465   1.508   2.386
 5455SOL    HW117264   0.525   1.537   2.312
 5455SOL    HW217265   0.463   1.408   2.391
 5456SOL     OW17266   4.831   0.764   6.702
 5456SOL    HW117267   4.928   0.757   6.682
 5456SOL    HW217268   4.812   0.852   6.747
 5457SOL     OW17269   6.328   2.131   0.474
 5457SOL    HW117270   6.410   2.178   0.439
 5457SOL    HW217271   6.283   2.084   0.398
 5458SOL     OW17272   6.171   4.949   0.748
 5458SOL    HW117273   6.078   4.931   0.716
 5458SOL    HW217274   6.212   4.864   0.781
 5459SOL     OW17275   1.702   4.579   5.322
 5459SOL    HW117276   1.699   4.644   5.246
 5459SOL    HW217277   1.772   4.510   5.303
 5460SOL     OW17278   1.971   1.602   1.187
 5460SOL    HW117279   2.041   1.593   1.258
 5460SOL    HW217280   2.008   1.572   1.099
 5461SOL     OW17281   0.426   1.679   5.888
 5461SOL    HW117282   0.501   1.695   5.823
 5461SOL    HW217283   0.396   1.767   5.925
 5462SOL     OW17284   5.604   6.253   6.676
 5462SOL    HW117285   5.645   6.307   6.749
 5462SOL    HW217286   5.546   6.181   6.715
 5463SOL     OW17287   6.991   2.384   6.783
 5463SOL    HW117288   6.929   2.348   6.713
 5463SOL    HW217289   6.970   2.342   6.871
 5464SOL     OW17290   6.343   6.079   5.416
 5464SOL    HW117291   6.338   6.055   5.320
 5464SOL    HW217292   6.271   6.145   5.438
 5465SOL     OW17293   6.408   6.842   3.065
 5465SOL    HW117294   6.456   6.859   3.151
 5465SOL    HW217295   6.312   6.872   3.073
 5466SOL     OW17296   5.947   2.244   5.229
 5466SOL    HW117297   6.032   2.230   5.278
 5466SOL    HW217298   5.966   2.269   5.134
 5467SOL     OW17299   5.857   3.916   3.621
 5467SOL    HW117300   5.912   3.840   3.657
 5467SOL    HW217301   5.820   3.969   3.697
 5468SOL     OW17302   6.986   1.827   3.213
 5468SOL    HW117303   6.922   1.868   3.148
 5468SOL    HW217304   6.937   1.806   3.298
 5469SOL     OW17305   2.218   0.900   6.106
 5469SOL    HW117306   2.167   0.829   6.154
 5469SOL    HW217307   2.154   0.961   6.060
 5470SOL     OW17308   4.161   5.519   4.419
 5470SOL    HW117309   4.245   5.554   4.460
 5470SOL    HW217310   4.084   5.537   4.480
 5471SOL     OW17311   5.108   0.225   2.853
 5471SOL    HW117312   5.204   0.232   2.881
 5471SOL    HW217313   5.100   0.244   2.755
 5472SOL     OW17314   3.287   2.291   6.339
 5472SOL    HW117315   3.272   2.309   6.436
 5472SOL    HW217316   3.256   2.370   6.285
 5473SOL     OW17317   1.682   4.740   0.368
 5473SOL    HW117318   1.689   4.810   0.297
 5473SOL    HW217319   1.773   4.705   0.390
 5474SOL     OW17320   1.159   5.347   3.403
 5474SOL    HW117321   1.245   5.297   3.391
 5474SOL    HW217322   1.130   5.387   3.316
 5475SOL     OW17323   1.521   1.952   0.320
 5475SOL    HW117324   1.554   1.881   0.257
 5475SOL    HW217325   1.587   2.026   0.324
 5476SOL     OW17326   2.170   5.158   5.310
 5476SOL    HW117327   2.242   5.134   5.375
 5476SOL    HW217328   2.168   5.257   5.298
 5477SOL     OW17329   1.708   4.417   2.994
 5477SOL    HW117330   1.779   4.468   2.946
 5477SOL    HW217331   1.740   4.392   3.085
 5478SOL     OW17332   5.254   5.820   6.500
 5478SOL    HW117333   5.311   5.902   6.502
 5478SOL    HW217334   5.242   5.790   6.405
 5479SOL     OW17335   4.339   1.346   4.000
 5479SOL    HW117336   4.307   1.340   3.905
 5479SOL    HW217337   4.326   1.258   4.045
 5480SOL     OW17338   6.282   4.555   4.924
 5480SOL    HW117339   6.288   4.607   4.839
 5480SOL    HW217340   6.217   4.599   4.986
 5481SOL     OW17341   4.221   0.563   5.897
 5481SOL    HW117342   4.306   0.587   5.850
 5481SOL    HW217343   4.145   0.567   5.832
 5482SOL     OW17344   3.769   3.659   2.026
 5482SOL    HW117345   3.712   3.733   1.992
 5482SOL    HW217346   3.748   3.575   1.977
 5483SOL     OW17347   6.494   2.845   5.534
 5483SOL    HW117348   6.570   2.905   5.559
 5483SOL    HW217349   6.426   2.898   5.483
 5484SOL     OW17350   6.701   6.598   3.793
 5484SOL    HW117351   6.729   6.675   3.850
 5484SOL    HW217352   6.603   6.582   3.805
 5485SOL     OW17353   2.863   0.130   4.497
 5485SOL    HW117354   2.786   0.143   4.435
 5485SOL    HW217355   2.949   0.147   4.447
 5486SOL     OW17356   1.693   0.244   4.015
 5486SOL    HW117357   1.603   0.268   3.977
 5486SOL    HW217358   1.757   0.318   3.998
 5487SOL     OW17359   6.343   3.655   6.640
 5487SOL    HW117360   6.389   3.568   6.656
 5487SOL    HW217361   6.376   3.695   6.554
 5488SOL     OW17362   4.608   1.601   0.226
 5488SOL    HW117363   4.659   1.685   0.243
 5488SOL    HW217364   4.511   1.622   0.219
 5489SOL     OW17365   1.336   4.180   1.956
 5489SOL    HW117366   1.297   4.169   2.048
 5489SOL    HW217367   1.387   4.097   1.931
 5490SOL     OW17368   3.220   6.813   0.240
 5490SOL    HW117369   3.308   6.809   0.287
 5490SOL    HW217370   3.214   6.898   0.187
 5491SOL     OW17371   1.282   4.355   6.680
 5491SOL    HW117372   1.339   4.286   6.636
 5491SOL    HW217373   1.217   4.392   6.613
 5492SOL     OW17374   0.922   0.755   5.744
 5492SOL    HW117375   0.913   0.854   5.733
 5492SOL    HW217376   0.858   0.723   5.814
 5493SOL     OW17377   3.534   2.861   5.010
 5493SOL    HW117378   3.496   2.778   5.051
 5493SOL    HW217379   3.521   2.938   5.073
 5494SOL     OW17380   6.476   2.955   0.361
 5494SOL    HW117381   6.497   2.901   0.443
 5494SOL    HW217382   6.394   3.009   0.376
 5495SOL     OW17383   3.222   3.177   0.796
 5495SOL    HW117384   3.137   3.144   0.753
 5495SOL    HW217385   3.280   3.099   0.819
 5496SOL     OW17386   3.347   6.197   1.436
 5496SOL    HW117387   3.445   6.208   1.424
 5496SOL    HW217388   3.317   6.249   1.516
 5497SOL     OW17389   0.335   2.215   3.473
 5497SOL    HW117390   0.246   2.232   3.516
 5497SOL    HW217391   0.408   2.252   3.531
 5498SOL     OW17392   4.686   0.766   0.719
 5498SOL    HW117393   4.617   0.721   0.663
 5498SOL    HW217394   4.642   0.825   0.787
 5499SOL     OW17395   0.920   1.743   3.610
 5499SOL    HW117396   0.917   1.670   3.542
 5499SOL    HW217397   0.981   1.815   3.580
 5500SOL     OW17398   2.075   5.925   6.831
 5500SOL    HW117399   2.159   5.871   6.840
 5500SOL    HW217400   2.029   5.901   6.745
 5501SOL     OW17401   3.270   6.990   1.555
 5501SOL    HW117402   3.312   6.900   1.564
 5501SOL    HW217403   3.294   0.028   1.634
 5502SOL     OW17404   5.924   4.332   6.121
 5502SOL    HW117405   6.011   4.330   6.171
 5502SOL    HW217406   5.907   4.241   6.083
 5503SOL     OW17407   0.738   4.824   2.697
 5503SOL    HW117408   0.643   4.827   2.728
 5503SOL    HW217409   0.772   4.730   2.702
 5504SOL     OW17410   2.588   0.996   5.206
 5504SOL    HW117411   2.607   0.959   5.297
 5504SOL    HW217412   2.635   0.942   5.137
 5505SOL     OW17413   2.332   5.607   4.977
 5505SOL    HW117414   2.353   5.700   5.006
 5505SOL    HW217415   2.410   5.548   4.999
 5506SOL     OW17416   6.481   7.012   5.286
 5506SOL    HW117417   6.496   7.012   5.385
 5506SOL    HW217418   6.563   0.030   5.241
 5507SOL     OW17419   2.934   6.748   3.200
 5507SOL    HW117420   2.839   6.777   3.187
 5507SOL    HW217421   2.955   6.675   3.135
 5508SOL     OW17422   2.600   0.617   0.329
 5508SOL    HW117423   2.503   0.594   0.342
 5508SOL    HW217424   2.649   0.537   0.293
 5509SOL     OW17425   0.206   6.277   0.747
 5509SOL    HW117426   0.272   6.275   0.672
 5509SOL    HW217427   0.191   6.184   0.780
 5510SOL     OW17428   5.298   6.533   0.255
 5510SOL    HW117429   5.223   6.540   0.189
 5510SOL    HW217430   5.328   6.625   0.282
 5511SOL     OW17431   2.172   0.794   3.797
 5511SOL    HW117432   2.167   0.845   3.711
 5511SOL    HW217433   2.217   0.706   3.781
 5512SOL     OW17434   6.112   2.228   0.606
 5512SOL    HW117435   6.209   2.215   0.584
 5512SOL    HW217436   6.056   2.200   0.528
 5513SOL     OW17437   4.820   4.150   5.556
 5513SOL    HW117438   4.795   4.102   5.641
 5513SOL    HW217439   4.745   4.142   5.491
 5514SOL     OW17440   5.101   5.511   2.769
 5514SOL    HW117441   5.074   5.414   2.762
 5514SOL    HW217442   5.163   5.533   2.694
 5515SOL     OW17443   6.715   3.927   1.062
 5515SOL    HW117444   6.677   3.837   1.081
 5515SOL    HW217445   6.810   3.930   1.093
 5516SOL     OW17446   1.232   3.209   0.576
 5516SOL    HW117447   1.282   3.127   0.604
 5516SOL    HW217448   1.219   3.269   0.655
 5517SOL     OW17449   2.715   2.305   2.448
 5517SOL    HW117450   2.681   2.310   2.542
 5517SOL    HW217451   2.804   2.261   2.448
 5518SOL     OW17452   6.829   5.932   5.906
 5518SOL    HW117453   6.734   5.911   5.883
 5518SOL    HW217454   6.839   5.933   6.006
 5519SOL     OW17455   4.909   3.403   2.984
 5519SOL    HW117456   4.826   3.359   2.952
 5519SOL    HW217457   4.959   3.341   3.045
 5520SOL     OW17458   0.746   4.552   2.797
 5520SOL    HW117459   0.802   4.536   2.879
 5520SOL    HW217460   0.709   4.465   2.765
 5521SOL     OW17461   4.153   5.953   2.567
 5521SOL    HW117462   4.242   5.914   2.542
 5521SOL    HW217463   4.091   5.880   2.597
 5522SOL     OW17464   1.535   3.844   1.079
 5522SOL    HW117465   1.578   3.759   1.109
 5522SOL    HW217466   1.590   3.921   1.110
 5523SOL     OW17467   3.353   6.686   2.961
 5523SOL    HW117468   3.362   6.672   2.863
 5523SOL    HW217469   3.373   6.782   2.983
 5524SOL     OW17470   6.763   5.941   5.023
 5524SOL    HW117471   6.824   5.924   5.100
 5524SOL    HW217472   6.680   5.885   5.033
 5525SOL     OW17473   6.672   4.433   0.351
 5525SOL    HW117474   6.659   4.371   0.428
 5525SOL    HW217475   6.769   4.432   0.324
 5526SOL     OW17476   5.979   3.574   5.056
 5526SOL    HW117477   5.899   3.619   5.017
 5526SOL    HW217478   5.963   3.476   5.061
 5527SOL     OW17479   0.816   3.489   3.299
 5527SOL    HW117480   0.788   3.571   3.348
 5527SOL    HW217481   0.869   3.514   3.218
 5528SOL     OW17482   1.328   2.283   5.977
 5528SOL    HW117483   1.243   2.269   6.029
 5528SOL    HW217484   1.380   2.358   6.018
 5529SOL     OW17485   2.497   0.342   4.460
 5529SOL    HW117486   2.561   0.279   4.417
 5529SOL    HW217487   2.469   0.307   4.549
 5530SOL     OW17488   0.367   2.167   2.274
 5530SOL    HW117489   0.390   2.099   2.205
 5530SOL    HW217490   0.373   2.258   2.233
 5531SOL     OW17491   4.141   3.568   4.039
 5531SOL    HW117492   4.121   3.474   4.009
 5531SOL    HW217493   4.240   3.579   4.050
 5532SOL     OW17494   1.511   1.519   1.309
 5532SOL    HW117495   1.594   1.474   1.275
 5532SOL    HW217496   1.462   1.457   1.370
 5533SOL     OW17497   2.721   0.938   2.623
 5533SOL    HW117498   2.786   0.883   2.676
 5533SOL    HW217499   2.635   0.888   2.614
 5534SOL     OW17500   1.069   3.443   6.209
 5534SOL    HW117501   1.107   3.436   6.117
 5534SOL    HW217502   1.094   3.530   6.249
 5535SOL     OW17503   0.166   3.340   3.208
 5535SOL    HW117504   0.250   3.307   3.164
 5535SOL    HW217505   0.140   3.278   3.282
 5536SOL     OW17506   3.160   0.653   4.078
 5536SOL    HW117507   3.199   0.573   4.033
 5536SOL    HW217508   3.131   0.629   4.170
 5537SOL     OW17509   3.488   0.719   4.435
 5537SOL    HW117510   3.517   0.801   4.484
 5537SOL    HW217511   3.411   0.742   4.375
 5538SOL     OW17512   3.400   0.063   5.085
 5538SOL    HW117513   3.328   0.132   5.095
 5538SOL    HW217514   3.489   0.108   5.084
 5539SOL     OW17515   0.766   2.054   0.902
 5539SOL    HW117516   0.680   2.008   0.879
 5539SOL    HW217517   0.760   2.150   0.877
 5540SOL     OW17518   4.896   3.583   2.528
 5540SOL    HW117519   4.910   3.663   2.470
 5540SOL    HW217520   4.897   3.500   2.471
 5541SOL     OW17521   5.636   2.619   6.074
 5541SOL    HW117522   5.612   2.586   5.983
 5541SOL    HW217523   5.698   2.698   6.065
 5542SOL     OW17524   5.909   6.021   5.899
 5542SOL    HW117525   5.908   6.118   5.925
 5542SOL    HW217526   5.974   5.972   5.956
 5543SOL     OW17527   1.689   5.094   6.346
 5543SOL    HW117528   1.711   5.002   6.313
 5543SOL    HW217529   1.625   5.088   6.423
 5544SOL     OW17530   5.143   5.373   5.614
 5544SOL    HW117531   5.200   5.319   5.551
 5544SOL    HW217532   5.137   5.467   5.581
 5545SOL     OW17533   4.755   1.035   2.919
 5545SOL    HW117534   4.830   0.987   2.874
 5545SOL    HW217535   4.740   0.997   3.010
 5546SOL     OW17536   1.022   6.289   4.355
 5546SOL    HW117537   1.078   6.208   4.337
 5546SOL    HW217538   0.940   6.285   4.298
 5547SOL     OW17539   4.212   0.484   5.073
 5547SOL    HW117540   4.214   0.519   5.167
 5547SOL    HW217541   4.249   0.553   5.011
 5548SOL     OW17542   6.490   3.611   5.321
 5548SOL    HW117543   6.415   3.670   5.292
 5548SOL    HW217544   6.501   3.535   5.256
 5549SOL     OW17545   3.770   4.641   1.264
 5549SOL    HW117546   3.780   4.740   1.248
 5549SOL    HW217547   3.701   4.604   1.202
 5550SOL     OW17548   2.409   4.266   1.959
 5550SOL    HW117549   2.450   4.357   1.954
 5550SOL    HW217550   2.416   4.221   1.871
 5551SOL     OW17551   1.424   6.184   2.907
 5551SOL    HW117552   1.335   6.230   2.905
 5551SOL    HW217553   1.456   6.177   3.002
 5552SOL     OW17554   6.503   0.960   6.596
 5552SOL    HW117555   6.474   1.055   6.585
 5552SOL    HW217556   6.428   0.905   6.632
 5553SOL     OW17557   4.799   6.193   6.441
 5553SOL    HW117558   4.761   6.285   6.454
 5553SOL    HW217559   4.731   6.136   6.396
 5554SOL     OW17560   4.832   2.262   6.875
 5554SOL    HW117561   4.853   2.350   6.917
 5554SOL    HW217562   4.916   2.222   6.837
 5555SOL     OW17563   0.896   3.817   2.197
 5555SOL    HW117564   0.942   3.729   2.181
 5555SOL    HW217565   0.955   3.891   2.165
 5556SOL     OW17566   6.163   1.393   3.403
 5556SOL    HW117567   6.164   1.487   3.371
 5556SOL    HW217568   6.069   1.357   3.398
 5557SOL     OW17569   4.053   6.001   2.301
 5557SOL    HW117570   4.085   5.985   2.394
 5557SOL    HW217571   3.954   5.991   2.297
 5558SOL     OW17572   2.902   3.739   6.362
 5558SOL    HW117573   2.972   3.782   6.305
 5558SOL    HW217574   2.811   3.756   6.323
 5559SOL     OW17575   2.039   0.263   1.228
 5559SOL    HW117576   1.989   0.176   1.230
 5559SOL    HW217577   1.996   0.328   1.291
 5560SOL     OW17578   0.293   5.367   1.667
 5560SOL    HW117579   0.278   5.445   1.727
 5560SOL    HW217580   0.258   5.284   1.710
 5561SOL     OW17581   2.075   1.131   4.246
 5561SOL    HW117582   2.150   1.140   4.311
 5561SOL    HW217583   2.085   1.045   4.195
 5562SOL     OW17584   3.947   2.623   6.346
 5562SOL    HW117585   3.861   2.572   6.333
 5562SOL    HW217586   4.021   2.577   6.297
 5563SOL     OW17587   2.922   4.884   2.405
 5563SOL    HW117588   2.836   4.837   2.383
 5563SOL    HW217589   2.925   4.900   2.504
 5564SOL     OW17590   4.643   0.118   0.743
 5564SOL    HW117591   4.590   0.033   0.747
 5564SOL    HW217592   4.580   0.196   0.745
 5565SOL     OW17593   4.405   2.444   5.949
 5565SOL    HW117594   4.342   2.381   5.903
 5565SOL    HW217595   4.394   2.536   5.911
 5566SOL     OW17596   1.305   4.312   6.948
 5566SOL    HW117597   1.252   4.239   6.992
 5566SOL    HW217598   1.318   4.290   6.851
 5567SOL     OW17599   0.006   3.727   0.929
 5567SOL    HW117600   0.104   3.735   0.911
 5567SOL    HW217601   7.009   3.737   1.027
 5568SOL     OW17602   5.139   1.134   3.387
 5568SOL    HW117603   5.123   1.040   3.358
 5568SOL    HW217604   5.069   1.161   3.453
 5569SOL     OW17605   1.831   1.311   2.291
 5569SOL    HW117606   1.930   1.315   2.307
 5569SOL    HW217607   1.794   1.229   2.334
 5570SOL     OW17608   6.855   3.803   4.169
 5570SOL    HW117609   6.844   3.902   4.163
 5570SOL    HW217610   6.950   3.781   4.191
 5571SOL     OW17611   6.295   6.261   1.426
 5571SOL    HW117612   6.284   6.176   1.478
 5571SOL    HW217613   6.362   6.319   1.472
 5572SOL     OW17614   1.372   3.722   4.510
 5572SOL    HW117615   1.392   3.776   4.429
 5572SOL    HW217616   1.340   3.631   4.484
 5573SOL     OW17617   1.819   5.762   4.919
 5573SOL    HW117618   1.902   5.734   4.966
 5573SOL    HW217619   1.739   5.718   4.960
 5574SOL     OW17620   0.167   1.768   2.648
 5574SOL    HW117621   0.123   1.858   2.652
 5574SOL    HW217622   0.224   1.762   2.567
 5575SOL     OW17623   0.375   1.434   0.824
 5575SOL    HW117624   0.360   1.420   0.922
 5575SOL    HW217625   0.400   1.530   0.808
 5576SOL     OW17626   0.706   4.786   1.660
 5576SOL    HW117627   0.735   4.863   1.603
 5576SOL    HW217628   0.727   4.805   1.756
 5577SOL     OW17629   2.720   3.090   6.362
 5577SOL    HW117630   2.728   3.110   6.460
 5577SOL    HW217631   2.726   3.175   6.310
 5578SOL     OW17632   3.284   3.473   1.657
 5578SOL    HW117633   3.281   3.500   1.753
 5578SOL    HW217634   3.234   3.540   1.602
 5579SOL     OW17635   0.584   3.716   0.627
 5579SOL    HW117636   0.601   3.724   0.529
 5579SOL    HW217637   0.531   3.795   0.658
 5580SOL     OW17638   4.938   2.430   5.254
 5580SOL    HW117639   4.958   2.371   5.176
 5580SOL    HW217640   4.998   2.510   5.251
 5581SOL     OW17641   1.559   0.357   1.808
 5581SOL    HW117642   1.655   0.369   1.784
 5581SOL    HW217643   1.540   0.404   1.895
 5582SOL     OW17644   2.935   3.486   6.141
 5582SOL    HW117645   2.917   3.578   6.177
 5582SOL    HW217646   2.904   3.482   6.046
 5583SOL     OW17647   5.326   0.628   2.926
 5583SOL    HW117648   5.413   0.643   2.972
 5583SOL    HW217649   5.336   0.651   2.829
 5584SOL     OW17650   6.628   4.904   4.198
 5584SOL    HW117651   6.628   4.830   4.130
 5584SOL    HW217652   6.637   4.992   4.151
 5585SOL     OW17653   5.407   5.626   2.985
 5585SOL    HW117654   5.379   5.529   2.983
 5585SOL    HW217655   5.350   5.678   2.921
 5586SOL     OW17656   0.289   2.572   5.979
 5586SOL    HW117657   0.238   2.576   5.893
 5586SOL    HW217658   0.386   2.556   5.959
 5587SOL     OW17659   4.285   6.427   1.299
 5587SOL    HW117660   4.329   6.423   1.389
 5587SOL    HW217661   4.304   6.515   1.256
 5588SOL     OW17662   2.734   5.155   2.972
 5588SOL    HW117663   2.708   5.248   2.997
 5588SOL    HW217664   2.816   5.128   3.023
 5589SOL     OW17665   6.618   3.103   5.665
 5589SOL    HW117666   6.598   3.199   5.685
 5589SOL    HW217667   6.692   3.098   5.597
 5590SOL     OW17668   0.336   6.150   3.829
 5590SOL    HW117669   0.257   6.109   3.784
 5590SOL    HW217670   0.394   6.194   3.760
 5591SOL     OW17671   5.679   1.296   1.468
 5591SOL    HW117672   5.722   1.232   1.532
 5591SOL    HW217673   5.604   1.250   1.421
 5592SOL     OW17674   1.057   5.584   2.234
 5592SOL    HW117675   1.015   5.673   2.250
 5592SOL    HW217676   1.053   5.530   2.318
 5593SOL     OW17677   0.938   3.170   0.631
 5593SOL    HW117678   1.029   3.158   0.589
 5593SOL    HW217679   0.868   3.164   0.560
 5594SOL     OW17680   4.493   1.286   6.552
 5594SOL    HW117681   4.551   1.250   6.478
 5594SOL    HW217682   4.530   1.256   6.640
 5595SOL     OW17683   0.028   0.939   4.515
 5595SOL    HW117684   0.124   0.967   4.511
 5595SOL    HW217685   0.015   0.871   4.587
 5596SOL     OW17686   4.597   1.034   2.676
 5596SOL    HW117687   4.500   1.015   2.664
 5596SOL    HW217688   4.623   1.014   2.771
 5597SOL     OW17689   5.055   2.867   4.716
 5597SOL    HW117690   5.061   2.809   4.796
 5597SOL    HW217691   4.971   2.921   4.719
 5598SOL     OW17692   5.376   4.050   3.980
 5598SOL    HW117693   5.314   4.103   3.922
 5598SOL    HW217694   5.460   4.102   3.995
 5599SOL     OW17695   1.042   2.079   2.530
 5599SOL    HW117696   1.091   2.074   2.443
 5599SOL    HW217697   1.097   2.131   2.596
 5600SOL     OW17698   1.449   1.685   1.505
 5600SOL    HW117699   1.472   1.775   1.466
 5600SOL    HW217700   1.458   1.615   1.434
 5601SOL     OW17701   2.090   0.696   6.224
 5601SOL    HW117702   2.091   0.613   6.168
 5601SOL    HW217703   2.034   0.679   6.306
 5602SOL     OW17704   0.089   1.900   1.363
 5602SOL    HW117705   0.000   1.944   1.373
 5602SOL    HW217706   0.083   1.804   1.392
 5603SOL     OW17707   5.646   2.919   0.669
 5603SOL    HW117708   5.650   3.011   0.628
 5603SOL    HW217709   5.729   2.869   0.646
 5604SOL     OW17710   6.184   2.477   4.608
 5604SOL    HW117711   6.252   2.458   4.678
 5604SOL    HW217712   6.142   2.392   4.578
 5605SOL     OW17713   0.106   1.269   5.222
 5605SOL    HW117714   0.131   1.361   5.190
 5605SOL    HW217715   0.013   1.248   5.192
 5606SOL     OW17716   4.715   6.772   0.532
 5606SOL    HW117717   4.754   6.687   0.496
 5606SOL    HW217718   4.761   6.850   0.490
 5607SOL     OW17719   5.153   1.137   2.730
 5607SOL    HW117720   5.110   1.226   2.716
 5607SOL    HW217721   5.234   1.130   2.672
 5608SOL     OW17722   5.756   0.435   3.883
 5608SOL    HW117723   5.724   0.486   3.963
 5608SOL    HW217724   5.810   0.356   3.913
 5609SOL     OW17725   3.028   5.989   1.109
 5609SOL    HW117726   3.051   5.963   1.015
 5609SOL    HW217727   3.105   5.967   1.170
 5610SOL     OW17728   4.336   6.028   0.380
 5610SOL    HW117729   4.296   6.028   0.472
 5610SOL    HW217730   4.263   6.018   0.312
 5611SOL     OW17731   1.333   5.907   2.733
 5611SOL    HW117732   1.324   5.870   2.826
 5611SOL    HW217733   1.287   5.996   2.729
 5612SOL     OW17734   4.037   2.446   5.861
 5612SOL    HW117735   4.015   2.497   5.778
 5612SOL    HW217736   3.971   2.372   5.873
 5613SOL     OW17737   6.220   4.249   3.536
 5613SOL    HW117738   6.130   4.216   3.505
 5613SOL    HW217739   6.289   4.179   3.516
 5614SOL     OW17740   4.534   2.138   4.470
 5614SOL    HW117741   4.618   2.167   4.425
 5614SOL    HW217742   4.507   2.206   4.538
 5615SOL     OW17743   0.192   1.879   4.043
 5615SOL    HW117744   0.140   1.920   4.118
 5615SOL    HW217745   0.131   1.825   3.985
 5616SOL     OW17746   2.635   2.020   4.400
 5616SOL    HW117747   2.686   1.945   4.441
 5616SOL    HW217748   2.614   1.998   4.304
 5617SOL     OW17749   2.592   6.329   5.845
 5617SOL    HW117750   2.511   6.375   5.880
 5617SOL    HW217751   2.631   6.382   5.770
 5618SOL     OW17752   0.164   4.640   3.548
 5618SOL    HW117753   0.160   4.577   3.471
 5618SOL    HW217754   0.236   4.708   3.532
 5619SOL     OW17755   3.232   3.610   4.920
 5619SOL    HW117756   3.284   3.528   4.943
 5619SOL    HW217757   3.228   3.621   4.820
 5620SOL     OW17758   4.021   3.697   0.711
 5620SOL    HW117759   3.972   3.768   0.762
 5620SOL    HW217760   4.095   3.739   0.658
 5621SOL     OW17761   2.183   2.555   0.208
 5621SOL    HW117762   2.129   2.637   0.188
 5621SOL    HW217763   2.184   2.539   0.307
 5622SOL     OW17764   4.621   0.418   5.867
 5622SOL    HW117765   4.606   0.450   5.774
 5622SOL    HW217766   4.563   0.339   5.886
 5623SOL     OW17767   3.251   5.494   5.476
 5623SOL    HW117768   3.235   5.528   5.384
 5623SOL    HW217769   3.196   5.411   5.491
 5624SOL     OW17770   1.421   4.214   3.666
 5624SOL    HW117771   1.424   4.314   3.661
 5624SOL    HW217772   1.337   4.181   3.623
 5625SOL     OW17773   5.683   1.119   5.627
 5625SOL    HW117774   5.757   1.089   5.686
 5625SOL    HW217775   5.703   1.093   5.532
 5626SOL     OW17776   2.381   5.719   4.481
 5626SOL    HW117777   2.395   5.817   4.465
 5626SOL    HW217778   2.468   5.676   4.506
 5627SOL     OW17779   0.711   5.790   6.344
 5627SOL    HW117780   0.652   5.860   6.384
 5627SOL    HW217781   0.666   5.751   6.263
 5628SOL     OW17782   1.053   2.113   1.051
 5628SOL    HW117783   1.084   2.167   1.129
 5628SOL    HW217784   1.061   2.016   1.072
 5629SOL     OW17785   3.600   3.669   2.305
 5629SOL    HW117786   3.522   3.690   2.365
 5629SOL    HW217787   3.568   3.620   2.225
 5630SOL     OW17788   1.565   3.505   0.056
 5630SOL    HW117789   1.516   3.565   0.119
 5630SOL    HW217790   1.557   3.542   6.982
 5631SOL     OW17791   4.612   1.865   1.175
 5631SOL    HW117792   4.583   1.946   1.123
 5631SOL    HW217793   4.532   1.818   1.212
 5632SOL     OW17794   3.202   2.525   6.205
 5632SOL    HW117795   3.260   2.585   6.259
 5632SOL    HW217796   3.228   2.531   6.109
 5633SOL     OW17797   6.104   4.180   4.230
 5633SOL    HW117798   6.162   4.256   4.201
 5633SOL    HW217799   6.029   4.168   4.164
 5634SOL     OW17800   2.177   4.619   4.556
 5634SOL    HW117801   2.110   4.562   4.603
 5634SOL    HW217802   2.262   4.567   4.543
 5635SOL     OW17803   1.915   4.404   5.335
 5635SOL    HW117804   1.987   4.424   5.270
 5635SOL    HW217805   1.943   4.327   5.393
 5636SOL     OW17806   4.491   6.464   4.244
 5636SOL    HW117807   4.534   6.543   4.288
 5636SOL    HW217808   4.556   6.421   4.181
 5637SOL     OW17809   5.776   0.175   3.454
 5637SOL    HW117810   5.748   0.136   3.366
 5637SOL    HW217811   5.876   0.188   3.454
 5638SOL     OW17812   6.260   3.657   1.226
 5638SOL    HW117813   6.234   3.728   1.161
 5638SOL    HW217814   6.204   3.575   1.210
 5639SOL     OW17815   0.519   0.980   2.158
 5639SOL    HW117816   0.540   0.989   2.061
 5639SOL    HW217817   0.544   0.889   2.189
 5640SOL     OW17818   3.339   0.227   3.665
 5640SOL    HW117819   3.406   0.235   3.739
 5640SOL    HW217820   3.267   0.162   3.692
 5641SOL     OW17821   0.892   4.770   5.331
 5641SOL    HW117822   0.876   4.848   5.392
 5641SOL    HW217823   0.985   4.736   5.345
 5642SOL     OW17824   1.691   6.549   5.327
 5642SOL    HW117825   1.696   6.581   5.233
 5642SOL    HW217826   1.644   6.461   5.330
 5643SOL     OW17827   4.322   0.885   5.603
 5643SOL    HW117828   4.376   0.967   5.624
 5643SOL    HW217829   4.228   0.912   5.582
 5644SOL     OW17830   3.186   0.202   5.349
 5644SOL    HW117831   3.155   0.288   5.309
 5644SOL    HW217832   3.168   0.203   5.448
 5645SOL     OW17833   6.532   4.693   3.726
 5645SOL    HW117834   6.515   4.683   3.628
 5645SOL    HW217835   6.473   4.766   3.762
 5646SOL     OW17836   1.879   5.346   3.412
 5646SOL    HW117837   1.968   5.390   3.420
 5646SOL    HW217838   1.807   5.416   3.410
 5647SOL     OW17839   4.471   5.813   1.763
 5647SOL    HW117840   4.418   5.749   1.818
 5647SOL    HW217841   4.551   5.766   1.726
 5648SOL     OW17842   2.009   6.189   2.313
 5648SOL    HW117843   2.016   6.201   2.214
 5648SOL    HW217844   2.035   6.273   2.359
 5649SOL     OW17845   0.709   6.610   4.448
 5649SOL    HW117846   0.680   6.522   4.411
 5649SOL    HW217847   0.793   6.639   4.403
 5650SOL     OW17848   0.458   5.258   1.510
 5650SOL    HW117849   0.404   5.326   1.560
 5650SOL    HW217850   0.546   5.299   1.485
 5651SOL     OW17851   1.754   1.024   1.414
 5651SOL    HW117852   1.703   0.942   1.388
 5651SOL    HW217853   1.814   1.051   1.339
 5652SOL     OW17854   5.906   6.717   1.684
 5652SOL    HW117855   5.980   6.763   1.635
 5652SOL    HW217856   5.822   6.771   1.676
 5653SOL     OW17857   6.020   6.550   6.166
 5653SOL    HW117858   6.048   6.614   6.095
 5653SOL    HW217859   6.100   6.517   6.216
 5654SOL     OW17860   1.057   6.696   4.788
 5654SOL    HW117861   0.985   6.635   4.756
 5654SOL    HW217862   1.039   6.789   4.755
 5655SOL     OW17863   0.350   3.135   4.060
 5655SOL    HW117864   0.343   3.235   4.065
 5655SOL    HW217865   0.304   3.103   3.977
 5656SOL     OW17866   6.992   4.018   6.679
 5656SOL    HW117867   0.014   3.934   6.645
 5656SOL    HW217868   0.044   4.087   6.693
 5657SOL     OW17869   5.800   3.058   6.513
 5657SOL    HW117870   5.857   3.066   6.595
 5657SOL    HW217871   5.859   3.045   6.433
 5658SOL     OW17872   3.128   2.980   6.533
 5658SOL    HW117873   3.164   2.992   6.441
 5658SOL    HW217874   3.135   3.066   6.583
 5659SOL     OW17875   3.350   3.261   5.714
 5659SOL    HW117876   3.343   3.216   5.802
 5659SOL    HW217877   3.441   3.299   5.703
 5660SOL     OW17878   4.402   6.998   6.257
 5660SOL    HW117879   4.369   6.992   6.351
 5660SOL    HW217880   4.342   0.038   6.204
 5661SOL     OW17881   2.167   5.971   4.723
 5661SOL    HW117882   2.088   5.996   4.780
 5661SOL    HW217883   2.248   5.963   4.781
 5662SOL     OW17884   3.136   6.921   3.287
 5662SOL    HW117885   3.058   6.868   3.257
 5662SOL    HW217886   3.196   6.864   3.342
 5663SOL     OW17887   2.466   2.496   0.630
 5663SOL    HW117888   2.542   2.560   0.640
 5663SOL    HW217889   2.501   2.409   0.593
 5664SOL     OW17890   6.804   3.405   4.394
 5664SOL    HW117891   6.712   3.410   4.355
 5664SOL    HW217892   6.869   3.448   4.332
 5665SOL     OW17893   1.629   0.873   0.529
 5665SOL    HW117894   1.714   0.920   0.551
 5665SOL    HW217895   1.604   0.812   0.604
 5666SOL     OW17896   6.780   0.056   3.533
 5666SOL    HW117897   6.787   0.150   3.566
 5666SOL    HW217898   6.862   0.034   3.479
 5667SOL     OW17899   1.266   4.698   4.797
 5667SOL    HW117900   1.349   4.644   4.813
 5667SOL    HW217901   1.282   4.764   4.724
 5668SOL     OW17902   5.591   3.205   2.953
 5668SOL    HW117903   5.653   3.132   2.924
 5668SOL    HW217904   5.566   3.190   3.049
 5669SOL     OW17905   6.448   3.903   1.272
 5669SOL    HW117906   6.426   3.872   1.364
 5669SOL    HW217907   6.495   3.991   1.276
 5670SOL     OW17908   1.416   3.477   4.022
 5670SOL    HW117909   1.502   3.516   4.057
 5670SOL    HW217910   1.345   3.547   4.022
 5671SOL     OW17911   5.982   6.310   5.434
 5671SOL    HW117912   5.938   6.301   5.345
 5671SOL    HW217913   6.028   6.224   5.457
 5672SOL     OW17914   4.652   4.042   6.377
 5672SOL    HW117915   4.714   3.986   6.433
 5672SOL    HW217916   4.629   4.126   6.427
 5673SOL     OW17917   1.598   6.816   0.926
 5673SOL    HW117918   1.658   6.896   0.926
 5673SOL    HW217919   1.522   6.830   0.988
 5674SOL     OW17920   1.639   4.726   5.108
 5674SOL    HW117921   1.668   4.744   5.014
 5674SOL    HW217922   1.542   4.705   5.110
 5675SOL     OW17923   4.728   2.790   6.404
 5675SOL    HW117924   4.757   2.871   6.455
 5675SOL    HW217925   4.700   2.816   6.312
 5676SOL     OW17926   2.373   1.976   2.898
 5676SOL    HW117927   2.333   1.932   2.979
 5676SOL    HW217928   2.351   1.922   2.817
 5677SOL     OW17929   1.185   0.850   0.658
 5677SOL    HW117930   1.087   0.862   0.671
 5677SOL    HW217931   1.212   0.759   0.688
 5678SOL     OW17932   3.964   0.199   2.887
 5678SOL    HW117933   3.956   0.204   2.788
 5678SOL    HW217934   3.905   0.127   2.922
 5679SOL     OW17935   6.013   1.076   3.942
 5679SOL    HW117936   5.947   1.151   3.943
 5679SOL    HW217937   6.056   1.071   3.851
 5680SOL     OW17938   1.527   5.131   6.604
 5680SOL    HW117939   1.537   5.089   6.694
 5680SOL    HW217940   1.541   5.229   6.610
 5681SOL     OW17941   0.427   3.731   1.796
 5681SOL    HW117942   0.503   3.793   1.811
 5681SOL    HW217943   0.454   3.638   1.821
 5682SOL     OW17944   1.843   5.250   4.390
 5682SOL    HW117945   1.808   5.342   4.371
 5682SOL    HW217946   1.872   5.207   4.304
 5683SOL     OW17947   3.853   1.497   6.056
 5683SOL    HW117948   3.894   1.577   6.012
 5683SOL    HW217949   3.923   1.445   6.104
 5684SOL     OW17950   2.576   3.996   6.369
 5684SOL    HW117951   2.587   3.911   6.318
 5684SOL    HW217952   2.622   4.070   6.320
 5685SOL     OW17953   2.649   1.162   3.518
 5685SOL    HW117954   2.578   1.128   3.580
 5685SOL    HW217955   2.662   1.260   3.533
 5686SOL     OW17956   3.160   1.692   5.560
 5686SOL    HW117957   3.258   1.689   5.583
 5686SOL    HW217958   3.146   1.754   5.483
 5687SOL     OW17959   0.619   5.365   5.971
 5687SOL    HW117960   0.637   5.459   5.943
 5687SOL    HW217961   0.522   5.355   5.994
 5688SOL     OW17962   1.634   2.540   2.660
 5688SOL    HW117963   1.556   2.478   2.647
 5688SOL    HW217964   1.610   2.631   2.626
 5689SOL     OW17965   2.647   1.198   1.908
 5689SOL    HW117966   2.668   1.106   1.940
 5689SOL    HW217967   2.707   1.264   1.955
 5690SOL     OW17968   1.641   6.072   6.851
 5690SOL    HW117969   1.642   6.099   6.947
 5690SOL    HW217970   1.553   6.097   6.810
 5691SOL     OW17971   3.945   0.531   1.876
 5691SOL    HW117972   3.987   0.555   1.788
 5691SOL    HW217973   3.895   0.610   1.911
 5692SOL     OW17974   5.804   4.334   0.673
 5692SOL    HW117975   5.734   4.382   0.620
 5692SOL    HW217976   5.769   4.311   0.763
 5693SOL     OW17977   4.436   1.429   2.120
 5693SOL    HW117978   4.345   1.414   2.081
 5693SOL    HW217979   4.503   1.431   2.046
 5694SOL     OW17980   1.378   0.748   2.892
 5694SOL    HW117981   1.378   0.753   2.792
 5694SOL    HW217982   1.468   0.776   2.926
 5695SOL     OW17983   1.631   1.816   3.573
 5695SOL    HW117984   1.681   1.892   3.533
 5695SOL    HW217985   1.560   1.785   3.508
 5696SOL     OW17986   0.611   6.848   3.939
 5696SOL    HW117987   0.692   6.886   3.983
 5696SOL    HW217988   0.638   6.803   3.854
 5697SOL     OW17989   6.030   2.211   1.803
 5697SOL    HW117990   6.127   2.234   1.812
 5697SOL    HW217991   6.004   2.149   1.877
 5698SOL     OW17992   0.793   4.394   3.693
 5698SOL    HW117993   0.859   4.389   3.768
 5698SOL    HW217994   0.813   4.473   3.636
 5699SOL     OW17995   1.017   2.447   2.622
 5699SOL    HW117996   1.039   2.360   2.666
 5699SOL    HW217997   1.056   2.522   2.676
 5700SOL     OW17998   6.397   6.603   4.039
 5700SOL    HW117999   6.352   6.677   3.989
 5700SOL    HW218000   6.435   6.538   3.973
 5701SOL     OW18001   0.625   0.059   1.311
 5701SOL    HW118002   0.679   0.043   1.393
 5701SOL    HW218003   0.572   6.996   1.290
 5702SOL     OW18004   2.441   5.478   4.661
 5702SOL    HW118005   2.522   5.433   4.701
 5702SOL    HW218006   2.422   5.563   4.710
 5703SOL     OW18007   6.205   4.647   0.491
 5703SOL    HW118008   6.274   4.605   0.432
 5703SOL    HW218009   6.218   4.616   0.585
 5704SOL     OW18010   5.200   4.209   3.344
 5704SOL    HW118011   5.235   4.116   3.331
 5704SOL    HW218012   5.122   4.224   3.283
 5705SOL     OW18013   4.943   6.147   0.038
 5705SOL    HW118014   4.867   6.191   7.010
 5705SOL    HW218015   4.963   6.059   7.014
 5706SOL     OW18016   5.525   2.754   2.217
 5706SOL    HW118017   5.458   2.699   2.166
 5706SOL    HW218018   5.480   2.797   2.295
 5707SOL     OW18019   5.995   6.999   1.251
 5707SOL    HW118020   5.948   0.068   1.246
 5707SOL    HW218021   5.932   6.930   1.287
 5708SOL     OW18022   5.045   5.848   2.375
 5708SOL    HW118023   5.116   5.864   2.307
 5708SOL    HW218024   5.085   5.801   2.454
 5709SOL     OW18025   1.291   1.125   2.372
 5709SOL    HW118026   1.378   1.110   2.418
 5709SOL    HW218027   1.268   1.222   2.375
 5710SOL     OW18028   3.440   2.463   0.382
 5710SOL    HW118029   3.352   2.417   0.390
 5710SOL    HW218030   3.425   2.562   0.378
 5711SOL     OW18031   5.132   1.273   1.888
 5711SOL    HW118032   5.220   1.312   1.861
 5711SOL    HW218033   5.093   1.327   1.963
 5712SOL     OW18034   6.191   6.810   0.071
 5712SOL    HW118035   6.216   6.880   0.005
 5712SOL    HW218036   6.158   6.853   0.155
 5713SOL     OW18037   2.656   3.900   1.679
 5713SOL    HW118038   2.605   3.899   1.593
 5713SOL    HW218039   2.749   3.934   1.663
 5714SOL     OW18040   6.586   6.332   1.134
 5714SOL    HW118041   6.651   6.344   1.208
 5714SOL    HW218042   6.525   6.411   1.130
 5715SOL     OW18043   0.353   0.058   2.639
 5715SOL    HW118044   0.333   6.990   2.684
 5715SOL    HW218045   0.375   0.041   2.543
 5716SOL     OW18046   1.511   5.517   5.877
 5716SOL    HW118047   1.499   5.583   5.951
 5716SOL    HW218048   1.602   5.528   5.837
 5717SOL     OW18049   1.803   5.148   0.579
 5717SOL    HW118050   1.775   5.174   0.671
 5717SOL    HW218051   1.898   5.175   0.564
 5718SOL     OW18052   1.100   3.772   0.809
 5718SOL    HW118053   1.026   3.809   0.865
 5718SOL    HW218054   1.187   3.803   0.845
 5719SOL     OW18055   2.386   3.262   0.127
 5719SOL    HW118056   2.330   3.336   0.164
 5719SOL    HW218057   2.478   3.296   0.107
 5720SOL     OW18058   1.776   6.484   4.592
 5720SOL    HW118059   1.711   6.549   4.553
 5720SOL    HW218060   1.800   6.415   4.524
 5721SOL     OW18061   5.693   4.314   0.944
 5721SOL    HW118062   5.624   4.250   0.911
 5721SOL    HW218063   5.763   4.265   0.996
 5722SOL     OW18064   6.649   2.579   5.165
 5722SOL    HW118065   6.612   2.567   5.073
 5722SOL    HW218066   6.697   2.666   5.170
 5723SOL     OW18067   3.785   3.233   0.265
 5723SOL    HW118068   3.875   3.192   0.281
 5723SOL    HW218069   3.740   3.248   0.353
 5724SOL     OW18070   5.809   2.586   4.185
 5724SOL    HW118071   5.826   2.500   4.137
 5724SOL    HW218072   5.895   2.637   4.194
 5725SOL     OW18073   5.936   5.018   3.888
 5725SOL    HW118074   5.847   5.064   3.888
 5725SOL    HW218075   5.941   4.956   3.811
 5726SOL     OW18076   0.205   5.653   4.323
 5726SOL    HW118077   0.272   5.703   4.377
 5726SOL    HW218078   0.134   5.617   4.383
 5727SOL     OW18079   5.795   2.620   4.577
 5727SOL    HW118080   5.807   2.701   4.519
 5727SOL    HW218081   5.786   2.539   4.519
 5728SOL     OW18082   4.878   6.332   5.532
 5728SOL    HW118083   4.967   6.347   5.488
 5728SOL    HW218084   4.835   6.250   5.492
 5729SOL     OW18085   1.576   0.835   0.094
 5729SOL    HW118086   1.631   0.771   0.039
 5729SOL    HW218087   1.499   0.786   0.134
 5730SOL     OW18088   5.268   4.928   6.179
 5730SOL    HW118089   5.306   5.020   6.177
 5730SOL    HW218090   5.293   4.883   6.265
 5731SOL     OW18091   0.046   0.226   3.041
 5731SOL    HW118092   0.084   0.166   2.970
 5731SOL    HW218093   0.099   0.311   3.045
 5732SOL     OW18094   0.877   5.799   3.877
 5732SOL    HW118095   0.809   5.763   3.941
 5732SOL    HW218096   0.885   5.737   3.799
 5733SOL     OW18097   3.179   6.746   5.115
 5733SOL    HW118098   3.170   6.821   5.049
 5733SOL    HW218099   3.226   6.669   5.072
 5734SOL     OW18100   1.317   0.502   5.547
 5734SOL    HW118101   1.391   0.478   5.609
 5734SOL    HW218102   1.346   0.578   5.488
 5735SOL     OW18103   3.665   1.696   0.983
 5735SOL    HW118104   3.643   1.600   1.004
 5735SOL    HW218105   3.675   1.747   1.069
 5736SOL     OW18106   6.206   4.076   0.416
 5736SOL    HW118107   6.195   4.092   0.514
 5736SOL    HW218108   6.296   4.109   0.387
 5737SOL     OW18109   5.774   6.628   0.490
 5737SOL    HW118110   5.725   6.559   0.437
 5737SOL    HW218111   5.873   6.613   0.481
 5738SOL     OW18112   2.133   2.601   6.161
 5738SOL    HW118113   2.167   2.694   6.176
 5738SOL    HW218114   2.178   2.562   6.081
 5739SOL     OW18115   1.556   1.042   6.070
 5739SOL    HW118116   1.491   0.970   6.097
 5739SOL    HW218117   1.510   1.131   6.074
 5740SOL     OW18118   4.510   4.799   0.735
 5740SOL    HW118119   4.481   4.780   0.642
 5740SOL    HW218120   4.552   4.717   0.775
 5741SOL     OW18121   0.514   5.483   4.807
 5741SOL    HW118122   0.529   5.508   4.712
 5741SOL    HW218123   0.417   5.459   4.821
 5742SOL     OW18124   5.504   6.090   3.013
 5742SOL    HW118125   5.487   6.162   2.946
 5742SOL    HW218126   5.422   6.074   3.068
 5743SOL     OW18127   2.220   6.438   5.015
 5743SOL    HW118128   2.185   6.396   4.931
 5743SOL    HW218129   2.289   6.507   4.992
 5744SOL     OW18130   4.939   0.020   1.703
 5744SOL    HW118131   4.953   0.087   1.776
 5744SOL    HW218132   4.891   6.959   1.739
 5745SOL     OW18133   3.941   0.992   4.648
 5745SOL    HW118134   3.963   1.010   4.744
 5745SOL    HW218135   3.869   0.922   4.643
 5746SOL     OW18136   4.779   0.504   0.796
 5746SOL    HW118137   4.777   0.516   0.895
 5746SOL    HW218138   4.759   0.592   0.751
 5747SOL     OW18139   0.186   5.308   2.661
 5747SOL    HW118140   0.192   5.209   2.675
 5747SOL    HW218141   0.105   5.329   2.606
 5748SOL     OW18142   1.780   4.911   1.027
 5748SOL    HW118143   1.727   4.833   0.992
 5748SOL    HW218144   1.753   4.930   1.121
 5749SOL     OW18145   3.244   0.655   4.874
 5749SOL    HW118146   3.253   0.749   4.908
 5749SOL    HW218147   3.298   0.645   4.791
 5750SOL     OW18148   6.185   4.995   4.977
 5750SOL    HW118149   6.188   5.033   4.884
 5750SOL    HW218150   6.120   4.919   4.980
 5751SOL     OW18151   2.463   2.501   4.530
 5751SOL    HW118152   2.404   2.480   4.608
 5751SOL    HW218153   2.556   2.468   4.549
 5752SOL     OW18154   6.333   0.803   6.369
 5752SOL    HW118155   6.339   0.761   6.460
 5752SOL    HW218156   6.424   0.833   6.340
 5753SOL     OW18157   2.898   3.781   6.036
 5753SOL    HW118158   2.917   3.859   6.096
 5753SOL    HW218159   2.967   3.778   5.963
 5754SOL     OW18160   5.606   5.741   1.243
 5754SOL    HW118161   5.514   5.740   1.281
 5754SOL    HW218162   5.663   5.804   1.296
 5755SOL     OW18163   2.802   3.377   5.508
 5755SOL    HW118164   2.815   3.424   5.595
 5755SOL    HW218165   2.888   3.374   5.458
 5756SOL     OW18166   6.564   5.247   3.725
 5756SOL    HW118167   6.541   5.278   3.817
 5756SOL    HW218168   6.586   5.149   3.727
 5757SOL     OW18169   6.385   6.389   2.696
 5757SOL    HW118170   6.433   6.379   2.783
 5757SOL    HW218171   6.330   6.472   2.698
 5758SOL     OW18172   3.014   1.700   3.755
 5758SOL    HW118173   3.079   1.772   3.777
 5758SOL    HW218174   2.923   1.740   3.741
 5759SOL     OW18175   4.745   1.739   6.213
 5759SOL    HW118176   4.677   1.719   6.284
 5759SOL    HW218177   4.767   1.837   6.214
 5760SOL     OW18178   1.487   5.979   1.742
 5760SOL    HW118179   1.563   6.017   1.689
 5760SOL    HW218180   1.430   6.054   1.776
 5761SOL     OW18181   5.558   0.840   5.720
 5761SOL    HW118182   5.588   0.817   5.812
 5761SOL    HW218183   5.523   0.934   5.718
 5762SOL     OW18184   4.801   6.820   0.182
 5762SOL    HW118185   4.759   6.733   0.205
 5762SOL    HW218186   4.897   6.820   0.208
 5763SOL     OW18187   0.413   0.144   0.247
 5763SOL    HW118188   0.363   0.123   0.164
 5763SOL    HW218189   0.380   0.086   0.322
 5764SOL     OW18190   5.458   4.551   6.436
 5764SOL    HW118191   5.423   4.481   6.374
 5764SOL    HW218192   5.477   4.510   6.526
 5765SOL     OW18193   6.511   4.280   6.623
 5765SOL    HW118194   6.592   4.223   6.610
 5765SOL    HW218195   6.471   4.301   6.534
 5766SOL     OW18196   2.702   1.350   1.235
 5766SOL    HW118197   2.768   1.326   1.163
 5766SOL    HW218198   2.656   1.435   1.210
 5767SOL     OW18199   2.402   6.660   0.474
 5767SOL    HW118200   2.402   6.603   0.556
 5767SOL    HW218201   2.431   6.605   0.396
 5768SOL     OW18202   0.127   6.975   2.914
 5768SOL    HW118203   0.078   6.889   2.903
 5768SOL    HW218204   0.224   6.961   2.894
 5769SOL     OW18205   2.721   0.041   3.812
 5769SOL    HW118206   2.656   6.993   3.850
 5769SOL    HW218207   2.701   0.056   3.715
 5770SOL     OW18208   6.657   6.697   1.113
 5770SOL    HW118209   6.621   6.780   1.155
 5770SOL    HW218210   6.630   6.693   1.017
 5771SOL     OW18211   1.352   6.200   1.577
 5771SOL    HW118212   1.319   6.109   1.549
 5771SOL    HW218213   1.306   6.270   1.522
 5772SOL     OW18214   5.993   3.154   0.669
 5772SOL    HW118215   6.050   3.197   0.599
 5772SOL    HW218216   5.900   3.145   0.635
 5773SOL     OW18217   5.862   0.188   3.982
 5773SOL    HW118218   5.958   0.165   3.989
 5773SOL    HW218219   5.819   0.182   4.072
 5774SOL     OW18220   2.346   4.973   3.983
 5774SOL    HW118221   2.382   4.881   3.969
 5774SOL    HW218222   2.359   5.027   3.900
 5775SOL     OW18223   1.673   0.602   1.152
 5775SOL    HW118224   1.749   0.642   1.203
 5775SOL    HW218225   1.708   0.553   1.072
 5776SOL     OW18226   0.203   0.528   6.222
 5776SOL    HW118227   0.231   0.556   6.314
 5776SOL    HW218228   0.243   0.439   6.200
 5777SOL     OW18229   5.772   1.010   4.201
 5777SOL    HW118230   5.819   1.097   4.185
 5777SOL    HW218231   5.732   0.978   4.115
 5778SOL     OW18232   2.075   0.556   1.689
 5778SOL    HW118233   2.003   0.623   1.669
 5778SOL    HW218234   2.121   0.531   1.604
 5779SOL     OW18235   3.722   0.303   0.879
 5779SOL    HW118236   3.724   0.366   0.956
 5779SOL    HW218237   3.788   0.229   0.895
 5780SOL     OW18238   6.555   5.192   1.829
 5780SOL    HW118239   6.504   5.158   1.750
 5780SOL    HW218240   6.494   5.241   1.890
 5781SOL     OW18241   2.060   4.428   4.734
 5781SOL    HW118242   2.003   4.346   4.744
 5781SOL    HW218243   2.152   4.409   4.770
 5782SOL     OW18244   1.554   0.982   1.756
 5782SOL    HW118245   1.510   0.895   1.779
 5782SOL    HW218246   1.549   1.044   1.834
 5783SOL     OW18247   1.621   1.530   0.993
 5783SOL    HW118248   1.619   1.545   0.894
 5783SOL    HW218249   1.666   1.607   1.038
 5784SOL     OW18250   0.309   6.447   0.199
 5784SOL    HW118251   0.312   6.484   0.107
 5784SOL    HW218252   0.393   6.472   0.248
 5785SOL     OW18253   1.422   1.804   1.122
 5785SOL    HW118254   1.511   1.764   1.144
 5785SOL    HW218255   1.435   1.900   1.095
 5786SOL     OW18256   1.623   3.483   1.423
 5786SOL    HW118257   1.547   3.423   1.448
 5786SOL    HW218258   1.703   3.460   1.477
 5787SOL     OW18259   5.584   2.302   3.927
 5787SOL    HW118260   5.588   2.396   3.891
 5787SOL    HW218261   5.492   2.285   3.963
 5788SOL     OW18262   3.023   0.275   0.975
 5788SOL    HW118263   3.014   0.266   1.074
 5788SOL    HW218264   2.961   0.346   0.942
 5789SOL     OW18265   3.950   2.838   6.518
 5789SOL    HW118266   3.954   2.916   6.455
 5789SOL    HW218267   3.960   2.753   6.466
 5790SOL     OW18268   6.504   5.861   5.017
 5790SOL    HW118269   6.451   5.923   4.960
 5790SOL    HW218270   6.521   5.776   4.967
 5791SOL     OW18271   3.394   1.284   2.260
 5791SOL    HW118272   3.359   1.231   2.182
 5791SOL    HW218273   3.363   1.241   2.345
 5792SOL     OW18274   4.944   3.652   3.186
 5792SOL    HW118275   4.883   3.730   3.170
 5792SOL    HW218276   4.941   3.590   3.108
 5793SOL     OW18277   6.009   2.294   5.598
 5793SOL    HW118278   5.949   2.264   5.524
 5793SOL    HW218279   5.954   2.315   5.679
 5794SOL     OW18280   3.175   6.998   6.240
 5794SOL    HW118281   3.135   0.062   6.202
 5794SOL    HW218282   3.266   6.984   6.200
 5795SOL     OW18283   1.048   5.974   1.831
 5795SOL    HW118284   1.015   5.969   1.925
 5795SOL    HW218285   0.977   5.942   1.768
 5796SOL     OW18286   4.660   1.192   6.366
 5796SOL    HW118287   4.673   1.105   6.414
 5796SOL    HW218288   4.615   1.175   6.278
 5797SOL     OW18289   5.826   1.273   0.257
 5797SOL    HW118290   5.776   1.216   0.322
 5797SOL    HW218291   5.919   1.238   0.248
 5798SOL     OW18292   0.753   4.091   4.525
 5798SOL    HW118293   0.709   4.013   4.481
 5798SOL    HW218294   0.850   4.072   4.538
 5799SOL     OW18295   0.994   6.817   3.059
 5799SOL    HW118296   1.092   6.833   3.048
 5799SOL    HW218297   0.952   6.896   3.103
 5800SOL     OW18298   0.933   6.889   0.690
 5800SOL    HW118299   0.967   6.839   0.609
 5800SOL    HW218300   0.870   6.960   0.661
 5801SOL     OW18301   2.385   2.702   3.031
 5801SOL    HW118302   2.416   2.689   3.125
 5801SOL    HW218303   2.326   2.783   3.026
 5802SOL     OW18304   6.118   2.800   2.555
 5802SOL    HW118305   6.176   2.724   2.583
 5802SOL    HW218306   6.094   2.790   2.458
 5803SOL     OW18307   1.419   4.491   3.656
 5803SOL    HW118308   1.477   4.539   3.590
 5803SOL    HW218309   1.464   4.490   3.745
 5804SOL     OW18310   6.836   6.999   3.812
 5804SOL    HW118311   6.766   0.041   3.773
 5804SOL    HW218312   6.800   6.957   3.895
 5805SOL     OW18313   1.266   3.265   1.042
 5805SOL    HW118314   1.243   3.191   1.105
 5805SOL    HW218315   1.352   3.244   0.996
 5806SOL     OW18316   0.351   3.700   4.210
 5806SOL    HW118317   0.277   3.711   4.143
 5806SOL    HW218318   0.321   3.639   4.283
 5807SOL     OW18319   1.086   6.045   1.040
 5807SOL    HW118320   1.178   6.085   1.043
 5807SOL    HW218321   1.031   6.082   1.115
 5808SOL     OW18322   6.643   6.611   4.223
 5808SOL    HW118323   6.713   6.541   4.208
 5808SOL    HW218324   6.561   6.589   4.170
 5809SOL     OW18325   0.783   2.199   6.041
 5809SOL    HW118326   0.832   2.254   6.109
 5809SOL    HW218327   0.837   2.195   5.956
 5810SOL     OW18328   4.313   6.717   4.759
 5810SOL    HW118329   4.235   6.736   4.699
 5810SOL    HW218330   4.389   6.776   4.735
 5811SOL     OW18331   2.845   2.833   5.751
 5811SOL    HW118332   2.869   2.752   5.803
 5811SOL    HW218333   2.773   2.811   5.685
 5812SOL     OW18334   6.176   3.255   0.207
 5812SOL    HW118335   6.132   3.320   0.145
 5812SOL    HW218336   6.264   3.226   0.168
 5813SOL     OW18337   3.630   6.312   1.417
 5813SOL    HW118338   3.609   6.342   1.324
 5813SOL    HW218339   3.703   6.369   1.455
 5814SOL     OW18340   6.812   2.065   2.291
 5814SOL    HW118341   6.911   2.054   2.279
 5814SOL    HW218342   6.765   1.985   2.252
 5815SOL     OW18343   6.113   1.665   4.075
 5815SOL    HW118344   6.165   1.733   4.127
 5815SOL    HW218345   6.140   1.669   3.979
 5816SOL     OW18346   0.057   5.143   2.330
 5816SOL    HW118347   0.019   5.217   2.387
 5816SOL    HW218348   7.001   5.091   2.290
 5817SOL     OW18349   5.616   3.798   5.526
 5817SOL    HW118350   5.529   3.760   5.556
 5817SOL    HW218351   5.609   3.898   5.524
 5818SOL     OW18352   1.191   6.107   5.498
 5818SOL    HW118353   1.096   6.090   5.471
 5818SOL    HW218354   1.203   6.203   5.524
 5819SOL     OW18355   2.728   5.310   0.024
 5819SOL    HW118356   2.823   5.279   0.016
 5819SOL    HW218357   2.668   5.231   0.041
 5820SOL     OW18358   5.240   4.986   2.261
 5820SOL    HW118359   5.287   4.959   2.177
 5820SOL    HW218360   5.231   4.907   2.322
 5821SOL     OW18361   6.632   1.136   1.172
 5821SOL    HW118362   6.615   1.066   1.241
 5821SOL    HW218363   6.715   1.186   1.195
 5822SOL     OW18364   1.571   2.285   2.808
 5822SOL    HW118365   1.648   2.314   2.864
 5822SOL    HW218366   1.488   2.278   2.864
 5823SOL     OW18367   2.140   6.335   4.757
 5823SOL    HW118368   2.054   6.284   4.765
 5823SOL    HW218369   2.127   6.413   4.696
 5824SOL     OW18370   0.976   6.989   2.212
 5824SOL    HW118371   0.895   6.933   2.229
 5824SOL    HW218372   0.975   0.048   2.275
 5825SOL     OW18373   6.998   6.131   4.683
 5825SOL    HW118374   6.984   6.127   4.782
 5825SOL    HW218375   0.076   6.139   4.664
 5826SOL     OW18376   0.068   0.268   5.252
 5826SOL    HW118377   0.051   0.367   5.253
 5826SOL    HW218378   0.014   0.226   5.179
 5827SOL     OW18379   1.074   3.671   4.872
 5827SOL    HW118380   1.153   3.727   4.897
 5827SOL    HW218381   1.092   3.626   4.785
 5828SOL     OW18382   5.489   6.883   3.880
 5828SOL    HW118383   5.569   6.858   3.824
 5828SOL    HW218384   5.508   6.969   3.928
 5829SOL     OW18385   1.866   0.824   4.733
 5829SOL    HW118386   1.907   0.885   4.666
 5829SOL    HW218387   1.924   0.743   4.746
 5830SOL     OW18388   3.701   5.103   5.537
 5830SOL    HW118389   3.651   5.105   5.450
 5830SOL    HW218390   3.759   5.021   5.540
 5831SOL     OW18391   0.960   1.298   5.401
 5831SOL    HW118392   0.860   1.295   5.408
 5831SOL    HW218393   0.996   1.205   5.403
 5832SOL     OW18394   3.297   4.483   1.374
 5832SOL    HW118395   3.301   4.481   1.274
 5832SOL    HW218396   3.203   4.466   1.404
 5833SOL     OW18397   4.100   3.733   5.334
 5833SOL    HW118398   4.141   3.812   5.380
 5833SOL    HW218399   4.172   3.669   5.309
 5834SOL     OW18400   6.745   4.122   6.601
 5834SOL    HW118401   6.821   4.060   6.621
 5834SOL    HW218402   6.714   4.108   6.507
 5835SOL     OW18403   5.856   0.792   2.616
 5835SOL    HW118404   5.882   0.720   2.681
 5835SOL    HW218405   5.915   0.786   2.535
 5836SOL     OW18406   3.464   6.340   2.605
 5836SOL    HW118407   3.435   6.409   2.538
 5836SOL    HW218408   3.556   6.310   2.583
 5837SOL     OW18409   3.406   4.259   0.301
 5837SOL    HW118410   3.458   4.202   0.238
 5837SOL    HW218411   3.456   4.267   0.388
 5838SOL     OW18412   3.187   1.812   1.303
 5838SOL    HW118413   3.212   1.827   1.399
 5838SOL    HW218414   3.265   1.773   1.254
 5839SOL     OW18415   0.477   2.959   1.714
 5839SOL    HW118416   0.548   3.002   1.771
 5839SOL    HW218417   0.521   2.900   1.646
 5840SOL     OW18418   0.191   3.939   2.374
 5840SOL    HW118419   0.127   3.893   2.434
 5840SOL    HW218420   0.265   3.980   2.428
 5841SOL     OW18421   4.543   0.719   1.735
 5841SOL    HW118422   4.549   0.814   1.766
 5841SOL    HW218423   4.615   0.702   1.667
 5842SOL     OW18424   3.584   2.059   0.068
 5842SOL    HW118425   3.627   2.056   0.159
 5842SOL    HW218426   3.635   2.121   0.009
 5843SOL     OW18427   2.217   3.538   1.296
 5843SOL    HW118428   2.241   3.478   1.220
 5843SOL    HW218429   2.224   3.488   1.382
 5844SOL     OW18430   0.368   6.847   5.076
 5844SOL    HW118431   0.384   6.750   5.092
 5844SOL    HW218432   0.414   6.901   5.147
 5845SOL     OW18433   0.152   6.850   1.790
 5845SOL    HW118434   0.111   6.865   1.880
 5845SOL    HW218435   0.089   6.882   1.719
 5846SOL     OW18436   6.672   3.824   5.261
 5846SOL    HW118437   6.654   3.898   5.327
 5846SOL    HW218438   6.632   3.739   5.295
 5847SOL     OW18439   2.560   2.814   1.545
 5847SOL    HW118440   2.587   2.723   1.578
 5847SOL    HW218441   2.527   2.869   1.622
 5848SOL     OW18442   2.170   5.961   3.993
 5848SOL    HW118443   2.081   5.947   4.037
 5848SOL    HW218444   2.168   6.046   3.940
 5849SOL     OW18445   2.207   6.615   5.233
 5849SOL    HW118446   2.181   6.578   5.144
 5849SOL    HW218447   2.128   6.617   5.294
 5850SOL     OW18448   1.025   2.562   1.907
 5850SOL    HW118449   1.072   2.499   1.844
 5850SOL    HW218450   0.965   2.622   1.854
 5851SOL     OW18451   5.602   3.572   4.373
 5851SOL    HW118452   5.629   3.512   4.449
 5851SOL    HW218453   5.651   3.545   4.290
 5852SOL     OW18454   4.666   5.800   3.588
 5852SOL    HW118455   4.586   5.743   3.607
 5852SOL    HW218456   4.747   5.742   3.586
 5853SOL     OW18457   3.906   5.044   4.956
 5853SOL    HW118458   3.918   5.012   5.050
 5853SOL    HW218459   3.968   5.121   4.940
 5854SOL     OW18460   3.635   4.275   5.534
 5854SOL    HW118461   3.734   4.272   5.547
 5854SOL    HW218462   3.613   4.315   5.445
 5855SOL     OW18463   2.148   2.530   3.682
 5855SOL    HW118464   2.065   2.475   3.671
 5855SOL    HW218465   2.171   2.537   3.779
 5856SOL     OW18466   1.664   6.981   2.645
 5856SOL    HW118467   1.601   0.011   2.705
 5856SOL    HW218468   1.706   0.025   2.581
 5857SOL     OW18469   0.380   3.297   5.565
 5857SOL    HW118470   0.360   3.226   5.633
 5857SOL    HW218471   0.296   3.347   5.544
 5858SOL     OW18472   2.948   1.745   2.542
 5858SOL    HW118473   3.048   1.745   2.529
 5858SOL    HW218474   2.924   1.682   2.615
 5859SOL     OW18475   5.551   6.217   1.805
 5859SOL    HW118476   5.567   6.299   1.859
 5859SOL    HW218477   5.594   6.225   1.716
 5860SOL     OW18478   0.389   4.426   3.329
 5860SOL    HW118479   0.404   4.477   3.413
 5860SOL    HW218480   0.386   4.328   3.349
 5861SOL     OW18481   5.809   0.680   5.193
 5861SOL    HW118482   5.793   0.609   5.261
 5861SOL    HW218483   5.747   0.757   5.210
 5862SOL     OW18484   6.144   5.487   2.060
 5862SOL    HW118485   6.124   5.551   2.133
 5862SOL    HW218486   6.065   5.427   2.045
 5863SOL     OW18487   3.109   1.036   4.688
 5863SOL    HW118488   3.017   1.057   4.721
 5863SOL    HW218489   3.175   1.056   4.759
 5864SOL     OW18490   3.288   3.813   3.256
 5864SOL    HW118491   3.358   3.790   3.188
 5864SOL    HW218492   3.227   3.735   3.269
 5865SOL     OW18493   5.698   1.483   5.847
 5865SOL    HW118494   5.619   1.544   5.842
 5865SOL    HW218495   5.772   1.520   5.792
 5866SOL     OW18496   3.114   2.906   1.082
 5866SOL    HW118497   3.034   2.954   1.046
 5866SOL    HW218498   3.107   2.809   1.061
 5867SOL     OW18499   2.136   2.385   1.328
 5867SOL    HW118500   2.089   2.425   1.250
 5867SOL    HW218501   2.205   2.320   1.296
 5868SOL     OW18502   1.103   1.906   6.067
 5868SOL    HW118503   1.167   1.891   6.141
 5868SOL    HW218504   1.135   1.860   5.984
 5869SOL     OW18505   1.696   4.368   3.324
 5869SOL    HW118506   1.787   4.406   3.307
 5869SOL    HW218507   1.642   4.435   3.376
 5870SOL     OW18508   4.122   4.798   5.453
 5870SOL    HW118509   4.219   4.811   5.433
 5870SOL    HW218510   4.093   4.707   5.423
 5871SOL     OW18511   3.552   3.742   3.192
 5871SOL    HW118512   3.622   3.686   3.236
 5871SOL    HW218513   3.527   3.701   3.103
 5872SOL     OW18514   3.862   5.948   1.525
 5872SOL    HW118515   3.908   5.871   1.570
 5872SOL    HW218516   3.819   5.915   1.440
 5873SOL     OW18517   2.430   5.244   2.046
 5873SOL    HW118518   2.472   5.334   2.055
 5873SOL    HW218519   2.488   5.176   2.092
 5874SOL     OW18520   2.129   4.142   5.182
 5874SOL    HW118521   2.157   4.122   5.276
 5874SOL    HW218522   2.203   4.121   5.119
 5875SOL     OW18523   3.638   2.211   6.869
 5875SOL    HW118524   3.583   2.270   6.929
 5875SOL    HW218525   3.643   2.252   6.777
 5876SOL     OW18526   3.817   3.455   2.273
 5876SOL    HW118527   3.851   3.421   2.185
 5876SOL    HW218528   3.736   3.403   2.300
 5877SOL     OW18529   5.777   6.110   1.012
 5877SOL    HW118530   5.862   6.075   0.973
 5877SOL    HW218531   5.731   6.168   0.944
 5878SOL     OW18532   1.220   6.158   3.678
 5878SOL    HW118533   1.122   6.144   3.661
 5878SOL    HW218534   1.253   6.236   3.625
 5879SOL     OW18535   6.568   3.558   0.518
 5879SOL    HW118536   6.568   3.590   0.613
 5879SOL    HW218537   6.516   3.622   0.462
 5880SOL     OW18538   2.796   5.387   0.998
 5880SOL    HW118539   2.811   5.318   1.068
 5880SOL    HW218540   2.852   5.365   0.918
 5881SOL     OW18541   0.550   4.890   3.634
 5881SOL    HW118542   0.630   4.941   3.602
 5881SOL    HW218543   0.482   4.883   3.561
 5882SOL     OW18544   5.951   6.860   0.960
 5882SOL    HW118545   5.978   6.955   0.945
 5882SOL    HW218546   5.935   6.845   1.058
 5883SOL     OW18547   0.249   2.166   6.699
 5883SOL    HW118548   0.208   2.147   6.789
 5883SOL    HW218549   0.340   2.205   6.711
 5884SOL     OW18550   2.199   1.253   3.338
 5884SOL    HW118551   2.184   1.246   3.437
 5884SOL    HW218552   2.251   1.174   3.307
 5885SOL     OW18553   6.765   6.784   1.594
 5885SOL    HW118554   6.722   6.721   1.659
 5885SOL    HW218555   6.836   6.736   1.543
 5886SOL     OW18556   0.239   2.311   4.728
 5886SOL    HW118557   0.262   2.255   4.648
 5886SOL    HW218558   0.275   2.403   4.716
 5887SOL     OW18559   4.015   1.285   3.402
 5887SOL    HW118560   4.081   1.232   3.348
 5887SOL    HW218561   3.923   1.269   3.366
 5888SOL     OW18562   2.945   6.835   2.844
 5888SOL    HW118563   3.019   6.774   2.818
 5888SOL    HW218564   2.980   6.908   2.903
 5889SOL     OW18565   1.538   6.874   1.345
 5889SOL    HW118566   1.612   6.942   1.336
 5889SOL    HW218567   1.576   6.788   1.378
 5890SOL     OW18568   1.262   0.288   5.381
 5890SOL    HW118569   1.180   0.246   5.418
 5890SOL    HW218570   1.279   0.375   5.428
 5891SOL     OW18571   4.046   2.850   6.132
 5891SOL    HW118572   4.032   2.759   6.173
 5891SOL    HW218573   4.079   2.839   6.038
 5892SOL     OW18574   1.003   6.341   1.276
 5892SOL    HW118575   1.028   6.350   1.180
 5892SOL    HW218576   0.973   6.430   1.312
 5893SOL     OW18577   1.595   3.996   3.591
 5893SOL    HW118578   1.670   4.062   3.583
 5893SOL    HW218579   1.525   4.033   3.651
 5894SOL     OW18580   1.304   5.246   2.997
 5894SOL    HW118581   1.313   5.174   2.928
 5894SOL    HW218582   1.393   5.289   3.013
 5895SOL     OW18583   5.403   2.940   3.943
 5895SOL    HW118584   5.439   3.004   4.012
 5895SOL    HW218585   5.479   2.891   3.901
 5896SOL     OW18586   4.061   1.689   6.992
 5896SOL    HW118587   4.008   1.773   6.991
 5896SOL    HW218588   4.090   1.669   0.067
 5897SOL     OW18589   3.679   6.986   2.118
 5897SOL    HW118590   3.591   7.016   2.157
 5897SOL    HW218591   3.724   0.044   2.075
 5898SOL     OW18592   2.300   0.225   3.107
 5898SOL    HW118593   2.374   0.165   3.138
 5898SOL    HW218594   2.224   0.220   3.173
 5899SOL     OW18595   5.327   0.029   5.504
 5899SOL    HW118596   5.348   7.001   5.418
 5899SOL    HW218597   5.406   0.083   5.533
 5900SOL     OW18598   4.619   5.232   3.997
 5900SOL    HW118599   4.556   5.204   4.069
 5900SOL    HW218600   4.625   5.159   3.928
 5901SOL     OW18601   2.776   0.540   6.650
 5901SOL    HW118602   2.789   0.558   6.552
 5901SOL    HW218603   2.798   0.622   6.702
 5902SOL     OW18604   0.191   2.207   0.812
 5902SOL    HW118605   0.100   2.211   0.852
 5902SOL    HW218606   0.185   2.165   0.721
 5903SOL     OW18607   4.448   4.371   0.733
 5903SOL    HW118608   4.469   4.341   0.826
 5903SOL    HW218609   4.507   4.323   0.668
 5904SOL     OW18610   0.249   3.889   1.943
 5904SOL    HW118611   0.288   3.952   2.011
 5904SOL    HW218612   0.322   3.837   1.900
 5905SOL     OW18613   6.418   5.871   2.976
 5905SOL    HW118614   6.324   5.853   3.004
 5905SOL    HW218615   6.478   5.864   3.056
 5906SOL     OW18616   5.324   1.030   4.441
 5906SOL    HW118617   5.236   1.063   4.406
 5906SOL    HW218618   5.378   1.108   4.474
 5907SOL     OW18619   1.913   5.911   2.093
 5907SOL    HW118620   1.887   5.885   2.186
 5907SOL    HW218621   1.840   5.884   2.030
 5908SOL     OW18622   1.221   2.422   5.576
 5908SOL    HW118623   1.309   2.415   5.623
 5908SOL    HW218624   1.152   2.373   5.628
 5909SOL     OW18625   0.389   5.420   0.903
 5909SOL    HW118626   0.460   5.413   0.974
 5909SOL    HW218627   0.352   5.330   0.883
 5910SOL     OW18628   0.552   3.116   3.488
 5910SOL    HW118629   0.636   3.129   3.434
 5910SOL    HW218630   0.525   3.203   3.529
 5911SOL     OW18631   6.632   5.797   6.596
 5911SOL    HW118632   6.715   5.849   6.618
 5911SOL    HW218633   6.557   5.829   6.653
 5912SOL     OW18634   6.265   1.048   5.336
 5912SOL    HW118635   6.296   1.096   5.418
 5912SOL    HW218636   6.340   0.996   5.296
 5913SOL     OW18637   4.945   3.386   6.883
 5913SOL    HW118638   5.022   3.322   6.881
 5913SOL    HW218639   4.870   3.346   6.935
 5914SOL     OW18640   0.708   6.545   6.734
 5914SOL    HW118641   0.699   6.455   6.690
 5914SOL    HW218642   0.717   6.615   6.664
 5915SOL     OW18643   3.835   6.238   0.379
 5915SOL    HW118644   3.932   6.242   0.356
 5915SOL    HW218645   3.814   6.308   0.447
 5916SOL     OW18646   6.923   6.587   2.304
 5916SOL    HW118647   6.925   6.514   2.235
 5916SOL    HW218648   7.012   6.632   2.306
 5917SOL     OW18649   3.252   3.746   5.179
 5917SOL    HW118650   3.199   3.708   5.255
 5917SOL    HW218651   3.218   3.709   5.093
 5918SOL     OW18652   1.492   5.387   6.203
 5918SOL    HW118653   1.443   5.406   6.288
 5918SOL    HW218654   1.473   5.293   6.174
 5919SOL     OW18655   2.937   3.621   2.365
 5919SOL    HW118656   2.853   3.668   2.338
 5919SOL    HW218657   3.005   3.630   2.292
 5920SOL     OW18658   5.121   0.813   6.718
 5920SOL    HW118659   5.214   0.775   6.713
 5920SOL    HW218660   5.094   0.824   6.813
 5921SOL     OW18661   4.080   5.675   6.012
 5921SOL    HW118662   4.081   5.586   6.059
 5921SOL    HW218663   4.092   5.661   5.914
 5922SOL     OW18664   6.069   3.988   4.429
 5922SOL    HW118665   6.150   3.991   4.488
 5922SOL    HW218666   6.077   4.056   4.356
 5923SOL     OW18667   0.004   0.691   1.703
 5923SOL    HW118668   0.101   0.713   1.702
 5923SOL    HW218669   7.011   0.592   1.691
 5924SOL     OW18670   6.184   6.981   2.839
 5924SOL    HW118671   6.162   7.018   2.749
 5924SOL    HW218672   6.100   6.946   2.882
 5925SOL     OW18673   3.550   6.102   1.686
 5925SOL    HW118674   3.585   6.144   1.602
 5925SOL    HW218675   3.499   6.020   1.663
 5926SOL     OW18676   4.687   4.238   2.341
 5926SOL    HW118677   4.767   4.219   2.397
 5926SOL    HW218678   4.685   4.177   2.262
 5927SOL     OW18679   1.114   3.895   2.049
 5927SOL    HW118680   1.159   3.950   2.119
 5927SOL    HW218681   1.180   3.833   2.008
 5928SOL     OW18682   3.780   6.910   1.832
 5928SOL    HW118683   3.710   6.974   1.800
 5928SOL    HW218684   3.780   6.908   1.932
 5929SOL     OW18685   5.952   1.208   5.774
 5929SOL    HW118686   5.998   1.251   5.696
 5929SOL    HW218687   5.973   1.258   5.858
 5930SOL     OW18688   0.608   2.686   3.061
 5930SOL    HW118689   0.698   2.717   3.030
 5930SOL    HW218690   0.578   2.609   3.006
 5931SOL     OW18691   6.100   5.960   2.311
 5931SOL    HW118692   6.111   5.978   2.409
 5931SOL    HW218693   6.003   5.962   2.287
 5932SOL     OW18694   3.117   0.291   6.940
 5932SOL    HW118695   3.094   0.354   6.866
 5932SOL    HW218696   3.077   0.201   6.922
 5933SOL     OW18697   6.658   4.686   4.035
 5933SOL    HW118698   6.738   4.630   4.054
 5933SOL    HW218699   6.649   4.698   3.936
 5934SOL     OW18700   3.540   3.132   5.465
 5934SOL    HW118701   3.612   3.104   5.528
 5934SOL    HW218702   3.576   3.133   5.372
 5935SOL     OW18703   0.856   5.658   5.641
 5935SOL    HW118704   0.910   5.672   5.557
 5935SOL    HW218705   0.774   5.606   5.619
 5936SOL     OW18706   3.239   3.635   1.878
 5936SOL    HW118707   3.296   3.656   1.957
 5936SOL    HW218708   3.180   3.713   1.858
 5937SOL     OW18709   5.783   3.149   1.924
 5937SOL    HW118710   5.785   3.064   1.976
 5937SOL    HW218711   5.688   3.179   1.912
 5938SOL     OW18712   6.004   6.316   4.936
 5938SOL    HW118713   6.060   6.260   4.875
 5938SOL    HW218714   6.063   6.383   4.983
 5939SOL     OW18715   2.918   6.164   4.799
 5939SOL    HW118716   2.954   6.145   4.707
 5939SOL    HW218717   2.958   6.249   4.833
 5940SOL     OW18718   4.071   5.410   4.053
 5940SOL    HW118719   4.060   5.476   4.127
 5940SOL    HW218720   4.164   5.373   4.056
 5941SOL     OW18721   5.621   2.897   3.026
 5941SOL    HW118722   5.539   2.932   3.072
 5941SOL    HW218723   5.692   2.881   3.094
 5942SOL     OW18724   5.074   3.663   6.442
 5942SOL    HW118725   5.120   3.606   6.510
 5942SOL    HW218726   5.139   3.689   6.371
 5943SOL     OW18727   3.338   3.170   5.963
 5943SOL    HW118728   3.368   3.235   6.032
 5943SOL    HW218729   3.406   3.096   5.956
 5944SOL     OW18730   1.172   2.608   0.168
 5944SOL    HW118731   1.165   2.510   0.149
 5944SOL    HW218732   1.080   2.647   0.179
 5945SOL     OW18733   0.421   5.672   5.088
 5945SOL    HW118734   0.454   5.723   5.009
 5945SOL    HW218735   0.347   5.610   5.059
 5946SOL     OW18736   3.443   4.639   0.108
 5946SOL    HW118737   3.537   4.669   0.127
 5946SOL    HW218738   3.380   4.714   0.127
 5947SOL     OW18739   3.204   3.577   3.608
 5947SOL    HW118740   3.275   3.620   3.664
 5947SOL    HW218741   3.116   3.621   3.626
 5948SOL     OW18742   4.558   4.613   2.428
 5948SOL    HW118743   4.599   4.703   2.411
 5948SOL    HW218744   4.555   4.562   2.342
 5949SOL     OW18745   5.007   4.886   0.963
 5949SOL    HW118746   5.025   4.799   0.916
 5949SOL    HW218747   4.925   4.928   0.925
 5950SOL     OW18748   4.968   2.113   5.316
 5950SOL    HW118749   4.955   2.040   5.249
 5950SOL    HW218750   5.066   2.131   5.327
 5951SOL     OW18751   0.755   5.905   5.287
 5951SOL    HW118752   0.674   5.849   5.301
 5951SOL    HW218753   0.796   5.882   5.198
 5952SOL     OW18754   4.422   5.635   3.604
 5952SOL    HW118755   4.390   5.561   3.545
 5952SOL    HW218756   4.500   5.604   3.658
 5953SOL     OW18757   6.784   4.118   5.159
 5953SOL    HW118758   6.850   4.187   5.129
 5953SOL    HW218759   6.811   4.029   5.122
 5954SOL     OW18760   0.579   5.428   5.146
 5954SOL    HW118761   0.504   5.365   5.166
 5954SOL    HW218762   0.542   5.509   5.099
 5955SOL     OW18763   4.179   4.779   2.076
 5955SOL    HW118764   4.251   4.711   2.077
 5955SOL    HW218765   4.131   4.775   1.988
 5956SOL     OW18766   5.938   1.983   3.814
 5956SOL    HW118767   5.845   1.985   3.851
 5956SOL    HW218768   5.994   2.053   3.859
 5957SOL     OW18769   2.342   1.905   3.921
 5957SOL    HW118770   2.399   1.945   3.994
 5957SOL    HW218771   2.354   1.958   3.837
 5958SOL     OW18772   4.312   0.462   2.799
 5958SOL    HW118773   4.389   0.521   2.775
 5958SOL    HW218774   4.233   0.517   2.821
 5959SOL     OW18775   4.528   2.803   5.673
 5959SOL    HW118776   4.524   2.892   5.627
 5959SOL    HW218777   4.596   2.746   5.629
 5960SOL     OW18778   2.759   6.058   4.262
 5960SOL    HW118779   2.858   6.050   4.264
 5960SOL    HW218780   2.733   6.144   4.219
 5961SOL     OW18781   4.612   1.366   2.574
 5961SOL    HW118782   4.561   1.451   2.558
 5961SOL    HW218783   4.574   1.294   2.516
 5962SOL     OW18784   5.228   5.759   5.803
 5962SOL    HW118785   5.218   5.736   5.706
 5962SOL    HW218786   5.150   5.813   5.833
 5963SOL     OW18787   3.021   3.988   6.451
 5963SOL    HW118788   2.938   3.938   6.475
 5963SOL    HW218789   3.072   4.011   6.535
 5964SOL     OW18790   2.558   6.784   4.514
 5964SOL    HW118791   2.571   6.685   4.525
 5964SOL    HW218792   2.495   6.817   4.583
 5965SOL     OW18793   2.011   0.663   0.257
 5965SOL    HW118794   2.013   0.689   0.161
 5965SOL    HW218795   2.079   0.718   0.307
 5966SOL     OW18796   0.964   6.707   6.418
 5966SOL    HW118797   0.975   6.806   6.402
 5966SOL    HW218798   1.044   6.659   6.384
 5967SOL     OW18799   1.991   0.129   5.732
 5967SOL    HW118800   1.982   0.055   5.665
 5967SOL    HW218801   2.057   0.197   5.699
 5968SOL     OW18802   5.649   2.317   0.166
 5968SOL    HW118803   5.663   2.416   0.171
 5968SOL    HW218804   5.579   2.297   0.097
 5969SOL     OW18805   5.125   0.938   6.474
 5969SOL    HW118806   5.060   0.909   6.404
 5969SOL    HW218807   5.126   0.871   6.548
 5970SOL     OW18808   0.287   4.788   0.848
 5970SOL    HW118809   0.333   4.722   0.789
 5970SOL    HW218810   0.311   4.881   0.818
 5971SOL     OW18811   6.194   0.057   1.481
 5971SOL    HW118812   6.153   6.991   1.513
 5971SOL    HW218813   6.140   0.134   1.512
 5972SOL     OW18814   5.049   5.887   6.678
 5972SOL    HW118815   5.133   5.889   6.624
 5972SOL    HW218816   4.980   5.944   6.633
 5973SOL     OW18817   1.443   3.093   2.884
 5973SOL    HW118818   1.511   3.106   2.956
 5973SOL    HW218819   1.352   3.115   2.918
 5974SOL     OW18820   4.781   0.043   0.035
 5974SOL    HW118821   4.798   6.985   0.095
 5974SOL    HW218822   4.867   0.092   0.018
 5975SOL     OW18823   3.729   6.080   0.844
 5975SOL    HW118824   3.815   6.106   0.800
 5975SOL    HW218825   3.659   6.148   0.823
 5976SOL     OW18826   3.165   2.713   5.439
 5976SOL    HW118827   3.072   2.730   5.408
 5976SOL    HW218828   3.229   2.742   5.368
 5977SOL     OW18829   0.761   5.990   0.662
 5977SOL    HW118830   0.692   5.984   0.734
 5977SOL    HW218831   0.837   6.048   0.693
 5978SOL     OW18832   3.446   5.532   1.522
 5978SOL    HW118833   3.526   5.560   1.469
 5978SOL    HW218834   3.454   5.435   1.545
 5979SOL     OW18835   6.918   0.745   2.015
 5979SOL    HW118836   6.926   0.751   1.915
 5979SOL    HW218837   7.007   0.761   2.056
 5980SOL     OW18838   3.785   3.051   1.342
 5980SOL    HW118839   3.756   3.070   1.436
 5980SOL    HW218840   3.827   3.134   1.303
 5981SOL     OW18841   5.084   1.732   0.147
 5981SOL    HW118842   5.110   1.778   0.233
 5981SOL    HW218843   5.035   1.648   0.168
 5982SOL     OW18844   6.240   2.062   2.786
 5982SOL    HW118845   6.221   2.131   2.855
 5982SOL    HW218846   6.157   2.009   2.769
 5983SOL     OW18847   1.289   1.343   4.095
 5983SOL    HW118848   1.302   1.272   4.164
 5983SOL    HW218849   1.377   1.382   4.070
 5984SOL     OW18850   5.434   6.742   3.178
 5984SOL    HW118851   5.343   6.781   3.192
 5984SOL    HW218852   5.481   6.791   3.105
 5985SOL     OW18853   6.773   2.845   3.397
 5985SOL    HW118854   6.704   2.833   3.326
 5985SOL    HW218855   6.864   2.839   3.357
 5986SOL     OW18856   3.613   3.599   5.297
 5986SOL    HW118857   3.547   3.544   5.348
 5986SOL    HW218858   3.578   3.692   5.285
 5987SOL     OW18859   5.488   0.682   4.945
 5987SOL    HW118860   5.512   0.588   4.967
 5987SOL    HW218861   5.414   0.684   4.878
 5988SOL     OW18862   3.644   0.806   6.932
 5988SOL    HW118863   3.612   0.840   6.843
 5988SOL    HW218864   3.740   0.829   6.944
 5989SOL     OW18865   1.454   5.210   5.602
 5989SOL    HW118866   1.365   5.226   5.643
 5989SOL    HW218867   1.468   5.111   5.590
 5990SOL     OW18868   3.899   4.259   0.258
 5990SOL    HW118869   3.960   4.209   0.319
 5990SOL    HW218870   3.949   4.287   0.176
 5991SOL     OW18871   4.480   6.155   6.956
 5991SOL    HW118872   4.454   6.077   6.898
 5991SOL    HW218873   4.397   6.203   6.986
 5992SOL     OW18874   3.164   6.626   1.995
 5992SOL    HW118875   3.248   6.660   1.952
 5992SOL    HW218876   3.099   6.599   1.924
 5993SOL     OW18877   5.322   4.241   6.493
 5993SOL    HW118878   5.320   4.165   6.428
 5993SOL    HW218879   5.369   4.212   6.577
 5994SOL     OW18880   6.616   2.846   0.940
 5994SOL    HW118881   6.711   2.818   0.955
 5994SOL    HW218882   6.601   2.935   0.983
 5995SOL     OW18883   4.916   2.848   1.981
 5995SOL    HW118884   4.863   2.931   1.996
 5995SOL    HW218885   4.865   2.787   1.920
 5996SOL     OW18886   1.203   5.146   1.580
 5996SOL    HW118887   1.238   5.237   1.603
 5996SOL    HW218888   1.161   5.105   1.661
 5997SOL     OW18889   1.338   6.559   3.280
 5997SOL    HW118890   1.287   6.522   3.203
 5997SOL    HW218891   1.418   6.608   3.245
 5998SOL     OW18892   5.995   0.930   2.081
 5998SOL    HW118893   6.039   0.901   2.166
 5998SOL    HW218894   5.944   0.853   2.042
 5999SOL     OW18895   2.617   3.145   1.202
 5999SOL    HW118896   2.600   3.121   1.107
 5999SOL    HW218897   2.547   3.104   1.260
 6000SOL     OW18898   0.801   6.223   0.404
 6000SOL    HW118899   0.782   6.137   0.451
 6000SOL    HW218900   0.745   6.296   0.444
 6001SOL     OW18901   6.236   5.097   6.684
 6001SOL    HW118902   6.298   5.062   6.614
 6001SOL    HW218903   6.260   5.191   6.707
 6002SOL     OW18904   6.428   0.084   5.557
 6002SOL    HW118905   6.383   0.116   5.640
 6002SOL    HW218906   6.505   0.025   5.580
 6003SOL     OW18907   5.565   2.504   4.680
 6003SOL    HW118908   5.644   2.565   4.670
 6003SOL    HW218909   5.558   2.446   4.599
 6004SOL     OW18910   6.419   2.374   3.754
 6004SOL    HW118911   6.482   2.450   3.748
 6004SOL    HW218912   6.468   2.292   3.784
 6005SOL     OW18913   6.014   4.787   4.825
 6005SOL    HW118914   6.102   4.755   4.790
 6005SOL    HW218915   5.943   4.772   4.755
 6006SOL     OW18916   3.005   0.897   5.231
 6006SOL    HW118917   2.907   0.917   5.239
 6006SOL    HW218918   3.052   0.928   5.314
 6007SOL     OW18919   0.289   3.161   6.141
 6007SOL    HW118920   0.335   3.250   6.132
 6007SOL    HW218921   0.340   3.093   6.088
 6008SOL     OW18922   2.464   4.722   5.766
 6008SOL    HW118923   2.482   4.713   5.668
 6008SOL    HW218924   2.501   4.643   5.814
 6009SOL     OW18925   4.035   6.004   3.196
 6009SOL    HW118926   4.104   5.938   3.225
 6009SOL    HW218927   4.078   6.094   3.184
 6010SOL     OW18928   1.091   4.389   3.483
 6010SOL    HW118929   1.149   4.317   3.447
 6010SOL    HW218930   1.007   4.394   3.429
 6011SOL     OW18931   5.012   3.224   3.136
 6011SOL    HW118932   4.931   3.209   3.193
 6011SOL    HW218933   5.042   3.138   3.096
 6012SOL     OW18934   6.067   0.437   0.051
 6012SOL    HW118935   6.073   0.433   0.151
 6012SOL    HW218936   6.031   0.351   0.016
 6013SOL     OW18937   4.968   0.783   3.033
 6013SOL    HW118938   5.053   0.757   3.078
 6013SOL    HW218939   4.989   0.823   2.944
 6014SOL     OW18940   3.447   4.068   3.752
 6014SOL    HW118941   3.533   4.051   3.800
 6014SOL    HW218942   3.379   4.101   3.817
 6015SOL     OW18943   6.048   3.694   4.540
 6015SOL    HW118944   6.027   3.791   4.524
 6015SOL    HW218945   6.079   3.682   4.634
 6016SOL     OW18946   5.973   1.744   5.861
 6016SOL    HW118947   5.951   1.759   5.958
 6016SOL    HW218948   5.940   1.822   5.807
 6017SOL     OW18949   6.900   4.884   4.627
 6017SOL    HW118950   6.938   4.792   4.636
 6017SOL    HW218951   6.830   4.898   4.697
 6018SOL     OW18952   3.228   1.459   5.356
 6018SOL    HW118953   3.310   1.484   5.406
 6018SOL    HW218954   3.195   1.538   5.303
 6019SOL     OW18955   0.707   3.045   5.562
 6019SOL    HW118956   0.760   2.970   5.602
 6019SOL    HW218957   0.726   3.051   5.464
 6020SOL     OW18958   1.210   5.434   0.255
 6020SOL    HW118959   1.179   5.491   0.331
 6020SOL    HW218960   1.172   5.469   0.169
 6021SOL     OW18961   4.646   0.140   3.384
 6021SOL    HW118962   4.570   0.206   3.386
 6021SOL    HW218963   4.720   0.177   3.329
 6022SOL     OW18964   0.085   1.674   3.556
 6022SOL    HW118965   0.174   1.715   3.577
 6022SOL    HW218966   0.096   1.601   3.489
 6023SOL     OW18967   5.284   0.703   2.059
 6023SOL    HW118968   5.331   0.764   1.995
 6023SOL    HW218969   5.185   0.708   2.044
 6024SOL     OW18970   0.849   4.526   0.943
 6024SOL    HW118971   0.813   4.607   0.897
 6024SOL    HW218972   0.891   4.552   1.029
 6025SOL     OW18973   3.407   1.459   3.042
 6025SOL    HW118974   3.479   1.512   2.997
 6025SOL    HW218975   3.318   1.484   3.003
 6026SOL     OW18976   0.218   5.613   4.881
 6026SOL    HW118977   0.234   5.514   4.882
 6026SOL    HW218978   0.153   5.637   4.954
 6027SOL     OW18979   0.442   3.537   6.062
 6027SOL    HW118980   0.378   3.590   6.007
 6027SOL    HW218981   0.414   3.541   6.158
 6028SOL     OW18982   5.332   4.757   1.041
 6028SOL    HW118983   5.397   4.822   1.003
 6028SOL    HW218984   5.315   4.780   1.137
 6029SOL     OW18985   2.743   6.936   4.121
 6029SOL    HW118986   2.779   7.015   4.171
 6029SOL    HW218987   2.815   6.895   4.066
 6030SOL     OW18988   5.192   4.106   4.313
 6030SOL    HW118989   5.240   4.023   4.283
 6030SOL    HW218990   5.107   4.115   4.261
 6031SOL     OW18991   2.752   5.175   4.342
 6031SOL    HW118992   2.691   5.160   4.420
 6031SOL    HW218993   2.843   5.198   4.375
 6032SOL     OW18994   2.550   4.812   2.924
 6032SOL    HW118995   2.508   4.727   2.954
 6032SOL    HW218996   2.616   4.843   2.993
 6033SOL     OW18997   1.893   3.024   2.867
 6033SOL    HW118998   1.877   2.929   2.896
 6033SOL    HW218999   1.858   3.086   2.937
 6034SOL     OW19000   0.992   0.587   6.277
 6034SOL    HW119001   0.946   0.656   6.331
 6034SOL    HW219002   0.975   0.496   6.316
 6035SOL     OW19003   1.374   0.394   2.316
 6035SOL    HW119004   1.400   0.368   2.409
 6035SOL    HW219005   1.428   0.473   2.287
 6036SOL     OW19006   5.802   4.854   1.507
 6036SOL    HW119007   5.845   4.778   1.555
 6036SOL    HW219008   5.739   4.820   1.437
 6037SOL     OW19009   3.486   6.895   0.623
 6037SOL    HW119010   3.547   6.861   0.694
 6037SOL    HW219011   3.393   6.904   0.660
 6038SOL     OW19012   0.917   2.544   6.645
 6038SOL    HW119013   0.993   2.544   6.710
 6038SOL    HW219014   0.889   2.638   6.626
 6039SOL     OW19015   4.021   3.215   3.339
 6039SOL    HW119016   4.042   3.207   3.437
 6039SOL    HW219017   4.003   3.311   3.316
 6040SOL     OW19018   1.695   1.437   0.477
 6040SOL    HW119019   1.658   1.344   0.475
 6040SOL    HW219020   1.789   1.434   0.514
 6041SOL     OW19021   3.116   2.037   5.156
 6041SOL    HW119022   3.055   2.069   5.229
 6041SOL    HW219023   3.149   2.115   5.103
 6042SOL     OW19024   3.802   6.667   2.884
 6042SOL    HW119025   3.763   6.576   2.902
 6042SOL    HW219026   3.836   6.669   2.790
 6043SOL     OW19027   0.953   0.628   4.599
 6043SOL    HW119028   0.946   0.722   4.632
 6043SOL    HW219029   0.998   0.627   4.509
 6044SOL     OW19030   2.551   2.258   1.689
 6044SOL    HW119031   2.564   2.180   1.629
 6044SOL    HW219032   2.455   2.264   1.716
 6045SOL     OW19033   5.714   3.220   3.598
 6045SOL    HW119034   5.634   3.273   3.569
 6045SOL    HW219035   5.730   3.147   3.532
 6046SOL     OW19036   3.384   2.742   0.403
 6046SOL    HW119037   3.357   2.812   0.468
 6046SOL    HW219038   3.328   2.749   0.321
 6047SOL     OW19039   5.289   2.114   1.575
 6047SOL    HW119040   5.269   2.169   1.493
 6047SOL    HW219041   5.214   2.050   1.591
 6048SOL     OW19042   5.418   5.394   4.891
 6048SOL    HW119043   5.419   5.440   4.980
 6048SOL    HW219044   5.449   5.300   4.902
 6049SOL     OW19045   4.849   4.322   6.437
 6049SOL    HW119046   4.934   4.321   6.489
 6049SOL    HW219047   4.776   4.280   6.491
 6050SOL     OW19048   1.784   5.146   0.864
 6050SOL    HW119049   1.826   5.224   0.910
 6050SOL    HW219050   1.802   5.063   0.916
 6051SOL     OW19051   1.921   6.550   2.533
 6051SOL    HW119052   1.875   6.553   2.445
 6051SOL    HW219053   2.008   6.502   2.524
 6052SOL     OW19054   5.135   1.516   1.701
 6052SOL    HW119055   5.203   1.537   1.771
 6052SOL    HW219056   5.171   1.538   1.611
 6053SOL     OW19057   4.067   0.643   6.117
 6053SOL    HW119058   4.117   0.604   6.040
 6053SOL    HW219059   4.061   0.576   6.190
 6054SOL     OW19060   2.851   4.324   0.897
 6054SOL    HW119061   2.877   4.228   0.882
 6054SOL    HW219062   2.759   4.329   0.935
 6055SOL     OW19063   3.745   5.800   5.893
 6055SOL    HW119064   3.781   5.838   5.808
 6055SOL    HW219065   3.761   5.702   5.895
 6056SOL     OW19066   4.964   3.425   5.241
 6056SOL    HW119067   4.999   3.489   5.310
 6056SOL    HW219068   4.877   3.460   5.206
 6057SOL     OW19069   6.227   0.420   2.549
 6057SOL    HW119070   6.261   0.491   2.487
 6057SOL    HW219071   6.253   0.330   2.514
 6058SOL     OW19072   5.207   4.051   0.525
 6058SOL    HW119073   5.233   4.053   0.622
 6058SOL    HW219074   5.268   4.111   0.473
 6059SOL     OW19075   4.904   4.540   5.822
 6059SOL    HW119076   4.971   4.614   5.818
 6059SOL    HW219077   4.815   4.577   5.852
 6060SOL     OW19078   2.261   3.198   6.906
 6060SOL    HW119079   2.162   3.184   6.917
 6060SOL    HW219080   2.302   3.210   6.996
 6061SOL     OW19081   4.625   4.194   0.621
 6061SOL    HW119082   4.670   4.147   0.697
 6061SOL    HW219083   4.552   4.136   0.584
 6062SOL     OW19084   2.419   1.674   6.658
 6062SOL    HW119085   2.399   1.725   6.742
 6062SOL    HW219086   2.375   1.584   6.662
 6063SOL     OW19087   3.623   3.291   5.798
 6063SOL    HW119088   3.576   3.380   5.801
 6063SOL    HW219089   3.698   3.291   5.864
 6064SOL     OW19090   1.553   1.289   1.119
 6064SOL    HW119091   1.543   1.380   1.078
 6064SOL    HW219092   1.630   1.289   1.181
 6065SOL     OW19093   0.367   6.032   1.799
 6065SOL    HW119094   0.415   6.030   1.886
 6065SOL    HW219095   0.268   6.038   1.815
 6066SOL     OW19096   5.525   1.269   5.828
 6066SOL    HW119097   5.567   1.208   5.761
 6066SOL    HW219098   5.588   1.344   5.850
 6067SOL     OW19099   4.687   0.841   5.512
 6067SOL    HW119100   4.720   0.934   5.520
 6067SOL    HW219101   4.678   0.817   5.415
 6068SOL     OW19102   4.976   2.642   4.557
 6068SOL    HW119103   5.034   2.712   4.599
 6068SOL    HW219104   4.880   2.665   4.573
 6069SOL     OW19105   6.558   3.813   4.997
 6069SOL    HW119106   6.462   3.840   4.996
 6069SOL    HW219107   6.601   3.842   5.082
 6070SOL     OW19108   2.920   3.000   0.937
 6070SOL    HW119109   2.861   2.924   0.965
 6070SOL    HW219110   2.872   3.086   0.947
 6071SOL     OW19111   1.024   5.797   4.371
 6071SOL    HW119112   1.079   5.718   4.400
 6071SOL    HW219113   0.967   5.772   4.293
 6072SOL     OW19114   0.501   0.694   1.802
 6072SOL    HW119115   0.551   0.627   1.748
 6072SOL    HW219116   0.566   0.760   1.842
 6073SOL     OW19117   5.277   3.075   1.007
 6073SOL    HW119118   5.283   3.127   0.921
 6073SOL    HW219119   5.183   3.079   1.041
 6074SOL     OW19120   1.776   6.084   1.752
 6074SOL    HW119121   1.783   6.171   1.703
 6074SOL    HW219122   1.794   6.100   1.849
 6075SOL     OW19123   4.788   0.126   5.000
 6075SOL    HW119124   4.727   0.055   5.037
 6075SOL    HW219125   4.737   0.184   4.937
 6076SOL     OW19126   2.537   5.356   3.192
 6076SOL    HW119127   2.458   5.397   3.237
 6076SOL    HW219128   2.561   5.410   3.110
 6077SOL     OW19129   6.578   5.813   0.703
 6077SOL    HW119130   6.506   5.768   0.651
 6077SOL    HW219131   6.538   5.861   0.781
 6078SOL     OW19132   4.576   5.098   0.209
 6078SOL    HW119133   4.566   5.133   0.115
 6078SOL    HW219134   4.651   5.032   0.212
 6079SOL     OW19135   5.302   4.372   6.889
 6079SOL    HW119136   5.210   4.412   6.892
 6079SOL    HW219137   5.302   4.284   6.934
 6080SOL     OW19138   0.148   5.668   0.706
 6080SOL    HW119139   0.227   5.636   0.655
 6080SOL    HW219140   0.148   5.626   0.797
 6081SOL     OW19141   0.160   2.505   5.422
 6081SOL    HW119142   0.245   2.501   5.475
 6081SOL    HW219143   0.180   2.541   5.330
 6082SOL     OW19144   3.449   6.680   2.702
 6082SOL    HW119145   3.528   6.729   2.665
 6082SOL    HW219146   3.367   6.706   2.650
 6083SOL     OW19147   5.810   5.714   0.684
 6083SOL    HW119148   5.868   5.773   0.628
 6083SOL    HW219149   5.774   5.766   0.762
 6084SOL     OW19150   0.818   6.782   2.060
 6084SOL    HW119151   0.739   6.843   2.068
 6084SOL    HW219152   0.900   6.836   2.042
 6085SOL     OW19153   6.823   5.960   6.737
 6085SOL    HW119154   6.899   5.897   6.753
 6085SOL    HW219155   6.838   6.044   6.789
 6086SOL     OW19156   2.570   2.071   5.845
 6086SOL    HW119157   2.632   2.025   5.781
 6086SOL    HW219158   2.479   2.078   5.803
 6087SOL     OW19159   3.682   5.717   0.977
 6087SOL    HW119160   3.642   5.752   0.892
 6087SOL    HW219161   3.752   5.649   0.956
 6088SOL     OW19162   5.690   0.069   4.609
 6088SOL    HW119163   5.732   0.061   4.699
 6088SOL    HW219164   5.760   0.082   4.540
 6089SOL     OW19165   6.215   2.354   3.064
 6089SOL    HW119166   6.293   2.304   3.101
 6089SOL    HW219167   6.222   2.450   3.089
 6090SOL     OW19168   2.275   4.931   4.673
 6090SOL    HW119169   2.311   4.933   4.580
 6090SOL    HW219170   2.237   4.840   4.693
 6091SOL     OW19171   2.643   1.606   0.285
 6091SOL    HW119172   2.569   1.594   0.351
 6091SOL    HW219173   2.640   1.531   0.218
 6092SOL     OW19174   4.801   0.937   1.889
 6092SOL    HW119175   4.865   0.991   1.835
 6092SOL    HW219176   4.709   0.947   1.852
 6093SOL     OW19177   2.134   2.359   1.613
 6093SOL    HW119178   2.151   2.260   1.610
 6093SOL    HW219179   2.129   2.394   1.519
 6094SOL     OW19180   1.473   5.917   3.199
 6094SOL    HW119181   1.526   5.943   3.118
 6094SOL    HW219182   1.427   5.998   3.236
 6095SOL     OW19183   4.836   4.933   6.641
 6095SOL    HW119184   4.821   4.877   6.559
 6095SOL    HW219185   4.874   5.021   6.614
 6096SOL     OW19186   6.214   6.591   2.426
 6096SOL    HW119187   6.255   6.551   2.344
 6096SOL    HW219188   6.268   6.670   2.455
 6097SOL     OW19189   1.943   5.307   2.314
 6097SOL    HW119190   1.939   5.275   2.408
 6097SOL    HW219191   2.037   5.330   2.290
 6098SOL     OW19192   0.304   1.433   5.911
 6098SOL    HW119193   0.368   1.365   5.947
 6098SOL    HW219194   0.354   1.515   5.884
 6099SOL     OW19195   5.088   5.832   5.332
 6099SOL    HW119196   5.105   5.920   5.376
 6099SOL    HW219197   5.085   5.844   5.233
 6100SOL     OW19198   6.591   6.005   2.472
 6100SOL    HW119199   6.529   5.969   2.402
 6100SOL    HW219200   6.579   6.104   2.478
 6101SOL     OW19201   6.985   2.806   2.873
 6101SOL    HW119202   6.934   2.757   2.944
 6101SOL    HW219203   6.982   2.753   2.788
 6102SOL     OW19204   4.163   5.270   2.876
 6102SOL    HW119205   4.198   5.176   2.873
 6102SOL    HW219206   4.216   5.323   2.942
 6103SOL     OW19207   6.268   0.909   1.091
 6103SOL    HW119208   6.339   0.951   1.034
 6103SOL    HW219209   6.200   0.866   1.032
 6104SOL     OW19210   5.541   6.757   5.109
 6104SOL    HW119211   5.536   6.825   5.035
 6104SOL    HW219212   5.596   6.679   5.078
 6105SOL     OW19213   1.729   5.478   6.068
 6105SOL    HW119214   1.648   5.443   6.115
 6105SOL    HW219215   1.744   5.574   6.095
 6106SOL     OW19216   1.281   5.042   6.761
 6106SOL    HW119217   1.323   5.055   6.671
 6106SOL    HW219218   1.327   4.967   6.809
 6107SOL     OW19219   5.183   5.466   5.255
 6107SOL    HW119220   5.250   5.409   5.303
 6107SOL    HW219221   5.231   5.524   5.189
 6108SOL     OW19222   2.449   2.554   3.600
 6108SOL    HW119223   2.439   2.610   3.517
 6108SOL    HW219224   2.365   2.559   3.653
 6109SOL     OW19225   5.537   1.292   5.441
 6109SOL    HW119226   5.571   1.252   5.525
 6109SOL    HW219227   5.487   1.223   5.388
 6110SOL     OW19228   2.658   2.673   0.673
 6110SOL    HW119229   2.651   2.771   0.656
 6110SOL    HW219230   2.752   2.651   0.701
 6111SOL     OW19231   1.200   3.267   2.394
 6111SOL    HW119232   1.131   3.306   2.455
 6111SOL    HW219233   1.250   3.341   2.348
 6112SOL     OW19234   4.116   0.932   2.719
 6112SOL    HW119235   4.068   1.020   2.714
 6112SOL    HW219236   4.196   0.940   2.778
 6113SOL     OW19237   2.469   2.977   6.726
 6113SOL    HW119238   2.544   3.023   6.680
 6113SOL    HW219239   2.470   3.001   6.823
 6114SOL     OW19240   4.831   3.899   2.827
 6114SOL    HW119241   4.845   3.800   2.816
 6114SOL    HW219242   4.796   3.937   2.742
 6115SOL     OW19243   6.102   0.931   4.702
 6115SOL    HW119244   6.108   0.832   4.690
 6115SOL    HW219245   6.006   0.958   4.709
 6116SOL     OW19246   3.718   1.366   5.856
 6116SOL    HW119247   3.770   1.410   5.929
 6116SOL    HW219248   3.759   1.278   5.834
 6117SOL     OW19249   2.074   1.997   3.488
 6117SOL    HW119250   2.122   1.915   3.457
 6117SOL    HW219251   2.129   2.077   3.465
 6118SOL     OW19252   5.952   1.234   1.188
 6118SOL    HW119253   6.042   1.252   1.146
 6118SOL    HW219254   5.954   1.263   1.283
 6119SOL     OW19255   1.490   3.968   0.413
 6119SOL    HW119256   1.393   3.983   0.394
 6119SOL    HW219257   1.537   4.056   0.423
 6120SOL     OW19258   1.947   6.354   5.716
 6120SOL    HW119259   1.851   6.345   5.692
 6120SOL    HW219260   1.956   6.366   5.815
 6121SOL     OW19261   1.129   3.415   5.338
 6121SOL    HW119262   1.137   3.320   5.367
 6121SOL    HW219263   1.036   3.432   5.305
 6122SOL     OW19264   4.177   5.435   6.893
 6122SOL    HW119265   4.132   5.470   6.811
 6122SOL    HW219266   4.168   5.501   6.967
 6123SOL     OW19267   4.915   6.794   6.036
 6123SOL    HW119268   4.927   6.787   6.135
 6123SOL    HW219269   4.936   6.705   5.994
 6124SOL     OW19270   1.021   6.972   6.231
 6124SOL    HW119271   0.952   6.967   6.159
 6124SOL    HW219272   1.095   6.907   6.212
 6125SOL     OW19273   2.263   4.129   0.385
 6125SOL    HW119274   2.349   4.161   0.344
 6125SOL    HW219275   2.208   4.084   0.315
 6126SOL     OW19276   0.161   0.866   4.986
 6126SOL    HW119277   0.177   0.768   4.978
 6126SOL    HW219278   0.106   0.884   5.068
 6127SOL     OW19279   4.174   0.258   1.708
 6127SOL    HW119280   4.271   0.280   1.719
 6127SOL    HW219281   4.160   0.161   1.728
 6128SOL     OW19282   5.332   5.543   0.950
 6128SOL    HW119283   5.254   5.486   0.926
 6128SOL    HW219284   5.302   5.616   1.012
 6129SOL     OW19285   0.859   3.394   2.647
 6129SOL    HW119286   0.834   3.353   2.734
 6129SOL    HW219287   0.843   3.328   2.573
 6130SOL     OW19288   4.972   2.652   2.706
 6130SOL    HW119289   4.971   2.647   2.606
 6130SOL    HW219290   5.061   2.685   2.738
 6131SOL     OW19291   0.701   1.649   3.210
 6131SOL    HW119292   0.607   1.682   3.216
 6131SOL    HW219293   0.711   1.567   3.267
 6132SOL     OW19294   3.484   1.969   6.554
 6132SOL    HW119295   3.475   1.989   6.651
 6132SOL    HW219296   3.445   1.879   6.534
 6133SOL     OW19297   2.182   3.218   3.082
 6133SOL    HW119298   2.186   3.219   2.982
 6133SOL    HW219299   2.116   3.287   3.113
 6134SOL     OW19300   4.435   6.514   6.915
 6134SOL    HW119301   4.388   6.535   6.830
 6134SOL    HW219302   4.525   6.476   6.895
 6135SOL     OW19303   0.485   5.898   1.542
 6135SOL    HW119304   0.412   5.917   1.608
 6135SOL    HW219305   0.455   5.927   1.451
 6136SOL     OW19306   1.051   2.367   1.457
 6136SOL    HW119307   0.984   2.354   1.383
 6136SOL    HW219308   1.015   2.329   1.542
 6137SOL     OW19309   0.138   4.181   2.665
 6137SOL    HW119310   0.067   4.206   2.599
 6137SOL    HW219311   0.227   4.181   2.619
 6138SOL     OW19312   3.683   0.054   3.493
 6138SOL    HW119313   3.585   0.042   3.476
 6138SOL    HW219314   3.701   0.149   3.518
 6139SOL     OW19315   1.061   0.125   5.459
 6139SOL    HW119316   1.096   0.036   5.489
 6139SOL    HW219317   0.961   0.121   5.456
 6140SOL     OW19318   0.623   0.462   2.212
 6140SOL    HW119319   0.672   0.401   2.274
 6140SOL    HW219320   0.546   0.412   2.171
 6141SOL     OW19321   0.280   6.826   6.673
 6141SOL    HW119322   0.214   6.758   6.640
 6141SOL    HW219323   0.292   6.896   6.603
 6142SOL     OW19324   0.146   5.422   6.329
 6142SOL    HW119325   0.106   5.330   6.335
 6142SOL    HW219326   0.186   5.447   6.417
 6143SOL     OW19327   6.889   4.293   0.861
 6143SOL    HW119328   6.954   4.220   0.841
 6143SOL    HW219329   6.920   4.378   0.819
 6144SOL     OW19330   5.349   5.211   4.070
 6144SOL    HW119331   5.250   5.223   4.056
 6144SOL    HW219332   5.398   5.248   3.991
 6145SOL     OW19333   5.391   4.996   4.225
 6145SOL    HW119334   5.468   4.946   4.186
 6145SOL    HW219335   5.388   5.088   4.186
 6146SOL     OW19336   3.277   5.670   3.674
 6146SOL    HW119337   3.281   5.679   3.774
 6146SOL    HW219338   3.336   5.739   3.633
 6147SOL     OW19339   2.217   2.296   5.209
 6147SOL    HW119340   2.136   2.353   5.199
 6147SOL    HW219341   2.204   2.210   5.161
 6148SOL     OW19342   4.274   6.134   5.335
 6148SOL    HW119343   4.238   6.200   5.269
 6148SOL    HW219344   4.340   6.179   5.395
 6149SOL     OW19345   2.626   6.687   1.640
 6149SOL    HW119346   2.527   6.698   1.636
 6149SOL    HW219347   2.664   6.696   1.547
 6150SOL     OW19348   6.002   4.071   6.974
 6150SOL    HW119349   6.037   3.986   6.936
 6150SOL    HW219350   5.960   4.125   6.900
 6151SOL     OW19351   6.216   4.926   5.584
 6151SOL    HW119352   6.311   4.936   5.613
 6151SOL    HW219353   6.163   5.005   5.615
 6152SOL     OW19354   0.854   6.196   4.600
 6152SOL    HW119355   0.880   6.282   4.556
 6152SOL    HW219356   0.927   6.128   4.587
 6153SOL     OW19357   5.999   5.172   1.150
 6153SOL    HW119358   6.013   5.244   1.219
 6153SOL    HW219359   6.073   5.175   1.083
 6154SOL     OW19360   5.665   3.281   2.537
 6154SOL    HW119361   5.632   3.370   2.507
 6154SOL    HW219362   5.707   3.233   2.460
 6155SOL     OW19363   3.207   1.101   2.788
 6155SOL    HW119364   3.232   1.012   2.748
 6155SOL    HW219365   3.289   1.155   2.804
 6156SOL     OW19366   4.425   4.722   1.605
 6156SOL    HW119367   4.374   4.807   1.600
 6156SOL    HW219368   4.368   4.651   1.645
 6157SOL     OW19369   0.290   2.386   3.106
 6157SOL    HW119370   0.241   2.301   3.126
 6157SOL    HW219371   0.386   2.376   3.131
 6158SOL     OW19372   3.879   2.235   6.279
 6158SOL    HW119373   3.837   2.179   6.351
 6158SOL    HW219374   3.953   2.184   6.236
 6159SOL     OW19375   4.104   2.516   0.278
 6159SOL    HW119376   4.194   2.483   0.248
 6159SOL    HW219377   4.087   2.485   0.371
 6160SOL     OW19378   5.858   0.329   6.433
 6160SOL    HW119379   5.877   0.308   6.337
 6160SOL    HW219380   5.849   0.244   6.485
 6161SOL     OW19381   5.689   1.666   0.095
 6161SOL    HW119382   5.755   1.600   0.132
 6161SOL    HW219383   5.733   1.756   0.089
 6162SOL     OW19384   5.841   6.630   3.937
 6162SOL    HW119385   5.743   6.612   3.933
 6162SOL    HW219386   5.876   6.603   4.027
 6163SOL     OW19387   5.284   5.979   2.209
 6163SOL    HW119388   5.324   6.002   2.298
 6163SOL    HW219389   5.335   6.025   2.136
 6164SOL     OW19390   3.365   4.098   4.539
 6164SOL    HW119391   3.266   4.091   4.551
 6164SOL    HW219392   3.409   4.121   4.626
 6165SOL     OW19393   4.574   1.485   6.144
 6165SOL    HW119394   4.605   1.502   6.238
 6165SOL    HW219395   4.591   1.566   6.088
 6166SOL     OW19396   5.960   1.483   0.401
 6166SOL    HW119397   5.920   1.403   0.355
 6166SOL    HW219398   5.887   1.543   0.434
 6167SOL     OW19399   1.153   4.840   2.925
 6167SOL    HW119400   1.138   4.766   2.991
 6167SOL    HW219401   1.201   4.915   2.971
 6168SOL     OW19402   0.434   3.340   3.616
 6168SOL    HW119403   0.517   3.350   3.671
 6168SOL    HW219404   0.392   3.430   3.604
 6169SOL     OW19405   1.300   1.933   0.182
 6169SOL    HW119406   1.392   1.946   0.219
 6169SOL    HW219407   1.234   1.980   0.240
 6170SOL     OW19408   3.253   4.137   5.676
 6170SOL    HW119409   3.346   4.174   5.675
 6170SOL    HW219410   3.188   4.211   5.695
 6171SOL     OW19411   1.808   3.467   1.630
 6171SOL    HW119412   1.893   3.519   1.639
 6171SOL    HW219413   1.742   3.498   1.699
 6172SOL     OW19414   1.165   0.882   3.552
 6172SOL    HW119415   1.207   0.963   3.593
 6172SOL    HW219416   1.108   0.836   3.620
 6173SOL     OW19417   6.545   4.971   2.334
 6173SOL    HW119418   6.476   4.985   2.263
 6173SOL    HW219419   6.563   5.057   2.381
 6174SOL     OW19420   6.170   5.263   2.777
 6174SOL    HW119421   6.101   5.242   2.846
 6174SOL    HW219422   6.209   5.353   2.795
 6175SOL     OW19423   5.407   0.613   3.836
 6175SOL    HW119424   5.415   0.690   3.774
 6175SOL    HW219425   5.478   0.618   3.906
 6176SOL     OW19426   6.852   2.626   0.241
 6176SOL    HW119427   6.830   2.534   0.206
 6176SOL    HW219428   6.903   2.676   0.172
 6177SOL     OW19429   6.160   1.763   1.553
 6177SOL    HW119430   6.097   1.802   1.484
 6177SOL    HW219431   6.108   1.740   1.635
 6178SOL     OW19432   4.574   5.005   2.672
 6178SOL    HW119433   4.558   4.914   2.710
 6178SOL    HW219434   4.610   4.997   2.579
 6179SOL     OW19435   6.538   4.765   4.652
 6179SOL    HW119436   6.596   4.813   4.587
 6179SOL    HW219437   6.501   4.830   4.719
 6180SOL     OW19438   3.436   6.016   6.494
 6180SOL    HW119439   3.446   6.081   6.570
 6180SOL    HW219440   3.517   6.021   6.436
 6181SOL     OW19441   4.296   6.628   1.128
 6181SOL    HW119442   4.246   6.622   1.041
 6181SOL    HW219443   4.268   6.710   1.177
 6182SOL     OW19444   5.449   3.543   5.618
 6182SOL    HW119445   5.399   3.629   5.606
 6182SOL    HW219446   5.434   3.485   5.538
 6183SOL     OW19447   2.800   0.289   2.861
 6183SOL    HW119448   2.754   0.372   2.891
 6183SOL    HW219449   2.852   0.308   2.778
 6184SOL     OW19450   1.183   6.889   6.544
 6184SOL    HW119451   1.259   6.941   6.584
 6184SOL    HW219452   1.096   6.921   6.583
 6185SOL     OW19453   0.321   4.561   6.182
 6185SOL    HW119454   0.366   4.585   6.269
 6185SOL    HW219455   0.300   4.464   6.181
 6186SOL     OW19456   5.814   6.874   5.148
 6186SOL    HW119457   5.831   6.959   5.098
 6186SOL    HW219458   5.765   6.895   5.233
 6187SOL     OW19459   4.568   4.447   4.415
 6187SOL    HW119460   4.652   4.473   4.463
 6187SOL    HW219461   4.490   4.452   4.478
 6188SOL     OW19462   2.321   0.284   0.604
 6188SOL    HW119463   2.298   0.239   0.517
 6188SOL    HW219464   2.397   0.235   0.647
 6189SOL     OW19465   4.740   4.166   4.078
 6189SOL    HW119466   4.734   4.144   4.175
 6189SOL    HW219467   4.830   4.138   4.043
 6190SOL     OW19468   6.611   3.725   6.289
 6190SOL    HW119469   6.652   3.677   6.212
 6190SOL    HW219470   6.668   3.713   6.370
 6191SOL     OW19471   4.282   2.960   6.897
 6191SOL    HW119472   4.303   2.867   6.925
 6191SOL    HW219473   4.240   2.960   6.806
 6192SOL     OW19474   2.852   3.486   6.492
 6192SOL    HW119475   2.870   3.570   6.440
 6192SOL    HW219476   2.796   3.424   6.437
 6193SOL     OW19477   5.018   0.900   2.818
 6193SOL    HW119478   5.060   0.989   2.799
 6193SOL    HW219479   5.027   0.841   2.738
 6194SOL     OW19480   0.939   6.749   0.421
 6194SOL    HW119481   0.865   6.806   0.384
 6194SOL    HW219482   1.022   6.764   0.367
 6195SOL     OW19483   3.845   5.936   5.683
 6195SOL    HW119484   3.850   5.873   5.605
 6195SOL    HW219485   3.774   6.004   5.666
 6196SOL     OW19486   5.924   2.186   1.484
 6196SOL    HW119487   5.862   2.120   1.527
 6196SOL    HW219488   5.872   2.265   1.453
 6197SOL     OW19489   4.353   4.555   0.540
 6197SOL    HW119490   4.255   4.555   0.522
 6197SOL    HW219491   4.377   4.476   0.597
 6198SOL     OW19492   2.988   5.294   2.272
 6198SOL    HW119493   3.042   5.265   2.351
 6198SOL    HW219494   2.970   5.392   2.280
 6199SOL     OW19495   0.833   0.033   0.953
 6199SOL    HW119496   0.904   7.008   0.898
 6199SOL    HW219497   0.808   6.993   1.029
 6200SOL     OW19498   2.092   1.139   5.313
 6200SOL    HW119499   2.016   1.202   5.330
 6200SOL    HW219500   2.161   1.149   5.385
 6201SOL     OW19501   1.607   3.767   5.187
 6201SOL    HW119502   1.593   3.668   5.198
 6201SOL    HW219503   1.703   3.784   5.164
 6202SOL     OW19504   4.116   1.635   1.407
 6202SOL    HW119505   4.075   1.553   1.447
 6202SOL    HW219506   4.147   1.696   1.480
 6203SOL     OW19507   5.708   6.658   2.973
 6203SOL    HW119508   5.707   6.603   2.890
 6203SOL    HW219509   5.675   6.603   3.050
 6204SOL     OW19510   0.883   5.100   5.185
 6204SOL    HW119511   0.808   5.135   5.128
 6204SOL    HW219512   0.876   5.139   5.277
 6205SOL     OW19513   5.995   6.548   7.012
 6205SOL    HW119514   5.977   6.493   0.074
 6205SOL    HW219515   6.054   6.626   0.017
 6206SOL     OW19516   6.792   0.543   2.857
 6206SOL    HW119517   6.798   0.518   2.954
 6206SOL    HW219518   6.880   0.579   2.827
 6207SOL     OW19519   1.674   4.650   4.413
 6207SOL    HW119520   1.771   4.668   4.396
 6207SOL    HW219521   1.664   4.600   4.499
 6208SOL     OW19522   6.174   1.653   6.302
 6208SOL    HW119523   6.182   1.740   6.253
 6208SOL    HW219524   6.103   1.660   6.372
 6209SOL     OW19525   4.554   5.642   6.827
 6209SOL    HW119526   4.625   5.712   6.830
 6209SOL    HW219527   4.558   5.594   6.739
 6210SOL     OW19528   5.811   4.385   4.112
 6210SOL    HW119529   5.864   4.304   4.088
 6210SOL    HW219530   5.870   4.466   4.108
 6211SOL     OW19531   3.066   6.170   5.098
 6211SOL    HW119532   3.001   6.245   5.112
 6211SOL    HW219533   3.102   6.139   5.186
 6212SOL     OW19534   2.366   5.017   2.867
 6212SOL    HW119535   2.287   4.957   2.860
 6212SOL    HW219536   2.449   4.964   2.849
 6213SOL     OW19537   5.074   0.642   0.021
 6213SOL    HW119538   5.024   0.586   0.088
 6213SOL    HW219539   5.148   0.691   0.068
 6214SOL     OW19540   4.397   5.089   4.119
 6214SOL    HW119541   4.410   4.990   4.120
 6214SOL    HW219542   4.300   5.111   4.124
 6215SOL     OW19543   4.037   2.062   0.575
 6215SOL    HW119544   4.065   2.149   0.615
 6215SOL    HW219545   4.053   2.063   0.477
 6216SOL     OW19546   6.379   2.151   2.391
 6216SOL    HW119547   6.293   2.182   2.350
 6216SOL    HW219548   6.393   2.196   2.478
 6217SOL     OW19549   0.332   3.127   2.767
 6217SOL    HW119550   0.425   3.092   2.768
 6217SOL    HW219551   0.306   3.154   2.860
 6218SOL     OW19552   3.337   5.127   5.687
 6218SOL    HW119553   3.238   5.117   5.684
 6218SOL    HW219554   3.361   5.224   5.686
 6219SOL     OW19555   0.896   1.886   4.290
 6219SOL    HW119556   0.945   1.973   4.290
 6219SOL    HW219557   0.813   1.894   4.236
 6220SOL     OW19558   1.602   2.893   5.429
 6220SOL    HW119559   1.509   2.891   5.392
 6220SOL    HW219560   1.665   2.922   5.358
 6221SOL     OW19561   6.357   5.637   6.587
 6221SOL    HW119562   6.378   5.709   6.653
 6221SOL    HW219563   6.261   5.641   6.562
 6222SOL     OW19564   1.350   6.090   1.010
 6222SOL    HW119565   1.417   6.145   1.059
 6222SOL    HW219566   1.369   6.092   0.912
 6223SOL     OW19567   0.379   4.489   4.771
 6223SOL    HW119568   0.476   4.468   4.786
 6223SOL    HW219569   0.349   4.447   4.686
 6224SOL     OW19570   2.644   2.050   6.097
 6224SOL    HW119571   2.722   2.103   6.131
 6224SOL    HW219572   2.640   2.056   5.998
 6225SOL     OW19573   3.440   3.571   1.104
 6225SOL    HW119574   3.473   3.591   1.197
 6225SOL    HW219575   3.484   3.488   1.070
 6226SOL     OW19576   5.880   1.601   5.657
 6226SOL    HW119577   5.914   1.647   5.576
 6226SOL    HW219578   5.928   1.635   5.738
 6227SOL     OW19579   3.784   5.525   5.934
 6227SOL    HW119580   3.769   5.440   5.883
 6227SOL    HW219581   3.770   5.508   6.031
 6228SOL     OW19582   1.212   2.568   2.794
 6228SOL    HW119583   1.211   2.667   2.812
 6228SOL    HW219584   1.221   2.518   2.880
 6229SOL     OW19585   0.548   2.538   2.823
 6229SOL    HW119586   0.594   2.449   2.820
 6229SOL    HW219587   0.449   2.525   2.815
 6230SOL     OW19588   1.088   1.257   3.931
 6230SOL    HW119589   1.006   1.265   3.988
 6230SOL    HW219590   1.169   1.274   3.987
 6231SOL     OW19591   6.903   4.975   1.411
 6231SOL    HW119592   6.985   4.920   1.421
 6231SOL    HW219593   6.862   4.991   1.501
 6232SOL     OW19594   6.586   1.734   1.004
 6232SOL    HW119595   6.573   1.637   1.023
 6232SOL    HW219596   6.540   1.757   0.918
 6233SOL     OW19597   6.049   0.708   0.003
 6233SOL    HW119598   6.089   0.621   0.030
 6233SOL    HW219599   6.118   0.780   0.009
 6234SOL     OW19600   6.467   1.744   5.829
 6234SOL    HW119601   6.488   1.840   5.811
 6234SOL    HW219602   6.549   1.698   5.862
 6235SOL     OW19603   1.034   0.624   1.394
 6235SOL    HW119604   1.117   0.600   1.444
 6235SOL    HW219605   0.977   0.683   1.451
 6236SOL     OW19606   0.448   3.911   0.218
 6236SOL    HW119607   0.429   3.969   0.297
 6236SOL    HW219608   0.383   3.933   0.145
 6237SOL     OW19609   3.466   6.177   6.730
 6237SOL    HW119610   3.501   6.119   6.803
 6237SOL    HW219611   3.526   6.256   6.719
 6238SOL     OW19612   3.918   4.960   3.195
 6238SOL    HW119613   3.887   4.910   3.114
 6238SOL    HW219614   3.956   5.048   3.168
 6239SOL     OW19615   3.277   6.334   1.664
 6239SOL    HW119616   3.199   6.277   1.690
 6239SOL    HW219617   3.342   6.338   1.739
 6240SOL     OW19618   2.680   3.363   6.300
 6240SOL    HW119619   2.593   3.381   6.346
 6240SOL    HW219620   2.673   3.387   6.204
 6241SOL     OW19621   2.995   0.026   1.753
 6241SOL    HW119622   2.923   6.991   1.794
 6241SOL    HW219623   3.002   0.004   1.656
 6242SOL     OW19624   5.449   1.463   3.581
 6242SOL    HW119625   5.388   1.385   3.574
 6242SOL    HW219626   5.400   1.547   3.558
 6243SOL     OW19627   6.443   6.434   3.844
 6243SOL    HW119628   6.381   6.466   3.773
 6243SOL    HW219629   6.481   6.345   3.818
 6244SOL     OW19630   0.902   2.236   1.991
 6244SOL    HW119631   0.983   2.200   2.039
 6244SOL    HW219632   0.823   2.178   2.012
 6245SOL     OW19633   1.921   3.979   6.996
 6245SOL    HW119634   1.898   3.986   6.898
 6245SOL    HW219635   1.852   4.028   0.030
 6246SOL     OW19636   2.080   2.439   5.750
 6246SOL    HW119637   2.169   2.450   5.794
 6246SOL    HW219638   2.010   2.424   5.819
 6247SOL     OW19639   1.638   6.515   4.128
 6247SOL    HW119640   1.712   6.449   4.118
 6247SOL    HW219641   1.565   6.477   4.184
 6248SOL     OW19642   3.145   3.900   0.328
 6248SOL    HW119643   3.144   3.936   0.421
 6248SOL    HW219644   3.053   3.870   0.303
 6249SOL     OW19645   0.450   4.073   0.434
 6249SOL    HW119646   0.387   4.134   0.482
 6249SOL    HW219647   0.544   4.092   0.464
 6250SOL     OW19648   0.193   5.998   0.796
 6250SOL    HW119649   0.195   5.898   0.791
 6250SOL    HW219650   0.098   6.029   0.797
 6251SOL     OW19651   3.455   5.402   6.882
 6251SOL    HW119652   3.377   5.380   6.940
 6251SOL    HW219653   3.516   5.323   6.877
 6252SOL     OW19654   1.028   6.775   5.764
 6252SOL    HW119655   1.102   6.764   5.697
 6252SOL    HW219656   0.942   6.745   5.723
 6253SOL     OW19657   2.282   4.068   2.990
 6253SOL    HW119658   2.360   4.008   2.975
 6253SOL    HW219659   2.298   4.156   2.945
 6254SOL     OW19660   4.844   1.591   0.655
 6254SOL    HW119661   4.794   1.530   0.595
 6254SOL    HW219662   4.928   1.622   0.609
 6255SOL     OW19663   2.748   0.436   1.292
 6255SOL    HW119664   2.715   0.402   1.204
 6255SOL    HW219665   2.747   0.536   1.291
 6256SOL     OW19666   3.314   5.021   2.602
 6256SOL    HW119667   3.247   4.947   2.605
 6256SOL    HW219668   3.404   4.983   2.582
 6257SOL     OW19669   4.558   2.422   0.706
 6257SOL    HW119670   4.566   2.429   0.607
 6257SOL    HW219671   4.498   2.494   0.741
 6258SOL     OW19672   4.493   0.213   3.767
 6258SOL    HW119673   4.527   0.272   3.695
 6258SOL    HW219674   4.470   0.123   3.729
 6259SOL     OW19675   2.681   2.375   0.455
 6259SOL    HW119676   2.758   2.380   0.519
 6259SOL    HW219677   2.703   2.429   0.374
 6260SOL     OW19678   3.054   5.451   6.953
 6260SOL    HW119679   2.983   5.503   6.906
 6260SOL    HW219680   3.127   5.512   6.982
 6261SOL     OW19681   3.992   0.348   6.028
 6261SOL    HW119682   4.040   0.283   6.087
 6261SOL    HW219683   3.898   0.358   6.060
 6262SOL     OW19684   1.529   5.208   0.759
 6262SOL    HW119685   1.628   5.195   0.756
 6262SOL    HW219686   1.484   5.128   0.719
 6263SOL     OW19687   6.843   0.166   5.463
 6263SOL    HW119688   6.905   0.100   5.420
 6263SOL    HW219689   6.861   0.169   5.561
 6264SOL     OW19690   1.188   6.534   1.777
 6264SOL    HW119691   1.136   6.455   1.746
 6264SOL    HW219692   1.265   6.550   1.715
 6265SOL     OW19693   3.458   3.969   0.473
 6265SOL    HW119694   3.499   3.915   0.546
 6265SOL    HW219695   3.444   3.911   0.392
 6266SOL     OW19696   4.103   6.756   4.549
 6266SOL    HW119697   4.172   6.694   4.511
 6266SOL    HW219698   4.014   6.711   4.548
 6267SOL     OW19699   2.896   0.789   6.712
 6267SOL    HW119700   2.822   0.855   6.723
 6267SOL    HW219701   2.978   0.824   6.756
 6268SOL     OW19702   3.628   6.489   3.473
 6268SOL    HW119703   3.549   6.511   3.531
 6268SOL    HW219704   3.599   6.427   3.400
 6269SOL     OW19705   6.397   5.482   1.942
 6269SOL    HW119706   6.305   5.474   1.980
 6269SOL    HW219707   6.462   5.499   2.016
 6270SOL     OW19708   1.968   0.592   4.858
 6270SOL    HW119709   1.919   0.599   4.945
 6270SOL    HW219710   1.938   0.510   4.809
 6271SOL     OW19711   5.662   2.261   5.957
 6271SOL    HW119712   5.626   2.284   6.048
 6271SOL    HW219713   5.752   2.218   5.967
 6272SOL     OW19714   0.407   1.949   6.944
 6272SOL    HW119715   0.354   2.033   6.959
 6272SOL    HW219716   0.493   1.954   6.994
 6273SOL     OW19717   1.738   6.525   3.044
 6273SOL    HW119718   1.684   6.609   3.049
 6273SOL    HW219719   1.753   6.500   2.949
 6274SOL     OW19720   2.259   5.795   5.879
 6274SOL    HW119721   2.332   5.830   5.937
 6274SOL    HW219722   2.281   5.814   5.783
 6275SOL     OW19723   2.057   5.959   5.264
 6275SOL    HW119724   2.116   6.039   5.275
 6275SOL    HW219725   2.081   5.910   5.180
 6276SOL     OW19726   1.826   4.992   2.989
 6276SOL    HW119727   1.897   5.041   3.040
 6276SOL    HW219728   1.736   5.020   3.024
 6277SOL     OW19729   5.630   3.535   1.664
 6277SOL    HW119730   5.634   3.446   1.619
 6277SOL    HW219731   5.656   3.526   1.760
 6278SOL     OW19732   5.442   6.649   4.617
 6278SOL    HW119733   5.464   6.668   4.713
 6278SOL    HW219734   5.464   6.728   4.561
 6279SOL     OW19735   3.619   0.256   6.492
 6279SOL    HW119736   3.661   0.241   6.402
 6279SOL    HW219737   3.685   0.237   6.564
 6280SOL     OW19738   0.825   1.936   4.818
 6280SOL    HW119739   0.854   2.024   4.780
 6280SOL    HW219740   0.897   1.868   4.804
 6281SOL     OW19741   1.685   5.195   3.703
 6281SOL    HW119742   1.774   5.166   3.739
 6281SOL    HW219743   1.643   5.119   3.653
 6282SOL     OW19744   1.598   6.754   4.716
 6282SOL    HW119745   1.679   6.793   4.760
 6282SOL    HW219746   1.547   6.827   4.670
 6283SOL     OW19747   6.665   3.276   6.086
 6283SOL    HW119748   6.720   3.220   6.024
 6283SOL    HW219749   6.600   3.218   6.135
 6284SOL     OW19750   1.635   5.098   4.739
 6284SOL    HW119751   1.649   5.009   4.696
 6284SOL    HW219752   1.623   5.168   4.668
 6285SOL     OW19753   1.048   3.496   4.098
 6285SOL    HW119754   1.126   3.555   4.074
 6285SOL    HW219755   0.968   3.552   4.117
 6286SOL     OW19756   6.518   1.558   3.850
 6286SOL    HW119757   6.477   1.478   3.807
 6286SOL    HW219758   6.614   1.566   3.820
 6287SOL     OW19759   3.718   5.178   3.993
 6287SOL    HW119760   3.728   5.098   3.934
 6287SOL    HW219761   3.758   5.258   3.948
 6288SOL     OW19762   5.317   5.050   2.790
 6288SOL    HW119763   5.394   5.008   2.743
 6288SOL    HW219764   5.236   4.992   2.781
 6289SOL     OW19765   1.634   4.608   2.045
 6289SOL    HW119766   1.659   4.567   2.133
 6289SOL    HW219767   1.694   4.685   2.026
 6290SOL     OW19768   6.057   3.732   4.186
 6290SOL    HW119769   6.120   3.808   4.164
 6290SOL    HW219770   6.056   3.719   4.285
 6291SOL     OW19771   3.580   2.858   4.717
 6291SOL    HW119772   3.679   2.863   4.701
 6291SOL    HW219773   3.563   2.848   4.815
 6292SOL     OW19774   1.517   2.152   3.663
 6292SOL    HW119775   1.603   2.133   3.711
 6292SOL    HW219776   1.443   2.101   3.707
 6293SOL     OW19777   3.765   0.192   0.245
 6293SOL    HW119778   3.853   0.240   0.234
 6293SOL    HW219779   3.774   0.124   0.317
 6294SOL     OW19780   3.366   5.053   4.440
 6294SOL    HW119781   3.291   5.005   4.486
 6294SOL    HW219782   3.340   5.071   4.345
 6295SOL     OW19783   5.340   5.103   5.707
 6295SOL    HW119784   5.370   5.194   5.738
 6295SOL    HW219785   5.324   5.045   5.786
 6296SOL     OW19786   0.298   6.887   5.438
 6296SOL    HW119787   0.213   6.892   5.490
 6296SOL    HW219788   0.330   6.979   5.418
 6297SOL     OW19789   4.612   6.568   4.558
 6297SOL    HW119790   4.617   6.485   4.614
 6297SOL    HW219791   4.680   6.564   4.485
 6298SOL     OW19792   1.574   2.801   6.499
 6298SOL    HW119793   1.498   2.755   6.544
 6298SOL    HW219794   1.553   2.815   6.402
 6299SOL     OW19795   5.358   1.478   0.140
 6299SOL    HW119796   5.388   1.522   0.055
 6299SOL    HW219797   5.421   1.403   0.162
 6300SOL     OW19798   5.416   0.486   0.103
 6300SOL    HW119799   5.423   0.531   0.192
 6300SOL    HW219800   5.430   0.553   0.030
 6301SOL     OW19801   3.744   0.674   0.551
 6301SOL    HW119802   3.798   0.753   0.580
 6301SOL    HW219803   3.653   0.704   0.521
 6302SOL     OW19804   1.849   0.592   3.729
 6302SOL    HW119805   1.884   0.685   3.741
 6302SOL    HW219806   1.820   0.579   3.634
 6303SOL     OW19807   1.782   1.250   4.340
 6303SOL    HW119808   1.817   1.169   4.293
 6303SOL    HW219809   1.697   1.227   4.388
 6304SOL     OW19810   2.280   1.302   1.389
 6304SOL    HW119811   2.194   1.344   1.421
 6304SOL    HW219812   2.356   1.341   1.440
 6305SOL     OW19813   5.450   0.142   1.917
 6305SOL    HW119814   5.485   0.063   1.867
 6305SOL    HW219815   5.496   0.224   1.885
 6306SOL     OW19816   1.249   3.699   4.075
 6306SOL    HW119817   1.345   3.728   4.081
 6306SOL    HW219818   1.190   3.772   4.109
 6307SOL     OW19819   4.053   4.309   5.590
 6307SOL    HW119820   4.026   4.262   5.674
 6307SOL    HW219821   4.000   4.393   5.581
 6308SOL     OW19822   1.825   2.237   4.538
 6308SOL    HW119823   1.845   2.192   4.450
 6308SOL    HW219824   1.908   2.236   4.595
 6309SOL     OW19825   5.246   4.171   4.879
 6309SOL    HW119826   5.340   4.185   4.849
 6309SOL    HW219827   5.245   4.152   4.977
 6310SOL     OW19828   2.162   6.018   3.128
 6310SOL    HW119829   2.179   5.971   3.042
 6310SOL    HW219830   2.215   5.974   3.201
 6311SOL     OW19831   4.971   0.856   5.541
 6311SOL    HW119832   5.068   0.876   5.555
 6311SOL    HW219833   4.917   0.938   5.556
 6312SOL     OW19834   5.755   5.464   5.739
 6312SOL    HW119835   5.761   5.559   5.771
 6312SOL    HW219836   5.807   5.455   5.654
 6313SOL     OW19837   1.353   6.274   3.997
 6313SOL    HW119838   1.386   6.332   3.923
 6313SOL    HW219839   1.429   6.248   4.056
 6314SOL     OW19840   4.011   6.413   1.844
 6314SOL    HW119841   3.914   6.408   1.822
 6314SOL    HW219842   4.026   6.380   1.937
 6315SOL     OW19843   3.024   2.807   6.133
 6315SOL    HW119844   2.967   2.835   6.210
 6315SOL    HW219845   3.042   2.885   6.074
 6316SOL     OW19846   4.713   1.561   6.731
 6316SOL    HW119847   4.748   1.648   6.697
 6316SOL    HW219848   4.785   1.491   6.726
 6317SOL     OW19849   4.786   5.479   2.813
 6317SOL    HW119850   4.746   5.473   2.905
 6317SOL    HW219851   4.878   5.517   2.820
 6318SOL     OW19852   3.104   1.943   4.505
 6318SOL    HW119853   3.021   1.972   4.457
 6318SOL    HW219854   3.160   1.886   4.445
 6319SOL     OW19855   6.648   1.883   4.080
 6319SOL    HW119856   6.616   1.895   3.986
 6319SOL    HW219857   6.633   1.788   4.108
 6320SOL     OW19858   5.911   5.293   4.983
 6320SOL    HW119859   5.850   5.367   5.013
 6320SOL    HW219860   5.952   5.249   5.063
 6321SOL     OW19861   3.007   3.588   0.921
 6321SOL    HW119862   2.917   3.630   0.930
 6321SOL    HW219863   3.050   3.579   1.011
 6322SOL     OW19864   1.789   2.123   0.022
 6322SOL    HW119865   1.883   2.153   0.005
 6322SOL    HW219866   1.735   2.134   6.958
 6323SOL     OW19867   2.886   2.633   1.270
 6323SOL    HW119868   2.947   2.602   1.197
 6323SOL    HW219869   2.842   2.555   1.313
 6324SOL     OW19870   5.188   0.303   6.461
 6324SOL    HW119871   5.125   0.312   6.384
 6324SOL    HW219872   5.271   0.355   6.443
 6325SOL     OW19873   2.237   1.738   2.411
 6325SOL    HW119874   2.310   1.761   2.348
 6325SOL    HW219875   2.151   1.725   2.360
 6326SOL     OW19876   4.962   5.308   1.460
 6326SOL    HW119877   5.051   5.278   1.427
 6326SOL    HW219878   4.975   5.367   1.540
 6327SOL     OW19879   0.068   0.102   4.980
 6327SOL    HW119880   0.006   0.028   4.953
 6327SOL    HW219881   0.027   0.190   4.958
 6328SOL     OW19882   2.125   3.804   0.997
 6328SOL    HW119883   2.053   3.846   0.942
 6328SOL    HW219884   2.095   3.798   1.092
 6329SOL     OW19885   2.668   2.422   3.514
 6329SOL    HW119886   2.739   2.492   3.517
 6329SOL    HW219887   2.580   2.462   3.540
 6330SOL     OW19888   4.509   0.919   0.860
 6330SOL    HW119889   4.409   0.922   0.856
 6330SOL    HW219890   4.537   0.865   0.939
 6331SOL     OW19891   6.315   2.253   6.892
 6331SOL    HW119892   6.352   2.262   6.984
 6331SOL    HW219893   6.217   2.236   6.896
 6332SOL     OW19894   5.955   3.402   1.681
 6332SOL    HW119895   5.992   3.484   1.724
 6332SOL    HW219896   6.009   3.322   1.710
 6333SOL     OW19897   4.484   5.555   5.014
 6333SOL    HW119898   4.426   5.577   5.093
 6333SOL    HW219899   4.468   5.623   4.942
 6334SOL     OW19900   2.984   0.074   2.132
 6334SOL    HW119901   2.986   0.116   2.041
 6334SOL    HW219902   3.058   0.007   2.139
 6335SOL     OW19903   4.278   0.842   0.398
 6335SOL    HW119904   4.224   0.909   0.348
 6335SOL    HW219905   4.353   0.888   0.445
 6336SOL     OW19906   1.010   1.711   6.276
 6336SOL    HW119907   1.023   1.723   6.178
 6336SOL    HW219908   1.074   1.769   6.325
 6337SOL     OW19909   4.495   4.322   6.265
 6337SOL    HW119910   4.541   4.306   6.178
 6337SOL    HW219911   4.396   4.331   6.250
 6338SOL     OW19912   3.568   1.743   3.505
 6338SOL    HW119913   3.666   1.736   3.525
 6338SOL    HW219914   3.535   1.656   3.469
 6339SOL     OW19915   1.237   3.312   2.743
 6339SOL    HW119916   1.326   3.292   2.701
 6339SOL    HW219917   1.235   3.406   2.775
 6340SOL     OW19918   1.710   4.644   2.703
 6340SOL    HW119919   1.618   4.605   2.709
 6340SOL    HW219920   1.746   4.631   2.610
 6341SOL     OW19921   0.961   4.519   4.101
 6341SOL    HW119922   0.873   4.535   4.057
 6341SOL    HW219923   1.033   4.519   4.032
 6342SOL     OW19924   2.722   1.829   1.974
 6342SOL    HW119925   2.714   1.808   1.877
 6342SOL    HW219926   2.808   1.793   2.009
 6343SOL     OW19927   4.796   1.998   6.414
 6343SOL    HW119928   4.709   2.031   6.449
 6343SOL    HW219929   4.815   2.041   6.325
 6344SOL     OW19930   5.914   3.091   5.216
 6344SOL    HW119931   5.939   3.129   5.305
 6344SOL    HW219932   5.973   3.013   5.195
 6345SOL     OW19933   5.151   1.919   2.282
 6345SOL    HW119934   5.249   1.941   2.290
 6345SOL    HW219935   5.127   1.850   2.351
 6346SOL     OW19936   6.900   4.556   3.977
 6346SOL    HW119937   6.963   4.568   4.054
 6346SOL    HW219938   6.884   4.458   3.963
 6347SOL     OW19939   2.162   0.138   0.881
 6347SOL    HW119940   2.155   0.063   0.946
 6347SOL    HW219941   2.098   0.123   0.806
 6348SOL     OW19942   1.793   4.141   5.206
 6348SOL    HW119943   1.775   4.166   5.301
 6348SOL    HW219944   1.844   4.214   5.162
 6349SOL     OW19945   3.272   0.480   1.331
 6349SOL    HW119946   3.285   0.390   1.289
 6349SOL    HW219947   3.183   0.517   1.304
 6350SOL     OW19948   2.446   4.716   3.860
 6350SOL    HW119949   2.542   4.691   3.872
 6350SOL    HW219950   2.424   4.719   3.763
 6351SOL     OW19951   6.569   3.657   3.273
 6351SOL    HW119952   6.572   3.625   3.178
 6351SOL    HW219953   6.487   3.621   3.318
 6352SOL     OW19954   3.152   5.295   5.139
 6352SOL    HW119955   3.169   5.366   5.070
 6352SOL    HW219956   3.236   5.243   5.156
 6353SOL     OW19957   0.585   0.576   5.849
 6353SOL    HW119958   0.565   0.640   5.924
 6353SOL    HW219959   0.596   0.627   5.764
 6354SOL     OW19960   1.878   5.990   3.245
 6354SOL    HW119961   1.969   5.982   3.203
 6354SOL    HW219962   1.885   5.969   3.343
 6355SOL     OW19963   0.752   5.544   6.485
 6355SOL    HW119964   0.706   5.497   6.560
 6355SOL    HW219965   0.700   5.627   6.461
 6356SOL     OW19966   3.754   5.130   2.559
 6356SOL    HW119967   3.854   5.131   2.559
 6356SOL    HW219968   3.720   5.161   2.648
 6357SOL     OW19969   5.129   3.001   2.309
 6357SOL    HW119970   5.036   3.036   2.299
 6357SOL    HW219971   5.173   3.045   2.387
 6358SOL     OW19972   1.356   2.105   6.334
 6358SOL    HW119973   1.319   2.195   6.313
 6358SOL    HW219974   1.402   2.107   6.422
 6359SOL     OW19975   6.246   6.520   5.745
 6359SOL    HW119976   6.340   6.532   5.774
 6359SOL    HW219977   6.202   6.609   5.735
 6360SOL     OW19978   1.329   3.859   3.789
 6360SOL    HW119979   1.240   3.901   3.770
 6360SOL    HW219980   1.346   3.786   3.723
 6361SOL     OW19981   5.909   0.269   0.426
 6361SOL    HW119982   5.916   0.198   0.497
 6361SOL    HW219983   5.920   0.227   0.336
 6362SOL     OW19984   0.396   6.166   0.566
 6362SOL    HW119985   0.370   6.148   0.471
 6362SOL    HW219986   0.418   6.079   0.611
 6363SOL     OW19987   2.343   4.321   3.600
 6363SOL    HW119988   2.328   4.306   3.698
 6363SOL    HW219989   2.374   4.414   3.584
 6364SOL     OW19990   3.144   1.129   5.941
 6364SOL    HW119991   3.068   1.113   6.004
 6364SOL    HW219992   3.147   1.225   5.915
 6365SOL     OW19993   5.698   0.195   4.209
 6365SOL    HW119994   5.613   0.212   4.259
 6365SOL    HW219995   5.761   0.144   4.268
 6366SOL     OW19996   0.948   5.847   6.230
 6366SOL    HW119997   0.974   5.773   6.168
 6366SOL    HW219998   0.853   5.834   6.260
 6367SOL     OW19999   4.290   0.124   4.574
 6367SOL    HW120000   4.304   0.129   4.475
 6367SOL    HW220001   4.368   0.078   4.617
 6368SOL     OW20002   3.609   5.459   3.752
 6368SOL    HW120003   3.687   5.413   3.796
 6368SOL    HW220004   3.643   5.527   3.688
 6369SOL     OW20005   1.808   4.822   4.210
 6369SOL    HW120006   1.718   4.785   4.231
 6369SOL    HW220007   1.832   4.798   4.116
 6370SOL     OW20008   0.582   3.617   2.660
 6370SOL    HW120009   0.517   3.542   2.651
 6370SOL    HW220010   0.536   3.704   2.646
 6371SOL     OW20011   5.222   3.630   4.610
 6371SOL    HW120012   5.225   3.552   4.548
 6371SOL    HW220013   5.130   3.639   4.648
 6372SOL     OW20014   3.245   0.068   1.947
 6372SOL    HW120015   3.236   0.012   2.029
 6372SOL    HW220016   3.181   0.035   1.877
 6373SOL     OW20017   5.477   4.417   3.590
 6373SOL    HW120018   5.435   4.410   3.500
 6373SOL    HW220019   5.527   4.332   3.610
 6374SOL     OW20020   3.156   3.814   4.451
 6374SOL    HW120021   3.137   3.898   4.502
 6374SOL    HW220022   3.070   3.777   4.415
 6375SOL     OW20023   6.579   1.635   4.112
 6375SOL    HW120024   6.526   1.640   4.028
 6375SOL    HW220025   6.570   1.544   4.153
 6376SOL     OW20026   6.440   2.863   5.131
 6376SOL    HW120027   6.408   2.950   5.094
 6376SOL    HW220028   6.540   2.862   5.133
 6377SOL     OW20029   6.217   1.570   5.781
 6377SOL    HW120030   6.310   1.592   5.809
 6377SOL    HW220031   6.153   1.634   5.824
 6378SOL     OW20032   5.229   5.520   3.989
 6378SOL    HW120033   5.300   5.547   3.924
 6378SOL    HW220034   5.173   5.600   4.011
 6379SOL     OW20035   2.359   4.333   4.262
 6379SOL    HW120036   2.365   4.403   4.191
 6379SOL    HW220037   2.358   4.377   4.352
 6380SOL     OW20038   0.807   1.540   6.407
 6380SOL    HW120039   0.887   1.566   6.354
 6380SOL    HW220040   0.730   1.600   6.384
 6381SOL     OW20041   4.010   3.121   2.129
 6381SOL    HW120042   4.062   3.124   2.214
 6381SOL    HW220043   3.932   3.058   2.140
 6382SOL     OW20044   0.961   2.186   0.685
 6382SOL    HW120045   0.993   2.100   0.725
 6382SOL    HW220046   0.864   2.198   0.706
 6383SOL     OW20047   1.846   1.934   2.924
 6383SOL    HW120048   1.893   1.914   2.838
 6383SOL    HW220049   1.773   1.868   2.940
 6384SOL     OW20050   5.253   4.592   1.376
 6384SOL    HW120051   5.186   4.541   1.322
 6384SOL    HW220052   5.345   4.571   1.343
 6385SOL     OW20053   6.681   4.993   3.785
 6385SOL    HW120054   6.753   4.923   3.782
 6385SOL    HW220055   6.665   5.020   3.880
 6386SOL     OW20056   2.381   4.637   6.657
 6386SOL    HW120057   2.478   4.637   6.681
 6386SOL    HW220058   2.369   4.596   6.567
 6387SOL     OW20059   0.738   1.879   6.711
 6387SOL    HW120060   0.823   1.893   6.659
 6387SOL    HW220061   0.661   1.914   6.659
 6388SOL     OW20062   4.308   4.443   1.180
 6388SOL    HW120063   4.217   4.426   1.141
 6388SOL    HW220064   4.302   4.439   1.280
 6389SOL     OW20065   1.187   6.308   2.950
 6389SOL    HW120066   1.126   6.229   2.952
 6389SOL    HW220067   1.172   6.364   3.031
 6390SOL     OW20068   1.103   1.584   4.851
 6390SOL    HW120069   1.047   1.611   4.930
 6390SOL    HW220070   1.157   1.662   4.820
 6391SOL     OW20071   2.611   6.570   5.722
 6391SOL    HW120072   2.623   6.641   5.653
 6391SOL    HW220073   2.514   6.561   5.744
 6392SOL     OW20074   2.161   6.968   3.329
 6392SOL    HW120075   2.219   0.009   3.384
 6392SOL    HW220076   2.216   6.922   3.259
 6393SOL     OW20077   5.909   0.182   1.611
 6393SOL    HW120078   5.836   0.190   1.680
 6393SOL    HW220079   5.948   0.273   1.594
 6394SOL     OW20080   2.523   4.714   0.732
 6394SOL    HW120081   2.467   4.650   0.680
 6394SOL    HW220082   2.598   4.665   0.777
 6395SOL     OW20083   6.286   2.729   2.009
 6395SOL    HW120084   6.275   2.745   1.911
 6395SOL    HW220085   6.292   2.817   2.057
 6396SOL     OW20086   5.326   3.238   6.385
 6396SOL    HW120087   5.354   3.271   6.475
 6396SOL    HW220088   5.406   3.235   6.325
 6397SOL     OW20089   5.652   2.906   6.307
 6397SOL    HW120090   5.569   2.864   6.345
 6397SOL    HW220091   5.687   2.974   6.371
 6398SOL     OW20092   3.093   0.572   0.721
 6398SOL    HW120093   3.163   0.502   0.710
 6398SOL    HW220094   3.006   0.528   0.744
 6399SOL     OW20095   1.396   5.514   6.914
 6399SOL    HW120096   1.476   5.459   6.938
 6399SOL    HW220097   1.419   5.611   6.918
 6400SOL     OW20098   2.242   6.567   2.223
 6400SOL    HW120099   2.247   6.586   2.125
 6400SOL    HW220100   2.231   6.652   2.273
 6401SOL     OW20101   0.505   4.528   3.575
 6401SOL    HW120102   0.520   4.527   3.674
 6401SOL    HW220103   0.578   4.578   3.530
 6402SOL     OW20104   4.365   1.527   2.773
 6402SOL    HW120105   4.333   1.434   2.755
 6402SOL    HW220106   4.311   1.591   2.718
 6403SOL     OW20107   6.575   6.353   6.160
 6403SOL    HW120108   6.516   6.404   6.223
 6403SOL    HW220109   6.653   6.317   6.210
 6404SOL     OW20110   3.847   1.456   2.793
 6404SOL    HW120111   3.921   1.398   2.826
 6404SOL    HW220112   3.868   1.487   2.701
 6405SOL     OW20113   2.769   0.592   3.742
 6405SOL    HW120114   2.769   0.492   3.742
 6405SOL    HW220115   2.837   0.625   3.808
 6406SOL     OW20116   1.243   2.367   3.407
 6406SOL    HW120117   1.304   2.428   3.459
 6406SOL    HW220118   1.281   2.275   3.407
 6407SOL     OW20119   3.107   6.615   4.112
 6407SOL    HW120120   3.204   6.637   4.099
 6407SOL    HW220121   3.055   6.647   4.032
 6408SOL     OW20122   5.685   2.069   0.225
 6408SOL    HW120123   5.624   2.047   0.301
 6408SOL    HW220124   5.675   2.166   0.202
 6409SOL     OW20125   0.316   4.692   3.261
 6409SOL    HW120126   0.354   4.600   3.270
 6409SOL    HW220127   0.265   4.700   3.175
 6410SOL     OW20128   2.152   1.548   0.488
 6410SOL    HW120129   2.149   1.596   0.575
 6410SOL    HW220130   2.099   1.598   0.420
 6411SOL     OW20131   0.378   2.888   3.458
 6411SOL    HW120132   0.286   2.912   3.426
 6411SOL    HW220133   0.428   2.971   3.479
 6412SOL     OW20134   0.450   2.413   5.317
 6412SOL    HW120135   0.418   2.328   5.361
 6412SOL    HW220136   0.549   2.422   5.331
 6413SOL     OW20137   4.332   4.942   3.741
 6413SOL    HW120138   4.404   5.011   3.733
 6413SOL    HW220139   4.370   4.858   3.780
 6414SOL     OW20140   5.610   0.951   1.104
 6414SOL    HW120141   5.584   1.042   1.072
 6414SOL    HW220142   5.707   0.950   1.126
 6415SOL     OW20143   1.974   2.324   3.358
 6415SOL    HW120144   1.886   2.361   3.387
 6415SOL    HW220145   1.967   2.291   3.263
 6416SOL     OW20146   1.231   0.940   6.057
 6416SOL    HW120147   1.219   0.845   6.029
 6416SOL    HW220148   1.144   0.976   6.089
 6417SOL     OW20149   6.617   4.554   2.236
 6417SOL    HW120150   6.699   4.575   2.183
 6417SOL    HW220151   6.630   4.467   2.283
 6418SOL     OW20152   4.593   4.835   1.802
 6418SOL    HW120153   4.597   4.750   1.855
 6418SOL    HW220154   4.525   4.826   1.730
 6419SOL     OW20155   2.475   4.460   2.604
 6419SOL    HW120156   2.398   4.401   2.629
 6419SOL    HW220157   2.476   4.472   2.504
 6420SOL     OW20158   3.062   3.836   5.522
 6420SOL    HW120159   3.069   3.746   5.480
 6420SOL    HW220160   2.989   3.888   5.477
 6421SOL     OW20161   5.644   0.942   2.596
 6421SOL    HW120162   5.574   0.920   2.664
 6421SOL    HW220163   5.727   0.889   2.615
 6422SOL     OW20164   7.008   0.286   4.143
 6422SOL    HW120165   0.077   0.246   4.121
 6422SOL    HW220166   0.002   0.372   4.191
 6423SOL     OW20167   4.897   4.892   2.664
 6423SOL    HW120168   4.883   4.958   2.590
 6423SOL    HW220169   4.828   4.820   2.657
 6424SOL     OW20170   6.637   5.887   5.536
 6424SOL    HW120171   6.561   5.890   5.600
 6424SOL    HW220172   6.602   5.880   5.443
 6425SOL     OW20173   6.243   5.892   3.368
 6425SOL    HW120174   6.208   5.948   3.294
 6425SOL    HW220175   6.246   5.796   3.339
 6426SOL     OW20176   0.559   4.861   3.175
 6426SOL    HW120177   0.510   4.835   3.259
 6426SOL    HW220178   0.560   4.783   3.112
 6427SOL     OW20179   2.607   3.034   5.880
 6427SOL    HW120180   2.697   2.998   5.906
 6427SOL    HW220181   2.613   3.077   5.790
 6428SOL     OW20182   6.568   2.840   6.962
 6428SOL    HW120183   6.503   2.813   6.891
 6428SOL    HW220184   6.594   2.936   6.948
 6429SOL     OW20185   0.899   1.665   5.698
 6429SOL    HW120186   0.950   1.624   5.623
 6429SOL    HW220187   0.961   1.717   5.757
 6430SOL     OW20188   5.485   1.091   2.040
 6430SOL    HW120189   5.563   1.080   2.101
 6430SOL    HW220190   5.511   1.147   1.961
 6431SOL     OW20191   5.265   6.487   3.097
 6431SOL    HW120192   5.228   6.434   3.173
 6431SOL    HW220193   5.258   6.585   3.118
 6432SOL     OW20194   4.255   3.709   6.658
 6432SOL    HW120195   4.345   3.745   6.630
 6432SOL    HW220196   4.210   3.668   6.579
 6433SOL     OW20197   3.499   4.276   0.832
 6433SOL    HW120198   3.422   4.334   0.806
 6433SOL    HW220199   3.560   4.326   0.893
 6434SOL     OW20200   1.947   3.736   0.290
 6434SOL    HW120201   1.902   3.656   0.252
 6434SOL    HW220202   1.891   3.817   0.272
 6435SOL     OW20203   4.267   6.509   0.122
 6435SOL    HW120204   4.316   6.498   0.208
 6435SOL    HW220205   4.326   6.481   0.046
 6436SOL     OW20206   2.109   3.124   3.530
 6436SOL    HW120207   2.017   3.087   3.533
 6436SOL    HW220208   2.153   3.097   3.444
 6437SOL     OW20209   2.393   0.958   1.189
 6437SOL    HW120210   2.471   1.016   1.213
 6437SOL    HW220211   2.311   1.014   1.182
 6438SOL     OW20212   0.498   4.628   6.398
 6438SOL    HW120213   0.524   4.533   6.419
 6438SOL    HW220214   0.551   4.690   6.456
 6439SOL     OW20215   6.180   1.013   1.328
 6439SOL    HW120216   6.211   0.981   1.238
 6439SOL    HW220217   6.198   0.943   1.396
 6440SOL     OW20218   2.324   1.890   0.556
 6440SOL    HW120219   2.400   1.850   0.606
 6440SOL    HW220220   2.241   1.883   0.611
 6441SOL     OW20221   1.490   6.522   2.542
 6441SOL    HW120222   1.487   6.439   2.597
 6441SOL    HW220223   1.492   6.497   2.445
 6442SOL     OW20224   2.900   0.840   4.179
 6442SOL    HW120225   2.846   0.891   4.247
 6442SOL    HW220226   2.995   0.872   4.182
 6443SOL     OW20227   4.097   2.472   6.121
 6443SOL    HW120228   4.094   2.475   6.021
 6443SOL    HW220229   4.185   2.506   6.153
 6444SOL     OW20230   6.741   2.458   3.810
 6444SOL    HW120231   6.676   2.534   3.807
 6444SOL    HW220232   6.784   2.455   3.901
 6445SOL     OW20233   5.163   3.146   5.940
 6445SOL    HW120234   5.178   3.227   5.998
 6445SOL    HW220235   5.066   3.136   5.922
 6446SOL     OW20236   1.205   0.744   5.853
 6446SOL    HW120237   1.126   0.754   5.792
 6446SOL    HW220238   1.210   0.650   5.886
 6447SOL     OW20239   0.395   5.390   2.838
 6447SOL    HW120240   0.324   5.363   2.772
 6447SOL    HW220241   0.446   5.467   2.802
 6448SOL     OW20242   5.061   5.218   2.702
 6448SOL    HW120243   5.129   5.249   2.636
 6448SOL    HW220244   5.107   5.178   2.781
 6449SOL     OW20245   3.112   4.976   0.284
 6449SOL    HW120246   3.146   5.068   0.301
 6449SOL    HW220247   3.019   4.967   0.320
 6450SOL     OW20248   7.007   3.943   1.462
 6450SOL    HW120249   0.048   3.952   1.541
 6450SOL    HW220250   7.014   4.025   1.405
 6451SOL     OW20251   2.448   6.993   5.244
 6451SOL    HW120252   2.447   0.013   5.336
 6451SOL    HW220253   2.510   6.914   5.242
 6452SOL     OW20254   3.531   6.598   4.661
 6452SOL    HW120255   3.464   6.668   4.635
 6452SOL    HW220256   3.526   6.521   4.598
 6453SOL     OW20257   1.281   6.522   0.635
 6453SOL    HW120258   1.207   6.586   0.616
 6453SOL    HW220259   1.349   6.527   0.561
 6454SOL     OW20260   3.181   1.651   3.356
 6454SOL    HW120261   3.264   1.596   3.349
 6454SOL    HW220262   3.102   1.596   3.329
 6455SOL     OW20263   0.222   2.132   3.787
 6455SOL    HW120264   0.184   2.059   3.843
 6455SOL    HW220265   0.315   2.106   3.758
 6456SOL     OW20266   1.580   0.735   3.425
 6456SOL    HW120267   1.603   0.802   3.495
 6456SOL    HW220268   1.663   0.688   3.395
 6457SOL     OW20269   4.627   1.846   0.710
 6457SOL    HW120270   4.652   1.761   0.664
 6457SOL    HW220271   4.698   1.871   0.776
 6458SOL     OW20272   0.911   0.010   3.193
 6458SOL    HW120273   0.911   6.970   3.274
 6458SOL    HW220274   0.999   0.055   3.184
 6459SOL     OW20275   5.782   5.192   0.710
 6459SOL    HW120276   5.876   5.183   0.676
 6459SOL    HW220277   5.784   5.218   0.807
 6460SOL     OW20278   4.910   5.303   5.742
 6460SOL    HW120279   4.849   5.374   5.708
 6460SOL    HW220280   5.005   5.331   5.728
 6461SOL     OW20281   2.707   4.487   5.370
 6461SOL    HW120282   2.621   4.482   5.319
 6461SOL    HW220283   2.781   4.514   5.308
 6462SOL     OW20284   2.299   2.682   5.000
 6462SOL    HW120285   2.361   2.760   4.993
 6462SOL    HW220286   2.206   2.714   5.015
 6463SOL     OW20287   0.570   3.837   6.881
 6463SOL    HW120288   0.586   3.822   6.979
 6463SOL    HW220289   0.604   3.758   6.830
 6464SOL     OW20290   0.976   5.262   4.931
 6464SOL    HW120291   0.880   5.236   4.943
 6464SOL    HW220292   1.029   5.182   4.902
 6465SOL     OW20293   6.643   2.567   3.339
 6465SOL    HW120294   6.707   2.542   3.412
 6465SOL    HW220295   6.689   2.555   3.251
 6466SOL     OW20296   0.881   1.272   6.496
 6466SOL    HW120297   0.963   1.225   6.465
 6466SOL    HW220298   0.879   1.365   6.457
 6467SOL     OW20299   3.393   0.961   6.956
 6467SOL    HW120300   3.338   0.905   7.018
 6467SOL    HW220301   3.487   0.926   6.953
 6468SOL     OW20302   4.391   6.808   1.675
 6468SOL    HW120303   4.391   6.852   1.765
 6468SOL    HW220304   4.443   6.722   1.680
 6469SOL     OW20305   4.274   0.615   5.605
 6469SOL    HW120306   4.315   0.699   5.641
 6469SOL    HW220307   4.175   0.624   5.605
 6470SOL     OW20308   6.211   4.977   6.399
 6470SOL    HW120309   6.185   5.052   6.339
 6470SOL    HW220310   6.310   4.978   6.413
 6471SOL     OW20311   6.355   5.940   5.646
 6471SOL    HW120312   6.264   5.956   5.684
 6471SOL    HW220313   6.362   5.982   5.556
 6472SOL     OW20314   0.435   4.512   1.206
 6472SOL    HW120315   0.408   4.587   1.266
 6472SOL    HW220316   0.522   4.474   1.238
 6473SOL     OW20317   2.393   1.579   4.175
 6473SOL    HW120318   2.404   1.559   4.078
 6473SOL    HW220319   2.339   1.507   4.219
 6474SOL     OW20320   1.844   3.899   5.994
 6474SOL    HW120321   1.889   3.945   5.918
 6474SOL    HW220322   1.844   3.800   5.979
 6475SOL     OW20323   0.181   5.331   4.547
 6475SOL    HW120324   0.278   5.308   4.542
 6475SOL    HW220325   0.127   5.251   4.520
 6476SOL     OW20326   4.605   3.522   1.210
 6476SOL    HW120327   4.691   3.528   1.260
 6476SOL    HW220328   4.538   3.472   1.265
 6477SOL     OW20329   6.813   5.107   1.186
 6477SOL    HW120330   6.838   5.046   1.261
 6477SOL    HW220331   6.783   5.195   1.224
 6478SOL     OW20332   3.659   6.226   2.412
 6478SOL    HW120333   3.709   6.191   2.333
 6478SOL    HW220334   3.707   6.306   2.449
 6479SOL     OW20335   3.860   6.050   3.417
 6479SOL    HW120336   3.912   6.041   3.332
 6479SOL    HW220337   3.908   6.002   3.490
 6480SOL     OW20338   3.356   2.138   5.816
 6480SOL    HW120339   3.351   2.192   5.732
 6480SOL    HW220340   3.372   2.199   5.894
 6481SOL     OW20341   3.486   2.027   2.101
 6481SOL    HW120342   3.402   2.077   2.125
 6481SOL    HW220343   3.543   2.083   2.042
 6482SOL     OW20344   0.595   0.328   6.036
 6482SOL    HW120345   0.606   0.388   5.957
 6482SOL    HW220346   0.626   0.236   6.013
 6483SOL     OW20347   1.659   6.115   1.460
 6483SOL    HW120348   1.740   6.156   1.419
 6483SOL    HW220349   1.617   6.051   1.396
 6484SOL     OW20350   3.883   0.311   1.712
 6484SOL    HW120351   3.968   0.266   1.683
 6484SOL    HW220352   3.905   0.387   1.773
 6485SOL     OW20353   1.864   4.181   3.157
 6485SOL    HW120354   1.825   4.095   3.190
 6485SOL    HW220355   1.905   4.166   3.067
 6486SOL     OW20356   1.797   4.249   4.487
 6486SOL    HW120357   1.871   4.239   4.420
 6486SOL    HW220358   1.727   4.179   4.469
 6487SOL     OW20359   6.952   5.873   5.638
 6487SOL    HW120360   6.908   5.884   5.727
 6487SOL    HW220361   6.900   5.806   5.584
 6488SOL     OW20362   3.280   5.889   5.474
 6488SOL    HW120363   3.348   5.952   5.437
 6488SOL    HW220364   3.322   5.832   5.544
 6489SOL     OW20365   2.290   3.370   6.711
 6489SOL    HW120366   2.202   3.354   6.667
 6489SOL    HW220367   2.301   3.308   6.788
 6490SOL     OW20368   4.303   1.775   6.154
 6490SOL    HW120369   4.218   1.811   6.194
 6490SOL    HW220370   4.378   1.788   6.218
 6491SOL     OW20371   3.871   1.311   6.651
 6491SOL    HW120372   3.863   1.234   6.714
 6491SOL    HW220373   3.781   1.352   6.636
 6492SOL     OW20374   5.169   5.758   0.045
 6492SOL    HW120375   5.178   5.856   0.062
 6492SOL    HW220376   5.244   5.710   0.091
 6493SOL     OW20377   0.922   5.503   4.696
 6493SOL    HW120378   1.000   5.496   4.758
 6493SOL    HW220379   0.954   5.529   4.604
 6494SOL     OW20380   0.705   1.350   3.158
 6494SOL    HW120381   0.616   1.383   3.189
 6494SOL    HW220382   0.718   1.374   3.062
 6495SOL     OW20383   4.896   6.093   4.664
 6495SOL    HW120384   4.929   5.999   4.679
 6495SOL    HW220385   4.798   6.091   4.647
 6496SOL     OW20386   0.033   6.849   2.035
 6496SOL    HW120387   0.109   6.853   2.100
 6496SOL    HW220388   6.980   6.912   2.065
 6497SOL     OW20389   2.610   3.361   0.026
 6497SOL    HW120390   2.568   3.413   6.970
 6497SOL    HW220391   2.708   3.381   0.029
 6498SOL     OW20392   2.301   4.269   3.880
 6498SOL    HW120393   2.303   4.339   3.950
 6498SOL    HW220394   2.262   4.185   3.918
 6499SOL     OW20395   5.405   2.158   4.694
 6499SOL    HW120396   5.351   2.168   4.611
 6499SOL    HW220397   5.376   2.076   4.744
 6500SOL     OW20398   6.606   4.370   3.692
 6500SOL    HW120399   6.611   4.470   3.698
 6500SOL    HW220400   6.605   4.342   3.596
 6501SOL     OW20401   6.412   2.780   6.752
 6501SOL    HW120402   6.382   2.699   6.801
 6501SOL    HW220403   6.332   2.827   6.714
 6502SOL     OW20404   6.046   3.616   1.803
 6502SOL    HW120405   6.064   3.688   1.736
 6502SOL    HW220406   6.131   3.571   1.827
 6503SOL     OW20407   5.527   0.374   3.762
 6503SOL    HW120408   5.485   0.464   3.776
 6503SOL    HW220409   5.624   0.379   3.787
 6504SOL     OW20410   5.030   6.763   6.288
 6504SOL    HW120411   4.978   6.772   6.373
 6504SOL    HW220412   5.114   6.817   6.293
 6505SOL     OW20413   5.308   5.091   1.600
 6505SOL    HW120414   5.344   5.000   1.614
 6505SOL    HW220415   5.367   5.158   1.645
 6506SOL     OW20416   6.291   3.430   1.478
 6506SOL    HW120417   6.272   3.391   1.568
 6506SOL    HW220418   6.289   3.529   1.484
 6507SOL     OW20419   2.086   5.251   5.789
 6507SOL    HW120420   2.086   5.266   5.690
 6507SOL    HW220421   2.028   5.319   5.834
 6508SOL     OW20422   2.481   0.615   3.201
 6508SOL    HW120423   2.407   0.683   3.204
 6508SOL    HW220424   2.569   0.661   3.203
 6509SOL     OW20425   3.224   1.859   3.833
 6509SOL    HW120426   3.246   1.796   3.759
 6509SOL    HW220427   3.229   1.953   3.800
 6510SOL     OW20428   6.542   4.272   0.049
 6510SOL    HW120429   6.456   4.300   0.005
 6510SOL    HW220430   6.619   4.316   0.003
 6511SOL     OW20431   4.768   0.827   4.694
 6511SOL    HW120432   4.746   0.887   4.771
 6511SOL    HW220433   4.729   0.737   4.710
 6512SOL     OW20434   5.228   7.002   1.909
 6512SOL    HW120435   5.167   6.985   1.986
 6512SOL    HW220436   5.307   0.037   1.940
 6513SOL     OW20437   3.535   5.114   3.015
 6513SOL    HW120438   3.461   5.066   3.063
 6513SOL    HW220439   3.564   5.060   2.936
 6514SOL     OW20440   5.973   0.464   3.525
 6514SOL    HW120441   5.893   0.464   3.465
 6514SOL    HW220442   5.977   0.378   3.576
 6515SOL     OW20443   0.866   4.870   4.038
 6515SOL    HW120444   0.947   4.812   4.031
 6515SOL    HW220445   0.886   4.960   4.000
 6516SOL     OW20446   0.163   3.251   1.409
 6516SOL    HW120447   0.065   3.231   1.419
 6516SOL    HW220448   0.216   3.180   1.455
 6517SOL     OW20449   6.860   0.986   0.462
 6517SOL    HW120450   6.939   0.982   0.523
 6517SOL    HW220451   6.863   1.070   0.409
 6518SOL     OW20452   0.076   0.497   0.073
 6518SOL    HW120453   0.053   0.573   0.133
 6518SOL    HW220454   0.081   0.531   6.997
 6519SOL     OW20455   2.406   1.907   3.401
 6519SOL    HW120456   2.409   1.848   3.481
 6519SOL    HW220457   2.403   2.003   3.430
 6520SOL     OW20458   5.261   5.594   2.241
 6520SOL    HW120459   5.225   5.572   2.332
 6520SOL    HW220460   5.345   5.647   2.249
 6521SOL     OW20461   1.528   2.207   4.060
 6521SOL    HW120462   1.505   2.163   3.973
 6521SOL    HW220463   1.449   2.258   4.093
 6522SOL     OW20464   3.630   4.495   6.858
 6522SOL    HW120465   3.720   4.507   6.816
 6522SOL    HW220466   3.584   4.584   6.863
 6523SOL     OW20467   3.299   0.778   6.564
 6523SOL    HW120468   3.351   0.715   6.622
 6523SOL    HW220469   3.226   0.728   6.518
 6524SOL     OW20470   3.053   3.353   2.078
 6524SOL    HW120471   2.966   3.331   2.035
 6524SOL    HW220472   3.128   3.310   2.027
 6525SOL     OW20473   1.775   3.575   3.071
 6525SOL    HW120474   1.706   3.509   3.102
 6525SOL    HW220475   1.836   3.598   3.148
 6526SOL     OW20476   2.270   0.219   6.160
 6526SOL    HW120477   2.206   0.188   6.089
 6526SOL    HW220478   2.358   0.241   6.119
 6527SOL     OW20479   0.779   2.095   4.525
 6527SOL    HW120480   0.756   2.181   4.480
 6527SOL    HW220481   0.834   2.039   4.463
 6528SOL     OW20482   0.276   0.980   3.773
 6528SOL    HW120483   0.233   0.947   3.857
 6528SOL    HW220484   0.236   1.068   3.748
 6529SOL     OW20485   6.894   1.416   3.278
 6529SOL    HW120486   6.869   1.483   3.208
 6529SOL    HW220487   6.986   1.438   3.313
 6530SOL     OW20488   6.586   3.670   2.103
 6530SOL    HW120489   6.606   3.655   2.006
 6530SOL    HW220490   6.560   3.765   2.118
 6531SOL     OW20491   5.727   3.618   4.895
 6531SOL    HW120492   5.753   3.694   4.835
 6531SOL    HW220493   5.651   3.568   4.854
 6532SOL     OW20494   6.225   0.418   6.704
 6532SOL    HW120495   6.271   0.428   6.791
 6532SOL    HW220496   6.151   0.351   6.713
 6533SOL     OW20497   4.578   6.175   0.964
 6533SOL    HW120498   4.628   6.262   0.959
 6533SOL    HW220499   4.551   6.158   1.058
 6534SOL     OW20500   3.316   4.109   1.429
 6534SOL    HW120501   3.388   4.174   1.453
 6534SOL    HW220502   3.357   4.021   1.404
 6535SOL     OW20503   6.561   3.092   3.898
 6535SOL    HW120504   6.631   3.022   3.906
 6535SOL    HW220505   6.604   3.181   3.880
 6536SOL     OW20506   0.961   2.382   5.714
 6536SOL    HW120507   0.887   2.433   5.670
 6536SOL    HW220508   0.928   2.292   5.741
 6537SOL     OW20509   5.770   5.717   6.953
 6537SOL    HW120510   5.870   5.717   6.941
 6537SOL    HW220511   5.748   5.703   0.030
 6538SOL     OW20512   3.305   4.324   0.065
 6538SOL    HW120513   3.302   4.292   0.160
 6538SOL    HW220514   3.353   4.411   0.060
 6539SOL     OW20515   3.712   0.947   6.063
 6539SOL    HW120516   3.755   1.019   6.119
 6539SOL    HW220517   3.662   0.989   5.988
 6540SOL     OW20518   4.865   1.507   5.224
 6540SOL    HW120519   4.932   1.561   5.174
 6540SOL    HW220520   4.838   1.427   5.170
 6541SOL     OW20521   3.724   1.409   5.225
 6541SOL    HW120522   3.712   1.429   5.128
 6541SOL    HW220523   3.790   1.334   5.235
 6542SOL     OW20524   6.926   4.810   3.882
 6542SOL    HW120525   7.016   4.820   3.840
 6542SOL    HW220526   6.913   4.714   3.909
 6543SOL     OW20527   6.396   3.898   6.969
 6543SOL    HW120528   6.313   3.882   0.004
 6543SOL    HW220529   6.377   3.965   6.897
 6544SOL     OW20530   0.505   6.196   2.820
 6544SOL    HW120531   0.527   6.123   2.884
 6544SOL    HW220532   0.429   6.167   2.761
 6545SOL     OW20533   5.570   2.345   6.470
 6545SOL    HW120534   5.622   2.330   6.554
 6545SOL    HW220535   5.533   2.258   6.438
 6546SOL     OW20536   4.144   4.260   6.532
 6546SOL    HW120537   4.117   4.221   6.621
 6546SOL    HW220538   4.148   4.360   6.540
 6547SOL     OW20539   4.739   1.337   5.727
 6547SOL    HW120540   4.745   1.434   5.707
 6547SOL    HW220541   4.830   1.295   5.719
 6548SOL     OW20542   0.872   3.309   0.142
 6548SOL    HW120543   0.831   3.236   0.088
 6548SOL    HW220544   0.809   3.336   0.215
 6549SOL     OW20545   4.115   1.586   0.565
 6549SOL    HW120546   4.063   1.659   0.608
 6549SOL    HW220547   4.058   1.504   0.559
 6550SOL     OW20548   0.503   6.330   3.727
 6550SOL    HW120549   0.590   6.324   3.678
 6550SOL    HW220550   0.505   6.407   3.790
 6551SOL     OW20551   1.982   4.234   2.181
 6551SOL    HW120552   1.925   4.288   2.118
 6551SOL    HW220553   2.010   4.150   2.136
 6552SOL     OW20554   2.420   6.869   5.671
 6552SOL    HW120555   2.348   6.823   5.723
 6552SOL    HW220556   2.387   6.958   5.640
 6553SOL     OW20557   0.940   1.586   2.612
 6553SOL    HW120558   0.996   1.514   2.655
 6553SOL    HW220559   0.844   1.562   2.621
 6554SOL     OW20560   6.795   1.508   5.667
 6554SOL    HW120561   6.768   1.564   5.745
 6554SOL    HW220562   6.823   1.417   5.699
 6555SOL     OW20563   0.556   2.244   1.785
 6555SOL    HW120564   0.639   2.297   1.804
 6555SOL    HW220565   0.476   2.301   1.797
 6556SOL     OW20566   4.373   4.815   5.290
 6556SOL    HW120567   4.438   4.884   5.321
 6556SOL    HW220568   4.350   4.832   5.194
 6557SOL     OW20569   4.181   5.465   1.842
 6557SOL    HW120570   4.087   5.467   1.875
 6557SOL    HW220571   4.231   5.544   1.879
 6558SOL     OW20572   6.318   5.469   0.186
 6558SOL    HW120573   6.353   5.382   0.152
 6558SOL    HW220574   6.220   5.460   0.204
 6559SOL     OW20575   6.312   4.097   6.777
 6559SOL    HW120576   6.233   4.062   6.725
 6559SOL    HW220577   6.376   4.142   6.715
 6560SOL     OW20578   3.786   3.803   1.234
 6560SOL    HW120579   3.780   3.902   1.229
 6560SOL    HW220580   3.785   3.774   1.330
 6561SOL     OW20581   3.703   3.936   1.962
 6561SOL    HW120582   3.605   3.935   1.981
 6561SOL    HW220583   3.721   4.000   1.887
 6562SOL     OW20584   5.811   4.707   0.074
 6562SOL    HW120585   5.750   4.629   0.059
 6562SOL    HW220586   5.906   4.678   0.059
 6563SOL     OW20587   0.079   6.002   0.338
 6563SOL    HW120588   0.166   6.038   0.305
 6563SOL    HW220589   0.084   5.903   0.347
 6564SOL     OW20590   6.552   3.966   2.803
 6564SOL    HW120591   6.556   4.002   2.896
 6564SOL    HW220592   6.591   4.032   2.739
 6565SOL     OW20593   6.122   2.455   4.290
 6565SOL    HW120594   6.110   2.554   4.301
 6565SOL    HW220595   6.152   2.436   4.197
 6566SOL     OW20596   2.794   6.810   1.823
 6566SOL    HW120597   2.737   6.775   1.749
 6566SOL    HW220598   2.757   6.780   1.911
 6567SOL     OW20599   3.922   2.796   1.079
 6567SOL    HW120600   3.911   2.697   1.089
 6567SOL    HW220601   3.904   2.841   1.166
 6568SOL     OW20602   4.949   6.361   3.137
 6568SOL    HW120603   4.919   6.317   3.052
 6568SOL    HW220604   4.964   6.292   3.207
 6569SOL     OW20605   3.107   3.992   0.991
 6569SOL    HW120606   3.191   4.035   0.959
 6569SOL    HW220607   3.034   4.005   0.924
 6570SOL     OW20608   4.614   6.488   1.931
 6570SOL    HW120609   4.571   6.402   1.955
 6570SOL    HW220610   4.711   6.472   1.909
 6571SOL     OW20611   2.572   6.198   1.797
 6571SOL    HW120612   2.600   6.276   1.742
 6571SOL    HW220613   2.627   6.118   1.772
 6572SOL     OW20614   6.834   5.660   5.523
 6572SOL    HW120615   6.819   5.561   5.511
 6572SOL    HW220616   6.746   5.706   5.535
 6573SOL     OW20617   2.567   1.367   2.555
 6573SOL    HW120618   2.562   1.299   2.629
 6573SOL    HW220619   2.610   1.326   2.475
 6574SOL     OW20620   2.895   5.926   2.450
 6574SOL    HW120621   2.884   5.968   2.540
 6574SOL    HW220622   2.982   5.877   2.446
 6575SOL     OW20623   0.686   1.388   2.169
 6575SOL    HW120624   0.697   1.318   2.098
 6575SOL    HW220625   0.769   1.393   2.224
 6576SOL     OW20626   1.421   6.439   6.346
 6576SOL    HW120627   1.327   6.438   6.311
 6576SOL    HW220628   1.438   6.526   6.393
 6577SOL     OW20629   0.554   2.013   3.801
 6577SOL    HW120630   0.626   2.083   3.801
 6577SOL    HW220631   0.589   1.929   3.761
 6578SOL     OW20632   0.461   4.436   2.799
 6578SOL    HW120633   0.504   4.367   2.741
 6578SOL    HW220634   0.364   4.443   2.775
 6579SOL     OW20635   0.376   3.933   4.631
 6579SOL    HW120636   0.351   3.941   4.534
 6579SOL    HW220637   0.456   3.874   4.640
 6580SOL     OW20638   6.877   1.253   1.218
 6580SOL    HW120639   6.946   1.243   1.145
 6580SOL    HW220640   6.917   1.224   1.305
 6581SOL     OW20641   3.197   1.276   6.781
 6581SOL    HW120642   3.207   1.368   6.819
 6581SOL    HW220643   3.287   1.242   6.752
 6582SOL     OW20644   1.880   0.693   2.066
 6582SOL    HW120645   1.936   0.610   2.074
 6582SOL    HW220646   1.934   0.772   2.096
 6583SOL     OW20647   4.473   0.223   5.156
 6583SOL    HW120648   4.491   0.167   5.236
 6583SOL    HW220649   4.434   0.311   5.185
 6584SOL     OW20650   4.719   1.866   6.849
 6584SOL    HW120651   4.804   1.865   6.902
 6584SOL    HW220652   4.741   1.872   6.751
 6585SOL     OW20653   6.805   0.667   0.156
 6585SOL    HW120654   6.815   0.568   0.141
 6585SOL    HW220655   6.709   0.687   0.175
 6586SOL     OW20656   6.125   2.622   6.107
 6586SOL    HW120657   6.147   2.587   6.198
 6586SOL    HW220658   6.185   2.578   6.040
 6587SOL     OW20659   2.601   5.897   4.902
 6587SOL    HW120660   2.608   5.989   4.862
 6587SOL    HW220661   2.510   5.884   4.940
 6588SOL     OW20662   1.577   3.973   1.392
 6588SOL    HW120663   1.514   3.934   1.459
 6588SOL    HW220664   1.663   3.923   1.393
 6589SOL     OW20665   4.586   0.243   6.427
 6589SOL    HW120666   4.557   0.206   6.515
 6589SOL    HW220667   4.648   0.320   6.441
 6590SOL     OW20668   0.931   1.179   5.872
 6590SOL    HW120669   0.946   1.090   5.828
 6590SOL    HW220670   0.871   1.234   5.815
 6591SOL     OW20671   5.005   6.113   2.599
 6591SOL    HW120672   5.028   6.044   2.530
 6591SOL    HW220673   4.921   6.161   2.572
 6592SOL     OW20674   6.030   6.813   3.939
 6592SOL    HW120675   5.957   6.748   3.921
 6592SOL    HW220676   6.041   6.873   3.859
 6593SOL     OW20677   2.391   1.731   3.657
 6593SOL    HW120678   2.399   1.813   3.713
 6593SOL    HW220679   2.298   1.695   3.665
 6594SOL     OW20680   4.072   1.600   0.261
 6594SOL    HW120681   4.018   1.516   0.254
 6594SOL    HW220682   4.106   1.610   0.355
 6595SOL     OW20683   0.553   3.350   1.019
 6595SOL    HW120684   0.619   3.369   0.947
 6595SOL    HW220685   0.587   3.277   1.077
 6596SOL     OW20686   3.307   6.734   4.563
 6596SOL    HW120687   3.240   6.679   4.513
 6596SOL    HW220688   3.319   6.822   4.518
 6597SOL     OW20689   1.718   6.442   3.319
 6597SOL    HW120690   1.754   6.509   3.384
 6597SOL    HW220691   1.728   6.477   3.226
 6598SOL     OW20692   0.704   0.025   4.341
 6598SOL    HW120693   0.695   0.088   4.419
 6598SOL    HW220694   0.613   0.002   4.306
 6599SOL     OW20695   3.388   5.739   5.700
 6599SOL    HW120696   3.462   5.721   5.635
 6599SOL    HW220697   3.427   5.753   5.791
 6600SOL     OW20698   4.462   5.028   6.054
 6600SOL    HW120699   4.486   5.056   6.147
 6600SOL    HW220700   4.534   5.057   5.991
 6601SOL     OW20701   0.609   1.225   6.431
 6601SOL    HW120702   0.559   1.301   6.471
 6601SOL    HW220703   0.707   1.241   6.439
 6602SOL     OW20704   6.955   1.308   1.873
 6602SOL    HW120705   6.887   1.333   1.941
 6602SOL    HW220706   7.017   1.239   1.911
 6603SOL     OW20707   0.883   2.931   4.368
 6603SOL    HW120708   0.961   2.911   4.308
 6603SOL    HW220709   0.821   2.994   4.322
 6604SOL     OW20710   2.489   6.481   0.656
 6604SOL    HW120711   2.488   6.456   0.752
 6604SOL    HW220712   2.437   6.414   0.603
 6605SOL     OW20713   5.557   4.595   1.290
 6605SOL    HW120714   5.496   4.591   1.211
 6605SOL    HW220715   5.629   4.663   1.273
 6606SOL     OW20716   5.111   0.234   2.590
 6606SOL    HW120717   5.143   0.139   2.587
 6606SOL    HW220718   5.150   0.285   2.513
 6607SOL     OW20719   1.763   2.453   1.325
 6607SOL    HW120720   1.831   2.509   1.278
 6607SOL    HW220721   1.717   2.508   1.395
 6608SOL     OW20722   4.825   5.819   2.245
 6608SOL    HW120723   4.842   5.765   2.162
 6608SOL    HW220724   4.913   5.837   2.291
 6609SOL     OW20725   4.760   0.907   6.035
 6609SOL    HW120726   4.853   0.939   6.014
 6609SOL    HW220727   4.714   0.880   5.951
 6610SOL     OW20728   2.431   1.389   6.221
 6610SOL    HW120729   2.477   1.385   6.310
 6610SOL    HW220730   2.359   1.457   6.224
 6611SOL     OW20731   6.228   2.671   3.731
 6611SOL    HW120732   6.197   2.678   3.826
 6611SOL    HW220733   6.324   2.644   3.729
 6612SOL     OW20734   0.203   2.790   6.902
 6612SOL    HW120735   0.129   2.849   6.869
 6612SOL    HW220736   0.221   2.718   6.835
 6613SOL     OW20737   6.083   6.071   4.785
 6613SOL    HW120738   6.149   6.061   4.710
 6613SOL    HW220739   6.071   5.983   4.830
 6614SOL     OW20740   5.582   6.116   0.108
 6614SOL    HW120741   5.651   6.087   0.175
 6614SOL    HW220742   5.601   6.074   0.020
 6615SOL     OW20743   0.815   4.622   3.549
 6615SOL    HW120744   0.854   4.655   3.635
 6615SOL    HW220745   0.854   4.673   3.473
 6616SOL     OW20746   4.262   1.316   5.884
 6616SOL    HW120747   4.361   1.303   5.881
 6616SOL    HW220748   4.227   1.288   5.973
 6617SOL     OW20749   3.267   5.831   3.260
 6617SOL    HW120750   3.366   5.815   3.260
 6617SOL    HW220751   3.235   5.838   3.166
 6618SOL     OW20752   1.146   3.180   3.285
 6618SOL    HW120753   1.223   3.238   3.257
 6618SOL    HW220754   1.129   3.191   3.383
 6619SOL     OW20755   6.856   6.870   4.541
 6619SOL    HW120756   6.876   6.857   4.638
 6619SOL    HW220757   6.930   6.831   4.486
 6620SOL     OW20758   2.632   2.525   5.344
 6620SOL    HW120759   2.629   2.600   5.411
 6620SOL    HW220760   2.613   2.561   5.253
 6621SOL     OW20761   1.899   3.109   6.508
 6621SOL    HW120762   1.878   3.107   6.411
 6621SOL    HW220763   1.980   3.053   6.527
 6622SOL     OW20764   6.019   6.304   1.493
 6622SOL    HW120765   6.012   6.211   1.529
 6622SOL    HW220766   6.109   6.318   1.452
 6623SOL     OW20767   2.998   3.809   0.731
 6623SOL    HW120768   2.903   3.796   0.704
 6623SOL    HW220769   3.031   3.728   0.778
 6624SOL     OW20770   1.754   0.421   4.542
 6624SOL    HW120771   1.684   0.460   4.602
 6624SOL    HW220772   1.710   0.373   4.467
 6625SOL     OW20773   5.569   2.036   5.890
 6625SOL    HW120774   5.575   2.018   5.791
 6625SOL    HW220775   5.609   2.125   5.910
 6626SOL     OW20776   3.978   4.839   5.178
 6626SOL    HW120777   3.957   4.903   5.252
 6626SOL    HW220778   3.987   4.747   5.216
 6627SOL     OW20779   2.492   0.944   6.150
 6627SOL    HW120780   2.406   0.898   6.127
 6627SOL    HW220781   2.498   1.031   6.101
 6628SOL     OW20782   4.875   4.687   4.576
 6628SOL    HW120783   4.853   4.738   4.493
 6628SOL    HW220784   4.957   4.726   4.618
 6629SOL     OW20785   2.908   5.812   6.684
 6629SOL    HW120786   2.817   5.846   6.707
 6629SOL    HW220787   2.936   5.848   6.595
 6630SOL     OW20788   3.062   1.390   1.511
 6630SOL    HW120789   3.035   1.299   1.544
 6630SOL    HW220790   3.046   1.457   1.583
 6631SOL     OW20791   3.731   0.524   2.375
 6631SOL    HW120792   3.790   0.459   2.422
 6631SOL    HW220793   3.671   0.475   2.312
 6632SOL     OW20794   0.620   6.961   2.117
 6632SOL    HW120795   0.584   0.035   2.120
 6632SOL    HW220796   0.549   6.898   2.085
 6633SOL     OW20797   1.210   4.306   5.560
 6633SOL    HW120798   1.125   4.339   5.520
 6633SOL    HW220799   1.272   4.277   5.487
 6634SOL     OW20800   6.165   2.845   4.891
 6634SOL    HW120801   6.095   2.809   4.830
 6634SOL    HW220802   6.250   2.794   4.880
 6635SOL     OW20803   3.970   4.969   3.528
 6635SOL    HW120804   3.967   4.969   3.428
 6635SOL    HW220805   3.879   4.949   3.565
 6636SOL     OW20806   3.850   1.752   5.715
 6636SOL    HW120807   3.770   1.714   5.761
 6636SOL    HW220808   3.932   1.732   5.769
 6637SOL     OW20809   1.767   0.477   5.934
 6637SOL    HW120810   1.718   0.399   5.896
 6637SOL    HW220811   1.723   0.506   6.019
 6638SOL     OW20812   3.445   4.169   4.782
 6638SOL    HW120813   3.404   4.086   4.821
 6638SOL    HW220814   3.410   4.249   4.830
 6639SOL     OW20815   5.689   5.311   0.044
 6639SOL    HW120816   5.629   5.315   6.984
 6639SOL    HW220817   5.662   5.235   0.103
 6640SOL     OW20818   0.502   1.773   4.768
 6640SOL    HW120819   0.517   1.675   4.750
 6640SOL    HW220820   0.565   1.803   4.839
 6641SOL     OW20821   2.102   2.151   0.045
 6641SOL    HW120822   2.143   2.226   7.012
 6641SOL    HW220823   2.174   2.092   0.080
 6642SOL     OW20824   2.648   5.749   0.071
 6642SOL    HW120825   2.587   5.829   0.080
 6642SOL    HW220826   2.597   5.673   0.031
 6643SOL     OW20827   6.589   5.159   6.777
 6643SOL    HW120828   6.555   5.068   6.803
 6643SOL    HW220829   6.542   5.190   6.695
 6644SOL     OW20830   2.908   4.823   1.688
 6644SOL    HW120831   2.828   4.765   1.696
 6644SOL    HW220832   2.945   4.842   1.779
 6645SOL     OW20833   6.756   5.296   0.231
 6645SOL    HW120834   6.673   5.251   0.266
 6645SOL    HW220835   6.756   5.292   0.131
 6646SOL     OW20836   3.926   6.976   4.374
 6646SOL    HW120837   3.879   0.043   4.355
 6646SOL    HW220838   3.983   6.987   4.455
 6647SOL     OW20839   3.944   0.755   2.347
 6647SOL    HW120840   3.853   0.724   2.376
 6647SOL    HW220841   4.011   0.683   2.365
 6648SOL     OW20842   3.166   5.823   2.446
 6648SOL    HW120843   3.208   5.784   2.528
 6648SOL    HW220844   3.237   5.839   2.377
 6649SOL     OW20845   4.888   1.489   0.269
 6649SOL    HW120846   4.981   1.454   0.281
 6649SOL    HW220847   4.851   1.456   0.182
 6650SOL     OW20848   3.296   1.189   4.998
 6650SOL    HW120849   3.236   1.257   4.955
 6650SOL    HW220850   3.345   1.231   5.075
 6651SOL     OW20851   1.741   1.023   6.456
 6651SOL    HW120852   1.814   0.956   6.451
 6651SOL    HW220853   1.779   1.113   6.477
 6652SOL     OW20854   6.516   5.159   0.311
 6652SOL    HW120855   6.556   5.094   0.376
 6652SOL    HW220856   6.429   5.123   0.278
 6653SOL     OW20857   3.262   3.228   1.981
 6653SOL    HW120858   3.241   3.131   1.992
 6653SOL    HW220859   3.361   3.240   1.973
 6654SOL     OW20860   1.514   3.168   1.017
 6654SOL    HW120861   1.577   3.164   1.095
 6654SOL    HW220862   1.477   3.076   1.000
 6655SOL     OW20863   3.362   6.751   1.532
 6655SOL    HW120864   3.318   6.665   1.503
 6655SOL    HW220865   3.446   6.764   1.480
 6656SOL     OW20866   6.323   1.816   2.087
 6656SOL    HW120867   6.315   1.904   2.041
 6656SOL    HW220868   6.236   1.793   2.130
 6657SOL     OW20869   5.286   6.088   6.466
 6657SOL    HW120870   5.368   6.131   6.427
 6657SOL    HW220871   5.206   6.143   6.443
 6658SOL     OW20872   5.798   1.611   4.710
 6658SOL    HW120873   5.773   1.701   4.744
 6658SOL    HW220874   5.866   1.621   4.636
 6659SOL     OW20875   2.136   2.294   0.625
 6659SOL    HW120876   2.222   2.251   0.653
 6659SOL    HW220877   2.077   2.226   0.582
 6660SOL     OW20878   0.720   6.168   0.964
 6660SOL    HW120879   0.796   6.201   0.909
 6660SOL    HW220880   0.704   6.071   0.945
 6661SOL     OW20881   0.608   5.938   3.573
 6661SOL    HW120882   0.584   5.843   3.589
 6661SOL    HW220883   0.622   5.985   3.660
 6662SOL     OW20884   0.940   0.918   6.726
 6662SOL    HW120885   0.988   0.890   6.809
 6662SOL    HW220886   0.904   1.010   6.738
 6663SOL     OW20887   6.835   5.558   3.315
 6663SOL    HW120888   6.759   5.570   3.379
 6663SOL    HW220889   6.921   5.554   3.367
 6664SOL     OW20890   1.843   6.769   0.634
 6664SOL    HW120891   1.857   6.854   0.583
 6664SOL    HW220892   1.753   6.732   0.614
 6665SOL     OW20893   1.410   0.178   3.086
 6665SOL    HW120894   1.461   0.213   3.165
 6665SOL    HW220895   1.462   0.198   3.002
 6666SOL     OW20896   5.915   0.598   6.024
 6666SOL    HW120897   5.972   0.639   5.952
 6666SOL    HW220898   5.959   0.613   6.113
 6667SOL     OW20899   6.965   5.223   5.771
 6667SOL    HW120900   6.940   5.319   5.783
 6667SOL    HW220901   0.036   5.207   5.811
 6668SOL     OW20902   6.011   5.746   1.915
 6668SOL    HW120903   6.029   5.726   2.011
 6668SOL    HW220904   6.015   5.662   1.861
 6669SOL     OW20905   2.271   2.809   3.783
 6669SOL    HW120906   2.186   2.760   3.801
 6669SOL    HW220907   2.275   2.890   3.841
 6670SOL     OW20908   3.648   2.414   5.654
 6670SOL    HW120909   3.665   2.359   5.572
 6670SOL    HW220910   3.582   2.486   5.632
 6671SOL     OW20911   5.300   5.621   1.397
 6671SOL    HW120912   5.250   5.564   1.332
 6671SOL    HW220913   5.241   5.694   1.430
 6672SOL     OW20914   0.678   2.166   5.532
 6672SOL    HW120915   0.759   2.152   5.589
 6672SOL    HW220916   0.690   2.120   5.444
 6673SOL     OW20917   5.288   6.042   3.193
 6673SOL    HW120918   5.338   5.983   3.256
 6673SOL    HW220919   5.243   6.115   3.244
 6674SOL     OW20920   0.535   4.689   6.033
 6674SOL    HW120921   0.473   4.649   6.101
 6674SOL    HW220922   0.626   4.698   6.072
 6675SOL     OW20923   4.388   4.051   1.663
 6675SOL    HW120924   4.296   4.032   1.699
 6675SOL    HW220925   4.429   4.126   1.714
 6676SOL     OW20926   0.633   4.228   5.502
 6676SOL    HW120927   0.600   4.251   5.410
 6676SOL    HW220928   0.648   4.129   5.508
 6677SOL     OW20929   0.845   1.841   6.958
 6677SOL    HW120930   0.811   1.847   6.864
 6677SOL    HW220931   0.913   1.768   6.964
 6678SOL     OW20932   2.459   2.544   0.276
 6678SOL    HW120933   2.412   2.461   0.306
 6678SOL    HW220934   2.396   2.600   0.222
 6679SOL     OW20935   3.013   1.389   3.779
 6679SOL    HW120936   2.940   1.393   3.848
 6679SOL    HW220937   3.028   1.480   3.741
 6680SOL     OW20938   4.742   6.460   6.509
 6680SOL    HW120939   4.816   6.524   6.485
 6680SOL    HW220940   4.660   6.484   6.457
 6681SOL     OW20941   4.566   5.266   7.010
 6681SOL    HW120942   4.664   5.284   0.001
 6681SOL    HW220943   4.537   5.291   6.918
 6682SOL     OW20944   1.414   4.649   2.437
 6682SOL    HW120945   1.418   4.595   2.521
 6682SOL    HW220946   1.319   4.659   2.408
 6683SOL     OW20947   5.076   2.777   5.658
 6683SOL    HW120948   5.154   2.769   5.720
 6683SOL    HW220949   5.001   2.823   5.705
 6684SOL     OW20950   2.742   6.595   0.667
 6684SOL    HW120951   2.644   6.580   0.652
 6684SOL    HW220952   2.754   6.665   0.738
 6685SOL     OW20953   5.593   2.877   5.802
 6685SOL    HW120954   5.625   2.897   5.895
 6685SOL    HW220955   5.508   2.928   5.785
 6686SOL     OW20956   5.239   5.785   4.132
 6686SOL    HW120957   5.321   5.749   4.176
 6686SOL    HW220958   5.172   5.811   4.202
 6687SOL     OW20959   0.046   2.202   1.189
 6687SOL    HW120960   6.988   2.141   1.205
 6687SOL    HW220961   0.048   2.227   1.092
 6688SOL     OW20962   6.623   4.291   2.300
 6688SOL    HW120963   6.582   4.248   2.381
 6688SOL    HW220964   6.572   4.262   2.218
 6689SOL     OW20965   4.250   3.134   0.390
 6689SOL    HW120966   4.335   3.125   0.337
 6689SOL    HW220967   4.184   3.187   0.336
 6690SOL     OW20968   2.582   1.101   1.562
 6690SOL    HW120969   2.491   1.067   1.539
 6690SOL    HW220970   2.583   1.131   1.657
 6691SOL     OW20971   2.625   6.408   1.593
 6691SOL    HW120972   2.641   6.492   1.645
 6691SOL    HW220973   2.705   6.387   1.537
 6692SOL     OW20974   3.200   4.396   5.575
 6692SOL    HW120975   3.126   4.440   5.626
 6692SOL    HW220976   3.162   4.346   5.497
 6693SOL     OW20977   4.198   3.209   5.830
 6693SOL    HW120978   4.137   3.269   5.882
 6693SOL    HW220979   4.270   3.175   5.891
 6694SOL     OW20980   5.264   6.292   0.395
 6694SOL    HW120981   5.250   6.375   0.340
 6694SOL    HW220982   5.225   6.305   0.486
 6695SOL     OW20983   2.830   2.326   5.677
 6695SOL    HW120984   2.837   2.250   5.740
 6695SOL    HW220985   2.908   2.388   5.690
 6696SOL     OW20986   1.734   2.520   0.495
 6696SOL    HW120987   1.675   2.495   0.572
 6696SOL    HW220988   1.684   2.578   0.432
 6697SOL     OW20989   5.215   2.369   3.355
 6697SOL    HW120990   5.285   2.424   3.401
 6697SOL    HW220991   5.206   2.399   3.260
 6698SOL     OW20992   3.110   2.641   0.544
 6698SOL    HW120993   3.104   2.584   0.461
 6698SOL    HW220994   3.135   2.734   0.518
 6699SOL     OW20995   2.986   5.168   6.704
 6699SOL    HW120996   2.938   5.254   6.690
 6699SOL    HW220997   2.965   5.105   6.629
 6700SOL     OW20998   6.980   6.164   1.380
 6700SOL    HW120999   6.993   6.096   1.308
 6700SOL    HW221000   6.964   6.117   1.467
 6701SOL     OW21001   5.528   3.331   0.800
 6701SOL    HW121002   5.440   3.340   0.754
 6701SOL    HW221003   5.539   3.237   0.833
 6702SOL     OW21004   2.376   2.782   0.420
 6702SOL    HW121005   2.374   2.807   0.323
 6702SOL    HW221006   2.460   2.731   0.440
 6703SOL     OW21007   6.590   1.332   6.832
 6703SOL    HW121008   6.580   1.390   6.751
 6703SOL    HW221009   6.631   1.244   6.805
 6704SOL     OW21010   4.338   2.359   2.402
 6704SOL    HW121011   4.260   2.340   2.342
 6704SOL    HW221012   4.415   2.391   2.348
 6705SOL     OW21013   0.083   2.563   2.176
 6705SOL    HW121014   0.089   2.515   2.263
 6705SOL    HW221015   7.007   2.586   2.157
 6706SOL     OW21016   1.264   3.647   1.322
 6706SOL    HW121017   1.245   3.740   1.352
 6706SOL    HW221018   1.216   3.628   1.237
 6707SOL     OW21019   0.356   5.837   4.479
 6707SOL    HW121020   0.297   5.917   4.481
 6707SOL    HW221021   0.437   5.854   4.535
 6708SOL     OW21022   1.294   5.012   2.532
 6708SOL    HW121023   1.232   5.045   2.462
 6708SOL    HW221024   1.388   5.037   2.508
 6709SOL     OW21025   3.165   5.630   2.058
 6709SOL    HW121026   3.205   5.542   2.030
 6709SOL    HW221027   3.090   5.653   1.995
 6710SOL     OW21028   2.644   1.709   6.024
 6710SOL    HW121029   2.596   1.752   6.100
 6710SOL    HW221030   2.707   1.774   5.983
 6711SOL     OW21031   5.552   4.745   6.879
 6711SOL    HW121032   5.615   4.698   6.818
 6711SOL    HW221033   5.584   4.839   6.894
 6712SOL     OW21034   4.467   5.540   0.055
 6712SOL    HW121035   4.489   5.446   0.027
 6712SOL    HW221036   4.466   5.599   6.994
 6713SOL     OW21037   1.787   2.112   1.661
 6713SOL    HW121038   1.761   2.142   1.569
 6713SOL    HW221039   1.829   2.188   1.711
 6714SOL     OW21040   5.239   0.624   6.077
 6714SOL    HW121041   5.286   0.538   6.059
 6714SOL    HW221042   5.204   0.661   5.991
 6715SOL     OW21043   0.004   0.649   6.790
 6715SOL    HW121044   0.101   0.652   6.769
 6715SOL    HW221045   6.981   0.737   6.768
 6716SOL     OW21046   0.928   5.810   2.276
 6716SOL    HW121047   0.984   5.857   2.344
 6716SOL    HW221048   0.851   5.765   2.321
 6717SOL     OW21049   4.400   3.137   0.933
 6717SOL    HW121050   4.426   3.194   0.856
 6717SOL    HW221051   4.324   3.077   0.907
 6718SOL     OW21052   3.995   6.097   6.157
 6718SOL    HW121053   3.940   6.014   6.154
 6718SOL    HW221054   4.046   6.101   6.243
 6719SOL     OW21055   0.463   0.130   5.798
 6719SOL    HW121056   0.518   0.074   5.861
 6719SOL    HW221057   0.521   0.201   5.758
 6720SOL     OW21058   1.550   6.005   2.274
 6720SOL    HW121059   1.631   5.986   2.329
 6720SOL    HW221060   1.545   5.939   2.199
 6721SOL     OW21061   6.072   6.580   4.510
 6721SOL    HW121062   6.091   6.501   4.569
 6721SOL    HW221063   6.127   6.573   4.427
 6722SOL     OW21064   5.395   3.468   1.433
 6722SOL    HW121065   5.345   3.554   1.415
 6722SOL    HW221066   5.465   3.455   1.363
 6723SOL     OW21067   2.333   6.395   2.822
 6723SOL    HW121068   2.236   6.411   2.840
 6723SOL    HW221069   2.343   6.348   2.734
 6724SOL     OW21070   1.157   3.415   5.929
 6724SOL    HW121071   1.097   3.338   5.911
 6724SOL    HW221072   1.252   3.388   5.910
 6725SOL     OW21073   0.593   4.370   1.728
 6725SOL    HW121074   0.524   4.387   1.658
 6725SOL    HW221075   0.567   4.418   1.812
 6726SOL     OW21076   0.750   2.357   4.440
 6726SOL    HW121077   0.816   2.425   4.474
 6726SOL    HW221078   0.694   2.398   4.368
 6727SOL     OW21079   6.537   3.657   5.581
 6727SOL    HW121080   6.471   3.724   5.614
 6727SOL    HW221081   6.533   3.654   5.481
 6728SOL     OW21082   4.980   1.642   4.718
 6728SOL    HW121083   5.045   1.686   4.656
 6728SOL    HW221084   5.030   1.601   4.794
 6729SOL     OW21085   6.723   1.272   2.542
 6729SOL    HW121086   6.697   1.347   2.604
 6729SOL    HW221087   6.769   1.310   2.461
 6730SOL     OW21088   1.777   6.632   6.267
 6730SOL    HW121089   1.770   6.633   6.167
 6730SOL    HW221090   1.743   6.545   6.302
 6731SOL     OW21091   1.959   4.495   0.942
 6731SOL    HW121092   1.920   4.508   0.851
 6731SOL    HW221093   1.887   4.469   1.006
 6732SOL     OW21094   4.615   5.789   5.817
 6732SOL    HW121095   4.680   5.713   5.819
 6732SOL    HW221096   4.665   5.876   5.821
 6733SOL     OW21097   4.157   4.993   6.729
 6733SOL    HW121098   4.095   5.064   6.763
 6733SOL    HW221099   4.194   5.021   6.640
 6734SOL     OW21100   0.683   3.323   5.549
 6734SOL    HW121101   0.595   3.353   5.588
 6734SOL    HW221102   0.687   3.223   5.550
 6735SOL     OW21103   0.883   5.867   5.044
 6735SOL    HW121104   0.850   5.900   4.955
 6735SOL    HW221105   0.944   5.936   5.084
 6736SOL     OW21106   1.568   3.518   0.559
 6736SOL    HW121107   1.542   3.439   0.615
 6736SOL    HW221108   1.583   3.489   0.464
 6737SOL     OW21109   2.132   2.873   0.932
 6737SOL    HW121110   2.178   2.961   0.939
 6737SOL    HW221111   2.119   2.850   0.835
 6738SOL     OW21112   2.140   3.232   2.205
 6738SOL    HW121113   2.219   3.224   2.266
 6738SOL    HW221114   2.159   3.302   2.136
 6739SOL     OW21115   3.399   5.480   5.948
 6739SOL    HW121116   3.469   5.420   5.988
 6739SOL    HW221117   3.395   5.566   5.999
 6740SOL     OW21118   2.009   1.532   4.562
 6740SOL    HW121119   1.962   1.502   4.479
 6740SOL    HW221120   1.971   1.620   4.592
 6741SOL     OW21121   4.633   1.433   5.369
 6741SOL    HW121122   4.612   1.501   5.440
 6741SOL    HW221123   4.684   1.476   5.295
 6742SOL     OW21124   0.376   5.644   2.679
 6742SOL    HW121125   0.465   5.690   2.676
 6742SOL    HW221126   0.353   5.609   2.588
 6743SOL     OW21127   3.714   4.450   0.114
 6743SOL    HW121128   3.688   4.446   0.017
 6743SOL    HW221129   3.651   4.393   0.167
 6744SOL     OW21130   4.249   5.670   5.475
 6744SOL    HW121131   4.206   5.580   5.478
 6744SOL    HW221132   4.253   5.708   5.567
 6745SOL     OW21133   1.106   6.177   2.231
 6745SOL    HW121134   1.204   6.161   2.227
 6745SOL    HW221135   1.089   6.275   2.243
 6746SOL     OW21136   0.750   1.015   2.850
 6746SOL    HW121137   0.770   1.020   2.948
 6746SOL    HW221138   0.836   1.012   2.798
 6747SOL     OW21139   5.489   6.904   4.534
 6747SOL    HW121140   5.483   6.921   4.436
 6747SOL    HW221141   5.571   6.950   4.571
 6748SOL     OW21142   1.309   0.513   3.010
 6748SOL    HW121143   1.301   0.599   2.959
 6748SOL    HW221144   1.291   0.530   3.107
 6749SOL     OW21145   3.060   6.742   0.030
 6749SOL    HW121146   2.997   6.819   0.037
 6749SOL    HW221147   3.123   6.743   0.108
 6750SOL     OW21148   3.711   1.221   4.879
 6750SOL    HW121149   3.717   1.269   4.792
 6750SOL    HW221150   3.789   1.158   4.888
 6751SOL     OW21151   3.847   1.749   3.617
 6751SOL    HW121152   3.876   1.659   3.586
 6751SOL    HW221153   3.877   1.763   3.712
 6752SOL     OW21154   6.229   3.043   2.552
 6752SOL    HW121155   6.173   3.112   2.598
 6752SOL    HW221156   6.175   2.959   2.539
 6753SOL     OW21157   4.890   1.310   6.300
 6753SOL    HW121158   4.801   1.276   6.330
 6753SOL    HW221159   4.959   1.286   6.369
 6754SOL     OW21160   6.499   2.041   5.787
 6754SOL    HW121161   6.561   2.098   5.733
 6754SOL    HW221162   6.519   2.054   5.884
 6755SOL     OW21163   4.581   2.029   3.884
 6755SOL    HW121164   4.559   2.053   3.979
 6755SOL    HW221165   4.502   1.985   3.842
 6756SOL     OW21166   4.887   4.341   4.909
 6756SOL    HW121167   4.889   4.244   4.932
 6756SOL    HW221168   4.803   4.361   4.858
 6757SOL     OW21169   4.778   6.419   0.707
 6757SOL    HW121170   4.735   6.500   0.745
 6757SOL    HW221171   4.845   6.383   0.771
 6758SOL     OW21172   5.334   4.129   2.096
 6758SOL    HW121173   5.271   4.088   2.029
 6758SOL    HW221174   5.368   4.057   2.158
 6759SOL     OW21175   1.217   3.257   4.026
 6759SOL    HW121176   1.299   3.311   4.007
 6759SOL    HW221177   1.176   3.288   4.111
 6760SOL     OW21178   6.552   5.614   4.528
 6760SOL    HW121179   6.557   5.566   4.440
 6760SOL    HW221180   6.594   5.557   4.599
 6761SOL     OW21181   5.529   2.521   5.819
 6761SOL    HW121182   5.610   2.555   5.770
 6761SOL    HW221183   5.447   2.542   5.766
 6762SOL     OW21184   0.328   5.516   3.338
 6762SOL    HW121185   0.313   5.434   3.282
 6762SOL    HW221186   0.373   5.586   3.283
 6763SOL     OW21187   6.984   5.925   3.972
 6763SOL    HW121188   0.002   5.891   4.058
 6763SOL    HW221189   6.925   6.003   3.989
 6764SOL     OW21190   2.903   4.682   6.641
 6764SOL    HW121191   2.879   4.766   6.592
 6764SOL    HW221192   2.989   4.646   6.604
 6765SOL     OW21193   5.734   5.201   3.742
 6765SOL    HW121194   5.690   5.282   3.781
 6765SOL    HW221195   5.679   5.166   3.666
 6766SOL     OW21196   2.837   0.138   6.568
 6766SOL    HW121197   2.774   0.208   6.533
 6766SOL    HW221198   2.786   0.057   6.594
 6767SOL     OW21199   0.491   2.848   1.047
 6767SOL    HW121200   0.503   2.749   1.034
 6767SOL    HW221201   0.514   2.895   0.962
 6768SOL     OW21202   1.282   0.544   3.593
 6768SOL    HW121203   1.269   0.501   3.682
 6768SOL    HW221204   1.194   0.576   3.557
 6769SOL     OW21205   2.887   1.518   5.344
 6769SOL    HW121206   2.912   1.432   5.300
 6769SOL    HW221207   2.923   1.595   5.291
 6770SOL     OW21208   0.167   2.273   4.173
 6770SOL    HW121209   0.231   2.240   4.105
 6770SOL    HW221210   0.217   2.312   4.251
 6771SOL     OW21211   3.981   2.216   3.571
 6771SOL    HW121212   3.986   2.125   3.611
 6771SOL    HW221213   3.894   2.259   3.598
 6772SOL     OW21214   5.731   1.869   2.142
 6772SOL    HW121215   5.799   1.890   2.213
 6772SOL    HW221216   5.683   1.785   2.165
 6773SOL     OW21217   6.752   6.358   1.726
 6773SOL    HW121218   6.737   6.357   1.627
 6773SOL    HW221219   6.849   6.340   1.745
 6774SOL     OW21220   1.808   1.717   5.572
 6774SOL    HW121221   1.833   1.776   5.496
 6774SOL    HW221222   1.805   1.770   5.657
 6775SOL     OW21223   1.000   1.872   3.829
 6775SOL    HW121224   1.083   1.919   3.800
 6775SOL    HW221225   0.960   1.824   3.751
 6776SOL     OW21226   3.778   3.324   1.804
 6776SOL    HW121227   3.721   3.405   1.791
 6776SOL    HW221228   3.834   3.336   1.885
 6777SOL     OW21229   4.149   5.312   1.576
 6777SOL    HW121230   4.194   5.342   1.492
 6777SOL    HW221231   4.161   5.381   1.647
 6778SOL     OW21232   5.578   3.542   2.461
 6778SOL    HW121233   5.509   3.592   2.409
 6778SOL    HW221234   5.595   3.590   2.547
 6779SOL     OW21235   6.111   4.114   5.885
 6779SOL    HW121236   6.086   4.047   5.816
 6779SOL    HW221237   6.098   4.206   5.849
 6780SOL     OW21238   2.221   2.912   3.016
 6780SOL    HW121239   2.137   2.888   2.965
 6780SOL    HW221240   2.245   3.007   2.997
 6781SOL     OW21241   6.615   0.745   4.010
 6781SOL    HW121242   6.637   0.840   3.987
 6781SOL    HW221243   6.571   0.741   4.099
 6782SOL     OW21244   0.347   1.443   3.691
 6782SOL    HW121245   0.332   1.538   3.667
 6782SOL    HW221246   0.441   1.417   3.666
 6783SOL     OW21247   1.388   4.144   4.996
 6783SOL    HW121248   1.294   4.109   4.995
 6783SOL    HW221249   1.442   4.091   5.061
 6784SOL     OW21250   2.214   3.207   1.825
 6784SOL    HW121251   2.131   3.228   1.773
 6784SOL    HW221252   2.226   3.276   1.897
 6785SOL     OW21253   5.819   4.681   5.298
 6785SOL    HW121254   5.863   4.749   5.357
 6785SOL    HW221255   5.879   4.602   5.287
 6786SOL     OW21256   6.306   2.972   0.705
 6786SOL    HW121257   6.295   3.041   0.776
 6786SOL    HW221258   6.268   3.006   0.619
 6787SOL     OW21259   3.517   2.554   0.930
 6787SOL    HW121260   3.449   2.524   0.863
 6787SOL    HW221261   3.535   2.480   0.995
 6788SOL     OW21262   0.654   3.887   2.322
 6788SOL    HW121263   0.611   3.797   2.318
 6788SOL    HW221264   0.743   3.884   2.275
 6789SOL     OW21265   6.519   4.446   4.116
 6789SOL    HW121266   6.573   4.365   4.093
 6789SOL    HW221267   6.563   4.527   4.077
 6790SOL     OW21268   0.537   4.944   5.621
 6790SOL    HW121269   0.575   4.872   5.679
 6790SOL    HW221270   0.504   4.903   5.536
 6791SOL     OW21271   4.795   1.536   2.970
 6791SOL    HW121272   4.858   1.514   3.045
 6791SOL    HW221273   4.779   1.455   2.915
 6792SOL     OW21274   4.283   6.806   5.338
 6792SOL    HW121275   4.307   6.714   5.307
 6792SOL    HW221276   4.303   6.814   5.436
 6793SOL     OW21277   3.123   2.052   6.762
 6793SOL    HW121278   3.177   1.969   6.751
 6793SOL    HW221279   3.070   2.069   6.679
 6794SOL     OW21280   4.531   1.260   5.893
 6794SOL    HW121281   4.621   1.288   5.861
 6794SOL    HW221282   4.532   1.250   5.992
 6795SOL     OW21283   1.203   1.174   1.344
 6795SOL    HW121284   1.209   1.251   1.406
 6795SOL    HW221285   1.146   1.102   1.385
 6796SOL     OW21286   6.177   0.994   1.825
 6796SOL    HW121287   6.089   1.007   1.871
 6796SOL    HW221288   6.251   0.999   1.891
 6797SOL     OW21289   6.588   2.876   1.789
 6797SOL    HW121290   6.653   2.824   1.733
 6797SOL    HW221291   6.495   2.844   1.771
 6798SOL     OW21292   5.325   0.730   1.474
 6798SOL    HW121293   5.283   0.687   1.394
 6798SOL    HW221294   5.317   0.669   1.552
 6799SOL     OW21295   5.525   6.888   2.979
 6799SOL    HW121296   5.615   6.858   2.946
 6799SOL    HW221297   5.479   6.940   2.907
 6800SOL     OW21298   1.273   1.568   1.150
 6800SOL    HW121299   1.314   1.653   1.117
 6800SOL    HW221300   1.342   1.516   1.201
 6801SOL     OW21301   1.507   6.294   4.590
 6801SOL    HW121302   1.566   6.372   4.607
 6801SOL    HW221303   1.419   6.326   4.554
 6802SOL     OW21304   2.840   6.356   0.778
 6802SOL    HW121305   2.800   6.440   0.742
 6802SOL    HW221306   2.924   6.378   0.828
 6803SOL     OW21307   5.021   4.462   6.968
 6803SOL    HW121308   5.012   4.531   0.021
 6803SOL    HW221309   5.008   4.505   6.879
 6804SOL     OW21310   2.934   5.001   2.671
 6804SOL    HW121311   2.855   4.991   2.731
 6804SOL    HW221312   2.945   5.098   2.647
 6805SOL     OW21313   0.078   4.853   5.102
 6805SOL    HW121314   0.091   4.916   5.178
 6805SOL    HW221315   0.110   4.895   5.017
 6806SOL     OW21316   6.861   0.614   3.993
 6806SOL    HW121317   6.908   0.613   3.905
 6806SOL    HW221318   6.785   0.679   3.989
 6807SOL     OW21319   3.580   3.288   3.602
 6807SOL    HW121320   3.650   3.290   3.673
 6807SOL    HW221321   3.581   3.374   3.550
 6808SOL     OW21322   4.986   1.142   5.163
 6808SOL    HW121323   5.037   1.068   5.118
 6808SOL    HW221324   5.046   1.189   5.228
 6809SOL     OW21325   6.079   4.777   1.665
 6809SOL    HW121326   5.985   4.752   1.689
 6809SOL    HW221327   6.133   4.787   1.748
 6810SOL     OW21328   3.457   0.823   3.308
 6810SOL    HW121329   3.474   0.913   3.268
 6810SOL    HW221330   3.508   0.815   3.394
 6811SOL     OW21331   6.956   1.938   2.711
 6811SOL    HW121332   6.954   2.018   2.772
 6811SOL    HW221333   6.877   1.941   2.649
 6812SOL     OW21334   3.505   3.530   4.731
 6812SOL    HW121335   3.531   3.439   4.764
 6812SOL    HW221336   3.466   3.522   4.639
 6813SOL     OW21337   5.024   3.451   1.592
 6813SOL    HW121338   5.079   3.369   1.609
 6813SOL    HW221339   4.958   3.463   1.667
 6814SOL     OW21340   4.266   1.596   5.966
 6814SOL    HW121341   4.289   1.656   6.042
 6814SOL    HW221342   4.289   1.502   5.989
 6815SOL     OW21343   1.837   4.962   6.692
 6815SOL    HW121344   1.899   5.023   6.642
 6815SOL    HW221345   1.784   4.907   6.627
 6816SOL     OW21346   6.430   1.738   4.733
 6816SOL    HW121347   6.368   1.798   4.682
 6816SOL    HW221348   6.425   1.760   4.830
 6817SOL     OW21349   2.863   2.258   3.333
 6817SOL    HW121350   2.824   2.345   3.363
 6817SOL    HW221351   2.844   2.188   3.401
 6818SOL     OW21352   1.970   6.347   5.968
 6818SOL    HW121353   1.929   6.270   6.017
 6818SOL    HW221354   2.053   6.376   6.015
 6819SOL     OW21355   4.635   5.420   3.226
 6819SOL    HW121356   4.669   5.379   3.311
 6819SOL    HW221357   4.606   5.514   3.244
 6820SOL     OW21358   1.312   6.640   1.295
 6820SOL    HW121359   1.248   6.714   1.312
 6820SOL    HW221360   1.351   6.650   1.203
 6821SOL     OW21361   4.101   2.160   5.413
 6821SOL    HW121362   4.161   2.081   5.415
 6821SOL    HW221363   4.064   2.176   5.505
 6822SOL     OW21364   6.795   2.958   6.445
 6822SOL    HW121365   6.753   2.877   6.487
 6822SOL    HW221366   6.883   2.977   6.490
 6823SOL     OW21367   4.885   3.927   6.887
 6823SOL    HW121368   4.903   3.952   6.982
 6823SOL    HW221369   4.875   3.827   6.881
 6824SOL     OW21370   1.710   1.650   6.811
 6824SOL    HW121371   1.649   1.689   6.880
 6824SOL    HW221372   1.655   1.609   6.738
 6825SOL     OW21373   6.578   6.067   1.312
 6825SOL    HW121374   6.578   6.152   1.259
 6825SOL    HW221375   6.658   6.012   1.288
 6826SOL     OW21376   0.447   3.672   2.960
 6826SOL    HW121377   0.506   3.749   2.937
 6826SOL    HW221378   0.499   3.587   2.953
 6827SOL     OW21379   4.858   5.149   5.464
 6827SOL    HW121380   4.853   5.191   5.555
 6827SOL    HW221381   4.949   5.113   5.448
 6828SOL     OW21382   3.905   1.639   3.024
 6828SOL    HW121383   3.888   1.583   2.942
 6828SOL    HW221384   3.973   1.709   3.003
 6829SOL     OW21385   5.703   0.235   5.214
 6829SOL    HW121386   5.605   0.228   5.237
 6829SOL    HW221387   5.740   0.320   5.251
 6830SOL     OW21388   6.157   1.120   3.277
 6830SOL    HW121389   6.130   1.137   3.183
 6830SOL    HW221390   6.092   1.165   3.339
 6831SOL     OW21391   1.079   1.514   5.548
 6831SOL    HW121392   1.109   1.457   5.624
 6831SOL    HW221393   1.035   1.457   5.478
 6832SOL     OW21394   2.868   2.303   0.195
 6832SOL    HW121395   2.882   2.321   0.293
 6832SOL    HW221396   2.914   2.373   0.141
 6833SOL     OW21397   3.185   5.487   6.255
 6833SOL    HW121398   3.087   5.484   6.233
 6833SOL    HW221399   3.226   5.569   6.215
 6834SOL     OW21400   5.234   0.050   0.495
 6834SOL    HW121401   5.194   0.095   0.574
 6834SOL    HW221402   5.333   0.063   0.496
 6835SOL     OW21403   3.723   1.593   3.845
 6835SOL    HW121404   3.670   1.668   3.807
 6835SOL    HW221405   3.813   1.628   3.875
 6836SOL     OW21406   1.941   4.668   6.503
 6836SOL    HW121407   1.927   4.601   6.575
 6836SOL    HW221408   1.993   4.626   6.428
 6837SOL     OW21409   1.199   0.870   2.415
 6837SOL    HW121410   1.284   0.821   2.432
 6837SOL    HW221411   1.217   0.968   2.412
 6838SOL     OW21412   2.816   4.262   5.541
 6838SOL    HW121413   2.876   4.297   5.468
 6838SOL    HW221414   2.721   4.279   5.516
 6839SOL     OW21415   5.097   1.710   3.880
 6839SOL    HW121416   5.180   1.670   3.919
 6839SOL    HW221417   5.017   1.657   3.909
 6840SOL     OW21418   2.853   6.649   4.687
 6840SOL    HW121419   2.918   6.725   4.690
 6840SOL    HW221420   2.898   6.568   4.649
 6841SOL     OW21421   4.032   5.071   1.666
 6841SOL    HW121422   3.983   5.015   1.600
 6841SOL    HW221423   4.085   5.141   1.618
 6842SOL     OW21424   1.073   3.071   0.043
 6842SOL    HW121425   1.020   3.129   0.105
 6842SOL    HW221426   1.140   3.019   0.095
 6843SOL     OW21427   4.792   1.593   1.956
 6843SOL    HW121428   4.697   1.623   1.953
 6843SOL    HW221429   4.850   1.666   1.992
 6844SOL     OW21430   4.844   5.624   4.541
 6844SOL    HW121431   4.876   5.597   4.450
 6844SOL    HW221432   4.851   5.546   4.603
 6845SOL     OW21433   4.368   4.558   2.862
 6845SOL    HW121434   4.353   4.543   2.959
 6845SOL    HW221435   4.457   4.520   2.835
 6846SOL     OW21436   3.896   3.292   1.282
 6846SOL    HW121437   3.851   3.333   1.203
 6846SOL    HW221438   3.986   3.258   1.256
 6847SOL     OW21439   4.733   3.718   1.721
 6847SOL    HW121440   4.722   3.625   1.754
 6847SOL    HW221441   4.659   3.740   1.658
 6848SOL     OW21442   1.011   4.889   4.651
 6848SOL    HW121443   0.941   4.824   4.623
 6848SOL    HW221444   1.012   4.966   4.587
 6849SOL     OW21445   4.012   5.628   4.221
 6849SOL    HW121446   3.913   5.627   4.238
 6849SOL    HW221447   4.059   5.583   4.297
 6850SOL     OW21448   6.214   2.200   3.690
 6850SOL    HW121449   6.271   2.280   3.704
 6850SOL    HW221450   6.119   2.221   3.717
 6851SOL     OW21451   0.654   4.748   5.782
 6851SOL    HW121452   0.670   4.656   5.749
 6851SOL    HW221453   0.611   4.744   5.873
 6852SOL     OW21454   0.887   4.254   1.936
 6852SOL    HW121455   0.977   4.259   1.892
 6852SOL    HW221456   0.847   4.345   1.942
 6853SOL     OW21457   0.009   5.043   6.035
 6853SOL    HW121458   6.979   4.977   5.978
 6853SOL    HW221459   0.077   5.091   5.980
 6854SOL     OW21460   6.611   1.338   5.915
 6854SOL    HW121461   6.639   1.331   6.011
 6854SOL    HW221462   6.692   1.343   5.857
 6855SOL     OW21463   3.681   6.828   2.527
 6855SOL    HW121464   3.766   6.791   2.564
 6855SOL    HW221465   3.658   6.913   2.574
 6856SOL     OW21466   5.937   4.057   5.296
 6856SOL    HW121467   5.860   4.047   5.233
 6856SOL    HW221468   5.914   4.127   5.365
 6857SOL     OW21469   3.351   1.249   6.351
 6857SOL    HW121470   3.349   1.211   6.258
 6857SOL    HW221471   3.353   1.175   6.417
 6858SOL     OW21472   3.912   3.051   4.160
 6858SOL    HW121473   3.852   2.992   4.213
 6858SOL    HW221474   3.945   3.126   4.217
 6859SOL     OW21475   1.778   0.027   0.957
 6859SOL    HW121476   1.725   0.109   0.976
 6859SOL    HW221477   1.831   0.041   0.873
 6860SOL     OW21478   5.498   4.721   1.784
 6860SOL    HW121479   5.417   4.674   1.748
 6860SOL    HW221480   5.542   4.663   1.853
 6861SOL     OW21481   5.670   4.743   0.807
 6861SOL    HW121482   5.734   4.771   0.879
 6861SOL    HW221483   5.585   4.711   0.848
 6862SOL     OW21484   2.645   5.001   4.896
 6862SOL    HW121485   2.684   5.076   4.949
 6862SOL    HW221486   2.703   4.920   4.906
 6863SOL     OW21487   5.949   1.204   4.908
 6863SOL    HW121488   5.967   1.112   4.941
 6863SOL    HW221489   6.022   1.231   4.845
 6864SOL     OW21490   3.603   5.921   3.944
 6864SOL    HW121491   3.575   5.973   3.863
 6864SOL    HW221492   3.639   5.832   3.914
 6865SOL     OW21493   6.357   4.486   3.820
 6865SOL    HW121494   6.315   4.487   3.729
 6865SOL    HW221495   6.451   4.520   3.814
 6866SOL     OW21496   6.234   3.986   2.157
 6866SOL    HW121497   6.232   4.083   2.135
 6866SOL    HW221498   6.184   3.970   2.243
 6867SOL     OW21499   1.329   3.926   1.258
 6867SOL    HW121500   1.393   3.865   1.210
 6867SOL    HW221501   1.379   4.006   1.292
 6868SOL     OW21502   1.915   6.073   4.855
 6868SOL    HW121503   1.890   6.166   4.826
 6868SOL    HW221504   1.834   6.027   4.892
 6869SOL     OW21505   5.643   3.417   4.586
 6869SOL    HW121506   5.726   3.399   4.639
 6869SOL    HW221507   5.566   3.433   4.647
 6870SOL     OW21508   6.013   3.381   3.079
 6870SOL    HW121509   5.977   3.405   2.989
 6870SOL    HW221510   5.969   3.437   3.148
 6871SOL     OW21511   6.140   4.923   2.000
 6871SOL    HW121512   6.164   4.829   1.978
 6871SOL    HW221513   6.046   4.926   2.035
 6872SOL     OW21514   1.645   3.559   1.004
 6872SOL    HW121515   1.601   3.557   1.094
 6872SOL    HW221516   1.583   3.523   0.936
 6873SOL     OW21517   5.993   3.442   5.741
 6873SOL    HW121518   5.996   3.436   5.841
 6873SOL    HW221519   5.899   3.426   5.710
 6874SOL     OW21520   0.578   4.014   3.199
 6874SOL    HW121521   0.543   3.971   3.115
 6874SOL    HW221522   0.633   3.949   3.250
 6875SOL     OW21523   1.327   2.110   3.393
 6875SOL    HW121524   1.407   2.051   3.405
 6875SOL    HW221525   1.293   2.101   3.299
 6876SOL     OW21526   3.595   5.391   6.596
 6876SOL    HW121527   3.563   5.484   6.613
 6876SOL    HW221528   3.578   5.335   6.678
 6877SOL     OW21529   2.861   4.116   6.895
 6877SOL    HW121530   2.939   4.116   6.958
 6877SOL    HW221531   2.886   4.069   6.811
 6878SOL     OW21532   1.948   1.782   5.941
 6878SOL    HW121533   2.045   1.786   5.965
 6878SOL    HW221534   1.927   1.692   5.902
 6879SOL     OW21535   0.436   2.171   0.576
 6879SOL    HW121536   0.383   2.086   0.568
 6879SOL    HW221537   0.382   2.238   0.627
 6880SOL     OW21538   2.186   3.310   4.963
 6880SOL    HW121539   2.239   3.226   4.954
 6880SOL    HW221540   2.142   3.332   4.876
 6881SOL     OW21541   6.823   4.575   2.048
 6881SOL    HW121542   6.915   4.538   2.030
 6881SOL    HW221543   6.754   4.511   2.015
 6882SOL     OW21544   2.258   0.576   5.787
 6882SOL    HW121545   2.256   0.676   5.777
 6882SOL    HW221546   2.347   0.542   5.758
 6883SOL     OW21547   3.485   0.625   1.234
 6883SOL    HW121548   3.415   0.561   1.267
 6883SOL    HW221549   3.552   0.577   1.179
 6884SOL     OW21550   2.309   4.501   4.018
 6884SOL    HW121551   2.239   4.553   4.067
 6884SOL    HW221552   2.374   4.564   3.976
 6885SOL     OW21553   2.631   5.508   3.726
 6885SOL    HW121554   2.667   5.415   3.734
 6885SOL    HW221555   2.693   5.571   3.771
 6886SOL     OW21556   5.700   1.076   2.180
 6886SOL    HW121557   5.734   1.089   2.273
 6886SOL    HW221558   5.759   1.124   2.116
 6887SOL     OW21559   5.263   0.862   5.404
 6887SOL    HW121560   5.299   0.956   5.408
 6887SOL    HW221561   5.264   0.831   5.309
 6888SOL     OW21562   5.784   6.942   5.844
 6888SOL    HW121563   5.715   6.881   5.884
 6888SOL    HW221564   5.875   6.914   5.874
 6889SOL     OW21565   1.158   2.888   5.974
 6889SOL    HW121566   1.150   2.921   5.880
 6889SOL    HW221567   1.190   2.793   5.973
 6890SOL     OW21568   1.710   0.283   0.590
 6890SOL    HW121569   1.734   0.373   0.626
 6890SOL    HW221570   1.788   0.244   0.542
 6891SOL     OW21571   1.923   3.984   4.791
 6891SOL    HW121572   1.965   3.935   4.868
 6891SOL    HW221573   1.835   3.941   4.770
 6892SOL     OW21574   4.400   0.208   4.285
 6892SOL    HW121575   4.362   0.117   4.267
 6892SOL    HW221576   4.450   0.240   4.204
 6893SOL     OW21577   5.470   6.275   2.211
 6893SOL    HW121578   5.373   6.283   2.231
 6893SOL    HW221579   5.512   6.366   2.208
 6894SOL     OW21580   6.177   5.784   1.027
 6894SOL    HW121581   6.112   5.757   0.956
 6894SOL    HW221582   6.164   5.725   1.107
 6895SOL     OW21583   3.113   4.729   6.895
 6895SOL    HW121584   3.081   4.637   6.873
 6895SOL    HW221585   3.165   4.765   6.818
 6896SOL     OW21586   4.276   0.037   3.725
 6896SOL    HW121587   4.272   6.984   3.656
 6896SOL    HW221588   4.186   0.048   3.768
 6897SOL     OW21589   2.764   3.408   0.425
 6897SOL    HW121590   2.816   3.491   0.403
 6897SOL    HW221591   2.800   3.331   0.371
 6898SOL     OW21592   4.373   1.687   2.223
 6898SOL    HW121593   4.377   1.588   2.212
 6898SOL    HW221594   4.366   1.731   2.133
 6899SOL     OW21595   4.874   7.000   6.680
 6899SOL    HW121596   4.869   6.953   6.768
 6899SOL    HW221597   4.969   7.005   6.650
 6900SOL     OW21598   6.345   0.518   6.302
 6900SOL    HW121599   6.286   0.489   6.226
 6900SOL    HW221600   6.349   0.618   6.304
 6901SOL     OW21601   0.368   7.005   6.482
 6901SOL    HW121602   0.344   0.028   6.395
 6901SOL    HW221603   0.467   7.005   6.493
 6902SOL     OW21604   6.962   6.610   0.396
 6902SOL    HW121605   6.960   6.623   0.495
 6902SOL    HW221606   0.036   6.621   0.362
 6903SOL     OW21607   3.713   3.572   6.989
 6903SOL    HW121608   3.696   3.559   0.067
 6903SOL    HW221609   3.683   3.664   6.961
 6904SOL     OW21610   6.831   1.030   3.388
 6904SOL    HW121611   6.814   1.112   3.333
 6904SOL    HW221612   6.797   0.949   3.340
 6905SOL     OW21613   5.962   6.345   0.195
 6905SOL    HW121614   6.034   6.300   0.143
 6905SOL    HW221615   5.985   6.344   0.292
 6906SOL     OW21616   3.849   1.211   4.438
 6906SOL    HW121617   3.857   1.149   4.517
 6906SOL    HW221618   3.940   1.226   4.399
 6907SOL     OW21619   3.760   2.051   0.635
 6907SOL    HW121620   3.846   2.062   0.685
 6907SOL    HW221621   3.749   2.125   0.569
 6908SOL     OW21622   1.565   0.225   5.081
 6908SOL    HW121623   1.471   0.203   5.107
 6908SOL    HW221624   1.620   0.236   5.163
 6909SOL     OW21625   4.571   4.544   0.972
 6909SOL    HW121626   4.577   4.643   0.984
 6909SOL    HW221627   4.478   4.513   0.991
 6910SOL     OW21628   6.545   1.673   2.899
 6910SOL    HW121629   6.481   1.596   2.902
 6910SOL    HW221630   6.494   1.758   2.886
 6911SOL     OW21631   4.456   0.335   3.407
 6911SOL    HW121632   4.451   0.407   3.476
 6911SOL    HW221633   4.380   0.272   3.418
 6912SOL     OW21634   4.837   4.641   1.790
 6912SOL    HW121635   4.746   4.601   1.789
 6912SOL    HW221636   4.886   4.616   1.706
 6913SOL     OW21637   5.279   4.243   5.635
 6913SOL    HW121638   5.271   4.327   5.581
 6913SOL    HW221639   5.196   4.188   5.624
 6914SOL     OW21640   5.959   5.436   0.055
 6914SOL    HW121641   5.982   5.474   6.984
 6914SOL    HW221642   5.860   5.429   0.064
 6915SOL     OW21643   0.437   4.715   1.830
 6915SOL    HW121644   0.371   4.783   1.862
 6915SOL    HW221645   0.491   4.754   1.755
 6916SOL     OW21646   6.287   4.305   6.976
 6916SOL    HW121647   6.215   4.298   0.026
 6916SOL    HW221648   6.274   4.234   6.907
 6917SOL     OW21649   4.515   5.015   6.730
 6917SOL    HW121650   4.576   5.000   6.808
 6917SOL    HW221651   4.434   4.957   6.740
 6918SOL     OW21652   0.375   4.318   4.160
 6918SOL    HW121653   0.363   4.399   4.101
 6918SOL    HW221654   0.472   4.293   4.161
 6919SOL     OW21655   1.707   5.433   2.367
 6919SOL    HW121656   1.732   5.482   2.451
 6919SOL    HW221657   1.790   5.399   2.322
 6920SOL     OW21658   5.061   5.070   5.823
 6920SOL    HW121659   5.014   5.136   5.764
 6920SOL    HW221660   5.158   5.066   5.798
 6921SOL     OW21661   5.799   5.812   3.252
 6921SOL    HW121662   5.789   5.731   3.308
 6921SOL    HW221663   5.783   5.894   3.307
 6922SOL     OW21664   1.746   5.696   6.973
 6922SOL    HW121665   1.654   5.735   6.965
 6922SOL    HW221666   1.808   5.766   7.010
 6923SOL     OW21667   5.201   6.469   3.944
 6923SOL    HW121668   5.205   6.569   3.948
 6923SOL    HW221669   5.176   6.433   4.034
 6924SOL     OW21670   0.651   4.127   6.831
 6924SOL    HW121671   0.641   4.028   6.836
 6924SOL    HW221672   0.564   4.171   6.850
 6925SOL     OW21673   4.000   6.441   4.072
 6925SOL    HW121674   3.986   6.438   3.973
 6925SOL    HW221675   3.919   6.404   4.118
 6926SOL     OW21676   3.493   3.594   2.983
 6926SOL    HW121677   3.556   3.517   2.968
 6926SOL    HW221678   3.457   3.625   2.895
 6927SOL     OW21679   5.532   3.054   6.052
 6927SOL    HW121680   5.514   2.983   6.120
 6927SOL    HW221681   5.480   3.035   5.969
 6928SOL     OW21682   5.168   6.949   6.955
 6928SOL    HW121683   5.246   6.910   6.906
 6928SOL    HW221684   5.176   0.030   6.956
 6929SOL     OW21685   4.723   5.959   0.143
 6929SOL    HW121686   4.661   5.919   0.210
 6929SOL    HW221687   4.757   6.047   0.176
 6930SOL     OW21688   0.158   6.674   1.600
 6930SOL    HW121689   0.066   6.647   1.571
 6930SOL    HW221690   0.152   6.726   1.685
 6931SOL     OW21691   0.848   0.729   1.591
 6931SOL    HW121692   0.796   0.644   1.584
 6931SOL    HW221693   0.788   0.806   1.567
 6932SOL     OW21694   3.072   0.977   0.303
 6932SOL    HW121695   3.172   0.981   0.304
 6932SOL    HW221696   3.036   1.011   0.390
 6933SOL     OW21697   3.807   6.004   4.658
 6933SOL    HW121698   3.902   5.983   4.636
 6933SOL    HW221699   3.798   6.018   4.757
 6934SOL     OW21700   5.310   3.752   6.300
 6934SOL    HW121701   5.389   3.797   6.341
 6934SOL    HW221702   5.337   3.663   6.263
 6935SOL     OW21703   4.105   6.519   2.792
 6935SOL    HW121704   4.148   6.548   2.706
 6935SOL    HW221705   4.071   6.600   2.841
 6936SOL     OW21706   6.698   1.959   2.549
 6936SOL    HW121707   6.675   2.055   2.564
 6936SOL    HW221708   6.614   1.905   2.544
 6937SOL     OW21709   5.351   6.797   6.801
 6937SOL    HW121710   5.432   6.856   6.794
 6937SOL    HW221711   5.381   6.702   6.809
 6938SOL     OW21712   5.048   3.762   5.288
 6938SOL    HW121713   5.040   3.676   5.337
 6938SOL    HW221714   5.113   3.822   5.335
 6939SOL     OW21715   6.956   5.384   3.147
 6939SOL    HW121716   6.941   5.295   3.189
 6939SOL    HW221717   6.908   5.455   3.200
 6940SOL     OW21718   4.299   1.195   0.938
 6940SOL    HW121719   4.330   1.121   0.998
 6940SOL    HW221720   4.202   1.183   0.919
 6941SOL     OW21721   4.046   3.153   2.391
 6941SOL    HW121722   4.074   3.249   2.390
 6941SOL    HW221723   4.061   3.115   2.482
 6942SOL     OW21724   0.566   2.991   1.324
 6942SOL    HW121725   0.541   2.952   1.236
 6942SOL    HW221726   0.637   3.061   1.312
 6943SOL     OW21727   4.955   6.514   6.821
 6943SOL    HW121728   4.859   6.541   6.832
 6943SOL    HW221729   4.960   6.432   6.763
 6944SOL     OW21730   1.172   4.669   5.309
 6944SOL    HW121731   1.143   4.668   5.213
 6944SOL    HW221732   1.265   4.631   5.316
 6945SOL     OW21733   6.210   2.948   0.050
 6945SOL    HW121734   6.235   3.004   6.989
 6945SOL    HW221735   6.293   2.914   0.094
 6946SOL     OW21736   6.241   5.341   2.307
 6946SOL    HW121737   6.332   5.374   2.282
 6946SOL    HW221738   6.189   5.319   2.225
 6947SOL     OW21739   4.240   0.070   4.884
 6947SOL    HW121740   4.282   7.010   4.838
 6947SOL    HW221741   4.263   0.068   4.981
 6948SOL     OW21742   5.595   0.769   0.420
 6948SOL    HW121743   5.528   0.698   0.401
 6948SOL    HW221744   5.682   0.726   0.448
 6949SOL     OW21745   5.093   6.565   3.420
 6949SOL    HW121746   5.009   6.574   3.473
 6949SOL    HW221747   5.164   6.622   3.462
 6950SOL     OW21748   2.510   0.106   3.253
 6950SOL    HW121749   2.546   0.109   3.346
 6950SOL    HW221750   2.586   0.101   3.188
 6951SOL     OW21751   6.231   6.285   5.875
 6951SOL    HW121752   6.232   6.374   5.829
 6951SOL    HW221753   6.323   6.263   5.906
 6952SOL     OW21754   0.072   5.274   3.651
 6952SOL    HW121755   0.066   5.180   3.684
 6952SOL    HW221756   6.999   5.310   3.637
 6953SOL     OW21757   5.296   0.314   6.012
 6953SOL    HW121758   5.229   0.305   5.938
 6953SOL    HW221759   5.348   0.229   6.021
 6954SOL     OW21760   0.944   3.858   3.798
 6954SOL    HW121761   0.848   3.883   3.804
 6954SOL    HW221762   1.000   3.941   3.799
 6955SOL     OW21763   0.163   0.252   1.772
 6955SOL    HW121764   0.200   0.216   1.687
 6955SOL    HW221765   0.083   0.309   1.753
 6956SOL     OW21766   4.230   6.202   2.654
 6956SOL    HW121767   4.230   6.117   2.602
 6956SOL    HW221768   4.256   6.184   2.749
 6957SOL     OW21769   0.078   4.370   1.102
 6957SOL    HW121770   0.128   4.457   1.096
 6957SOL    HW221771   0.047   4.344   1.010
 6958SOL     OW21772   2.832   3.655   5.628
 6958SOL    HW121773   2.898   3.682   5.698
 6958SOL    HW221774   2.875   3.658   5.538
 6959SOL     OW21775   2.066   1.344   4.755
 6959SOL    HW121776   2.043   1.388   4.842
 6959SOL    HW221777   2.050   1.408   4.680
 6960SOL     OW21778   0.719   5.255   0.389
 6960SOL    HW121779   0.777   5.320   0.438
 6960SOL    HW221780   0.766   5.224   0.306
 6961SOL     OW21781   0.471   2.737   4.329
 6961SOL    HW121782   0.551   2.735   4.389
 6961SOL    HW221783   0.498   2.708   4.237
 6962SOL     OW21784   5.568   5.198   2.849
 6962SOL    HW121785   5.514   5.116   2.834
 6962SOL    HW221786   5.599   5.235   2.761
 6963SOL     OW21787   0.175   5.596   0.996
 6963SOL    HW121788   0.099   5.548   1.039
 6963SOL    HW221789   0.241   5.529   0.961
 6964SOL     OW21790   5.023   4.805   5.054
 6964SOL    HW121791   5.048   4.815   5.151
 6964SOL    HW221792   4.991   4.892   5.019
 6965SOL     OW21793   0.608   3.745   6.063
 6965SOL    HW121794   0.607   3.773   6.159
 6965SOL    HW221795   0.543   3.670   6.050
 6966SOL     OW21796   5.608   2.547   2.719
 6966SOL    HW121797   5.570   2.620   2.776
 6966SOL    HW221798   5.708   2.553   2.719
 6967SOL     OW21799   1.450   1.743   5.028
 6967SOL    HW121800   1.415   1.793   4.948
 6967SOL    HW221801   1.470   1.649   5.002
 6968SOL     OW21802   3.560   6.317   2.136
 6968SOL    HW121803   3.557   6.280   2.229
 6968SOL    HW221804   3.537   6.414   2.137
 6969SOL     OW21805   4.020   1.811   2.061
 6969SOL    HW121806   4.054   1.825   2.154
 6969SOL    HW221807   3.932   1.857   2.051
 6970SOL     OW21808   4.072   4.143   0.442
 6970SOL    HW121809   4.100   4.069   0.504
 6970SOL    HW221810   4.051   4.225   0.495
 6971SOL     OW21811   6.302   3.714   2.466
 6971SOL    HW121812   6.400   3.698   2.453
 6971SOL    HW221813   6.252   3.687   2.384
 6972SOL     OW21814   6.200   4.530   4.370
 6972SOL    HW121815   6.191   4.448   4.425
 6972SOL    HW221816   6.297   4.551   4.356
 6973SOL     OW21817   1.119   3.971   4.962
 6973SOL    HW121818   1.127   3.972   4.862
 6973SOL    HW221819   1.027   3.942   4.988
 6974SOL     OW21820   3.468   2.908   3.491
 6974SOL    HW121821   3.536   2.879   3.424
 6974SOL    HW221822   3.441   3.002   3.473
 6975SOL     OW21823   3.125   6.353   5.800
 6975SOL    HW121824   3.074   6.274   5.767
 6975SOL    HW221825   3.090   6.436   5.756
 6976SOL     OW21826   4.020   3.640   5.770
 6976SOL    HW121827   3.928   3.641   5.730
 6976SOL    HW221828   4.084   3.596   5.707
 6977SOL     OW21829   5.564   2.205   1.524
 6977SOL    HW121830   5.629   2.188   1.598
 6977SOL    HW221831   5.473   2.173   1.551
 6978SOL     OW21832   6.469   1.503   1.452
 6978SOL    HW121833   6.407   1.440   1.406
 6978SOL    HW221834   6.447   1.507   1.550
 6979SOL     OW21835   1.603   4.726   1.713
 6979SOL    HW121836   1.577   4.779   1.632
 6979SOL    HW221837   1.562   4.635   1.707
 6980SOL     OW21838   1.563   0.872   3.985
 6980SOL    HW121839   1.532   0.966   4.002
 6980SOL    HW221840   1.560   0.820   4.071
 6981SOL     OW21841   2.512   3.526   6.843
 6981SOL    HW121842   2.417   3.510   6.815
 6981SOL    HW221843   2.574   3.481   6.779
 6982SOL     OW21844   1.539   1.718   3.832
 6982SOL    HW121845   1.557   1.764   3.745
 6982SOL    HW221846   1.537   1.786   3.906
 6983SOL     OW21847   6.378   2.163   3.186
 6983SOL    HW121848   6.320   2.085   3.161
 6983SOL    HW221849   6.357   2.191   3.279
 6984SOL     OW21850   2.784   1.748   4.896
 6984SOL    HW121851   2.812   1.669   4.841
 6984SOL    HW221852   2.685   1.748   4.906
 6985SOL     OW21853   3.483   5.308   2.635
 6985SOL    HW121854   3.473   5.314   2.535
 6985SOL    HW221855   3.496   5.213   2.662
 6986SOL     OW21856   1.705   6.189   6.035
 6986SOL    HW121857   1.790   6.143   6.059
 6986SOL    HW221858   1.627   6.130   6.056
 6987SOL     OW21859   0.949   1.986   6.598
 6987SOL    HW121860   0.973   2.083   6.596
 6987SOL    HW221861   0.898   1.963   6.515
 6988SOL     OW21862   6.033   0.998   5.176
 6988SOL    HW121863   5.960   0.980   5.242
 6988SOL    HW221864   6.115   1.029   5.224
 6989SOL     OW21865   0.805   2.392   3.292
 6989SOL    HW121866   0.747   2.406   3.372
 6989SOL    HW221867   0.856   2.476   3.273
 6990SOL     OW21868   5.368   1.952   0.168
 6990SOL    HW121869   5.401   1.983   0.257
 6990SOL    HW221870   5.362   1.853   0.167
 6991SOL     OW21871   2.604   4.637   4.810
 6991SOL    HW121872   2.533   4.579   4.851
 6991SOL    HW221873   2.673   4.660   4.878
 6992SOL     OW21874   5.900   5.906   5.399
 6992SOL    HW121875   5.874   5.960   5.318
 6992SOL    HW221876   5.825   5.910   5.466
 6993SOL     OW21877   6.126   6.930   3.146
 6993SOL    HW121878   6.077   6.885   3.221
 6993SOL    HW221879   6.076   7.012   3.119
 6994SOL     OW21880   0.714   3.120   4.709
 6994SOL    HW121881   0.633   3.145   4.763
 6994SOL    HW221882   0.726   3.187   4.635
 6995SOL     OW21883   6.445   4.909   4.852
 6995SOL    HW121884   6.366   4.954   4.810
 6995SOL    HW221885   6.433   4.907   4.951
 6996SOL     OW21886   2.408   1.454   5.106
 6996SOL    HW121887   2.457   1.382   5.156
 6996SOL    HW221888   2.394   1.426   5.011
 6997SOL     OW21889   5.149   6.073   5.485
 6997SOL    HW121890   5.178   6.128   5.406
 6997SOL    HW221891   5.218   6.078   5.556
 6998SOL     OW21892   1.986   2.704   1.510
 6998SOL    HW121893   2.067   2.663   1.551
 6998SOL    HW221894   2.009   2.744   1.421
 6999SOL     OW21895   2.515   1.948   6.805
 6999SOL    HW121896   2.552   1.925   6.895
 6999SOL    HW221897   2.535   1.874   6.741
 7000SOL     OW21898   0.092   6.349   2.678
 7000SOL    HW121899   0.032   6.322   2.603
 7000SOL    HW221900   0.178   6.297   2.672
 7001SOL     OW21901   2.616   2.807   5.541
 7001SOL    HW121902   2.526   2.764   5.533
 7001SOL    HW221903   2.617   2.893   5.491
 7002SOL     OW21904   2.625   4.993   3.233
 7002SOL    HW121905   2.658   4.998   3.139
 7002SOL    HW221906   2.638   4.900   3.268
 7003SOL     OW21907   3.812   6.921   6.916
 7003SOL    HW121908   3.807   6.909   7.015
 7003SOL    HW221909   3.881   6.990   6.894
 7004SOL     OW21910   1.919   4.871   1.527
 7004SOL    HW121911   1.915   4.787   1.580
 7004SOL    HW221912   1.862   4.941   1.571
 7005SOL     OW21913   0.684   6.427   5.273
 7005SOL    HW121914   0.669   6.520   5.241
 7005SOL    HW221915   0.609   6.399   5.332
 7006SOL     OW21916   5.502   4.769   4.696
 7006SOL    HW121917   5.463   4.680   4.720
 7006SOL    HW221918   5.510   4.825   4.779
 7007SOL     OW21919   5.384   6.300   2.900
 7007SOL    HW121920   5.341   6.349   2.824
 7007SOL    HW221921   5.353   6.340   2.986
 7008SOL     OW21922   2.156   5.287   4.301
 7008SOL    HW121923   2.173   5.246   4.390
 7008SOL    HW221924   2.205   5.374   4.294
 7009SOL     OW21925   5.776   5.232   2.265
 7009SOL    HW121926   5.738   5.188   2.184
 7009SOL    HW221927   5.861   5.185   2.291
 7010SOL     OW21928   4.561   4.223   5.976
 7010SOL    HW121929   4.569   4.138   6.027
 7010SOL    HW221930   4.468   4.234   5.942
 7011SOL     OW21931   1.650   0.665   6.129
 7011SOL    HW121932   1.575   0.693   6.069
 7011SOL    HW221933   1.736   0.704   6.095
 7012SOL     OW21934   1.972   0.929   2.247
 7012SOL    HW121935   2.045   0.903   2.310
 7012SOL    HW221936   2.012   0.971   2.165
 7013SOL     OW21937   0.003   6.833   0.861
 7013SOL    HW121938   0.055   6.913   0.831
 7013SOL    HW221939   0.034   6.805   0.952
 7014SOL     OW21940   4.476   3.822   1.163
 7014SOL    HW121941   4.381   3.795   1.183
 7014SOL    HW221942   4.538   3.767   1.220
 7015SOL     OW21943   5.211   4.657   1.988
 7015SOL    HW121944   5.168   4.659   2.078
 7015SOL    HW221945   5.175   4.732   1.932
 7016SOL     OW21946   3.457   4.933   2.226
 7016SOL    HW121947   3.450   4.867   2.152
 7016SOL    HW221948   3.368   4.943   2.270
 7017SOL     OW21949   2.328   0.388   2.192
 7017SOL    HW121950   2.387   0.468   2.202
 7017SOL    HW221951   2.342   0.327   2.270
 7018SOL     OW21952   6.467   4.506   4.358
 7018SOL    HW121953   6.552   4.505   4.411
 7018SOL    HW221954   6.488   4.488   4.261
 7019SOL     OW21955   3.059   4.346   6.552
 7019SOL    HW121956   3.055   4.416   6.623
 7019SOL    HW221957   2.972   4.297   6.548
 7020SOL     OW21958   6.056   6.765   6.471
 7020SOL    HW121959   6.084   6.744   6.378
 7020SOL    HW221960   6.026   6.681   6.517
 7021SOL     OW21961   2.426   0.823   5.567
 7021SOL    HW121962   2.396   0.789   5.477
 7021SOL    HW221963   2.511   0.775   5.592
 7022SOL     OW21964   4.838   4.306   0.460
 7022SOL    HW121965   4.793   4.364   0.392
 7022SOL    HW221966   4.771   4.276   0.528
 7023SOL     OW21967   0.645   2.481   3.495
 7023SOL    HW121968   0.588   2.548   3.448
 7023SOL    HW221969   0.723   2.527   3.537
 7024SOL     OW21970   1.344   5.597   6.108
 7024SOL    HW121971   1.370   5.505   6.139
 7024SOL    HW221972   1.372   5.664   6.177
 7025SOL     OW21973   3.507   1.671   0.361
 7025SOL    HW121974   3.415   1.652   0.327
 7025SOL    HW221975   3.500   1.718   0.449
 7026SOL     OW21976   3.061   1.431   2.197
 7026SOL    HW121977   3.059   1.376   2.281
 7026SOL    HW221978   3.144   1.487   2.195
 7027SOL     OW21979   2.699   5.586   2.520
 7027SOL    HW121980   2.694   5.599   2.421
 7027SOL    HW221981   2.643   5.655   2.565
 7028SOL     OW21982   5.912   6.169   4.578
 7028SOL    HW121983   5.968   6.140   4.655
 7028SOL    HW221984   5.819   6.190   4.610
 7029SOL     OW21985   3.540   0.069   0.171
 7029SOL    HW121986   3.616   0.130   0.196
 7029SOL    HW221987   3.459   0.123   0.152
 7030SOL     OW21988   6.989   2.525   5.933
 7030SOL    HW121989   0.020   2.598   5.887
 7030SOL    HW221990   7.018   2.521   6.029
 7031SOL     OW21991   1.989   6.028   3.541
 7031SOL    HW121992   1.993   5.929   3.556
 7031SOL    HW221993   2.082   6.065   3.544
 7032SOL     OW21994   3.412   6.598   3.694
 7032SOL    HW121995   3.316   6.601   3.721
 7032SOL    HW221996   3.438   6.686   3.654
 7033SOL     OW21997   6.760   1.626   3.771
 7033SOL    HW121998   6.705   1.675   3.704
 7033SOL    HW221999   6.845   1.677   3.788
 7034SOL     OW22000   6.095   0.792   2.896
 7034SOL    HW122001   6.011   0.744   2.869
 7034SOL    HW222002   6.100   0.879   2.846
 7035SOL     OW22003   1.226   6.686   1.996
 7035SOL    HW122004   1.150   6.746   1.971
 7035SOL    HW222005   1.225   6.605   1.938
 7036SOL     OW22006   6.408   6.895   1.647
 7036SOL    HW122007   6.478   6.926   1.583
 7036SOL    HW222008   6.394   6.797   1.637
 7037SOL     OW22009   0.419   6.636   6.416
 7037SOL    HW122010   0.395   6.731   6.439
 7037SOL    HW222011   0.363   6.606   6.339
 7038SOL     OW22012   1.864   3.673   4.515
 7038SOL    HW122013   1.781   3.694   4.568
 7038SOL    HW222014   1.874   3.740   4.442
 7039SOL     OW22015   2.534   6.165   0.538
 7039SOL    HW122016   2.440   6.184   0.567
 7039SOL    HW222017   2.560   6.229   0.466
 7040SOL     OW22018   4.659   2.488   5.194
 7040SOL    HW122019   4.645   2.416   5.126
 7040SOL    HW222020   4.746   2.473   5.241
 7041SOL     OW22021   0.865   1.843   3.172
 7041SOL    HW122022   0.804   1.765   3.185
 7041SOL    HW222023   0.825   1.924   3.215
 7042SOL     OW22024   5.491   5.330   6.858
 7042SOL    HW122025   5.454   5.279   6.780
 7042SOL    HW222026   5.530   5.416   6.826
 7043SOL     OW22027   2.208   2.479   3.051
 7043SOL    HW122028   2.253   2.446   3.134
 7043SOL    HW222029   2.263   2.552   3.010
 7044SOL     OW22030   4.863   4.437   2.934
 7044SOL    HW122031   4.871   4.502   3.009
 7044SOL    HW222032   4.845   4.345   2.971
 7045SOL     OW22033   4.418   6.079   1.798
 7045SOL    HW122034   4.359   6.110   1.724
 7045SOL    HW222035   4.425   5.979   1.796
 7046SOL     OW22036   3.598   2.002   3.456
 7046SOL    HW122037   3.608   2.003   3.356
 7046SOL    HW222038   3.600   1.907   3.488
 7047SOL     OW22039   0.903   2.535   2.930
 7047SOL    HW122040   0.822   2.551   2.874
 7047SOL    HW222041   0.953   2.456   2.895
 7048SOL     OW22042   0.290   6.066   1.481
 7048SOL    HW122043   0.239   5.982   1.499
 7048SOL    HW222044   0.296   6.082   1.382
 7049SOL     OW22045   2.398   0.863   0.588
 7049SOL    HW122046   2.434   0.936   0.646
 7049SOL    HW222047   2.346   0.799   0.644
 7050SOL     OW22048   3.699   4.035   3.854
 7050SOL    HW122049   3.787   3.989   3.863
 7050SOL    HW222050   3.670   4.070   3.943
 7051SOL     OW22051   0.403   0.789   1.037
 7051SOL    HW122052   0.322   0.732   1.026
 7051SOL    HW222053   0.430   0.827   0.949
 7052SOL     OW22054   6.066   2.724   4.299
 7052SOL    HW122055   6.126   2.801   4.275
 7052SOL    HW222056   6.012   2.748   4.380
 7053SOL     OW22057   0.735   2.703   5.188
 7053SOL    HW122058   0.728   2.603   5.188
 7053SOL    HW222059   0.796   2.731   5.114
 7054SOL     OW22060   1.258   6.384   1.384
 7054SOL    HW122061   1.177   6.353   1.334
 7054SOL    HW222062   1.292   6.469   1.343
 7055SOL     OW22063   3.785   6.428   5.389
 7055SOL    HW122064   3.829   6.485   5.458
 7055SOL    HW222065   3.758   6.486   5.311
 7056SOL     OW22066   5.284   5.184   3.686
 7056SOL    HW122067   5.226   5.203   3.765
 7056SOL    HW222068   5.294   5.267   3.631
 7057SOL     OW22069   1.459   4.963   4.393
 7057SOL    HW122070   1.400   4.907   4.451
 7057SOL    HW222071   1.555   4.949   4.419
 7058SOL     OW22072   6.218   5.551   6.252
 7058SOL    HW122073   6.218   5.650   6.239
 7058SOL    HW222074   6.248   5.506   6.168
 7059SOL     OW22075   0.675   0.143   3.119
 7059SOL    HW122076   0.613   0.168   3.193
 7059SOL    HW222077   0.764   0.118   3.156
 7060SOL     OW22078   2.977   0.299   1.776
 7060SOL    HW122079   2.994   0.326   1.681
 7060SOL    HW222080   2.979   0.199   1.783
 7061SOL     OW22081   0.285   2.564   3.778
 7061SOL    HW122082   0.275   2.584   3.681
 7061SOL    HW222083   0.218   2.494   3.805
 7062SOL     OW22084   5.416   1.571   6.421
 7062SOL    HW122085   5.357   1.612   6.351
 7062SOL    HW222086   5.366   1.499   6.469
 7063SOL     OW22087   0.389   0.187   0.898
 7063SOL    HW122088   0.463   0.171   0.832
 7063SOL    HW222089   0.389   0.283   0.925
 7064SOL     OW22090   3.997   2.053   1.794
 7064SOL    HW122091   3.951   2.007   1.870
 7064SOL    HW222092   3.960   2.146   1.784
 7065SOL     OW22093   4.498   3.903   0.891
 7065SOL    HW122094   4.560   3.845   0.838
 7065SOL    HW222095   4.481   3.861   0.981
 7066SOL     OW22096   4.054   0.602   0.993
 7066SOL    HW122097   3.987   0.662   1.037
 7066SOL    HW222098   4.146   0.633   1.015
 7067SOL     OW22099   1.325   1.837   5.265
 7067SOL    HW122100   1.327   1.756   5.324
 7067SOL    HW222101   1.391   1.826   5.190
 7068SOL     OW22102   0.892   4.289   3.254
 7068SOL    HW122103   0.827   4.276   3.180
 7068SOL    HW222104   0.846   4.271   3.342
 7069SOL     OW22105   6.457   2.811   4.038
 7069SOL    HW122106   6.460   2.716   4.069
 7069SOL    HW222107   6.361   2.836   4.021
 7070SOL     OW22108   6.646   6.561   5.141
 7070SOL    HW122109   6.557   6.602   5.160
 7070SOL    HW222110   6.634   6.469   5.104
 7071SOL     OW22111   0.876   6.472   6.046
 7071SOL    HW122112   0.914   6.383   6.023
 7071SOL    HW222113   0.945   6.543   6.032
 7072SOL     OW22114   6.497   6.567   5.839
 7072SOL    HW122115   6.503   6.665   5.819
 7072SOL    HW222116   6.549   6.547   5.922
 7073SOL     OW22117   5.908   0.277   4.669
 7073SOL    HW122118   5.934   0.297   4.575
 7073SOL    HW222119   5.829   0.333   4.695
 7074SOL     OW22120   4.037   3.105   1.128
 7074SOL    HW122121   4.002   3.090   1.035
 7074SOL    HW222122   4.044   3.017   1.175
 7075SOL     OW22123   0.799   6.273   5.493
 7075SOL    HW122124   0.842   6.355   5.531
 7075SOL    HW222125   0.778   6.289   5.396
 7076SOL     OW22126   4.074   2.596   6.858
 7076SOL    HW122127   4.047   2.515   6.911
 7076SOL    HW222128   4.016   2.674   6.885
 7077SOL     OW22129   2.040   5.004   5.627
 7077SOL    HW122130   2.052   5.057   5.711
 7077SOL    HW222131   1.982   5.055   5.564
 7078SOL     OW22132   6.397   0.446   1.698
 7078SOL    HW122133   6.362   0.463   1.790
 7078SOL    HW222134   6.444   0.358   1.696
 7079SOL     OW22135   6.871   5.963   5.303
 7079SOL    HW122136   6.899   6.059   5.306
 7079SOL    HW222137   6.903   5.916   5.386
 7080SOL     OW22138   3.523   2.069   4.110
 7080SOL    HW122139   3.436   2.113   4.086
 7080SOL    HW222140   3.527   2.056   4.209
 7081SOL     OW22141   2.947   0.667   5.856
 7081SOL    HW122142   2.870   0.717   5.897
 7081SOL    HW222143   2.925   0.570   5.854
 7082SOL     OW22144   6.082   5.576   6.579
 7082SOL    HW122145   6.091   5.567   6.480
 7082SOL    HW222146   6.022   5.504   6.614
 7083SOL     OW22147   3.023   1.189   6.969
 7083SOL    HW122148   3.034   1.092   6.993
 7083SOL    HW222149   3.084   1.211   6.893
 7084SOL     OW22150   0.069   6.878   5.595
 7084SOL    HW122151   0.003   6.891   5.522
 7084SOL    HW222152   0.023   6.838   5.675
 7085SOL     OW22153   2.527   1.058   3.076
 7085SOL    HW122154   2.493   1.143   3.036
 7085SOL    HW222155   2.531   0.987   3.005
 7086SOL     OW22156   4.891   1.182   6.048
 7086SOL    HW122157   4.928   1.202   6.139
 7086SOL    HW222158   4.820   1.248   6.025
 7087SOL     OW22159   6.027   4.194   3.768
 7087SOL    HW122160   6.036   4.137   3.686
 7087SOL    HW222161   5.989   4.283   3.743
 7088SOL     OW22162   5.171   2.627   3.538
 7088SOL    HW122163   5.179   2.528   3.554
 7088SOL    HW222164   5.214   2.676   3.614
 7089SOL     OW22165   3.448   2.236   6.105
 7089SOL    HW122166   3.393   2.246   6.188
 7089SOL    HW222167   3.480   2.326   6.075
 7090SOL     OW22168   2.855   1.492   6.416
 7090SOL    HW122169   2.846   1.439   6.332
 7090SOL    HW222170   2.910   1.441   6.482
 7091SOL     OW22171   6.801   2.405   0.048
 7091SOL    HW122172   6.739   2.336   0.084
 7091SOL    HW222173   6.751   2.468   7.008
 7092SOL     OW22174   4.745   2.545   6.091
 7092SOL    HW122175   4.792   2.548   6.179
 7092SOL    HW222176   4.802   2.587   6.021
 7093SOL     OW22177   3.080   3.972   3.799
 7093SOL    HW122178   3.081   4.000   3.703
 7093SOL    HW222179   3.030   3.886   3.808
 7094SOL     OW22180   0.682   5.633   5.910
 7094SOL    HW122181   0.769   5.656   5.867
 7094SOL    HW222182   0.619   5.711   5.901
 7095SOL     OW22183   2.756   2.916   6.997
 7095SOL    HW122184   2.793   2.956   6.912
 7095SOL    HW222185   2.807   2.833   0.000
 7096SOL     OW22186   6.197   0.636   3.934
 7096SOL    HW122187   6.234   0.669   3.847
 7096SOL    HW222188   6.149   0.711   3.980
 7097SOL     OW22189   6.549   0.775   1.883
 7097SOL    HW122190   6.520   0.748   1.791
 7097SOL    HW222191   6.648   0.788   1.885
 7098SOL     OW22192   0.454   6.889   4.281
 7098SOL    HW122193   0.390   6.951   4.236
 7098SOL    HW222194   0.432   6.794   4.257
 7099SOL     OW22195   2.397   0.765   4.545
 7099SOL    HW122196   2.479   0.710   4.528
 7099SOL    HW222197   2.328   0.708   4.591
 7100SOL     OW22198   5.783   3.162   1.132
 7100SOL    HW122199   5.874   3.121   1.131
 7100SOL    HW222200   5.736   3.140   1.046
 7101SOL     OW22201   2.417   0.201   5.121
 7101SOL    HW122202   2.427   0.117   5.174
 7101SOL    HW222203   2.448   0.186   5.027
 7102SOL     OW22204   4.744   0.514   1.078
 7102SOL    HW122205   4.692   0.443   1.124
 7102SOL    HW222206   4.835   0.520   1.119
 7103SOL     OW22207   4.426   5.562   0.849
 7103SOL    HW122208   4.497   5.625   0.879
 7103SOL    HW222209   4.449   5.525   0.759
 7104SOL     OW22210   1.181   3.498   4.690
 7104SOL    HW122211   1.204   3.544   4.604
 7104SOL    HW222212   1.260   3.502   4.751
 7105SOL     OW22213   2.848   2.785   5.406
 7105SOL    HW122214   2.858   2.687   5.388
 7105SOL    HW222215   2.767   2.799   5.464
 7106SOL     OW22216   3.505   2.920   3.127
 7106SOL    HW122217   3.431   2.957   3.184
 7106SOL    HW222218   3.571   2.873   3.185
 7107SOL     OW22219   3.268   0.729   0.979
 7107SOL    HW122220   3.319   0.650   0.944
 7107SOL    HW222221   3.321   0.775   1.049
 7108SOL     OW22222   3.874   6.204   1.583
 7108SOL    HW122223   3.841   6.112   1.564
 7108SOL    HW222224   3.957   6.222   1.531
 7109SOL     OW22225   3.994   0.128   6.251
 7109SOL    HW122226   4.016   0.031   6.249
 7109SOL    HW222227   3.896   0.140   6.237
 7110SOL     OW22228   4.837   5.539   3.910
 7110SOL    HW122229   4.839   5.625   3.960
 7110SOL    HW222230   4.850   5.463   3.974
 7111SOL     OW22231   2.117   2.015   4.697
 7111SOL    HW122232   2.201   1.961   4.703
 7111SOL    HW222233   2.137   2.103   4.653
 7112SOL     OW22234   2.415   5.914   3.666
 7112SOL    HW122235   2.457   5.929   3.755
 7112SOL    HW222236   2.367   5.826   3.666
 7113SOL     OW22237   3.093   4.092   5.190
 7113SOL    HW122238   3.027   4.039   5.243
 7113SOL    HW222239   3.178   4.099   5.241
 7114SOL     OW22240   4.088   7.019   1.692
 7114SOL    HW122241   4.098   6.931   1.645
 7114SOL    HW222242   3.991   0.018   1.708
 7115SOL     OW22243   5.332   2.533   2.118
 7115SOL    HW122244   5.331   2.492   2.209
 7115SOL    HW222245   5.237   2.549   2.088
 7116SOL     OW22246   5.398   3.200   3.362
 7116SOL    HW122247   5.343   3.268   3.314
 7116SOL    HW222248   5.490   3.198   3.322
 7117SOL     OW22249   0.045   6.803   4.386
 7117SOL    HW122250   0.092   6.766   4.466
 7117SOL    HW222251   0.059   6.743   4.308
 7118SOL     OW22252   3.341   4.041   0.867
 7118SOL    HW122253   3.396   3.959   0.881
 7118SOL    HW222254   3.401   4.121   0.862
 7119SOL     OW22255   5.403   1.696   3.462
 7119SOL    HW122256   5.451   1.762   3.405
 7119SOL    HW222257   5.312   1.732   3.484
 7120SOL     OW22258   4.445   1.899   2.769
 7120SOL    HW122259   4.423   1.906   2.866
 7120SOL    HW222260   4.535   1.857   2.757
 7121SOL     OW22261   2.956   6.837   2.366
 7121SOL    HW122262   3.002   6.880   2.288
 7121SOL    HW222263   2.907   6.756   2.335
 7122SOL     OW22264   6.825   0.867   5.958
 7122SOL    HW122265   6.827   0.875   5.858
 7122SOL    HW222266   6.878   0.942   5.998
 7123SOL     OW22267   2.617   5.001   1.260
 7123SOL    HW122268   2.625   4.963   1.168
 7123SOL    HW222269   2.597   4.927   1.325
 7124SOL     OW22270   0.576   3.124   0.764
 7124SOL    HW122271   0.643   3.198   0.758
 7124SOL    HW222272   0.486   3.158   0.737
 7125SOL     OW22273   6.328   6.655   1.166
 7125SOL    HW122274   6.333   6.735   1.225
 7125SOL    HW222275   6.328   6.684   1.070
 7126SOL     OW22276   3.268   4.773   6.676
 7126SOL    HW122277   3.226   4.704   6.618
 7126SOL    HW222278   3.338   4.822   6.625
 7127SOL     OW22279   2.625   5.827   4.280
 7127SOL    HW122280   2.677   5.912   4.289
 7127SOL    HW222281   2.549   5.841   4.217
 7128SOL     OW22282   2.097   5.753   0.149
 7128SOL    HW122283   2.172   5.718   0.205
 7128SOL    HW222284   2.035   5.679   0.125
 7129SOL     OW22285   3.263   0.592   0.402
 7129SOL    HW122286   3.183   0.585   0.461
 7129SOL    HW222287   3.254   0.528   0.326
 7130SOL     OW22288   3.230   4.860   5.138
 7130SOL    HW122289   3.293   4.881   5.063
 7130SOL    HW222290   3.169   4.938   5.152
 7131SOL     OW22291   2.908   1.582   0.638
 7131SOL    HW122292   2.904   1.592   0.539
 7131SOL    HW222293   2.854   1.503   0.666
 7132SOL     OW22294   3.160   4.013   0.563
 7132SOL    HW122295   3.206   3.971   0.641
 7132SOL    HW222296   3.196   4.105   0.549
 7133SOL     OW22297   4.597   5.504   3.770
 7133SOL    HW122298   4.543   5.428   3.806
 7133SOL    HW222299   4.675   5.522   3.830
 7134SOL     OW22300   6.110   5.668   2.262
 7134SOL    HW122301   6.163   5.750   2.282
 7134SOL    HW222302   6.016   5.681   2.295
 7135SOL     OW22303   1.743   1.836   3.190
 7135SOL    HW122304   1.696   1.809   3.105
 7135SOL    HW222305   1.827   1.784   3.200
 7136SOL     OW22306   1.654   3.065   1.248
 7136SOL    HW122307   1.608   2.980   1.276
 7136SOL    HW222308   1.751   3.047   1.232
 7137SOL     OW22309   4.933   0.501   6.323
 7137SOL    HW122310   4.870   0.555   6.267
 7137SOL    HW222311   4.962   0.420   6.272
 7138SOL     OW22312   2.041   2.692   0.457
 7138SOL    HW122313   2.115   2.626   0.475
 7138SOL    HW222314   2.079   2.774   0.415
 7139SOL     OW22315   4.752   4.017   2.586
 7139SOL    HW122316   4.676   4.055   2.533
 7139SOL    HW222317   4.802   3.950   2.531
 7140SOL     OW22318   5.957   3.253   4.526
 7140SOL    HW122319   5.921   3.271   4.617
 7140SOL    HW222320   5.992   3.159   4.522
 7141SOL     OW22321   2.542   5.887   0.961
 7141SOL    HW122322   2.502   5.795   0.952
 7141SOL    HW222323   2.596   5.891   1.045
 7142SOL     OW22324   4.404   0.012   3.229
 7142SOL    HW122325   4.372   0.047   3.141
 7142SOL    HW222326   4.503   0.025   3.237
 7143SOL     OW22327   1.900   2.706   6.276
 7143SOL    HW122328   1.974   2.661   6.226
 7143SOL    HW222329   1.861   2.643   6.343
 7144SOL     OW22330   2.071   1.365   3.712
 7144SOL    HW122331   1.978   1.355   3.676
 7144SOL    HW222332   2.095   1.462   3.716
 7145SOL     OW22333   4.869   6.296   6.106
 7145SOL    HW122334   4.823   6.359   6.043
 7145SOL    HW222335   4.943   6.345   6.153
 7146SOL     OW22336   2.173   0.613   6.825
 7146SOL    HW122337   2.238   0.537   6.835
 7146SOL    HW222338   2.213   0.696   6.862
 7147SOL     OW22339   6.621   6.370   2.845
 7147SOL    HW122340   6.703   6.331   2.803
 7147SOL    HW222341   6.639   6.464   2.872
 7148SOL     OW22342   6.666   6.365   1.480
 7148SOL    HW122343   6.736   6.342   1.411
 7148SOL    HW222344   6.600   6.429   1.440
 7149SOL     OW22345   6.699   6.817   3.307
 7149SOL    HW122346   6.617   6.767   3.338
 7149SOL    HW222347   6.685   6.915   3.319
 7150SOL     OW22348   4.657   2.198   1.814
 7150SOL    HW122349   4.733   2.207   1.878
 7150SOL    HW222350   4.664   2.269   1.744
 7151SOL     OW22351   1.429   6.084   0.742
 7151SOL    HW122352   1.523   6.074   0.777
 7151SOL    HW222353   1.418   6.027   0.661
 7152SOL     OW22354   0.445   2.098   5.007
 7152SOL    HW122355   0.360   2.082   5.056
 7152SOL    HW222356   0.471   2.194   5.015
 7153SOL     OW22357   3.252   6.227   3.320
 7153SOL    HW122358   3.245   6.185   3.229
 7153SOL    HW222359   3.199   6.174   3.385
 7154SOL     OW22360   3.973   6.662   4.969
 7154SOL    HW122361   3.962   6.590   5.038
 7154SOL    HW222362   3.965   6.621   4.878
 7155SOL     OW22363   2.692   5.425   1.793
 7155SOL    HW122364   2.656   5.488   1.861
 7155SOL    HW222365   2.619   5.365   1.761
 7156SOL     OW22366   0.567   4.400   4.508
 7156SOL    HW122367   0.657   4.405   4.465
 7156SOL    HW222368   0.546   4.304   4.528
 7157SOL     OW22369   6.358   4.425   1.251
 7157SOL    HW122370   6.353   4.354   1.181
 7157SOL    HW222371   6.266   4.452   1.277
 7158SOL     OW22372   1.083   0.052   2.596
 7158SOL    HW122373   1.109   0.026   2.689
 7158SOL    HW222374   1.013   7.009   2.563
 7159SOL     OW22375   0.061   4.359   2.981
 7159SOL    HW122376   0.119   4.315   3.050
 7159SOL    HW222377   7.013   4.293   2.947
 7160SOL     OW22378   5.981   0.452   3.164
 7160SOL    HW122379   6.015   0.544   3.184
 7160SOL    HW222380   5.885   0.445   3.192
 7161SOL     OW22381   3.317   4.098   5.357
 7161SOL    HW122382   3.343   4.008   5.393
 7161SOL    HW222383   3.284   4.155   5.432
 7162SOL     OW22384   2.499   5.697   5.632
 7162SOL    HW122385   2.438   5.636   5.682
 7162SOL    HW222386   2.578   5.646   5.598
 7163SOL     OW22387   2.657   6.127   3.353
 7163SOL    HW122388   2.725   6.171   3.295
 7163SOL    HW222389   2.606   6.197   3.403
 7164SOL     OW22390   2.139   1.726   3.387
 7164SOL    HW122391   2.204   1.650   3.380
 7164SOL    HW222392   2.079   1.726   3.307
 7165SOL     OW22393   6.729   1.774   1.293
 7165SOL    HW122394   6.696   1.689   1.334
 7165SOL    HW222395   6.728   1.765   1.194
 7166SOL     OW22396   5.255   3.050   0.481
 7166SOL    HW122397   5.280   2.966   0.432
 7166SOL    HW222398   5.163   3.040   0.519
 7167SOL     OW22399   5.142   3.572   5.004
 7167SOL    HW122400   5.178   3.511   4.934
 7167SOL    HW222401   5.048   3.544   5.027
 7168SOL     OW22402   0.943   2.553   4.054
 7168SOL    HW122403   0.980   2.637   4.094
 7168SOL    HW222404   0.998   2.527   3.974
 7169SOL     OW22405   0.611   3.594   5.268
 7169SOL    HW122406   0.589   3.646   5.351
 7169SOL    HW222407   0.708   3.574   5.265
 7170SOL     OW22408   4.982   6.125   3.906
 7170SOL    HW122409   5.068   6.075   3.895
 7170SOL    HW222410   4.906   6.066   3.879
 7171SOL     OW22411   5.672   4.136   6.325
 7171SOL    HW122412   5.744   4.180   6.379
 7171SOL    HW222413   5.683   4.161   6.229
 7172SOL     OW22414   1.731   0.548   5.459
 7172SOL    HW122415   1.746   0.587   5.550
 7172SOL    HW222416   1.646   0.495   5.459
 7173SOL     OW22417   0.064   4.602   5.117
 7173SOL    HW122418   0.093   4.579   5.210
 7173SOL    HW222419   0.074   4.701   5.102
 7174SOL     OW22420   0.728   5.268   6.440
 7174SOL    HW122421   0.676   5.251   6.356
 7174SOL    HW222422   0.734   5.366   6.457
 7175SOL     OW22423   5.586   3.496   0.433
 7175SOL    HW122424   5.540   3.422   0.384
 7175SOL    HW222425   5.564   3.584   0.391
 7176SOL     OW22426   0.888   5.421   3.127
 7176SOL    HW122427   0.979   5.381   3.132
 7176SOL    HW222428   0.878   5.469   3.039
 7177SOL     OW22429   2.817   6.818   4.373
 7177SOL    HW122430   2.739   6.845   4.429
 7177SOL    HW222431   2.792   6.821   4.276
 7178SOL     OW22432   2.417   3.568   5.697
 7178SOL    HW122433   2.338   3.607   5.651
 7178SOL    HW222434   2.482   3.642   5.720
 7179SOL     OW22435   1.688   3.382   4.821
 7179SOL    HW122436   1.623   3.312   4.850
 7179SOL    HW222437   1.694   3.453   4.891
 7180SOL     OW22438   1.203   4.551   6.490
 7180SOL    HW122439   1.264   4.611   6.440
 7180SOL    HW222440   1.146   4.605   6.553
 7181SOL     OW22441   2.226   5.798   0.770
 7181SOL    HW122442   2.146   5.746   0.801
 7181SOL    HW222443   2.203   5.896   0.767
 7182SOL     OW22444   1.810   3.108   5.517
 7182SOL    HW122445   1.843   3.016   5.500
 7182SOL    HW222446   1.885   3.173   5.508
 7183SOL     OW22447   1.479   5.477   0.614
 7183SOL    HW122448   1.492   5.380   0.634
 7183SOL    HW222449   1.512   5.531   0.692
 7184SOL     OW22450   1.014   0.333   3.034
 7184SOL    HW122451   1.092   0.376   2.989
 7184SOL    HW222452   1.047   0.266   3.101
 7185SOL     OW22453   5.473   1.620   5.783
 7185SOL    HW122454   5.403   1.570   5.731
 7185SOL    HW222455   5.431   1.662   5.863
 7186SOL     OW22456   0.100   0.091   6.338
 7186SOL    HW122457   0.012   0.113   6.296
 7186SOL    HW222458   0.091   0.091   6.437
 7187SOL     OW22459   2.816   4.974   0.396
 7187SOL    HW122460   2.765   4.994   0.480
 7187SOL    HW222461   2.781   4.891   0.354
 7188SOL     OW22462   5.592   6.795   0.313
 7188SOL    HW122463   5.605   6.737   0.233
 7188SOL    HW222464   5.648   6.759   0.389
 7189SOL     OW22465   6.620   1.626   6.124
 7189SOL    HW122466   6.538   1.569   6.129
 7189SOL    HW222467   6.626   1.682   6.207
 7190SOL     OW22468   5.841   3.657   3.057
 7190SOL    HW122469   5.865   3.610   2.972
 7190SOL    HW222470   5.881   3.748   3.057
 7191SOL     OW22471   0.209   4.514   2.681
 7191SOL    HW122472   0.215   4.529   2.582
 7191SOL    HW222473   0.120   4.473   2.703
 7192SOL     OW22474   3.034   5.051   5.184
 7192SOL    HW122475   2.935   5.054   5.171
 7192SOL    HW222476   3.077   5.119   5.125
 7193SOL     OW22477   2.811   1.573   3.215
 7193SOL    HW122478   2.726   1.605   3.255
 7193SOL    HW222479   2.837   1.632   3.138
 7194SOL     OW22480   2.615   2.167   0.755
 7194SOL    HW122481   2.665   2.136   0.835
 7194SOL    HW222482   2.677   2.221   0.696
 7195SOL     OW22483   0.378   5.098   6.217
 7195SOL    HW122484   0.437   5.170   6.180
 7195SOL    HW222485   0.430   5.042   6.280
 7196SOL     OW22486   3.514   4.255   1.768
 7196SOL    HW122487   3.425   4.296   1.746
 7196SOL    HW222488   3.500   4.164   1.807
 7197SOL     OW22489   6.923   2.709   6.308
 7197SOL    HW122490   7.017   2.694   6.279
 7197SOL    HW222491   6.918   2.701   6.408
 7198SOL     OW22492   0.543   1.066   5.851
 7198SOL    HW122493   0.581   0.987   5.900
 7198SOL    HW222494   0.593   1.079   5.765
 7199SOL     OW22495   2.415   0.383   1.905
 7199SOL    HW122496   2.357   0.421   1.977
 7199SOL    HW222497   2.430   0.285   1.922
 7200SOL     OW22498   2.067   1.733   0.310
 7200SOL    HW122499   2.019   1.695   0.231
 7200SOL    HW222500   2.119   1.814   0.281
 7201SOL     OW22501   1.635   5.593   3.849
 7201SOL    HW122502   1.641   5.546   3.937
 7201SOL    HW222503   1.577   5.540   3.787
 7202SOL     OW22504   4.003   0.297   5.749
 7202SOL    HW122505   4.016   0.332   5.842
 7202SOL    HW222506   4.006   0.373   5.684
 7203SOL     OW22507   0.021   1.311   1.002
 7203SOL    HW122508   0.091   1.243   0.981
 7203SOL    HW222509   0.043   1.397   0.955
 7204SOL     OW22510   6.425   6.727   5.125
 7204SOL    HW122511   6.348   6.759   5.070
 7204SOL    HW222512   6.424   6.773   5.214
 7205SOL     OW22513   2.364   6.225   3.085
 7205SOL    HW122514   2.287   6.263   3.136
 7205SOL    HW222515   2.387   6.135   3.122
 7206SOL     OW22516   1.841   0.359   1.442
 7206SOL    HW122517   1.814   0.455   1.448
 7206SOL    HW222518   1.805   0.310   1.522
 7207SOL     OW22519   3.562   6.335   1.134
 7207SOL    HW122520   3.606   6.378   1.055
 7207SOL    HW222521   3.487   6.393   1.166
 7208SOL     OW22522   4.258   6.329   4.262
 7208SOL    HW122523   4.201   6.375   4.194
 7208SOL    HW222524   4.350   6.369   4.261
 7209SOL     OW22525   3.062   3.132   2.261
 7209SOL    HW122526   3.079   3.054   2.201
 7209SOL    HW222527   3.061   3.216   2.207
 7210SOL     OW22528   4.506   0.336   4.488
 7210SOL    HW122529   4.470   0.305   4.576
 7210SOL    HW222530   4.446   0.305   4.415
 7211SOL     OW22531   2.045   5.642   3.883
 7211SOL    HW122532   2.144   5.643   3.898
 7211SOL    HW222533   2.012   5.548   3.879
 7212SOL     OW22534   0.813   5.932   3.364
 7212SOL    HW122535   0.801   5.915   3.266
 7212SOL    HW222536   0.752   5.872   3.415
 7213SOL     OW22537   6.100   0.665   6.647
 7213SOL    HW122538   6.141   0.587   6.694
 7213SOL    HW222539   6.031   0.633   6.582
 7214SOL     OW22540   1.537   5.635   4.541
 7214SOL    HW122541   1.467   5.700   4.572
 7214SOL    HW222542   1.581   5.671   4.459
 7215SOL     OW22543   0.462   3.372   4.356
 7215SOL    HW122544   0.394   3.310   4.394
 7215SOL    HW222545   0.553   3.345   4.387
 7216SOL     OW22546   2.387   5.824   6.811
 7216SOL    HW122547   2.468   5.876   6.784
 7216SOL    HW222548   2.347   5.780   6.731
 7217SOL     OW22549   2.108   4.210   1.924
 7217SOL    HW122550   2.202   4.180   1.940
 7217SOL    HW222551   2.107   4.307   1.898
 7218SOL     OW22552   4.511   2.654   5.364
 7218SOL    HW122553   4.566   2.605   5.297
 7218SOL    HW222554   4.547   2.637   5.455
 7219SOL     OW22555   5.575   5.891   4.132
 7219SOL    HW122556   5.555   5.877   4.035
 7219SOL    HW222557   5.537   5.816   4.185
 7220SOL     OW22558   0.521   5.391   3.780
 7220SOL    HW122559   0.581   5.321   3.742
 7220SOL    HW222560   0.435   5.394   3.728
 7221SOL     OW22561   5.557   5.059   5.277
 7221SOL    HW122562   5.498   5.007   5.216
 7221SOL    HW222563   5.552   5.021   5.369
 7222SOL     OW22564   5.960   0.081   2.108
 7222SOL    HW122565   5.886   0.147   2.097
 7222SOL    HW222566   6.003   0.064   2.019
 7223SOL     OW22567   2.889   2.070   1.433
 7223SOL    HW122568   2.956   2.134   1.468
 7223SOL    HW222569   2.934   1.984   1.409
 7224SOL     OW22570   5.879   2.002   4.240
 7224SOL    HW122571   5.893   1.974   4.335
 7224SOL    HW222572   5.801   2.063   4.234
 7225SOL     OW22573   1.179   6.529   6.250
 7225SOL    HW122574   1.170   6.561   6.156
 7225SOL    HW222575   1.100   6.473   6.274
 7226SOL     OW22576   1.134   0.296   0.441
 7226SOL    HW122577   1.091   0.326   0.526
 7226SOL    HW222578   1.085   0.334   0.363
 7227SOL     OW22579   0.203   2.726   1.045
 7227SOL    HW122580   0.112   2.685   1.036
 7227SOL    HW222581   0.269   2.671   0.995
 7228SOL     OW22582   0.002   1.288   2.259
 7228SOL    HW122583   0.028   1.258   2.167
 7228SOL    HW222584   7.006   1.387   2.258
 7229SOL     OW22585   1.193   0.960   4.199
 7229SOL    HW122586   1.290   0.985   4.194
 7229SOL    HW222587   1.185   0.869   4.239
 7230SOL     OW22588   4.772   5.833   4.925
 7230SOL    HW122589   4.800   5.784   5.007
 7230SOL    HW222590   4.850   5.844   4.864
 7231SOL     OW22591   4.929   6.836   6.941
 7231SOL    HW122592   5.020   6.878   6.945
 7231SOL    HW222593   4.871   6.876   7.012
 7232SOL     OW22594   4.534   5.212   3.431
 7232SOL    HW122595   4.510   5.218   3.528
 7232SOL    HW222596   4.625   5.169   3.422
 7233SOL     OW22597   0.363   2.877   4.648
 7233SOL    HW122598   0.296   2.941   4.610
 7233SOL    HW222599   0.397   2.911   4.735
 7234SOL     OW22600   5.838   2.565   2.905
 7234SOL    HW122601   5.863   2.469   2.917
 7234SOL    HW222602   5.752   2.583   2.952
 7235SOL     OW22603   6.276   4.422   3.099
 7235SOL    HW122604   6.352   4.420   3.034
 7235SOL    HW222605   6.227   4.509   3.090
 7236SOL     OW22606   3.552   1.604   2.611
 7236SOL    HW122607   3.568   1.546   2.691
 7236SOL    HW222608   3.541   1.546   2.530
 7237SOL     OW22609   6.472   6.633   5.439
 7237SOL    HW122610   6.444   6.559   5.378
 7237SOL    HW222611   6.398   6.699   5.447
 7238SOL     OW22612   2.224   2.315   1.034
 7238SOL    HW122613   2.305   2.365   1.005
 7238SOL    HW222614   2.142   2.357   0.994
 7239SOL     OW22615   2.691   1.407   3.851
 7239SOL    HW122616   2.599   1.388   3.887
 7239SOL    HW222617   2.689   1.403   3.751
 7240SOL     OW22618   2.349   4.180   6.776
 7240SOL    HW122619   2.445   4.167   6.800
 7240SOL    HW222620   2.292   4.140   6.848
 7241SOL     OW22621   3.436   0.606   6.985
 7241SOL    HW122622   3.470   0.521   0.005
 7241SOL    HW222623   3.507   0.676   6.992
 7242SOL     OW22624   6.527   4.883   6.804
 7242SOL    HW122625   6.448   4.848   6.855
 7242SOL    HW222626   6.575   4.806   6.761
 7243SOL     OW22627   0.634   4.716   6.647
 7243SOL    HW122628   0.646   4.812   6.673
 7243SOL    HW222629   0.723   4.670   6.649
 7244SOL     OW22630   4.550   0.552   1.400
 7244SOL    HW122631   4.504   0.496   1.331
 7244SOL    HW222632   4.553   0.647   1.370
 7245SOL     OW22633   0.622   1.891   4.987
 7245SOL    HW122634   0.560   1.964   5.014
 7245SOL    HW222635   0.694   1.928   4.928
 7246SOL     OW22636   6.056   6.643   4.907
 7246SOL    HW122637   6.128   6.643   4.837
 7246SOL    HW222638   5.966   6.644   4.863
 7247SOL     OW22639   2.609   6.450   3.224
 7247SOL    HW122640   2.532   6.474   3.164
 7247SOL    HW222641   2.672   6.391   3.175
 7248SOL     OW22642   4.099   0.895   3.044
 7248SOL    HW122643   4.162   0.843   3.102
 7248SOL    HW222644   4.057   0.834   2.977
 7249SOL     OW22645   5.618   4.945   1.706
 7249SOL    HW122646   5.685   4.929   1.633
 7249SOL    HW222647   5.576   4.858   1.732
 7250SOL     OW22648   3.305   5.060   6.186
 7250SOL    HW122649   3.294   5.140   6.245
 7250SOL    HW222650   3.249   4.985   6.222
 7251SOL     OW22651   6.958   6.508   5.480
 7251SOL    HW122652   6.895   6.545   5.412
 7251SOL    HW222653   0.032   6.537   5.459
 7252SOL     OW22654   3.189   3.165   4.061
 7252SOL    HW122655   3.260   3.223   4.102
 7252SOL    HW222656   3.229   3.077   4.034
 7253SOL     OW22657   1.129   0.167   6.942
 7253SOL    HW122658   1.115   0.069   6.930
 7253SOL    HW222659   1.196   0.183   7.015
 7254SOL     OW22660   4.457   4.898   4.909
 7254SOL    HW122661   4.375   4.875   4.961
 7254SOL    HW222662   4.536   4.894   4.969
 7255SOL     OW22663   3.694   3.768   1.721
 7255SOL    HW122664   3.763   3.741   1.654
 7255SOL    HW222665   3.723   3.854   1.765
 7256SOL     OW22666   5.101   4.844   4.646
 7256SOL    HW122667   5.155   4.833   4.730
 7256SOL    HW222668   5.157   4.887   4.576
 7257SOL     OW22669   6.018   2.971   3.273
 7257SOL    HW122670   5.963   3.046   3.235
 7257SOL    HW222671   6.101   2.960   3.219
 7258SOL     OW22672   4.359   0.714   4.133
 7258SOL    HW122673   4.329   0.619   4.134
 7258SOL    HW222674   4.457   0.718   4.116
 7259SOL     OW22675   3.129   3.816   1.207
 7259SOL    HW122676   3.120   3.892   1.142
 7259SOL    HW222677   3.168   3.737   1.162
 7260SOL     OW22678   3.380   2.062   2.979
 7260SOL    HW122679   3.342   2.148   3.016
 7260SOL    HW222680   3.479   2.071   2.968
 7261SOL     OW22681   3.301   2.824   1.537
 7261SOL    HW122682   3.344   2.737   1.515
 7261SOL    HW222683   3.261   2.820   1.629
 7262SOL     OW22684   6.022   2.469   3.581
 7262SOL    HW122685   6.093   2.511   3.638
 7262SOL    HW222686   5.987   2.387   3.626
 7263SOL     OW22687   0.719   5.682   2.001
 7263SOL    HW122688   0.682   5.697   2.092
 7263SOL    HW222689   0.645   5.687   1.934
 7264SOL     OW22690   0.191   1.846   6.816
 7264SOL    HW122691   0.280   1.890   6.808
 7264SOL    HW222692   0.171   1.794   6.733
 7265SOL     OW22693   5.344   5.189   6.033
 7265SOL    HW122694   5.364   5.261   5.967
 7265SOL    HW222695   5.391   5.208   6.119
 7266SOL     OW22696   4.235   0.861   0.757
 7266SOL    HW122697   4.179   0.789   0.717
 7266SOL    HW222698   4.201   0.882   0.849
 7267SOL     OW22699   6.838   4.880   5.175
 7267SOL    HW122700   6.772   4.953   5.191
 7267SOL    HW222701   6.831   4.849   5.081
 7268SOL     OW22702   4.111   4.826   2.993
 7268SOL    HW122703   4.143   4.806   3.086
 7268SOL    HW222704   4.104   4.741   2.941
 7269SOL     OW22705   0.094   5.864   1.502
 7269SOL    HW122706   0.014   5.911   1.538
 7269SOL    HW222707   0.118   5.788   1.563
 7270SOL     OW22708   1.796   2.215   3.030
 7270SOL    HW122709   1.796   2.116   3.017
 7270SOL    HW222710   1.883   2.252   2.997
 7271SOL     OW22711   0.921   4.816   3.368
 7271SOL    HW122712   1.015   4.845   3.384
 7271SOL    HW222713   0.918   4.754   3.289
 7272SOL     OW22714   5.887   3.232   2.698
 7272SOL    HW122715   5.807   3.267   2.649
 7272SOL    HW222716   5.970   3.252   2.644
 7273SOL     OW22717   5.696   4.650   2.008
 7273SOL    HW122718   5.634   4.679   2.081
 7273SOL    HW222719   5.704   4.550   2.010
 7274SOL     OW22720   6.936   5.879   6.188
 7274SOL    HW122721   6.962   5.783   6.196
 7274SOL    HW222722   6.998   5.935   6.241
 7275SOL     OW22723   6.025   0.527   0.661
 7275SOL    HW122724   5.988   0.609   0.704
 7275SOL    HW222725   6.093   0.554   0.592
 7276SOL     OW22726   3.473   1.269   3.706
 7276SOL    HW122727   3.522   1.306   3.785
 7276SOL    HW222728   3.375   1.271   3.723
 7277SOL     OW22729   5.381   1.122   5.307
 7277SOL    HW122730   5.403   1.108   5.211
 7277SOL    HW222731   5.287   1.154   5.315
 7278SOL     OW22732   3.684   2.121   2.924
 7278SOL    HW122733   3.782   2.140   2.937
 7278SOL    HW222734   3.663   2.121   2.827
 7279SOL     OW22735   4.357   4.075   0.338
 7279SOL    HW122736   4.262   4.099   0.361
 7279SOL    HW222737   4.363   4.052   0.241
 7280SOL     OW22738   5.589   2.326   4.911
 7280SOL    HW122739   5.529   2.365   4.980
 7280SOL    HW222740   5.588   2.384   4.829
 7281SOL     OW22741   3.371   0.246   1.191
 7281SOL    HW122742   3.299   0.178   1.178
 7281SOL    HW222743   3.438   0.238   1.117
 7282SOL     OW22744   6.662   5.625   1.742
 7282SOL    HW122745   6.673   5.549   1.806
 7282SOL    HW222746   6.645   5.709   1.794
 7283SOL     OW22747   2.997   6.481   1.822
 7283SOL    HW122748   2.903   6.515   1.819
 7283SOL    HW222749   3.006   6.401   1.762
 7284SOL     OW22750   6.629   2.861   3.644
 7284SOL    HW122751   6.670   2.834   3.557
 7284SOL    HW222752   6.700   2.900   3.703
 7285SOL     OW22753   5.111   3.071   1.394
 7285SOL    HW122754   5.086   3.109   1.305
 7285SOL    HW222755   5.173   3.133   1.440
 7286SOL     OW22756   0.704   1.350   0.823
 7286SOL    HW122757   0.652   1.435   0.832
 7286SOL    HW222758   0.672   1.300   0.743
 7287SOL     OW22759   0.018   2.879   3.985
 7287SOL    HW122760   0.039   2.940   3.908
 7287SOL    HW222761   0.085   2.806   3.989
 7288SOL     OW22762   1.963   2.694   2.478
 7288SOL    HW122763   2.014   2.618   2.518
 7288SOL    HW222764   1.939   2.672   2.383
 7289SOL     OW22765   5.700   2.752   1.857
 7289SOL    HW122766   5.649   2.836   1.835
 7289SOL    HW222767   5.636   2.680   1.884
 7290SOL     OW22768   3.881   1.167   5.170
 7290SOL    HW122769   3.926   1.158   5.259
 7290SOL    HW222770   3.789   1.128   5.175
 7291SOL     OW22771   3.205   0.057   0.148
 7291SOL    HW122772   3.223   0.126   0.217
 7291SOL    HW222773   3.263   0.074   0.068
 7292SOL     OW22774   1.861   6.589   3.528
 7292SOL    HW122775   1.945   6.625   3.489
 7292SOL    HW222776   1.878   6.556   3.621
 7293SOL     OW22777   1.178   1.377   5.767
 7293SOL    HW122778   1.237   1.299   5.789
 7293SOL    HW222779   1.110   1.388   5.840
 7294SOL     OW22780   3.005   4.384   1.642
 7294SOL    HW122781   2.956   4.430   1.716
 7294SOL    HW222782   2.988   4.432   1.556
 7295SOL     OW22783   6.400   4.725   1.394
 7295SOL    HW122784   6.487   4.752   1.351
 7295SOL    HW222785   6.392   4.625   1.392
 7296SOL     OW22786   3.638   5.342   2.936
 7296SOL    HW122787   3.722   5.317   2.887
 7296SOL    HW222788   3.588   5.259   2.960
 7297SOL     OW22789   3.021   6.239   1.683
 7297SOL    HW122790   2.957   6.258   1.609
 7297SOL    HW222791   3.017   6.141   1.706
 7298SOL     OW22792   4.579   6.201   0.195
 7298SOL    HW122793   4.518   6.127   0.169
 7298SOL    HW222794   4.571   6.275   0.127
 7299SOL     OW22795   1.327   2.226   0.586
 7299SOL    HW122796   1.281   2.307   0.550
 7299SOL    HW222797   1.284   2.199   0.673
 7300SOL     OW22798   0.714   4.842   1.925
 7300SOL    HW122799   0.643   4.900   1.965
 7300SOL    HW222800   0.729   4.762   1.984
 7301SOL     OW22801   0.217   0.186   5.860
 7301SOL    HW122802   0.298   0.131   5.841
 7301SOL    HW222803   0.175   0.214   5.773
 7302SOL     OW22804   5.814   2.383   5.760
 7302SOL    HW122805   5.792   2.480   5.755
 7302SOL    HW222806   5.753   2.339   5.826
 7303SOL     OW22807   2.987   1.447   0.204
 7303SOL    HW122808   3.016   1.479   0.115
 7303SOL    HW222809   2.913   1.380   0.193
 7304SOL     OW22810   2.468   5.227   1.217
 7304SOL    HW122811   2.554   5.177   1.216
 7304SOL    HW222812   2.426   5.224   1.126
 7305SOL     OW22813   5.470   2.702   0.607
 7305SOL    HW122814   5.502   2.796   0.614
 7305SOL    HW222815   5.421   2.678   0.691
 7306SOL     OW22816   3.471   1.280   1.378
 7306SOL    HW122817   3.414   1.362   1.388
 7306SOL    HW222818   3.562   1.307   1.347
 7307SOL     OW22819   4.039   6.490   2.163
 7307SOL    HW122820   4.120   6.547   2.155
 7307SOL    HW222821   4.066   6.394   2.156
 7308SOL     OW22822   6.696   1.010   2.671
 7308SOL    HW122823   6.700   1.091   2.612
 7308SOL    HW222824   6.758   1.022   2.748
 7309SOL     OW22825   2.622   6.109   2.687
 7309SOL    HW122826   2.545   6.098   2.750
 7309SOL    HW222827   2.611   6.195   2.637
 7310SOL     OW22828   1.487   2.894   0.291
 7310SOL    HW122829   1.559   2.917   0.356
 7310SOL    HW222830   1.478   2.795   0.286
 7311SOL     OW22831   0.926   0.359   6.845
 7311SOL    HW122832   0.974   0.433   6.798
 7311SOL    HW222833   0.989   0.310   6.905
 7312SOL     OW22834   0.376   1.327   4.928
 7312SOL    HW122835   0.293   1.364   4.972
 7312SOL    HW222836   0.351   1.247   4.873
 7313SOL     OW22837   2.582   1.078   0.785
 7313SOL    HW122838   2.608   1.050   0.693
 7313SOL    HW222839   2.665   1.097   0.839
 7314SOL     OW22840   0.380   4.233   6.910
 7314SOL    HW122841   0.317   4.258   6.837
 7314SOL    HW222842   0.372   4.135   6.928
 7315SOL     OW22843   6.575   5.327   2.216
 7315SOL    HW122844   6.650   5.272   2.179
 7315SOL    HW222845   6.589   5.423   2.191
 7316SOL     OW22846   3.312   2.013   6.294
 7316SOL    HW122847   3.358   1.994   6.381
 7316SOL    HW222848   3.289   2.110   6.289
 7317SOL     OW22849   3.450   1.807   1.804
 7317SOL    HW122850   3.400   1.786   1.888
 7317SOL    HW222851   3.478   1.903   1.805
 7318SOL     OW22852   4.177   6.869   2.351
 7318SOL    HW122853   4.158   6.902   2.443
 7318SOL    HW222854   4.120   6.920   2.285
 7319SOL     OW22855   0.344   3.649   6.706
 7319SOL    HW122856   0.312   3.640   6.612
 7319SOL    HW222857   0.444   3.641   6.707
 7320SOL     OW22858   6.701   4.211   1.079
 7320SOL    HW122859   6.699   4.112   1.068
 7320SOL    HW222860   6.780   4.248   1.031
 7321SOL     OW22861   1.679   6.373   6.311
 7321SOL    HW122862   1.586   6.409   6.320
 7321SOL    HW222863   1.675   6.279   6.275
 7322SOL     OW22864   0.880   2.173   3.139
 7322SOL    HW122865   0.973   2.156   3.171
 7322SOL    HW222866   0.851   2.264   3.168
 7323SOL     OW22867   2.443   1.308   1.762
 7323SOL    HW122868   2.520   1.282   1.820
 7323SOL    HW222869   2.467   1.387   1.707
 7324SOL     OW22870   5.958   4.387   2.226
 7324SOL    HW122871   6.006   4.421   2.307
 7324SOL    HW222872   5.865   4.360   2.251
 7325SOL     OW22873   3.434   0.460   5.708
 7325SOL    HW122874   3.392   0.405   5.636
 7325SOL    HW222875   3.370   0.532   5.737
 7326SOL     OW22876   3.624   0.538   6.515
 7326SOL    HW122877   3.600   0.458   6.461
 7326SOL    HW222878   3.542   0.574   6.559
 7327SOL     OW22879   6.040   4.103   3.403
 7327SOL    HW122880   6.067   4.007   3.397
 7327SOL    HW222881   6.052   4.147   3.314
 7328SOL     OW22882   4.101   5.409   5.484
 7328SOL    HW122883   4.035   5.355   5.536
 7328SOL    HW222884   4.075   5.410   5.388
 7329SOL     OW22885   0.679   2.416   0.243
 7329SOL    HW122886   0.673   2.321   0.275
 7329SOL    HW222887   0.736   2.420   0.161
 7330SOL     OW22888   3.009   2.777   1.482
 7330SOL    HW122889   3.108   2.767   1.472
 7330SOL    HW222890   2.964   2.711   1.421
 7331SOL     OW22891   4.679   0.132   1.870
 7331SOL    HW122892   4.745   0.059   1.855
 7331SOL    HW222893   4.656   0.137   1.967
 7332SOL     OW22894   3.953   4.570   0.191
 7332SOL    HW122895   3.974   4.615   0.105
 7332SOL    HW222896   3.860   4.534   0.188
 7333SOL     OW22897   5.873   3.151   3.127
 7333SOL    HW122898   5.918   3.239   3.108
 7333SOL    HW222899   5.876   3.094   3.045
 7334SOL     OW22900   2.677   6.052   6.521
 7334SOL    HW122901   2.681   6.147   6.490
 7334SOL    HW222902   2.609   6.002   6.467
 7335SOL     OW22903   0.058   3.573   2.875
 7335SOL    HW122904   0.122   3.524   2.815
 7335SOL    HW222905   0.103   3.590   2.963
 7336SOL     OW22906   1.682   6.085   0.834
 7336SOL    HW122907   1.713   6.156   0.897
 7336SOL    HW222908   1.761   6.038   0.795
 7337SOL     OW22909   3.383   2.525   1.432
 7337SOL    HW122910   3.416   2.600   1.375
 7337SOL    HW222911   3.449   2.505   1.504
 7338SOL     OW22912   5.614   2.586   1.338
 7338SOL    HW122913   5.558   2.629   1.408
 7338SOL    HW222914   5.561   2.513   1.293
 7339SOL     OW22915   0.164   6.371   5.175
 7339SOL    HW122916   0.194   6.283   5.212
 7339SOL    HW222917   0.202   6.446   5.230
 7340SOL     OW22918   3.484   1.232   6.935
 7340SOL    HW122919   3.416   1.166   6.902
 7340SOL    HW222920   3.474   1.243   0.015
 7341SOL     OW22921   1.110   5.158   4.509
 7341SOL    HW122922   1.182   5.143   4.577
 7341SOL    HW222923   1.118   5.090   4.436
 7342SOL     OW22924   6.753   0.170   0.746
 7342SOL    HW122925   6.752   0.100   0.817
 7342SOL    HW222926   6.659   0.192   0.719
 7343SOL     OW22927   5.657   3.435   1.920
 7343SOL    HW122928   5.589   3.366   1.895
 7343SOL    HW222929   5.711   3.403   1.997
 7344SOL     OW22930   1.634   6.958   6.839
 7344SOL    HW122931   1.564   6.897   6.876
 7344SOL    HW222932   1.634   0.025   6.891
 7345SOL     OW22933   4.668   4.782   5.988
 7345SOL    HW122934   4.597   4.844   6.021
 7345SOL    HW222935   4.632   4.688   5.987
 7346SOL     OW22936   4.052   3.892   1.186
 7346SOL    HW122937   3.990   3.815   1.202
 7346SOL    HW222938   4.146   3.862   1.203
 7347SOL     OW22939   6.749   2.711   2.411
 7347SOL    HW122940   6.660   2.687   2.374
 7347SOL    HW222941   6.742   2.799   2.460
 7348SOL     OW22942   1.538   3.514   3.733
 7348SOL    HW122943   1.491   3.465   3.806
 7348SOL    HW222944   1.636   3.517   3.752
 7349SOL     OW22945   3.705   1.411   1.309
 7349SOL    HW122946   3.709   1.446   1.403
 7349SOL    HW222947   3.767   1.464   1.251
 7350SOL     OW22948   0.270   3.116   3.778
 7350SOL    HW122949   0.258   3.208   3.743
 7350SOL    HW222950   0.201   3.056   3.736
 7351SOL     OW22951   3.896   4.446   6.387
 7351SOL    HW122952   3.976   4.424   6.331
 7351SOL    HW222953   3.924   4.504   6.464
 7352SOL     OW22954   1.103   1.549   3.259
 7352SOL    HW122955   1.117   1.644   3.289
 7352SOL    HW222956   1.093   1.490   3.338
 7353SOL     OW22957   0.284   1.795   5.415
 7353SOL    HW122958   0.190   1.763   5.405
 7353SOL    HW222959   0.284   1.894   5.434
 7354SOL     OW22960   0.013   0.736   6.213
 7354SOL    HW122961   0.099   0.766   6.254
 7354SOL    HW222962   0.016   0.636   6.200
 7355SOL     OW22963   1.630   5.584   1.136
 7355SOL    HW122964   1.694   5.525   1.185
 7355SOL    HW222965   1.547   5.595   1.190
 7356SOL     OW22966   5.306   2.571   6.573
 7356SOL    HW122967   5.256   2.485   6.563
 7356SOL    HW222968   5.249   2.636   6.624
 7357SOL     OW22969   4.915   1.069   1.395
 7357SOL    HW122970   4.883   1.058   1.301
 7357SOL    HW222971   4.977   0.994   1.418
 7358SOL     OW22972   2.938   2.011   2.520
 7358SOL    HW122973   2.918   2.039   2.426
 7358SOL    HW222974   2.939   1.912   2.526
 7359SOL     OW22975   3.185   2.403   1.183
 7359SOL    HW122976   3.260   2.336   1.179
 7359SOL    HW222977   3.153   2.411   1.277
 7360SOL     OW22978   1.627   2.502   5.388
 7360SOL    HW122979   1.568   2.424   5.368
 7360SOL    HW222980   1.605   2.577   5.325
 7361SOL     OW22981   4.638   6.953   1.382
 7361SOL    HW122982   4.733   6.946   1.352
 7361SOL    HW222983   4.621   0.025   1.419
 7362SOL     OW22984   0.863   6.905   4.675
 7362SOL    HW122985   0.775   6.891   4.629
 7362SOL    HW222986   0.923   6.960   4.617
 7363SOL     OW22987   4.951   2.020   0.305
 7363SOL    HW122988   5.000   1.957   0.366
 7363SOL    HW222989   4.990   2.013   0.213
 7364SOL     OW22990   3.827   6.527   1.410
 7364SOL    HW122991   3.903   6.551   1.471
 7364SOL    HW222992   3.846   6.559   1.318
 7365SOL     OW22993   2.850   6.369   2.140
 7365SOL    HW122994   2.772   6.377   2.078
 7365SOL    HW222995   2.833   6.296   2.207
 7366SOL     OW22996   1.238   5.292   0.511
 7366SOL    HW122997   1.248   5.390   0.526
 7366SOL    HW222998   1.154   5.260   0.553
 7367SOL     OW22999   4.236   3.676   1.078
 7367SOL    HW123000   4.157   3.680   1.018
 7367SOL    HW223001   4.233   3.591   1.131
 7368SOL     OW23002   2.980   3.185   3.912
 7368SOL    HW123003   2.914   3.131   3.963
 7368SOL    HW223004   3.066   3.189   3.962
 7369SOL     OW23005   4.973   3.325   0.962
 7369SOL    HW123006   4.995   3.412   0.918
 7369SOL    HW223007   4.879   3.328   0.997
 7370SOL     OW23008   1.877   0.814   6.077
 7370SOL    HW123009   1.952   0.750   6.097
 7370SOL    HW223010   1.872   0.884   6.148
 7371SOL     OW23011   3.045   5.789   4.202
 7371SOL    HW123012   3.144   5.784   4.193
 7371SOL    HW223013   3.017   5.746   4.287
 7372SOL     OW23014   3.522   0.151   5.493
 7372SOL    HW123015   3.560   0.081   5.553
 7372SOL    HW223016   3.450   0.111   5.436
 7373SOL     OW23017   4.977   1.178   3.604
 7373SOL    HW123018   4.993   1.259   3.660
 7373SOL    HW223019   4.879   1.158   3.603
 7374SOL     OW23020   1.903   2.557   5.359
 7374SOL    HW123021   1.804   2.543   5.362
 7374SOL    HW223022   1.940   2.558   5.452
 7375SOL     OW23023   1.548   1.887   4.062
 7375SOL    HW123024   1.538   1.902   4.160
 7375SOL    HW223025   1.645   1.889   4.037
 7376SOL     OW23026   3.234   2.621   6.785
 7376SOL    HW123027   3.194   2.572   6.708
 7376SOL    HW223028   3.332   2.631   6.771
 7377SOL     OW23029   4.437   5.526   2.201
 7377SOL    HW123030   4.466   5.440   2.160
 7377SOL    HW223031   4.423   5.514   2.299
 7378SOL     OW23032   6.730   1.901   4.449
 7378SOL    HW123033   6.657   1.961   4.482
 7378SOL    HW223034   6.747   1.829   4.517
 7379SOL     OW23035   4.250   1.293   2.772
 7379SOL    HW123036   4.168   1.308   2.829
 7379SOL    HW223037   4.223   1.249   2.687
 7380SOL     OW23038   0.526   3.343   5.922
 7380SOL    HW123039   0.498   3.404   5.996
 7380SOL    HW223040   0.600   3.284   5.954
 7381SOL     OW23041   4.754   2.907   2.457
 7381SOL    HW123042   4.754   2.825   2.399
 7381SOL    HW223043   4.699   2.889   2.539
 7382SOL     OW23044   0.063   5.060   4.547
 7382SOL    HW123045   0.085   5.054   4.450
 7382SOL    HW223046   7.004   5.000   4.567
 7383SOL     OW23047   6.785   6.524   2.532
 7383SOL    HW123048   6.841   6.553   2.454
 7383SOL    HW223049   6.742   6.604   2.574
 7384SOL     OW23050   5.389   1.287   1.671
 7384SOL    HW123051   5.332   1.369   1.671
 7384SOL    HW223052   5.409   1.259   1.577
 7385SOL     OW23053   3.802   5.719   2.400
 7385SOL    HW123054   3.718   5.665   2.412
 7385SOL    HW223055   3.874   5.661   2.361
 7386SOL     OW23056   0.935   2.707   5.366
 7386SOL    HW123057   0.852   2.720   5.311
 7386SOL    HW223058   0.968   2.613   5.355
 7387SOL     OW23059   4.568   6.336   4.680
 7387SOL    HW123060   4.607   6.306   4.767
 7387SOL    HW223061   4.568   6.259   4.616
 7388SOL     OW23062   0.003   5.458   3.911
 7388SOL    HW123063   0.051   5.472   3.824
 7388SOL    HW223064   6.943   5.519   3.916
 7389SOL     OW23065   1.145   4.542   6.969
 7389SOL    HW123066   1.169   4.562   0.044
 7389SOL    HW223067   1.185   4.454   6.942
 7390SOL     OW23068   1.624   1.655   6.390
 7390SOL    HW123069   1.544   1.636   6.333
 7390SOL    HW223070   1.656   1.748   6.373
 7391SOL     OW23071   4.671   4.068   5.328
 7391SOL    HW123072   4.575   4.093   5.342
 7391SOL    HW223073   4.681   3.969   5.336
 7392SOL     OW23074   2.230   6.090   6.052
 7392SOL    HW123075   2.208   6.120   6.145
 7392SOL    HW223076   2.305   6.023   6.056
 7393SOL     OW23077   5.807   5.496   1.523
 7393SOL    HW123078   5.860   5.518   1.441
 7393SOL    HW223079   5.855   5.528   1.604
 7394SOL     OW23080   3.391   2.724   6.368
 7394SOL    HW123081   3.420   2.773   6.286
 7394SOL    HW223082   3.408   2.782   6.448
 7395SOL     OW23083   0.700   0.932   6.991
 7395SOL    HW123084   0.670   0.989   6.914
 7395SOL    HW223085   0.781   0.972   0.013
 7396SOL     OW23086   1.487   0.983   6.879
 7396SOL    HW123087   1.455   1.071   6.914
 7396SOL    HW223088   1.537   0.935   6.952
 7397SOL     OW23089   6.351   4.903   4.247
 7397SOL    HW123090   6.450   4.900   4.260
 7397SOL    HW223091   6.311   4.817   4.278
 7398SOL     OW23092   3.484   5.281   4.632
 7398SOL    HW123093   3.451   5.206   4.575
 7398SOL    HW223094   3.568   5.319   4.592
 7399SOL     OW23095   0.530   4.243   5.236
 7399SOL    HW123096   0.439   4.269   5.202
 7399SOL    HW223097   0.599   4.306   5.200
 7400SOL     OW23098   3.077   4.072   0.096
 7400SOL    HW123099   3.117   4.011   0.165
 7400SOL    HW223100   3.134   4.154   0.088
 7401SOL     OW23101   0.433   1.369   3.166
 7401SOL    HW123102   0.378   1.372   3.083
 7401SOL    HW223103   0.397   1.299   3.228
 7402SOL     OW23104   2.041   0.079   4.093
 7402SOL    HW123105   2.098   0.091   4.175
 7402SOL    HW223106   2.091   0.026   4.025
 7403SOL     OW23107   2.209   3.011   3.277
 7403SOL    HW123108   2.212   3.106   3.247
 7403SOL    HW223109   2.219   2.951   3.197
 7404SOL     OW23110   2.445   6.976   1.117
 7404SOL    HW123111   2.347   6.990   1.105
 7404SOL    HW223112   2.477   6.908   1.052
 7405SOL     OW23113   1.043   4.956   4.321
 7405SOL    HW123114   1.027   4.860   4.299
 7405SOL    HW223115   0.980   5.013   4.268
 7406SOL     OW23116   1.601   3.384   2.348
 7406SOL    HW123117   1.581   3.360   2.443
 7406SOL    HW223118   1.698   3.408   2.339
 7407SOL     OW23119   0.414   6.345   4.660
 7407SOL    HW123120   0.361   6.388   4.733
 7407SOL    HW223121   0.449   6.257   4.691
 7408SOL     OW23122   1.534   4.035   5.197
 7408SOL    HW123123   1.620   4.085   5.183
 7408SOL    HW223124   1.555   3.938   5.214
 7409SOL     OW23125   0.508   1.055   4.576
 7409SOL    HW123126   0.541   1.034   4.668
 7409SOL    HW223127   0.538   1.146   4.549
 7410SOL     OW23128   6.762   5.175   0.926
 7410SOL    HW123129   6.837   5.156   0.863
 7410SOL    HW223130   6.785   5.143   1.017
 7411SOL     OW23131   2.587   0.064   4.402
 7411SOL    HW123132   2.564   7.013   4.469
 7411SOL    HW223133   2.550   0.037   4.312
 7412SOL     OW23134   3.260   1.208   0.960
 7412SOL    HW123135   3.357   1.207   0.936
 7412SOL    HW223136   3.227   1.302   0.963
 7413SOL     OW23137   0.316   4.483   3.885
 7413SOL    HW123138   0.260   4.408   3.849
 7413SOL    HW223139   0.412   4.457   3.882
 7414SOL     OW23140   0.051   6.968   2.419
 7414SOL    HW123141   7.005   0.018   2.450
 7414SOL    HW223142   0.028   6.880   2.461
 7415SOL     OW23143   0.581   3.907   2.913
 7415SOL    HW123144   0.667   3.898   2.963
 7415SOL    HW223145   0.597   3.956   2.827
 7416SOL     OW23146   3.620   0.955   3.796
 7416SOL    HW123147   3.630   0.875   3.855
 7416SOL    HW223148   3.703   1.010   3.800
 7417SOL     OW23149   1.242   0.103   5.952
 7417SOL    HW123150   1.306   0.102   5.875
 7417SOL    HW223151   1.169   0.168   5.934
 7418SOL     OW23152   3.308   4.492   1.074
 7418SOL    HW123153   3.317   4.587   1.046
 7418SOL    HW223154   3.220   4.456   1.043
 7419SOL     OW23155   6.342   2.206   4.953
 7419SOL    HW123156   6.344   2.227   5.050
 7419SOL    HW223157   6.253   2.169   4.928
 7420SOL     OW23158   6.225   6.668   2.773
 7420SOL    HW123159   6.277   6.753   2.779
 7420SOL    HW223160   6.134   6.681   2.810
 7421SOL     OW23161   2.762   2.820   1.039
 7421SOL    HW123162   2.741   2.742   0.980
 7421SOL    HW223163   2.713   2.811   1.125
 7422SOL     OW23164   0.243   3.271   2.365
 7422SOL    HW123165   0.215   3.197   2.427
 7422SOL    HW223166   0.204   3.357   2.396
 7423SOL     OW23167   0.368   4.095   6.320
 7423SOL    HW123168   0.294   4.153   6.288
 7423SOL    HW223169   0.339   3.999   6.320
 7424SOL     OW23170   5.882   1.163   4.424
 7424SOL    HW123171   5.932   1.083   4.390
 7424SOL    HW223172   5.922   1.246   4.385
 7425SOL     OW23173   4.168   4.707   6.717
 7425SOL    HW123174   4.151   4.801   6.746
 7425SOL    HW223175   4.261   4.700   6.680
 7426SOL     OW23176   0.504   1.925   6.546
 7426SOL    HW123177   0.405   1.924   6.553
 7426SOL    HW223178   0.535   2.018   6.523
 7427SOL     OW23179   3.285   5.871   4.973
 7427SOL    HW123180   3.309   5.944   4.909
 7427SOL    HW223181   3.189   5.844   4.958
 7428SOL     OW23182   3.443   1.662   5.587
 7428SOL    HW123183   3.510   1.672   5.512
 7428SOL    HW223184   3.454   1.736   5.652
 7429SOL     OW23185   5.967   0.364   2.883
 7429SOL    HW123186   6.059   0.371   2.845
 7429SOL    HW223187   5.972   0.372   2.983
 7430SOL     OW23188   0.029   4.585   5.716
 7430SOL    HW123189   0.099   4.558   5.781
 7430SOL    HW223190   7.019   4.505   5.663
 7431SOL     OW23191   0.378   4.171   2.511
 7431SOL    HW123192   0.476   4.151   2.502
 7431SOL    HW223193   0.358   4.259   2.468
 7432SOL     OW23194   0.441   6.530   3.920
 7432SOL    HW123195   0.363   6.590   3.902
 7432SOL    HW223196   0.436   6.495   4.013
 7433SOL     OW23197   6.599   5.392   0.471
 7433SOL    HW123198   6.554   5.481   0.461
 7433SOL    HW223199   6.551   5.325   0.415
 7434SOL     OW23200   3.872   0.917   6.605
 7434SOL    HW123201   3.892   0.819   6.613
 7434SOL    HW223202   3.943   0.961   6.549
 7435SOL     OW23203   3.324   6.812   6.945
 7435SOL    HW123204   3.239   6.774   6.983
 7435SOL    HW223205   3.305   6.854   6.856
 7436SOL     OW23206   6.990   3.195   6.202
 7436SOL    HW123207   0.027   3.175   6.282
 7436SOL    HW223208   6.971   3.110   6.154
 7437SOL     OW23209   7.016   5.811   0.048
 7437SOL    HW123210   0.010   5.835   6.971
 7437SOL    HW223211   6.941   5.745   0.056
 7438SOL     OW23212   1.092   4.304   0.988
 7438SOL    HW123213   1.001   4.332   0.957
 7438SOL    HW223214   1.161   4.357   0.939
 7439SOL     OW23215   2.726   6.613   3.983
 7439SOL    HW123216   2.743   6.604   4.082
 7439SOL    HW223217   2.632   6.586   3.963
 7440SOL     OW23218   0.999   3.096   4.574
 7440SOL    HW123219   1.006   3.083   4.673
 7440SOL    HW223220   0.968   3.012   4.531
 7441SOL     OW23221   5.759   6.525   4.475
 7441SOL    HW123222   5.763   6.595   4.547
 7441SOL    HW223223   5.851   6.495   4.453
 7442SOL     OW23224   0.857   0.656   6.021
 7442SOL    HW123225   0.909   0.673   6.105
 7442SOL    HW223226   0.759   0.653   6.042
 7443SOL     OW23227   0.208   1.409   1.274
 7443SOL    HW123228   0.187   1.347   1.198
 7443SOL    HW223229   0.130   1.469   1.291
 7444SOL     OW23230   0.615   3.590   5.760
 7444SOL    HW123231   0.708   3.620   5.780
 7444SOL    HW223232   0.588   3.519   5.825
 7445SOL     OW23233   3.937   1.154   1.449
 7445SOL    HW123234   4.019   1.208   1.470
 7445SOL    HW223235   3.873   1.161   1.525
 7446SOL     OW23236   5.557   5.101   0.235
 7446SOL    HW123237   5.507   5.019   0.264
 7446SOL    HW223238   5.606   5.139   0.313
 7447SOL     OW23239   2.621   3.741   7.007
 7447SOL    HW123240   2.654   3.707   0.076
 7447SOL    HW223241   2.570   3.668   6.961
 7448SOL     OW23242   5.338   6.180   6.167
 7448SOL    HW123243   5.245   6.144   6.161
 7448SOL    HW223244   5.396   6.113   6.214
 7449SOL     OW23245   4.762   2.740   2.232
 7449SOL    HW123246   4.726   2.673   2.167
 7449SOL    HW223247   4.802   2.817   2.182
 7450SOL     OW23248   5.257   2.805   4.515
 7450SOL    HW123249   5.177   2.861   4.538
 7450SOL    HW223250   5.280   2.747   4.594
 7451SOL     OW23251   1.530   0.445   3.514
 7451SOL    HW123252   1.439   0.481   3.537
 7451SOL    HW223253   1.564   0.491   3.432
 7452SOL     OW23254   1.359   0.146   4.832
 7452SOL    HW123255   1.359   0.202   4.915
 7452SOL    HW223256   1.360   0.205   4.752
 7453SOL     OW23257   5.627   5.728   5.250
 7453SOL    HW123258   5.703   5.687   5.300
 7453SOL    HW223259   5.555   5.755   5.313
 7454SOL     OW23260   1.027   2.930   2.096
 7454SOL    HW123261   1.003   2.912   2.001
 7454SOL    HW223262   1.102   2.870   2.124
 7455SOL     OW23263   6.993   1.384   1.620
 7455SOL    HW123264   6.974   1.350   1.712
 7455SOL    HW223265   6.913   1.433   1.586
 7456SOL     OW23266   1.224   2.029   4.475
 7456SOL    HW123267   1.256   1.959   4.411
 7456SOL    HW223268   1.158   2.089   4.429
 7457SOL     OW23269   4.152   0.774   6.437
 7457SOL    HW123270   4.228   0.713   6.460
 7457SOL    HW223271   4.074   0.719   6.405
 7458SOL     OW23272   1.596   0.171   6.995
 7458SOL    HW123273   1.613   0.183   0.074
 7458SOL    HW223274   1.623   0.255   6.947
 7459SOL     OW23275   4.495   0.016   0.099
 7459SOL    HW123276   4.584   0.049   0.069
 7459SOL    HW223277   4.490   6.936   0.088
 7460SOL     OW23278   2.186   4.485   0.200
 7460SOL    HW123279   2.149   4.482   0.108
 7460SOL    HW223280   2.286   4.474   0.197
 7461SOL     OW23281   5.015   1.459   5.464
 7461SOL    HW123282   4.952   1.495   5.533
 7461SOL    HW223283   4.966   1.448   5.377
 7462SOL     OW23284   1.657   2.715   2.174
 7462SOL    HW123285   1.581   2.726   2.238
 7462SOL    HW223286   1.713   2.636   2.200
 7463SOL     OW23287   3.879   3.743   1.492
 7463SOL    HW123288   3.851   3.647   1.498
 7463SOL    HW223289   3.973   3.749   1.461
 7464SOL     OW23290   3.611   6.495   6.373
 7464SOL    HW123291   3.627   6.497   6.472
 7464SOL    HW223292   3.512   6.503   6.355
 7465SOL     OW23293   1.380   0.355   1.146
 7465SOL    HW123294   1.377   0.454   1.132
 7465SOL    HW223295   1.468   0.319   1.114
 7466SOL     OW23296   0.309   1.002   6.729
 7466SOL    HW123297   0.395   1.043   6.700
 7466SOL    HW223298   0.301   1.006   6.828
 7467SOL     OW23299   6.128   1.794   1.269
 7467SOL    HW123300   6.040   1.764   1.232
 7467SOL    HW223301   6.175   1.849   1.201
 7468SOL     OW23302   5.117   2.145   2.116
 7468SOL    HW123303   5.102   2.064   2.172
 7468SOL    HW223304   5.081   2.226   2.163
 7469SOL     OW23305   0.521   0.294   0.046
 7469SOL    HW123306   0.468   0.342   0.116
 7469SOL    HW223307   0.462   0.268   6.989
 7470SOL     OW23308   0.107   3.361   3.730
 7470SOL    HW123309   0.045   3.365   3.651
 7470SOL    HW223310   0.177   3.432   3.722
 7471SOL     OW23311   6.006   6.904   4.192
 7471SOL    HW123312   6.013   6.867   4.099
 7471SOL    HW223313   6.084   6.870   4.246
 7472SOL     OW23314   5.501   6.481   3.718
 7472SOL    HW123315   5.466   6.388   3.730
 7472SOL    HW223316   5.534   6.515   3.806
 7473SOL     OW23317   6.966   4.710   3.148
 7473SOL    HW123318   7.009   4.754   3.070
 7473SOL    HW223319   6.895   4.770   3.186
 7474SOL     OW23320   2.984   1.062   4.997
 7474SOL    HW123321   2.973   0.963   4.985
 7474SOL    HW223322   2.953   1.087   5.089
 7475SOL     OW23323   4.128   1.676   2.567
 7475SOL    HW123324   4.154   1.772   2.558
 7475SOL    HW223325   4.198   1.619   2.524
 7476SOL     OW23326   3.996   6.516   4.389
 7476SOL    HW123327   3.950   6.435   4.355
 7476SOL    HW223328   4.076   6.535   4.332
 7477SOL     OW23329   5.032   1.111   3.992
 7477SOL    HW123330   5.054   1.020   4.027
 7477SOL    HW223331   5.115   1.154   3.954
 7478SOL     OW23332   3.991   3.711   6.513
 7478SOL    HW123333   3.983   3.701   6.612
 7478SOL    HW223334   4.038   3.797   6.492
 7479SOL     OW23335   4.196   2.768   1.048
 7479SOL    HW123336   4.180   2.676   1.013
 7479SOL    HW223337   4.109   2.817   1.054
 7480SOL     OW23338   5.943   5.587   1.264
 7480SOL    HW123339   5.985   5.670   1.301
 7480SOL    HW223340   6.005   5.546   1.197
 7481SOL     OW23341   5.441   5.385   1.362
 7481SOL    HW123342   5.436   5.338   1.274
 7481SOL    HW223343   5.396   5.474   1.356
 7482SOL     OW23344   4.502   1.643   2.503
 7482SOL    HW123345   4.431   1.627   2.434
 7482SOL    HW223346   4.514   1.742   2.515
 7483SOL     OW23347   3.935   1.783   4.650
 7483SOL    HW123348   3.919   1.880   4.664
 7483SOL    HW223349   4.033   1.765   4.650
 7484SOL     OW23350   6.588   0.485   1.964
 7484SOL    HW123351   6.551   0.577   1.953
 7484SOL    HW223352   6.526   0.431   2.021
 7485SOL     OW23353   3.171   6.126   5.344
 7485SOL    HW123354   3.219   6.180   5.413
 7485SOL    HW223355   3.129   6.046   5.387
 7486SOL     OW23356   2.278   6.902   5.989
 7486SOL    HW123357   2.249   6.845   5.912
 7486SOL    HW223358   2.217   6.981   5.997
 7487SOL     OW23359   2.132   6.405   2.436
 7487SOL    HW123360   2.190   6.370   2.509
 7487SOL    HW223361   2.186   6.462   2.374
 7488SOL     OW23362   1.869   6.404   5.129
 7488SOL    HW123363   1.870   6.332   5.198
 7488SOL    HW223364   1.775   6.437   5.116
 7489SOL     OW23365   5.082   2.651   5.178
 7489SOL    HW123366   5.037   2.707   5.247
 7489SOL    HW223367   5.032   2.659   5.091
 7490SOL     OW23368   1.002   1.553   1.147
 7490SOL    HW123369   0.979   1.455   1.153
 7490SOL    HW223370   1.101   1.564   1.146
 7491SOL     OW23371   0.194   4.908   6.457
 7491SOL    HW123372   0.132   4.987   6.458
 7491SOL    HW223373   0.176   4.854   6.375
 7492SOL     OW23374   2.583   1.586   4.671
 7492SOL    HW123375   2.573   1.664   4.734
 7492SOL    HW223376   2.515   1.593   4.598
 7493SOL     OW23377   5.742   4.508   6.435
 7493SOL    HW123378   5.665   4.523   6.372
 7493SOL    HW223379   5.814   4.576   6.417
 7494SOL     OW23380   5.900   1.163   2.749
 7494SOL    HW123381   5.819   1.104   2.743
 7494SOL    HW223382   5.968   1.133   2.682
 7495SOL     OW23383   2.279   1.300   1.115
 7495SOL    HW123384   2.316   1.297   1.208
 7495SOL    HW223385   2.354   1.307   1.049
 7496SOL     OW23386   0.586   3.787   6.384
 7496SOL    HW123387   0.656   3.839   6.432
 7496SOL    HW223388   0.606   3.689   6.392
 7497SOL     OW23389   2.922   4.757   1.225
 7497SOL    HW123390   2.985   4.777   1.149
 7497SOL    HW223391   2.960   4.792   1.310
 7498SOL     OW23392   2.420   0.945   4.117
 7498SOL    HW123393   2.324   0.933   4.092
 7498SOL    HW223394   2.449   1.038   4.093
 7499SOL     OW23395   6.439   0.952   3.406
 7499SOL    HW123396   6.428   1.038   3.355
 7499SOL    HW223397   6.411   0.966   3.501
 7500SOL     OW23398   4.281   6.383   2.925
 7500SOL    HW123399   4.212   6.441   2.883
 7500SOL    HW223400   4.363   6.436   2.944
 7501SOL     OW23401   6.565   4.042   4.381
 7501SOL    HW123402   6.619   4.126   4.379
 7501SOL    HW223403   6.556   4.006   4.288
 7502SOL     OW23404   1.290   0.954   5.316
 7502SOL    HW123405   1.318   0.859   5.300
 7502SOL    HW223406   1.299   1.007   5.232
 7503SOL     OW23407   2.474   1.067   0.294
 7503SOL    HW123408   2.529   0.999   0.342
 7503SOL    HW223409   2.394   1.091   0.349
 7504SOL     OW23410   3.587   0.215   3.244
 7504SOL    HW123411   3.684   0.238   3.237
 7504SOL    HW223412   3.539   0.248   3.163
 7505SOL     OW23413   2.583   0.650   5.341
 7505SOL    HW123414   2.515   0.707   5.294
 7505SOL    HW223415   2.571   0.555   5.312
 7506SOL     OW23416   4.067   6.985   2.562
 7506SOL    HW123417   3.975   0.004   2.568
 7506SOL    HW223418   4.134   0.034   2.592
 7507SOL     OW23419   6.943   6.954   1.196
 7507SOL    HW123420   6.978   6.870   1.238
 7507SOL    HW223421   6.993   0.013   1.232
 7508SOL     OW23422   5.644   0.034   2.201
 7508SOL    HW123423   5.621   6.984   2.133
 7508SOL    HW223424   5.560   0.070   2.242
 7509SOL     OW23425   5.516   4.516   0.871
 7509SOL    HW123426   5.610   4.483   0.883
 7509SOL    HW223427   5.457   4.473   0.941
 7510SOL     OW23428   2.769   4.110   5.783
 7510SOL    HW123429   2.830   4.127   5.860
 7510SOL    HW223430   2.785   4.179   5.712
 7511SOL     OW23431   1.661   0.737   2.957
 7511SOL    HW123432   1.664   0.798   3.036
 7511SOL    HW223433   1.735   0.760   2.894
 7512SOL     OW23434   2.980   4.486   1.390
 7512SOL    HW123435   2.986   4.421   1.314
 7512SOL    HW223436   2.937   4.571   1.358
 7513SOL     OW23437   2.002   2.322   0.871
 7513SOL    HW123438   2.032   2.336   0.777
 7513SOL    HW223439   1.916   2.372   0.887
 7514SOL     OW23440   2.683   5.903   2.138
 7514SOL    HW123441   2.657   5.940   2.227
 7514SOL    HW223442   2.759   5.956   2.100
 7515SOL     OW23443   1.719   6.531   2.313
 7515SOL    HW123444   1.626   6.499   2.297
 7515SOL    HW223445   1.716   6.625   2.349
 7516SOL     OW23446   0.046   5.849   4.694
 7516SOL    HW123447   0.071   5.936   4.652
 7516SOL    HW223448   0.115   5.823   4.761
 7517SOL     OW23449   6.759   3.629   1.581
 7517SOL    HW123450   6.739   3.725   1.563
 7517SOL    HW223451   6.730   3.574   1.503
 7518SOL     OW23452   3.785   5.687   3.881
 7518SOL    HW123453   3.830   5.598   3.884
 7518SOL    HW223454   3.713   5.685   3.812
 7519SOL     OW23455   0.234   6.684   3.834
 7519SOL    HW123456   0.142   6.683   3.874
 7519SOL    HW223457   0.227   6.687   3.735
 7520SOL     OW23458   2.696   0.183   2.207
 7520SOL    HW123459   2.789   0.157   2.234
 7520SOL    HW223460   2.698   0.272   2.162
 7521SOL     OW23461   4.334   4.380   5.671
 7521SOL    HW123462   4.301   4.355   5.580
 7521SOL    HW223463   4.432   4.362   5.677
 7522SOL     OW23464   2.867   0.946   6.465
 7522SOL    HW123465   2.928   0.891   6.522
 7522SOL    HW223466   2.899   1.041   6.463
 7523SOL     OW23467   5.432   1.215   6.094
 7523SOL    HW123468   5.388   1.126   6.093
 7523SOL    HW223469   5.467   1.235   6.002
 7524SOL     OW23470   0.766   2.414   6.301
 7524SOL    HW123471   0.864   2.394   6.305
 7524SOL    HW223472   0.752   2.513   6.299
 7525SOL     OW23473   2.696   6.938   6.632
 7525SOL    HW123474   2.721   6.930   6.728
 7525SOL    HW223475   2.603   6.902   6.619
 7526SOL     OW23476   3.429   2.888   2.278
 7526SOL    HW123477   3.459   2.881   2.373
 7526SOL    HW223478   3.454   2.805   2.229
 7527SOL     OW23479   4.507   5.633   3.296
 7527SOL    HW123480   4.512   5.732   3.282
 7527SOL    HW223481   4.427   5.611   3.353
 7528SOL     OW23482   4.328   2.683   6.961
 7528SOL    HW123483   4.350   2.622   0.018
 7528SOL    HW223484   4.267   2.635   6.897
 7529SOL     OW23485   5.855   1.060   4.695
 7529SOL    HW123486   5.870   1.114   4.611
 7529SOL    HW223487   5.868   1.119   4.774
 7530SOL     OW23488   6.007   3.468   2.416
 7530SOL    HW123489   6.020   3.376   2.379
 7530SOL    HW223490   6.084   3.526   2.390
 7531SOL     OW23491   4.067   2.096   3.923
 7531SOL    HW123492   3.971   2.124   3.925
 7531SOL    HW223493   4.077   2.006   3.964
 7532SOL     OW23494   4.989   5.476   1.654
 7532SOL    HW123495   4.918   5.445   1.717
 7532SOL    HW223496   4.976   5.572   1.633
 7533SOL     OW23497   2.703   0.771   3.182
 7533SOL    HW123498   2.772   0.731   3.242
 7533SOL    HW223499   2.702   0.870   3.193
 7534SOL     OW23500   3.410   6.859   4.924
 7534SOL    HW123501   3.389   6.949   4.960
 7534SOL    HW223502   3.333   6.827   4.867
 7535SOL     OW23503   2.524   1.034   5.729
 7535SOL    HW123504   2.443   1.088   5.750
 7535SOL    HW223505   2.502   0.966   5.660
 7536SOL     OW23506   5.361   4.580   4.868
 7536SOL    HW123507   5.446   4.530   4.887
 7536SOL    HW223508   5.289   4.515   4.847
 7537SOL     OW23509   2.362   5.013   4.907
 7537SOL    HW123510   2.462   5.015   4.905
 7537SOL    HW223511   2.327   5.010   4.813
 7538SOL     OW23512   3.025   3.294   1.663
 7538SOL    HW123513   3.119   3.318   1.689
 7538SOL    HW223514   2.961   3.353   1.712
 7539SOL     OW23515   2.661   2.284   4.503
 7539SOL    HW123516   2.730   2.328   4.445
 7539SOL    HW223517   2.651   2.189   4.475
 7540SOL     OW23518   3.030   1.025   5.697
 7540SOL    HW123519   3.101   1.047   5.764
 7540SOL    HW223520   2.951   0.987   5.744
 7541SOL     OW23521   6.851   3.508   4.646
 7541SOL    HW123522   6.836   3.458   4.561
 7541SOL    HW223523   6.837   3.606   4.630
 7542SOL     OW23524   0.183   6.367   6.724
 7542SOL    HW123525   0.205   6.307   6.800
 7542SOL    HW223526   0.209   6.322   6.638
 7543SOL     OW23527   4.094   1.858   0.766
 7543SOL    HW123528   4.192   1.857   0.782
 7543SOL    HW223529   4.075   1.905   0.680
 7544SOL     OW23530   0.543   2.578   3.881
 7544SOL    HW123531   0.449   2.554   3.858
 7544SOL    HW223532   0.546   2.674   3.911
 7545SOL     OW23533   5.280   6.716   2.804
 7545SOL    HW123534   5.321   6.807   2.796
 7545SOL    HW223535   5.319   6.669   2.883
 7546SOL     OW23536   4.461   0.871   1.287
 7546SOL    HW123537   4.458   0.944   1.354
 7546SOL    HW223538   4.368   0.839   1.269
 7547SOL     OW23539   3.779   6.422   0.604
 7547SOL    HW123540   3.699   6.476   0.579
 7547SOL    HW223541   3.862   6.473   0.581
 7548SOL     OW23542   3.021   2.113   0.476
 7548SOL    HW123543   2.989   2.069   0.393
 7548SOL    HW223544   3.040   2.044   0.546
 7549SOL     OW23545   6.256   2.056   1.590
 7549SOL    HW123546   6.239   1.959   1.573
 7549SOL    HW223547   6.182   2.111   1.552
 7550SOL     OW23548   2.385   4.777   2.118
 7550SOL    HW123549   2.466   4.835   2.110
 7550SOL    HW223550   2.411   4.681   2.108
 7551SOL     OW23551   4.328   4.387   7.005
 7551SOL    HW123552   4.369   4.402   6.914
 7551SOL    HW223553   4.326   4.474   0.035
 7552SOL     OW23554   1.822   5.781   3.983
 7552SOL    HW123555   1.738   5.739   3.947
 7552SOL    HW223556   1.901   5.729   3.951
 7553SOL     OW23557   4.012   5.051   5.360
 7553SOL    HW123558   4.043   5.142   5.331
 7553SOL    HW223559   4.078   5.013   5.425
 7554SOL     OW23560   4.966   0.799   0.644
 7554SOL    HW123561   5.021   0.735   0.698
 7554SOL    HW223562   4.873   0.801   0.681
 7555SOL     OW23563   1.286   4.889   4.619
 7555SOL    HW123564   1.300   4.965   4.682
 7555SOL    HW223565   1.189   4.866   4.615
 7556SOL     OW23566   0.769   2.441   5.489
 7556SOL    HW123567   0.735   2.351   5.516
 7556SOL    HW223568   0.851   2.431   5.434
 7557SOL     OW23569   5.538   3.303   6.196
 7557SOL    HW123570   5.587   3.370   6.140
 7557SOL    HW223571   5.525   3.219   6.142
 7558SOL     OW23572   2.606   2.504   3.831
 7558SOL    HW123573   2.568   2.557   3.754
 7558SOL    HW223574   2.572   2.542   3.917
 7559SOL     OW23575   6.689   5.822   1.027
 7559SOL    HW123576   6.702   5.835   1.126
 7559SOL    HW223577   6.600   5.859   1.000
 7560SOL     OW23578   5.460   6.359   0.027
 7560SOL    HW123579   5.368   6.345   0.065
 7560SOL    HW223580   5.524   6.294   0.068
 7561SOL     OW23581   0.666   3.096   0.477
 7561SOL    HW123582   0.620   3.076   0.563
 7561SOL    HW223583   0.614   3.054   0.402
 7562SOL     OW23584   5.086   6.126   4.889
 7562SOL    HW123585   5.043   6.133   4.799
 7562SOL    HW223586   5.057   6.203   4.946
 7563SOL     OW23587   2.542   0.023   0.434
 7563SOL    HW123588   2.523   0.121   0.433
 7563SOL    HW223589   2.494   6.998   0.358
 7564SOL     OW23590   4.847   1.553   2.552
 7564SOL    HW123591   4.816   1.648   2.557
 7564SOL    HW223592   4.772   1.493   2.580
 7565SOL     OW23593   4.730   4.633   0.035
 7565SOL    HW123594   4.658   4.620   6.986
 7565SOL    HW223595   4.736   4.552   0.093
 7566SOL     OW23596   0.887   4.975   3.069
 7566SOL    HW123597   0.976   4.981   3.114
 7566SOL    HW223598   0.857   4.880   3.067
 7567SOL     OW23599   2.006   2.473   5.120
 7567SOL    HW123600   1.937   2.482   5.048
 7567SOL    HW223601   1.973   2.515   5.204
 7568SOL     OW23602   5.706   6.002   3.399
 7568SOL    HW123603   5.737   6.097   3.408
 7568SOL    HW223604   5.746   5.947   3.472
 7569SOL     OW23605   4.289   4.664   6.040
 7569SOL    HW123606   4.316   4.649   5.945
 7569SOL    HW223607   4.270   4.761   6.054
 7570SOL     OW23608   5.450   4.595   5.629
 7570SOL    HW123609   5.548   4.576   5.630
 7570SOL    HW223610   5.421   4.629   5.719
 7571SOL     OW23611   5.579   4.890   2.233
 7571SOL    HW123612   5.567   4.802   2.279
 7571SOL    HW223613   5.501   4.906   2.172
 7572SOL     OW23614   5.314   0.617   3.409
 7572SOL    HW123615   5.277   0.539   3.460
 7572SOL    HW223616   5.262   0.628   3.324
 7573SOL     OW23617   6.073   5.558   4.609
 7573SOL    HW123618   6.076   5.604   4.520
 7573SOL    HW223619   6.099   5.462   4.599
 7574SOL     OW23620   6.757   0.940   4.871
 7574SOL    HW123621   6.728   0.981   4.957
 7574SOL    HW223622   6.810   1.007   4.819
 7575SOL     OW23623   4.616   0.343   5.542
 7575SOL    HW123624   4.675   0.319   5.464
 7575SOL    HW223625   4.647   0.430   5.580
 7576SOL     OW23626   6.210   5.855   0.500
 7576SOL    HW123627   6.249   5.774   0.544
 7576SOL    HW223628   6.250   5.866   0.409
 7577SOL     OW23629   6.935   6.941   5.374
 7577SOL    HW123630   7.006   6.945   5.303
 7577SOL    HW223631   6.867   6.873   5.349
 7578SOL     OW23632   2.120   6.341   3.634
 7578SOL    HW123633   2.158   6.278   3.567
 7578SOL    HW223634   2.021   6.349   3.621
 7579SOL     OW23635   4.580   1.903   2.500
 7579SOL    HW123636   4.519   1.979   2.478
 7579SOL    HW223637   4.670   1.919   2.458
 7580SOL     OW23638   1.609   4.161   3.901
 7580SOL    HW123639   1.563   4.147   3.814
 7580SOL    HW223640   1.664   4.244   3.897
 7581SOL     OW23641   5.062   0.792   0.976
 7581SOL    HW123642   5.115   0.739   0.910
 7581SOL    HW223643   5.051   0.886   0.942
 7582SOL     OW23644   3.224   0.752   0.066
 7582SOL    HW123645   3.261   0.809   0.139
 7582SOL    HW223646   3.294   0.689   0.033
 7583SOL     OW23647   5.700   3.812   1.306
 7583SOL    HW123648   5.727   3.792   1.400
 7583SOL    HW223649   5.672   3.727   1.261
 7584SOL     OW23650   3.174   6.667   0.836
 7584SOL    HW123651   3.086   6.699   0.799
 7584SOL    HW223652   3.236   6.646   0.760
 7585SOL     OW23653   1.973   2.956   5.813
 7585SOL    HW123654   1.976   2.857   5.819
 7585SOL    HW223655   1.892   2.990   5.862
 7586SOL     OW23656   3.468   0.406   3.505
 7586SOL    HW123657   3.566   0.425   3.495
 7586SOL    HW223658   3.454   0.343   3.582
 7587SOL     OW23659   3.487   1.456   6.479
 7587SOL    HW123660   3.472   1.368   6.434
 7587SOL    HW223661   3.551   1.445   6.554
 7588SOL     OW23662   0.793   3.362   2.202
 7588SOL    HW123663   0.726   3.326   2.137
 7588SOL    HW223664   0.860   3.291   2.222
 7589SOL     OW23665   5.894   0.079   0.615
 7589SOL    HW123666   5.799   0.050   0.601
 7589SOL    HW223667   5.954   7.019   0.611
 7590SOL     OW23668   2.743   2.077   6.650
 7590SOL    HW123669   2.687   2.009   6.604
 7590SOL    HW223670   2.687   2.131   6.712
 7591SOL     OW23671   0.004   5.152   0.475
 7591SOL    HW123672   7.013   5.135   0.378
 7591SOL    HW223673   0.059   5.235   0.489
 7592SOL     OW23674   0.287   4.800   6.696
 7592SOL    HW123675   0.366   4.744   6.670
 7592SOL    HW223676   0.247   4.841   6.614
 7593SOL     OW23677   4.841   2.374   0.653
 7593SOL    HW123678   4.843   2.319   0.569
 7593SOL    HW223679   4.748   2.374   0.691
 7594SOL     OW23680   6.911   4.306   2.529
 7594SOL    HW123681   6.909   4.315   2.429
 7594SOL    HW223682   6.879   4.391   2.571
 7595SOL     OW23683   0.056   2.254   5.999
 7595SOL    HW123684   0.155   2.252   5.985
 7595SOL    HW223685   0.018   2.335   5.955
 7596SOL     OW23686   4.261   5.010   2.828
 7596SOL    HW123687   4.214   4.922   2.830
 7596SOL    HW223688   4.327   5.015   2.903
 7597SOL     OW23689   2.864   5.527   1.525
 7597SOL    HW123690   2.855   5.435   1.564
 7597SOL    HW223691   2.957   5.540   1.491
 7598SOL     OW23692   0.062   1.275   3.037
 7598SOL    HW123693   0.059   1.207   2.964
 7598SOL    HW223694   6.995   1.325   3.041
 7599SOL     OW23695   5.776   1.514   3.606
 7599SOL    HW123696   5.837   1.494   3.682
 7599SOL    HW223697   5.685   1.537   3.641
 7600SOL     OW23698   1.742   0.363   2.795
 7600SOL    HW123699   1.696   0.401   2.874
 7600SOL    HW223700   1.772   0.436   2.734
 7601SOL     OW23701   2.131   5.751   2.744
 7601SOL    HW123702   2.073   5.799   2.678
 7601SOL    HW223703   2.219   5.729   2.702
 7602SOL     OW23704   2.140   3.876   5.851
 7602SOL    HW123705   2.069   3.809   5.830
 7602SOL    HW223706   2.201   3.840   5.922
 7603SOL     OW23707   1.102   5.666   5.989
 7603SOL    HW123708   1.027   5.605   6.016
 7603SOL    HW223709   1.188   5.631   6.026
 7604SOL     OW23710   2.404   4.729   4.177
 7604SOL    HW123711   2.414   4.757   4.272
 7604SOL    HW223712   2.308   4.705   4.160
 7605SOL     OW23713   1.564   6.274   0.343
 7605SOL    HW123714   1.499   6.348   0.358
 7605SOL    HW223715   1.517   6.186   0.352
 7606SOL     OW23716   0.178   2.928   2.980
 7606SOL    HW123717   0.232   2.867   3.037
 7606SOL    HW223718   0.093   2.883   2.951
 7607SOL     OW23719   4.381   6.295   0.412
 7607SOL    HW123720   4.346   6.203   0.391
 7607SOL    HW223721   4.448   6.289   0.486
 7608SOL     OW23722   3.254   4.019   3.005
 7608SOL    HW123723   3.186   3.946   2.991
 7608SOL    HW223724   3.256   4.043   3.102
 7609SOL     OW23725   6.996   4.337   3.530
 7609SOL    HW123726   7.019   4.400   3.456
 7609SOL    HW223727   0.007   4.376   3.617
 7610SOL     OW23728   6.317   0.239   6.413
 7610SOL    HW123729   6.252   0.310   6.438
 7610SOL    HW223730   6.383   0.275   6.347
 7611SOL     OW23731   0.921   2.064   0.088
 7611SOL    HW123732   0.881   1.981   0.048
 7611SOL    HW223733   0.939   2.049   0.185
 7612SOL     OW23734   4.534   2.599   4.745
 7612SOL    HW123735   4.479   2.530   4.699
 7612SOL    HW223736   4.609   2.629   4.685
 7613SOL     OW23737   5.440   2.078   1.864
 7613SOL    HW123738   5.401   2.148   1.804
 7613SOL    HW223739   5.421   2.102   1.959
 7614SOL     OW23740   5.044   2.854   1.639
 7614SOL    HW123741   5.051   2.928   1.572
 7614SOL    HW223742   5.003   2.774   1.596
 7615SOL     OW23743   4.922   4.271   5.891
 7615SOL    HW123744   4.951   4.352   5.840
 7615SOL    HW223745   4.828   4.284   5.924
 7616SOL     OW23746   6.763   4.290   4.396
 7616SOL    HW123747   6.804   4.323   4.481
 7616SOL    HW223748   6.749   4.367   4.334
 7617SOL     OW23749   2.961   5.572   2.652
 7617SOL    HW123750   2.878   5.566   2.596
 7617SOL    HW223751   2.945   5.633   2.729
 7618SOL     OW23752   0.622   2.233   6.977
 7618SOL    HW123753   0.715   2.262   6.998
 7618SOL    HW223754   0.613   2.135   6.992
 7619SOL     OW23755   6.002   3.288   4.980
 7619SOL    HW123756   5.982   3.218   5.049
 7619SOL    HW223757   6.091   3.269   4.939
 7620SOL     OW23758   4.263   5.189   0.007
 7620SOL    HW123759   4.221   5.268   6.980
 7620SOL    HW223760   4.361   5.204   0.015
 7621SOL     OW23761   0.265   1.596   0.421
 7621SOL    HW123762   0.333   1.550   0.365
 7621SOL    HW223763   0.226   1.532   0.487
 7622SOL     OW23764   4.838   4.988   1.774
 7622SOL    HW123765   4.838   5.013   1.677
 7622SOL    HW223766   4.768   4.918   1.790
 7623SOL     OW23767   4.420   4.409   6.750
 7623SOL    HW123768   4.514   4.441   6.765
 7623SOL    HW223769   4.412   4.369   6.659
 7624SOL     OW23770   6.784   2.841   4.529
 7624SOL    HW123771   6.716   2.877   4.465
 7624SOL    HW223772   6.859   2.907   4.539
 7625SOL     OW23773   4.357   0.570   1.616
 7625SOL    HW123774   4.407   0.632   1.676
 7625SOL    HW223775   4.409   0.557   1.531
 7626SOL     OW23776   0.004   6.467   4.542
 7626SOL    HW123777   0.083   6.496   4.596
 7626SOL    HW223778   0.017   6.373   4.511
 7627SOL     OW23779   5.245   3.358   0.412
 7627SOL    HW123780   5.320   3.335   0.351
 7627SOL    HW223781   5.183   3.280   0.420
 7628SOL     OW23782   3.436   0.684   1.765
 7628SOL    HW123783   3.456   0.679   1.667
 7628SOL    HW223784   3.363   0.751   1.780
 7629SOL     OW23785   6.575   6.855   2.852
 7629SOL    HW123786   6.504   6.866   2.922
 7629SOL    HW223787   6.655   6.909   2.877
 7630SOL     OW23788   5.239   6.783   1.760
 7630SOL    HW123789   5.304   6.737   1.822
 7630SOL    HW223790   5.224   6.877   1.792
 7631SOL     OW23791   0.534   0.965   5.143
 7631SOL    HW123792   0.581   0.934   5.226
 7631SOL    HW223793   0.437   0.978   5.162
 7632SOL     OW23794   3.689   2.661   1.760
 7632SOL    HW123795   3.645   2.679   1.672
 7632SOL    HW223796   3.676   2.565   1.785
 7633SOL     OW23797   4.568   2.459   0.425
 7633SOL    HW123798   4.623   2.452   0.342
 7633SOL    HW223799   4.515   2.544   0.424
 7634SOL     OW23800   1.529   1.252   2.259
 7634SOL    HW123801   1.469   1.270   2.181
 7634SOL    HW223802   1.617   1.219   2.226
 7635SOL     OW23803   2.773   5.917   5.095
 7635SOL    HW123804   2.791   6.016   5.101
 7635SOL    HW223805   2.712   5.899   5.018
 7636SOL     OW23806   1.492   1.758   3.292
 7636SOL    HW123807   1.436   1.795   3.217
 7636SOL    HW223808   1.583   1.798   3.288
 7637SOL     OW23809   2.902   6.371   2.443
 7637SOL    HW123810   2.912   6.456   2.390
 7637SOL    HW223811   2.974   6.366   2.512
 7638SOL     OW23812   4.318   5.663   1.989
 7638SOL    HW123813   4.271   5.749   2.007
 7638SOL    HW223814   4.345   5.620   2.075
 7639SOL     OW23815   1.413   2.321   0.981
 7639SOL    HW123816   1.489   2.345   1.041
 7639SOL    HW223817   1.449   2.291   0.893
 7640SOL     OW23818   3.314   2.096   0.070
 7640SOL    HW123819   3.410   2.100   0.042
 7640SOL    HW223820   3.260   2.157   0.012
 7641SOL     OW23821   0.779   4.504   1.902
 7641SOL    HW123822   0.713   4.569   1.939
 7641SOL    HW223823   0.740   4.460   1.820
 7642SOL     OW23824   3.229   1.508   2.503
 7642SOL    HW123825   3.253   1.523   2.407
 7642SOL    HW223826   3.213   1.411   2.520
 7643SOL     OW23827   4.976   2.709   4.021
 7643SOL    HW123828   4.923   2.783   3.981
 7643SOL    HW223829   5.063   2.746   4.056
 7644SOL     OW23830   5.952   2.174   2.537
 7644SOL    HW123831   5.990   2.263   2.560
 7644SOL    HW223832   5.852   2.179   2.537
 7645SOL     OW23833   4.408   4.102   5.395
 7645SOL    HW123834   4.339   4.030   5.402
 7645SOL    HW223835   4.364   4.187   5.363
 7646SOL     OW23836   2.049   2.388   2.130
 7646SOL    HW123837   1.998   2.302   2.135
 7646SOL    HW223838   2.123   2.388   2.197
 7647SOL     OW23839   0.178   3.324   1.932
 7647SOL    HW123840   0.261   3.351   1.884
 7647SOL    HW223841   0.202   3.289   2.023
 7648SOL     OW23842   3.732   1.323   3.593
 7648SOL    HW123843   3.740   1.309   3.494
 7648SOL    HW223844   3.638   1.347   3.616
 7649SOL     OW23845   1.279   1.562   2.783
 7649SOL    HW123846   1.221   1.582   2.704
 7649SOL    HW223847   1.222   1.552   2.865
 7650SOL     OW23848   5.322   2.669   1.378
 7650SOL    HW123849   5.291   2.752   1.332
 7650SOL    HW223850   5.274   2.590   1.340
 7651SOL     OW23851   2.892   6.403   5.135
 7651SOL    HW123852   2.860   6.498   5.132
 7651SOL    HW223853   2.904   6.376   5.231
 7652SOL     OW23854   6.936   3.978   3.855
 7652SOL    HW123855   6.850   3.931   3.875
 7652SOL    HW223856   6.921   4.045   3.782
 7653SOL     OW23857   2.429   1.573   0.765
 7653SOL    HW123858   2.355   1.611   0.709
 7653SOL    HW223859   2.484   1.646   0.803
 7654SOL     OW23860   4.915   3.822   4.264
 7654SOL    HW123861   4.975   3.742   4.271
 7654SOL    HW223862   4.887   3.834   4.169
 7655SOL     OW23863   3.406   0.097   3.415
 7655SOL    HW123864   3.393   0.164   3.488
 7655SOL    HW223865   3.476   0.129   3.352
 7656SOL     OW23866   1.742   4.836   6.444
 7656SOL    HW123867   1.820   4.774   6.449
 7656SOL    HW223868   1.674   4.810   6.513
 7657SOL     OW23869   2.366   2.506   3.318
 7657SOL    HW123870   2.345   2.599   3.346
 7657SOL    HW223871   2.454   2.504   3.271
 7658SOL     OW23872   3.994   6.278   5.965
 7658SOL    HW123873   3.985   6.188   6.008
 7658SOL    HW223874   3.998   6.349   6.036
 7659SOL     OW23875   5.608   5.572   6.767
 7659SOL    HW123876   5.649   5.609   6.851
 7659SOL    HW223877   5.520   5.618   6.750
 7660SOL     OW23878   6.806   6.218   4.349
 7660SOL    HW123879   6.794   6.299   4.406
 7660SOL    HW223880   6.789   6.136   4.403
 7661SOL     OW23881   5.789   2.431   4.412
 7661SOL    HW123882   5.794   2.464   4.318
 7661SOL    HW223883   5.870   2.375   4.432
 7662SOL     OW23884   0.826   2.404   2.284
 7662SOL    HW123885   0.895   2.366   2.222
 7662SOL    HW223886   0.748   2.341   2.290
 7663SOL     OW23887   6.833   6.804   6.242
 7663SOL    HW123888   6.902   6.859   6.195
 7663SOL    HW223889   6.837   6.824   6.340
 7664SOL     OW23890   3.869   0.801   2.008
 7664SOL    HW123891   3.835   0.778   2.099
 7664SOL    HW223892   3.967   0.819   2.012
 7665SOL     OW23893   4.765   0.466   4.645
 7665SOL    HW123894   4.757   0.500   4.739
 7665SOL    HW223895   4.682   0.416   4.621
 7666SOL     OW23896   0.718   6.740   1.426
 7666SOL    HW123897   0.686   6.748   1.331
 7666SOL    HW223898   0.755   6.828   1.457
 7667SOL     OW23899   4.670   5.736   1.452
 7667SOL    HW123900   4.728   5.797   1.399
 7667SOL    HW223901   4.714   5.714   1.539
 7668SOL     OW23902   2.603   4.317   1.006
 7668SOL    HW123903   2.518   4.288   0.961
 7668SOL    HW223904   2.585   4.332   1.104
 7669SOL     OW23905   5.964   1.960   6.161
 7669SOL    HW123906   5.951   2.020   6.082
 7669SOL    HW223907   5.925   1.870   6.141
 7670SOL     OW23908   1.529   4.830   5.943
 7670SOL    HW123909   1.493   4.747   5.900
 7670SOL    HW223910   1.604   4.867   5.887
 7671SOL     OW23911   4.431   0.619   4.943
 7671SOL    HW123912   4.420   0.538   4.885
 7671SOL    HW223913   4.444   0.699   4.886
 7672SOL     OW23914   5.943   6.243   3.724
 7672SOL    HW123915   6.038   6.230   3.753
 7672SOL    HW223916   5.882   6.191   3.784
 7673SOL     OW23917   2.107   5.241   7.010
 7673SOL    HW123918   2.118   5.198   6.920
 7673SOL    HW223919   2.151   5.331   7.010
 7674SOL     OW23920   6.223   2.411   4.055
 7674SOL    HW123921   6.321   2.426   4.047
 7674SOL    HW223922   6.188   2.375   3.968
 7675SOL     OW23923   4.836   0.320   2.874
 7675SOL    HW123924   4.782   0.312   2.790
 7675SOL    HW223925   4.930   0.294   2.856
 7676SOL     OW23926   1.535   2.407   0.638
 7676SOL    HW123927   1.584   2.335   0.687
 7676SOL    HW223928   1.437   2.387   0.638
 7677SOL     OW23929   0.085   3.754   2.592
 7677SOL    HW123930   0.161   3.784   2.650
 7677SOL    HW223931   7.017   3.778   2.636
 7678SOL     OW23932   1.816   1.192   5.845
 7678SOL    HW123933   1.849   1.149   5.929
 7678SOL    HW223934   1.716   1.198   5.848
 7679SOL     OW23935   1.836   5.901   5.460
 7679SOL    HW123936   1.910   5.890   5.393
 7679SOL    HW223937   1.875   5.914   5.551
 7680SOL     OW23938   1.638   2.428   0.077
 7680SOL    HW123939   1.721   2.463   0.033
 7680SOL    HW223940   1.652   2.425   0.176
 7681SOL     OW23941   2.811   0.091   0.246
 7681SOL    HW123942   2.856   0.065   0.331
 7681SOL    HW223943   2.759   0.175   0.261
 7682SOL     OW23944   3.518   0.195   1.940
 7682SOL    HW123945   3.559   0.177   1.850
 7682SOL    HW223946   3.425   0.159   1.941
 7683SOL     OW23947   6.947   2.049   3.893
 7683SOL    HW123948   6.940   2.145   3.922
 7683SOL    HW223949   6.923   1.989   3.969
 7684SOL     OW23950   4.350   1.839   0.794
 7684SOL    HW123951   4.445   1.856   0.768
 7684SOL    HW223952   4.349   1.781   0.876
 7685SOL     OW23953   3.172   3.336   0.106
 7685SOL    HW123954   3.157   3.354   0.009
 7685SOL    HW223955   3.152   3.418   0.159
 7686SOL     OW23956   4.998   0.304   3.267
 7686SOL    HW123957   5.030   0.216   3.232
 7686SOL    HW223958   5.065   0.340   3.333
 7687SOL     OW23959   5.903   4.921   5.480
 7687SOL    HW123960   5.963   4.849   5.516
 7687SOL    HW223961   5.938   5.010   5.507
 7688SOL     OW23962   0.478   0.008   5.259
 7688SOL    HW123963   0.427   0.067   5.197
 7688SOL    HW223964   0.517   0.063   5.333
 7689SOL     OW23965   5.032   5.412   3.120
 7689SOL    HW123966   5.030   5.509   3.095
 7689SOL    HW223967   5.111   5.368   3.077
 7690SOL     OW23968   6.495   5.195   0.818
 7690SOL    HW123969   6.594   5.192   0.824
 7690SOL    HW223970   6.456   5.185   0.910
 7691SOL     OW23971   5.504   3.143   4.100
 7691SOL    HW123972   5.570   3.165   4.172
 7691SOL    HW223973   5.472   3.228   4.058
 7692SOL     OW23974   1.044   6.748   1.662
 7692SOL    HW123975   0.998   6.817   1.718
 7692SOL    HW223976   1.068   6.669   1.718
 7693SOL     OW23977   3.837   0.115   1.409
 7693SOL    HW123978   3.924   0.165   1.408
 7693SOL    HW223979   3.838   0.047   1.482
 7694SOL     OW23980   6.910   4.284   4.027
 7694SOL    HW123981   6.832   4.230   4.058
 7694SOL    HW223982   6.987   4.271   4.089
 7695SOL     OW23983   3.798   6.565   0.136
 7695SOL    HW123984   3.781   6.663   0.150
 7695SOL    HW223985   3.713   6.514   0.152
 7696SOL     OW23986   6.456   1.466   4.684
 7696SOL    HW123987   6.462   1.558   4.723
 7696SOL    HW223988   6.430   1.473   4.587
 7697SOL     OW23989   2.799   0.604   2.492
 7697SOL    HW123990   2.849   0.691   2.497
 7697SOL    HW223991   2.860   0.529   2.515
 7698SOL     OW23992   6.874   2.239   4.507
 7698SOL    HW123993   6.787   2.258   4.553
 7698SOL    HW223994   6.948   2.237   4.574
 7699SOL     OW23995   4.017   5.520   6.674
 7699SOL    HW123996   3.955   5.466   6.617
 7699SOL    HW223997   3.973   5.538   6.762
 7700SOL     OW23998   4.712   6.078   5.015
 7700SOL    HW123999   4.613   6.088   5.025
 7700SOL    HW224000   4.733   5.986   4.980
 7701SOL     OW24001   6.669   1.748   6.357
 7701SOL    HW124002   6.750   1.753   6.299
 7701SOL    HW224003   6.649   1.838   6.396
 7702SOL     OW24004   2.993   6.336   6.053
 7702SOL    HW124005   2.942   6.251   6.064
 7702SOL    HW224006   3.048   6.332   5.970
 7703SOL     OW24007   6.738   0.579   4.660
 7703SOL    HW124008   6.713   0.544   4.570
 7703SOL    HW224009   6.656   0.609   4.709
 7704SOL     OW24010   5.303   4.790   5.409
 7704SOL    HW124011   5.337   4.882   5.429
 7704SOL    HW224012   5.342   4.724   5.473
 7705SOL     OW24013   4.040   5.328   6.034
 7705SOL    HW124014   4.078   5.369   5.951
 7705SOL    HW224015   3.974   5.257   6.008
 7706SOL     OW24016   4.534   1.681   5.464
 7706SOL    HW124017   4.577   1.750   5.406
 7706SOL    HW224018   4.457   1.722   5.513
 7707SOL     OW24019   1.071   6.374   6.629
 7707SOL    HW124020   1.057   6.347   6.724
 7707SOL    HW224021   1.104   6.468   6.626
 7708SOL     OW24022   5.267   6.158   5.262
 7708SOL    HW124023   5.287   6.110   5.176
 7708SOL    HW224024   5.281   6.257   5.248
 7709SOL     OW24025   5.716   4.061   1.391
 7709SOL    HW124026   5.811   4.052   1.363
 7709SOL    HW224027   5.666   3.977   1.367
 7710SOL     OW24028   3.528   1.177   0.887
 7710SOL    HW124029   3.535   1.081   0.914
 7710SOL    HW224030   3.494   1.182   0.793
 7711SOL     OW24031   6.075   5.858   5.204
 7711SOL    HW124032   6.022   5.810   5.135
 7711SOL    HW224033   6.040   5.837   5.295
 7712SOL     OW24034   5.671   4.437   1.735
 7712SOL    HW124035   5.629   4.360   1.782
 7712SOL    HW224036   5.631   4.447   1.644
 7713SOL     OW24037   1.418   4.794   0.410
 7713SOL    HW124038   1.388   4.830   0.322
 7713SOL    HW224039   1.504   4.745   0.399
 7714SOL     OW24040   6.238   4.980   5.309
 7714SOL    HW124041   6.230   5.059   5.248
 7714SOL    HW224042   6.162   4.980   5.374
 7715SOL     OW24043   4.662   2.075   0.996
 7715SOL    HW124044   4.729   2.027   0.939
 7715SOL    HW224045   4.684   2.173   0.996
 7716SOL     OW24046   6.238   3.900   3.540
 7716SOL    HW124047   6.226   3.830   3.470
 7716SOL    HW224048   6.274   3.859   3.623
 7717SOL     OW24049   2.158   1.030   4.905
 7717SOL    HW124050   2.155   1.046   4.807
 7717SOL    HW224051   2.106   0.947   4.927
 7718SOL     OW24052   1.964   1.675   3.160
 7718SOL    HW124053   1.914   1.595   3.194
 7718SOL    HW224054   2.028   1.646   3.089
 7719SOL     OW24055   0.347   3.925   4.344
 7719SOL    HW124056   0.357   3.852   4.276
 7719SOL    HW224057   0.291   3.999   4.306
 7720SOL     OW24058   6.800   6.971   0.925
 7720SOL    HW124059   6.834   6.983   1.018
 7720SOL    HW224060   6.858   6.906   0.876
 7721SOL     OW24061   1.162   4.694   2.338
 7721SOL    HW124062   1.094   4.716   2.408
 7721SOL    HW224063   1.159   4.764   2.266
 7722SOL     OW24064   0.042   5.654   2.688
 7722SOL    HW124065   0.140   5.658   2.707
 7722SOL    HW224066   7.010   5.651   2.774
 7723SOL     OW24067   6.697   3.795   0.168
 7723SOL    HW124068   6.704   3.885   0.124
 7723SOL    HW224069   6.787   3.751   0.165
 7724SOL     OW24070   2.512   4.151   1.729
 7724SOL    HW124071   2.562   4.073   1.765
 7724SOL    HW224072   2.554   4.181   1.643
 7725SOL     OW24073   4.958   3.056   3.909
 7725SOL    HW124074   5.035   3.055   3.973
 7725SOL    HW224075   4.888   2.992   3.939
 7726SOL     OW24076   1.042   5.989   4.573
 7726SOL    HW124077   1.030   5.944   4.485
 7726SOL    HW224078   1.140   6.006   4.589
 7727SOL     OW24079   0.018   0.877   3.294
 7727SOL    HW124080   6.977   0.955   3.312
 7727SOL    HW224081   0.094   0.878   3.359
 7728SOL     OW24082   1.203   4.836   3.364
 7728SOL    HW124083   1.215   4.789   3.276
 7728SOL    HW224084   1.206   4.770   3.438
 7729SOL     OW24085   5.834   3.393   0.824
 7729SOL    HW124086   5.735   3.382   0.837
 7729SOL    HW224087   5.857   3.378   0.728
 7730SOL     OW24088   5.721   5.569   1.952
 7730SOL    HW124089   5.641   5.508   1.956
 7730SOL    HW224090   5.692   5.659   1.919
 7731SOL     OW24091   6.613   1.020   0.645
 7731SOL    HW124092   6.679   0.959   0.689
 7731SOL    HW224093   6.645   1.043   0.554
 7732SOL     OW24094   4.297   6.197   0.853
 7732SOL    HW124095   4.237   6.254   0.909
 7732SOL    HW224096   4.385   6.186   0.900
 7733SOL     OW24097   4.271   6.651   2.162
 7733SOL    HW124098   4.235   6.711   2.234
 7733SOL    HW224099   4.363   6.681   2.136
 7734SOL     OW24100   2.344   4.814   3.581
 7734SOL    HW124101   2.420   4.877   3.598
 7734SOL    HW224102   2.262   4.866   3.559
 7735SOL     OW24103   4.423   6.158   6.484
 7735SOL    HW124104   4.376   6.201   6.407
 7735SOL    HW224105   4.405   6.209   6.568
 7736SOL     OW24106   4.347   4.017   6.763
 7736SOL    HW124107   4.270   3.974   6.811
 7736SOL    HW224108   4.363   4.108   6.802
 7737SOL     OW24109   4.519   1.012   1.788
 7737SOL    HW124110   4.516   1.099   1.838
 7737SOL    HW224111   4.426   0.978   1.774
 7738SOL     OW24112   1.415   5.579   6.483
 7738SOL    HW124113   1.350   5.511   6.451
 7738SOL    HW224114   1.418   5.656   6.419
 7739SOL     OW24115   0.279   1.472   2.054
 7739SOL    HW124116   0.293   1.375   2.076
 7739SOL    HW224117   0.266   1.482   1.955
 7740SOL     OW24118   1.582   0.451   3.071
 7740SOL    HW124119   1.506   0.434   3.008
 7740SOL    HW224120   1.602   0.549   3.075
 7741SOL     OW24121   1.411   6.110   4.304
 7741SOL    HW124122   1.321   6.079   4.275
 7741SOL    HW224123   1.402   6.192   4.360
 7742SOL     OW24124   6.072   2.035   3.394
 7742SOL    HW124125   6.108   2.128   3.385
 7742SOL    HW224126   6.092   1.983   3.310
 7743SOL     OW24127   4.553   2.333   6.403
 7743SOL    HW124128   4.537   2.332   6.304
 7743SOL    HW224129   4.504   2.410   6.443
 7744SOL     OW24130   0.667   6.078   3.793
 7744SOL    HW124131   0.629   6.156   3.841
 7744SOL    HW224132   0.730   6.029   3.853
 7745SOL     OW24133   3.363   1.152   5.712
 7745SOL    HW124134   3.434   1.218   5.735
 7745SOL    HW224135   3.283   1.168   5.770
 7746SOL     OW24136   2.060   6.573   6.833
 7746SOL    HW124137   2.116   6.633   6.890
 7746SOL    HW224138   2.113   6.543   6.753
 7747SOL     OW24139   4.288   5.867   1.546
 7747SOL    HW124140   4.326   5.806   1.615
 7747SOL    HW224141   4.267   5.815   1.463
 7748SOL     OW24142   3.327   3.599   5.989
 7748SOL    HW124143   3.369   3.584   6.079
 7748SOL    HW224144   3.300   3.694   5.981
 7749SOL     OW24145   3.167   3.083   5.588
 7749SOL    HW124146   3.225   3.154   5.629
 7749SOL    HW224147   3.071   3.103   5.608
 7750SOL     OW24148   6.894   5.996   1.634
 7750SOL    HW124149   6.898   5.982   1.733
 7750SOL    HW224150   6.799   5.996   1.604
 7751SOL     OW24151   1.726   1.067   2.181
 7751SOL    HW124152   1.806   1.020   2.219
 7751SOL    HW224153   1.751   1.113   2.096
 7752SOL     OW24154   5.070   0.222   5.607
 7752SOL    HW124155   5.158   0.173   5.602
 7752SOL    HW224156   5.019   0.206   5.522
 7753SOL     OW24157   2.149   1.794   4.364
 7753SOL    HW124158   2.238   1.831   4.336
 7753SOL    HW224159   2.162   1.733   4.442
 7754SOL     OW24160   3.480   5.692   1.729
 7754SOL    HW124161   3.416   5.768   1.716
 7754SOL    HW224162   3.463   5.622   1.660
 7755SOL     OW24163   0.938   2.722   6.055
 7755SOL    HW124164   0.897   2.699   6.143
 7755SOL    HW224165   0.992   2.806   6.064
 7756SOL     OW24166   3.122   6.319   1.261
 7756SOL    HW124167   3.214   6.291   1.289
 7756SOL    HW224168   3.056   6.250   1.290
 7757SOL     OW24169   6.956   4.405   1.322
 7757SOL    HW124170   7.019   4.364   1.256
 7757SOL    HW224171   6.947   4.503   1.302
 7758SOL     OW24172   1.791   6.580   5.988
 7758SOL    HW124173   1.859   6.507   5.989
 7758SOL    HW224174   1.717   6.557   5.925
 7759SOL     OW24175   2.589   1.617   5.644
 7759SOL    HW124176   2.519   1.663   5.589
 7759SOL    HW224177   2.679   1.638   5.606
 7760SOL     OW24178   5.394   2.219   2.103
 7760SOL    HW124179   5.387   2.319   2.096
 7760SOL    HW224180   5.303   2.180   2.105
 7761SOL     OW24181   6.528   5.916   4.694
 7761SOL    HW124182   6.443   5.867   4.674
 7761SOL    HW224183   6.605   5.853   4.689
 7762SOL     OW24184   2.024   0.422   3.633
 7762SOL    HW124185   2.063   0.458   3.548
 7762SOL    HW224186   1.959   0.488   3.671
 7763SOL     OW24187   2.292   0.005   6.337
 7763SOL    HW124188   2.283   0.081   6.272
 7763SOL    HW224189   2.290   6.938   6.287
 7764SOL     OW24190   3.192   4.593   6.504
 7764SOL    HW124191   3.198   4.494   6.504
 7764SOL    HW224192   3.188   4.626   6.409
 7765SOL     OW24193   6.419   3.326   4.485
 7765SOL    HW124194   6.330   3.317   4.442
 7765SOL    HW224195   6.432   3.252   4.551
 7766SOL     OW24196   0.162   4.539   0.156
 7766SOL    HW124197   0.195   4.445   0.160
 7766SOL    HW224198   0.097   4.549   0.081
 7767SOL     OW24199   4.710   6.810   2.504
 7767SOL    HW124200   4.761   6.810   2.418
 7767SOL    HW224201   4.766   6.769   2.576
 7768SOL     OW24202   4.703   4.825   4.006
 7768SOL    HW124203   4.765   4.801   4.081
 7768SOL    HW224204   4.617   4.858   4.044
 7769SOL     OW24205   3.718   1.676   4.822
 7769SOL    HW124206   3.788   1.711   4.760
 7769SOL    HW224207   3.680   1.752   4.876
 7770SOL     OW24208   0.064   3.672   4.455
 7770SOL    HW124209   0.064   3.621   4.541
 7770SOL    HW224210   0.145   3.730   4.449
 7771SOL     OW24211   2.968   1.965   6.265
 7771SOL    HW124212   3.031   1.934   6.194
 7771SOL    HW224213   2.903   1.892   6.285
 7772SOL     OW24214   5.022   0.573   1.144
 7772SOL    HW124215   5.083   0.502   1.111
 7772SOL    HW224216   5.024   0.651   1.081
 7773SOL     OW24217   2.552   5.645   6.060
 7773SOL    HW124218   2.569   5.639   6.158
 7773SOL    HW224219   2.470   5.593   6.037
 7774SOL     OW24220   4.718   2.371   4.658
 7774SOL    HW124221   4.745   2.288   4.705
 7774SOL    HW224222   4.618   2.374   4.650
 7775SOL     OW24223   3.892   6.834   0.434
 7775SOL    HW124224   3.971   6.817   0.375
 7775SOL    HW224225   3.921   6.828   0.530
 7776SOL     OW24226   0.689   6.535   6.239
 7776SOL    HW124227   0.762   6.507   6.178
 7776SOL    HW224228   0.705   6.499   6.331
 7777SOL     OW24229   6.521   5.618   4.856
 7777SOL    HW124230   6.515   5.571   4.944
 7777SOL    HW224231   6.590   5.574   4.799
 7778SOL     OW24232   5.723   4.289   2.328
 7778SOL    HW124233   5.686   4.201   2.357
 7778SOL    HW224234   5.654   4.360   2.338
 7779SOL     OW24235   2.985   0.424   2.680
 7779SOL    HW124236   3.015   0.494   2.615
 7779SOL    HW224237   3.060   0.400   2.741
 7780SOL     OW24238   0.349   6.110   5.612
 7780SOL    HW124239   0.379   6.015   5.599
 7780SOL    HW224240   0.398   6.149   5.690
 7781SOL     OW24241   1.548   4.208   0.080
 7781SOL    HW124242   1.506   4.298   0.090
 7781SOL    HW224243   1.596   4.184   0.165
 7782SOL     OW24244   5.603   5.132   3.504
 7782SOL    HW124245   5.505   5.130   3.521
 7782SOL    HW224246   5.629   5.053   3.448
 7783SOL     OW24247   0.657   0.068   6.005
 7783SOL    HW124248   0.738   0.028   5.965
 7783SOL    HW224249   0.641   0.029   6.096
 7784SOL     OW24250   2.858   2.396   1.438
 7784SOL    HW124251   2.948   2.439   1.441
 7784SOL    HW224252   2.831   2.369   1.531
 7785SOL     OW24253   1.249   6.776   4.043
 7785SOL    HW124254   1.206   6.816   3.962
 7785SOL    HW224255   1.211   6.685   4.060
 7786SOL     OW24256   4.341   0.498   0.052
 7786SOL    HW124257   4.415   0.444   0.011
 7786SOL    HW224258   4.371   0.593   0.061
 7787SOL     OW24259   2.098   2.944   0.331
 7787SOL    HW124260   2.025   2.981   0.388
 7787SOL    HW224261   2.163   3.016   0.309
 7788SOL     OW24262   1.386   6.210   2.173
 7788SOL    HW124263   1.391   6.246   2.079
 7788SOL    HW224264   1.467   6.155   2.192
 7789SOL     OW24265   3.099   0.222   6.396
 7789SOL    HW124266   3.008   0.222   6.440
 7789SOL    HW224267   3.165   0.180   6.458
 7790SOL     OW24268   6.214   4.928   2.433
 7790SOL    HW124269   6.304   4.919   2.389
 7790SOL    HW224270   6.212   5.012   2.488
 7791SOL     OW24271   2.576   5.487   2.078
 7791SOL    HW124272   2.639   5.475   2.155
 7791SOL    HW224273   2.563   5.584   2.060
 7792SOL     OW24274   0.670   0.510   2.779
 7792SOL    HW124275   0.701   0.472   2.866
 7792SOL    HW224276   0.609   0.444   2.734
 7793SOL     OW24277   4.742   0.461   6.533
 7793SOL    HW124278   4.731   0.554   6.570
 7793SOL    HW224279   4.798   0.466   6.450
 7794SOL     OW24280   0.539   5.728   1.806
 7794SOL    HW124281   0.469   5.672   1.761
 7794SOL    HW224282   0.588   5.781   1.737
 7795SOL     OW24283   3.114   5.610   5.711
 7795SOL    HW124284   3.202   5.600   5.758
 7795SOL    HW224285   3.129   5.602   5.612
 7796SOL     OW24286   3.248   2.716   5.721
 7796SOL    HW124287   3.229   2.720   5.623
 7796SOL    HW224288   3.317   2.784   5.745
 7797SOL     OW24289   0.931   5.234   1.466
 7797SOL    HW124290   1.026   5.239   1.497
 7797SOL    HW224291   0.928   5.194   1.374
 7798SOL     OW24292   1.801   1.141   2.547
 7798SOL    HW124293   1.735   1.161   2.619
 7798SOL    HW224294   1.788   1.047   2.514
 7799SOL     OW24295   2.537   5.793   2.919
 7799SOL    HW124296   2.446   5.832   2.905
 7799SOL    HW224297   2.599   5.864   2.954
 7800SOL     OW24298   0.314   5.883   2.538
 7800SOL    HW124299   0.316   5.821   2.617
 7800SOL    HW224300   0.220   5.911   2.521
 7801SOL     OW24301   1.895   1.380   3.009
 7801SOL    HW124302   1.798   1.402   3.005
 7801SOL    HW224303   1.936   1.392   2.919
 7802SOL     OW24304   6.749   4.332   6.919
 7802SOL    HW124305   6.788   4.381   6.842
 7802SOL    HW224306   6.788   4.240   6.923
 7803SOL     OW24307   4.595   1.981   0.049
 7803SOL    HW124308   4.636   1.930   0.125
 7803SOL    HW224309   4.618   1.937   6.982
 7804SOL     OW24310   3.325   1.727   4.438
 7804SOL    HW124311   3.360   1.675   4.361
 7804SOL    HW224312   3.399   1.778   4.481
 7805SOL     OW24313   4.940   3.335   2.444
 7805SOL    HW124314   4.912   3.300   2.354
 7805SOL    HW224315   4.927   3.263   2.513
 7806SOL     OW24316   6.666   2.349   6.350
 7806SOL    HW124317   6.666   2.436   6.301
 7806SOL    HW224318   6.648   2.366   6.448
 7807SOL     OW24319   1.353   4.185   5.348
 7807SOL    HW124320   1.301   4.240   5.282
 7807SOL    HW224321   1.420   4.130   5.299
 7808SOL     OW24322   4.842   4.271   2.691
 7808SOL    HW124323   4.881   4.304   2.778
 7808SOL    HW224324   4.831   4.172   2.696
 7809SOL     OW24325   5.252   4.846   4.887
 7809SOL    HW124326   5.308   4.766   4.865
 7809SOL    HW224327   5.215   4.836   4.980
 7810SOL     OW24328   3.610   6.977   4.745
 7810SOL    HW124329   3.704   6.943   4.749
 7810SOL    HW224330   3.547   6.906   4.775
 7811SOL     OW24331   1.915   5.958   2.822
 7811SOL    HW124332   1.867   6.022   2.763
 7811SOL    HW224333   1.885   5.971   2.916
 7812SOL     OW24334   2.345   3.283   5.345
 7812SOL    HW124335   2.429   3.311   5.391
 7812SOL    HW224336   2.368   3.232   5.262
 7813SOL     OW24337   4.614   2.841   1.273
 7813SOL    HW124338   4.697   2.878   1.315
 7813SOL    HW224339   4.604   2.745   1.297
 7814SOL     OW24340   6.770   3.328   2.675
 7814SOL    HW124341   6.792   3.414   2.629
 7814SOL    HW224342   6.675   3.330   2.707
 7815SOL     OW24343   5.709   1.995   5.253
 7815SOL    HW124344   5.696   2.084   5.210
 7815SOL    HW224345   5.628   1.972   5.307
 7816SOL     OW24346   0.572   2.115   5.884
 7816SOL    HW124347   0.606   2.023   5.868
 7816SOL    HW224348   0.630   2.161   5.952
 7817SOL     OW24349   4.517   3.800   5.566
 7817SOL    HW124350   4.563   3.846   5.642
 7817SOL    HW224351   4.583   3.778   5.495
 7818SOL     OW24352   5.076   1.334   2.391
 7818SOL    HW124353   5.043   1.298   2.478
 7818SOL    HW224354   5.068   1.264   2.320
 7819SOL     OW24355   0.038   3.210   4.184
 7819SOL    HW124356   6.983   3.174   4.126
 7819SOL    HW224357   0.084   3.284   4.136
 7820SOL     OW24358   1.825   1.264   5.345
 7820SOL    HW124359   1.803   1.324   5.268
 7820SOL    HW224360   1.746   1.257   5.406
 7821SOL     OW24361   5.468   5.552   0.533
 7821SOL    HW124362   5.427   5.642   0.514
 7821SOL    HW224363   5.567   5.556   0.516
 7822SOL     OW24364   0.825   1.628   6.014
 7822SOL    HW124365   0.828   1.655   6.110
 7822SOL    HW224366   0.738   1.582   5.996
 7823SOL     OW24367   1.300   4.044   6.376
 7823SOL    HW124368   1.349   4.085   6.299
 7823SOL    HW224369   1.201   4.051   6.361
 7824SOL     OW24370   6.266   0.474   4.351
 7824SOL    HW124371   6.283   0.406   4.280
 7824SOL    HW224372   6.336   0.466   4.421
 7825SOL     OW24373   2.199   2.637   1.694
 7825SOL    HW124374   2.232   2.663   1.784
 7825SOL    HW224375   2.178   2.539   1.693
 7826SOL     OW24376   5.082   2.241   6.690
 7826SOL    HW124377   5.026   2.285   6.620
 7826SOL    HW224378   5.114   2.152   6.656
 7827SOL     OW24379   3.348   4.917   1.217
 7827SOL    HW124380   3.366   5.003   1.265
 7827SOL    HW224381   3.284   4.862   1.270
 7828SOL     OW24382   0.865   5.575   0.222
 7828SOL    HW124383   0.843   5.512   0.296
 7828SOL    HW224384   0.881   5.523   0.138
 7829SOL     OW24385   2.237   3.294   1.490
 7829SOL    HW124386   2.312   3.299   1.556
 7829SOL    HW224387   2.167   3.232   1.526
 7830SOL     OW24388   5.656   4.187   6.069
 7830SOL    HW124389   5.562   4.155   6.069
 7830SOL    HW224390   5.678   4.227   5.980
 7831SOL     OW24391   1.017   5.003   6.982
 7831SOL    HW124392   1.014   5.103   6.983
 7831SOL    HW224393   1.022   4.970   6.888
 7832SOL     OW24394   3.621   0.704   4.812
 7832SOL    HW124395   3.637   0.646   4.892
 7832SOL    HW224396   3.591   0.795   4.842
 7833SOL     OW24397   0.974   0.692   0.465
 7833SOL    HW124398   1.064   0.650   0.456
 7833SOL    HW224399   0.924   0.651   0.542
 7834SOL     OW24400   0.121   1.654   2.169
 7834SOL    HW124401   0.181   1.592   2.117
 7834SOL    HW224402   0.096   1.732   2.111
 7835SOL     OW24403   2.305   2.495   4.727
 7835SOL    HW124404   2.258   2.580   4.704
 7835SOL    HW224405   2.317   2.490   4.827
 7836SOL     OW24406   3.445   0.975   6.466
 7836SOL    HW124407   3.383   0.912   6.513
 7836SOL    HW224408   3.454   0.947   6.370
 7837SOL     OW24409   6.082   6.219   1.857
 7837SOL    HW124410   6.041   6.140   1.810
 7837SOL    HW224411   6.121   6.189   1.944
 7838SOL     OW24412   4.528   6.585   6.394
 7838SOL    HW124413   4.578   6.671   6.400
 7838SOL    HW224414   4.450   6.586   6.457
 7839SOL     OW24415   6.627   4.098   4.683
 7839SOL    HW124416   6.675   4.030   4.739
 7839SOL    HW224417   6.603   4.057   4.595
 7840SOL     OW24418   5.159   3.642   3.910
 7840SOL    HW124419   5.228   3.707   3.879
 7840SOL    HW224420   5.160   3.562   3.850
 7841SOL     OW24421   5.660   1.667   6.509
 7841SOL    HW124422   5.575   1.641   6.462
 7841SOL    HW224423   5.738   1.625   6.463
 7842SOL     OW24424   1.346   0.862   3.343
 7842SOL    HW124425   1.426   0.802   3.353
 7842SOL    HW224426   1.299   0.870   3.431
 7843SOL     OW24427   5.539   4.438   1.506
 7843SOL    HW124428   5.536   4.340   1.482
 7843SOL    HW224429   5.552   4.491   1.422
 7844SOL     OW24430   4.644   0.859   3.989
 7844SOL    HW124431   4.719   0.870   3.924
 7844SOL    HW224432   4.657   0.922   4.066
 7845SOL     OW24433   0.464   0.921   4.145
 7845SOL    HW124434   0.536   0.916   4.213
 7845SOL    HW224435   0.458   1.014   4.108
 7846SOL     OW24436   2.207   0.546   1.450
 7846SOL    HW124437   2.258   0.632   1.441
 7846SOL    HW224438   2.271   0.469   1.447
 7847SOL     OW24439   0.379   1.524   1.094
 7847SOL    HW124440   0.384   1.623   1.100
 7847SOL    HW224441   0.337   1.487   1.177
 7848SOL     OW24442   3.021   4.275   1.230
 7848SOL    HW124443   3.020   4.201   1.296
 7848SOL    HW224444   2.991   4.241   1.141
 7849SOL     OW24445   5.643   3.883   4.298
 7849SOL    HW124446   5.616   3.831   4.379
 7849SOL    HW224447   5.695   3.964   4.326
 7850SOL     OW24448   0.242   0.805   4.009
 7850SOL    HW124449   0.327   0.834   4.054
 7850SOL    HW224450   0.257   0.718   3.963
 7851SOL     OW24451   6.319   6.749   0.896
 7851SOL    HW124452   6.388   6.697   0.846
 7851SOL    HW224453   6.321   6.845   0.867
 7852SOL     OW24454   3.261   6.636   6.535
 7852SOL    HW124455   3.191   6.707   6.525
 7852SOL    HW224456   3.221   6.557   6.581
 7853SOL     OW24457   3.991   1.159   0.926
 7853SOL    HW124458   3.970   1.257   0.920
 7853SOL    HW224459   4.034   1.140   1.014
 7854SOL     OW24460   3.611   4.423   1.026
 7854SOL    HW124461   3.586   4.354   1.094
 7854SOL    HW224462   3.551   4.502   1.035
 7855SOL     OW24463   4.466   5.686   6.026
 7855SOL    HW124464   4.502   5.750   5.957
 7855SOL    HW224465   4.401   5.734   6.085
 7856SOL     OW24466   6.185   4.690   3.855
 7856SOL    HW124467   6.262   4.626   3.859
 7856SOL    HW224468   6.217   4.778   3.820
 7857SOL     OW24469   0.160   2.626   5.729
 7857SOL    HW124470   0.238   2.682   5.700
 7857SOL    HW224471   0.089   2.628   5.659
 7858SOL     OW24472   5.321   5.017   3.411
 7858SOL    HW124473   5.365   4.929   3.431
 7858SOL    HW224474   5.240   5.002   3.355
 7859SOL     OW24475   0.245   4.070   6.027
 7859SOL    HW124476   0.262   3.972   6.032
 7859SOL    HW224477   0.159   4.087   5.979
 7860SOL     OW24478   3.895   6.299   2.722
 7860SOL    HW124479   3.959   6.352   2.778
 7860SOL    HW224480   3.930   6.291   2.629
 7861SOL     OW24481   4.102   6.076   1.873
 7861SOL    HW124482   4.147   6.110   1.790
 7861SOL    HW224483   4.006   6.055   1.852
 7862SOL     OW24484   2.735   4.436   1.526
 7862SOL    HW124485   2.710   4.489   1.607
 7862SOL    HW224486   2.824   4.468   1.491
 7863SOL     OW24487   0.250   5.802   3.483
 7863SOL    HW124488   0.271   5.884   3.430
 7863SOL    HW224489   0.232   5.829   3.578
 7864SOL     OW24490   0.216   5.801   5.723
 7864SOL    HW124491   0.123   5.836   5.711
 7864SOL    HW224492   0.221   5.747   5.807
 7865SOL     OW24493   4.279   6.573   3.989
 7865SOL    HW124494   4.321   6.642   3.930
 7865SOL    HW224495   4.307   6.482   3.959
 7866SOL     OW24496   2.739   1.691   1.714
 7866SOL    HW124497   2.716   1.716   1.620
 7866SOL    HW224498   2.826   1.642   1.715
 7867SOL     OW24499   5.782   4.976   2.976
 7867SOL    HW124500   5.778   5.052   2.912
 7867SOL    HW224501   5.847   4.996   3.049
 7868SOL     OW24502   5.240   0.011   2.514
 7868SOL    HW124503   5.160   6.973   2.526
 7868SOL    HW224504   5.322   6.973   2.511
 7869SOL     OW24505   6.133   3.764   0.983
 7869SOL    HW124506   6.202   3.742   0.914
 7869SOL    HW224507   6.064   3.692   0.984
 7870SOL     OW24508   5.664   5.690   3.658
 7870SOL    HW124509   5.658   5.651   3.567
 7870SOL    HW224510   5.749   5.742   3.666
 7871SOL     OW24511   5.800   4.056   3.158
 7871SOL    HW124512   5.879   4.022   3.106
 7871SOL    HW224513   5.790   4.001   3.242
 7872SOL     OW24514   0.847   4.210   2.206
 7872SOL    HW124515   0.872   4.203   2.109
 7872SOL    HW224516   0.856   4.306   2.235
 7873SOL     OW24517   6.131   0.656   5.569
 7873SOL    HW124518   6.218   0.667   5.618
 7873SOL    HW224519   6.105   0.743   5.528
 7874SOL     OW24520   6.751   1.483   6.436
 7874SOL    HW124521   6.736   1.403   6.378
 7874SOL    HW224522   6.700   1.561   6.398
 7875SOL     OW24523   4.096   3.414   6.385
 7875SOL    HW124524   4.127   3.500   6.424
 7875SOL    HW224525   4.146   3.396   6.300
 7876SOL     OW24526   6.953   6.738   4.765
 7876SOL    HW124527   6.887   6.673   4.726
 7876SOL    HW224528   6.948   6.733   4.865
 7877SOL     OW24529   0.384   2.802   2.496
 7877SOL    HW124530   0.344   2.881   2.544
 7877SOL    HW224531   0.483   2.812   2.493
 7878SOL     OW24532   4.782   5.089   3.434
 7878SOL    HW124533   4.752   4.998   3.406
 7878SOL    HW224534   4.852   5.123   3.371
 7879SOL     OW24535   4.801   5.951   3.409
 7879SOL    HW124536   4.749   5.922   3.489
 7879SOL    HW224537   4.800   5.879   3.340
 7880SOL     OW24538   0.262   6.159   1.196
 7880SOL    HW124539   0.249   6.240   1.254
 7880SOL    HW224540   0.173   6.127   1.164
 7881SOL     OW24541   0.121   3.872   4.759
 7881SOL    HW124542   0.214   3.907   4.758
 7881SOL    HW224543   0.122   3.772   4.747
 7882SOL     OW24544   2.054   2.276   2.921
 7882SOL    HW124545   2.086   2.351   2.980
 7882SOL    HW224546   1.991   2.312   2.852
 7883SOL     OW24547   1.898   0.668   1.308
 7883SOL    HW124548   1.900   0.580   1.260
 7883SOL    HW224549   1.984   0.716   1.294
 7884SOL     OW24550   1.131   3.847   3.282
 7884SOL    HW124551   1.138   3.790   3.200
 7884SOL    HW224552   1.220   3.853   3.326
 7885SOL     OW24553   5.661   5.638   3.085
 7885SOL    HW124554   5.570   5.641   3.044
 7885SOL    HW224555   5.680   5.725   3.131
 7886SOL     OW24556   5.931   3.977   1.254
 7886SOL    HW124557   6.027   3.962   1.232
 7886SOL    HW224558   5.876   3.904   1.213
 7887SOL     OW24559   3.332   2.720   5.217
 7887SOL    HW124560   3.295   2.639   5.171
 7887SOL    HW224561   3.286   2.802   5.182
 7888SOL     OW24562   0.490   0.485   4.666
 7888SOL    HW124563   0.416   0.426   4.698
 7888SOL    HW224564   0.452   0.567   4.623
 7889SOL     OW24565   0.304   5.525   6.537
 7889SOL    HW124566   0.326   5.605   6.482
 7889SOL    HW224567   0.337   5.538   6.630
 7890SOL     OW24568   1.598   2.864   3.897
 7890SOL    HW124569   1.564   2.941   3.952
 7890SOL    HW224570   1.697   2.859   3.905
 7891SOL     OW24571   1.109   3.137   4.282
 7891SOL    HW124572   1.081   3.116   4.376
 7891SOL    HW224573   1.037   3.189   4.236
 7892SOL     OW24574   1.055   2.130   4.230
 7892SOL    HW124575   1.036   2.122   4.132
 7892SOL    HW224576   1.056   2.227   4.255
 7893SOL     OW24577   5.944   6.480   2.167
 7893SOL    HW124578   5.968   6.494   2.070
 7893SOL    HW224579   5.992   6.400   2.201
 7894SOL     OW24580   3.029   1.169   0.809
 7894SOL    HW124581   3.096   1.173   0.883
 7894SOL    HW224582   2.960   1.100   0.830
 7895SOL     OW24583   3.512   6.427   4.448
 7895SOL    HW124584   3.529   6.348   4.390
 7895SOL    HW224585   3.509   6.510   4.392
 7896SOL     OW24586   5.244   2.965   1.796
 7896SOL    HW124587   5.211   2.972   1.890
 7896SOL    HW224588   5.188   2.899   1.746
 7897SOL     OW24589   3.184   3.626   6.652
 7897SOL    HW124590   3.147   3.655   6.564
 7897SOL    HW224591   3.235   3.702   6.693
 7898SOL     OW24592   4.837   0.467   3.866
 7898SOL    HW124593   4.794   0.428   3.785
 7898SOL    HW224594   4.847   0.397   3.936
 7899SOL     OW24595   5.253   6.584   2.436
 7899SOL    HW124596   5.261   6.659   2.370
 7899SOL    HW224597   5.173   6.599   2.494
 7900SOL     OW24598   0.848   3.818   0.432
 7900SOL    HW124599   0.915   3.751   0.401
 7900SOL    HW224600   0.756   3.789   0.405
 7901SOL     OW24601   5.168   1.372   5.953
 7901SOL    HW124602   5.112   1.421   6.019
 7901SOL    HW224603   5.265   1.395   5.967
 7902SOL     OW24604   6.655   6.300   3.447
 7902SOL    HW124605   6.696   6.236   3.382
 7902SOL    HW224606   6.678   6.271   3.540
 7903SOL     OW24607   4.193   1.812   3.272
 7903SOL    HW124608   4.211   1.721   3.309
 7903SOL    HW224609   4.109   1.849   3.312
 7904SOL     OW24610   6.039   0.085   3.396
 7904SOL    HW124611   6.102   0.161   3.416
 7904SOL    HW224612   6.025   0.032   3.480
 7905SOL     OW24613   5.768   1.177   0.509
 7905SOL    HW124614   5.684   1.151   0.557
 7905SOL    HW224615   5.826   1.230   0.570
 7906SOL     OW24616   1.113   5.628   0.516
 7906SOL    HW124617   1.082   5.641   0.610
 7906SOL    HW224618   1.090   5.709   0.462
 7907SOL     OW24619   6.223   1.051   2.833
 7907SOL    HW124620   6.201   1.120   2.764
 7907SOL    HW224621   6.292   0.989   2.797
 7908SOL     OW24622   1.244   1.939   6.683
 7908SOL    HW124623   1.253   1.840   6.668
 7908SOL    HW224624   1.148   1.962   6.697
 7909SOL     OW24625   4.909   4.534   3.675
 7909SOL    HW124626   4.960   4.449   3.692
 7909SOL    HW224627   4.842   4.547   3.748
 7910SOL     OW24628   1.589   2.905   1.622
 7910SOL    HW124629   1.634   2.983   1.664
 7910SOL    HW224630   1.519   2.937   1.558
 7911SOL     OW24631   1.051   4.028   1.304
 7911SOL    HW124632   1.067   4.123   1.278
 7911SOL    HW224633   1.129   3.972   1.275
 7912SOL     OW24634   4.971   4.543   0.815
 7912SOL    HW124635   4.907   4.481   0.861
 7912SOL    HW224636   5.058   4.543   0.864
 7913SOL     OW24637   1.705   4.407   1.048
 7913SOL    HW124638   1.665   4.355   0.972
 7913SOL    HW224639   1.656   4.385   1.132
 7914SOL     OW24640   6.968   4.501   7.003
 7914SOL    HW124641   6.974   4.497   6.904
 7914SOL    HW224642   6.879   4.464   0.013
 7915SOL     OW24643   4.755   1.817   2.713
 7915SOL    HW124644   4.705   1.863   2.639
 7915SOL    HW224645   4.692   1.759   2.764
 7916SOL     OW24646   0.966   0.291   4.723
 7916SOL    HW124647   1.026   0.369   4.740
 7916SOL    HW224648   0.919   0.265   4.807
 7917SOL     OW24649   3.864   2.777   5.473
 7917SOL    HW124650   3.956   2.764   5.510
 7917SOL    HW224651   3.847   2.709   5.402
 7918SOL     OW24652   0.730   1.563   5.405
 7918SOL    HW124653   0.728   1.463   5.396
 7918SOL    HW224654   0.716   1.604   5.315
 7919SOL     OW24655   0.943   5.092   2.015
 7919SOL    HW124656   0.916   5.026   2.085
 7919SOL    HW224657   0.988   5.045   1.939
 7920SOL     OW24658   5.154   0.960   1.964
 7920SOL    HW124659   5.084   0.892   1.986
 7920SOL    HW224660   5.143   1.040   2.022
 7921SOL     OW24661   5.925   0.575   1.428
 7921SOL    HW124662   5.956   0.626   1.348
 7921SOL    HW224663   5.982   0.494   1.441
 7922SOL     OW24664   0.325   6.152   0.298
 7922SOL    HW124665   0.379   6.089   0.242
 7922SOL    HW224666   0.327   6.243   0.257
 7923SOL     OW24667   3.384   1.729   6.499
 7923SOL    HW124668   3.419   1.636   6.491
 7923SOL    HW224669   3.291   1.732   6.463
 7924SOL     OW24670   4.968   0.165   1.468
 7924SOL    HW124671   4.956   0.112   1.552
 7924SOL    HW224672   4.912   0.248   1.474
 7925SOL     OW24673   1.588   6.656   0.689
 7925SOL    HW124674   1.576   6.558   0.703
 7925SOL    HW224675   1.544   6.706   0.763
 7926SOL     OW24676   5.248   1.361   6.914
 7926SOL    HW124677   5.216   1.355   7.008
 7926SOL    HW224678   5.304   1.444   6.904
 7927SOL     OW24679   5.173   6.916   1.496
 7927SOL    HW124680   5.197   6.877   1.584
 7927SOL    HW224681   5.084   6.960   1.501
 7928SOL     OW24682   0.194   1.200   3.660
 7928SOL    HW124683   0.246   1.286   3.659
 7928SOL    HW224684   0.154   1.185   3.569
 7929SOL     OW24685   4.091   3.734   6.224
 7929SOL    HW124686   4.160   3.725   6.296
 7929SOL    HW224687   4.003   3.702   6.259
 7930SOL     OW24688   3.592   5.313   6.342
 7930SOL    HW124689   3.590   5.214   6.354
 7930SOL    HW224690   3.617   5.356   6.428
 7931SOL     OW24691   4.233   2.628   0.618
 7931SOL    HW124692   4.151   2.683   0.633
 7931SOL    HW224693   4.287   2.670   0.544
 7932SOL     OW24694   0.887   4.831   1.042
 7932SOL    HW124695   0.849   4.808   0.952
 7932SOL    HW224696   0.814   4.865   1.101
 7933SOL     OW24697   6.940   0.482   5.729
 7933SOL    HW124698   6.906   0.491   5.823
 7933SOL    HW224699   6.882   0.419   5.678
 7934SOL     OW24700   1.341   4.806   0.124
 7934SOL    HW124701   1.383   4.773   0.039
 7934SOL    HW224702   1.299   4.895   0.107
 7935SOL     OW24703   5.284   5.444   2.556
 7935SOL    HW124704   5.373   5.451   2.511
 7935SOL    HW224705   5.223   5.386   2.501
 7936SOL     OW24706   3.129   5.368   3.404
 7936SOL    HW124707   3.151   5.461   3.434
 7936SOL    HW224708   3.170   5.352   3.314
 7937SOL     OW24709   2.329   5.725   3.902
 7937SOL    HW124710   2.266   5.782   3.955
 7937SOL    HW224711   2.402   5.693   3.962
 7938SOL     OW24712   5.517   6.234   5.513
 7938SOL    HW124713   5.475   6.308   5.461
 7938SOL    HW224714   5.601   6.268   5.556
 7939SOL     OW24715   0.711   1.864   5.823
 7939SOL    HW124716   0.727   1.876   5.921
 7939SOL    HW224717   0.756   1.781   5.791
 7940SOL     OW24718   3.720   1.795   2.738
 7940SOL    HW124719   3.818   1.813   2.741
 7940SOL    HW224720   3.700   1.729   2.665
 7941SOL     OW24721   4.881   6.614   3.178
 7941SOL    HW124722   4.933   6.674   3.116
 7941SOL    HW224723   4.925   6.525   3.183
 7942SOL     OW24724   0.837   2.988   3.200
 7942SOL    HW124725   0.837   2.927   3.279
 7942SOL    HW224726   0.842   3.083   3.231
 7943SOL     OW24727   0.909   4.262   5.562
 7943SOL    HW124728   0.948   4.192   5.621
 7943SOL    HW224729   0.810   4.250   5.555
 7944SOL     OW24730   0.148   2.624   1.608
 7944SOL    HW124731   0.090   2.651   1.685
 7944SOL    HW224732   0.240   2.605   1.641
 7945SOL     OW24733   5.998   5.328   2.563
 7945SOL    HW124734   6.064   5.308   2.635
 7945SOL    HW224735   6.026   5.282   2.479
 7946SOL     OW24736   3.728   6.655   5.927
 7946SOL    HW124737   3.664   6.700   5.988
 7946SOL    HW224738   3.762   6.721   5.860
 7947SOL     OW24739   2.139   2.037   5.104
 7947SOL    HW124740   2.129   2.041   5.203
 7947SOL    HW224741   2.229   1.999   5.081
 7948SOL     OW24742   1.163   4.912   1.055
 7948SOL    HW124743   1.085   4.850   1.066
 7948SOL    HW224744   1.133   5.006   1.066
 7949SOL     OW24745   4.130   3.988   6.068
 7949SOL    HW124746   4.129   3.910   6.131
 7949SOL    HW224747   4.189   3.967   5.990
 7950SOL     OW24748   5.131   5.884   5.037
 7950SOL    HW124749   5.158   5.835   4.954
 7950SOL    HW224750   5.104   5.978   5.013
 7951SOL     OW24751   2.171   5.082   2.308
 7951SOL    HW124752   2.261   5.048   2.337
 7951SOL    HW224753   2.180   5.176   2.275
 7952SOL     OW24754   6.744   3.295   0.126
 7952SOL    HW124755   6.788   3.284   0.037
 7952SOL    HW224756   6.729   3.205   0.167
 7953SOL     OW24757   4.426   1.842   1.668
 7953SOL    HW124758   4.331   1.813   1.657
 7953SOL    HW224759   4.430   1.921   1.729
 7954SOL     OW24760   4.133   3.968   6.481
 7954SOL    HW124761   4.198   4.012   6.543
 7954SOL    HW224762   4.066   4.036   6.450
 7955SOL     OW24763   2.551   1.280   6.733
 7955SOL    HW124764   2.464   1.237   6.709
 7955SOL    HW224765   2.554   1.297   6.832
 7956SOL     OW24766   6.020   1.452   1.663
 7956SOL    HW124767   6.035   1.466   1.565
 7956SOL    HW224768   5.938   1.502   1.691
 7957SOL     OW24769   2.211   1.230   6.943
 7957SOL    HW124770   2.129   1.265   6.897
 7957SOL    HW224771   2.225   1.280   0.010
 7958SOL     OW24772   5.338   4.081   6.083
 7958SOL    HW124773   5.301   4.170   6.055
 7958SOL    HW224774   5.284   4.045   6.160
 7959SOL     OW24775   5.330   0.604   6.685
 7959SOL    HW124776   5.250   0.555   6.719
 7959SOL    HW224777   5.362   0.562   6.600
 7960SOL     OW24778   1.032   1.449   5.996
 7960SOL    HW124779   0.949   1.393   6.003
 7960SOL    HW224780   1.008   1.540   5.960
 7961SOL     OW24781   6.221   0.312   0.700
 7961SOL    HW124782   6.150   0.370   0.659
 7961SOL    HW224783   6.258   0.250   0.631
 7962SOL     OW24784   0.170   1.757   5.731
 7962SOL    HW124785   0.181   1.854   5.750
 7962SOL    HW224786   0.256   1.709   5.751
 7963SOL     OW24787   6.467   5.377   4.017
 7963SOL    HW124788   6.553   5.385   4.067
 7963SOL    HW224789   6.441   5.465   3.979
 7964SOL     OW24790   6.072   2.983   2.220
 7964SOL    HW124791   6.071   2.897   2.272
 7964SOL    HW224792   6.138   2.976   2.145
 7965SOL     OW24793   3.830   2.232   6.004
 7965SOL    HW124794   3.867   2.271   6.088
 7965SOL    HW224795   3.824   2.132   6.014
 7966SOL     OW24796   3.290   3.059   5.360
 7966SOL    HW124797   3.241   3.052   5.447
 7966SOL    HW224798   3.380   3.100   5.376
 7967SOL     OW24799   2.046   5.122   1.788
 7967SOL    HW124800   2.019   5.041   1.840
 7967SOL    HW224801   1.998   5.202   1.823
 7968SOL     OW24802   6.281   2.240   5.223
 7968SOL    HW124803   6.256   2.190   5.306
 7968SOL    HW224804   6.371   2.281   5.235
 7969SOL     OW24805   5.171   6.056   0.607
 7969SOL    HW124806   5.235   6.002   0.662
 7969SOL    HW224807   5.079   6.047   0.643
 7970SOL     OW24808   5.533   3.471   3.015
 7970SOL    HW124809   5.593   3.489   3.094
 7970SOL    HW224810   5.563   3.387   2.970
 7971SOL     OW24811   3.188   0.854   1.749
 7971SOL    HW124812   3.138   0.939   1.732
 7971SOL    HW224813   3.154   0.812   1.833
 7972SOL     OW24814   3.614   3.545   1.833
 7972SOL    HW124815   3.630   3.643   1.823
 7972SOL    HW224816   3.596   3.506   1.743
 7973SOL     OW24817   5.509   4.178   4.818
 7973SOL    HW124818   5.521   4.138   4.728
 7973SOL    HW224819   5.550   4.118   4.887
 7974SOL     OW24820   6.204   1.105   6.007
 7974SOL    HW124821   6.227   1.122   5.911
 7974SOL    HW224822   6.287   1.078   6.056
 7975SOL     OW24823   4.851   0.257   0.836
 7975SOL    HW124824   4.771   0.206   0.804
 7975SOL    HW224825   4.836   0.355   0.823
 7976SOL     OW24826   0.895   6.964   5.974
 7976SOL    HW124827   0.959   0.021   5.967
 7976SOL    HW224828   0.930   6.886   5.924
 7977SOL     OW24829   4.558   6.055   2.292
 7977SOL    HW124830   4.502   6.138   2.294
 7977SOL    HW224831   4.598   6.044   2.202
 7978SOL     OW24832   0.185   2.826   6.317
 7978SOL    HW124833   0.276   2.855   6.345
 7978SOL    HW224834   0.117   2.889   6.354
 7979SOL     OW24835   1.957   4.342   5.763
 7979SOL    HW124836   2.029   4.282   5.796
 7979SOL    HW224837   1.882   4.343   5.828
 7980SOL     OW24838   2.851   5.582   6.809
 7980SOL    HW124839   2.797   5.631   6.877
 7980SOL    HW224840   2.879   5.646   6.737
 7981SOL     OW24841   0.553   5.077   1.766
 7981SOL    HW124842   0.566   5.073   1.667
 7981SOL    HW224843   0.619   5.141   1.806
 7982SOL     OW24844   1.423   1.601   5.945
 7982SOL    HW124845   1.339   1.545   5.947
 7982SOL    HW224846   1.419   1.665   5.869
 7983SOL     OW24847   6.398   1.746   1.396
 7983SOL    HW124848   6.445   1.660   1.413
 7983SOL    HW224849   6.313   1.749   1.449
 7984SOL     OW24850   0.281   1.218   0.644
 7984SOL    HW124851   0.324   1.274   0.714
 7984SOL    HW224852   0.346   1.150   0.610
 7985SOL     OW24853   2.401   2.131   4.544
 7985SOL    HW124854   2.401   2.172   4.635
 7985SOL    HW224855   2.494   2.099   4.522
 7986SOL     OW24856   3.220   0.598   5.839
 7986SOL    HW124857   3.121   0.592   5.841
 7986SOL    HW224858   3.248   0.693   5.856
 7987SOL     OW24859   2.088   3.174   0.732
 7987SOL    HW124860   2.097   3.261   0.781
 7987SOL    HW224861   2.036   3.187   0.648
 7988SOL     OW24862   1.480   0.844   2.466
 7988SOL    HW124863   1.487   0.824   2.368
 7988SOL    HW224864   1.501   0.940   2.482
 7989SOL     OW24865   2.453   3.660   0.368
 7989SOL    HW124866   2.401   3.592   0.419
 7989SOL    HW224867   2.449   3.748   0.416
 7990SOL     OW24868   2.465   5.156   4.472
 7990SOL    HW124869   2.435   5.104   4.392
 7990SOL    HW224870   2.391   5.214   4.505
 7991SOL     OW24871   5.856   1.259   4.066
 7991SOL    HW124872   5.790   1.334   4.070
 7991SOL    HW224873   5.934   1.279   4.126
 7992SOL     OW24874   1.287   0.190   0.144
 7992SOL    HW124875   1.380   0.154   0.153
 7992SOL    HW224876   1.267   0.251   0.221
 7993SOL     OW24877   0.072   6.991   1.501
 7993SOL    HW124878   0.125   0.056   1.515
 7993SOL    HW224879   6.998   7.004   1.535
 7994SOL     OW24880   5.470   0.864   3.305
 7994SOL    HW124881   5.470   0.928   3.381
 7994SOL    HW224882   5.414   0.784   3.329
 7995SOL     OW24883   5.968   5.387   3.626
 7995SOL    HW124884   5.884   5.333   3.622
 7995SOL    HW224885   6.031   5.345   3.692
 7996SOL     OW24886   3.644   5.971   4.415
 7996SOL    HW124887   3.709   5.946   4.343
 7996SOL    HW224888   3.693   6.012   4.491
 7997SOL     OW24889   6.902   2.021   0.176
 7997SOL    HW124890   6.999   2.037   0.194
 7997SOL    HW224891   6.893   1.944   0.113
 7998SOL     OW24892   3.120   6.899   6.534
 7998SOL    HW124893   3.137   6.942   6.445
 7998SOL    HW224894   3.165   6.952   6.606
 7999SOL     OW24895   0.873   0.998   5.635
 7999SOL    HW124896   0.788   1.048   5.623
 7999SOL    HW224897   0.912   0.976   5.545
 8000SOL     OW24898   5.656   6.768   6.047
 8000SOL    HW124899   5.702   6.686   6.083
 8000SOL    HW224900   5.558   6.750   6.039
 8001SOL     OW24901   4.516   5.981   1.450
 8001SOL    HW124902   4.591   5.916   1.457
 8001SOL    HW224903   4.446   5.959   1.517
 8002SOL     OW24904   0.818   1.004   5.295
 8002SOL    HW124905   0.727   0.967   5.314
 8002SOL    HW224906   0.869   0.938   5.239
 8003SOL     OW24907   2.093   5.724   1.372
 8003SOL    HW124908   2.162   5.761   1.434
 8003SOL    HW224909   2.015   5.691   1.425
 8004SOL     OW24910   2.056   3.406   3.582
 8004SOL    HW124911   2.022   3.436   3.493
 8004SOL    HW224912   2.074   3.307   3.578
 8005SOL     OW24913   2.415   0.586   3.496
 8005SOL    HW124914   2.464   0.563   3.412
 8005SOL    HW224915   2.452   0.534   3.573
 8006SOL     OW24916   2.410   5.713   5.316
 8006SOL    HW124917   2.456   5.624   5.313
 8006SOL    HW224918   2.388   5.736   5.411
 8007SOL     OW24919   5.983   2.070   6.532
 8007SOL    HW124920   5.897   2.019   6.533
 8007SOL    HW224921   6.004   2.098   6.439
 8008SOL     OW24922   3.219   5.644   6.524
 8008SOL    HW124923   3.235   5.546   6.527
 8008SOL    HW224924   3.290   5.691   6.577
 8009SOL     OW24925   4.615   1.086   0.380
 8009SOL    HW124926   4.686   1.105   0.449
 8009SOL    HW224927   4.555   1.166   0.371
 8010SOL     OW24928   2.729   2.376   4.764
 8010SOL    HW124929   2.821   2.412   4.744
 8010SOL    HW224930   2.708   2.304   4.698
 8011SOL     OW24931   3.294   2.102   1.414
 8011SOL    HW124932   3.267   2.092   1.510
 8011SOL    HW224933   3.333   2.016   1.381
 8012SOL     OW24934   1.199   2.749   6.436
 8012SOL    HW124935   1.216   2.847   6.443
 8012SOL    HW224936   1.238   2.702   6.516
 8013SOL     OW24937   1.768   3.784   3.526
 8013SOL    HW124938   1.699   3.851   3.550
 8013SOL    HW224939   1.804   3.741   3.610
 8014SOL     OW24940   2.133   0.277   4.509
 8014SOL    HW124941   2.082   0.293   4.593
 8014SOL    HW224942   2.162   0.181   4.505
 8015SOL     OW24943   2.048   0.546   5.962
 8015SOL    HW124944   1.963   0.507   5.926
 8015SOL    HW224945   2.114   0.557   5.888
 8016SOL     OW24946   4.090   1.342   4.969
 8016SOL    HW124947   4.154   1.417   4.983
 8016SOL    HW224948   4.003   1.377   4.935
 8017SOL     OW24949   6.370   0.062   6.633
 8017SOL    HW124950   6.343   0.140   6.576
 8017SOL    HW224951   6.464   0.075   6.663
 8018SOL     OW24952   3.331   2.638   0.029
 8018SOL    HW124953   3.388   2.721   0.025
 8018SOL    HW224954   3.292   2.621   6.958
 8019SOL     OW24955   1.803   4.041   1.638
 8019SOL    HW124956   1.730   4.006   1.580
 8019SOL    HW224957   1.780   4.134   1.667
 8020SOL     OW24958   6.619   0.332   6.505
 8020SOL    HW124959   6.689   0.372   6.445
 8020SOL    HW224960   6.570   0.406   6.551
 8021SOL     OW24961   1.890   2.860   1.699
 8021SOL    HW124962   1.797   2.874   1.664
 8021SOL    HW224963   1.939   2.797   1.639
 8022SOL     OW24964   6.274   0.527   1.938
 8022SOL    HW124965   6.287   0.571   2.027
 8022SOL    HW224966   6.185   0.481   1.937
 8023SOL     OW24967   5.717   4.628   2.561
 8023SOL    HW124968   5.762   4.541   2.581
 8023SOL    HW224969   5.758   4.669   2.479
 8024SOL     OW24970   1.241   5.253   6.022
 8024SOL    HW124971   1.306   5.178   6.021
 8024SOL    HW224972   1.249   5.306   5.938
 8025SOL     OW24973   1.504   5.060   1.058
 8025SOL    HW124974   1.465   5.151   1.045
 8025SOL    HW224975   1.600   5.069   1.086
 8026SOL     OW24976   6.642   4.395   0.764
 8026SOL    HW124977   6.731   4.373   0.805
 8026SOL    HW224978   6.579   4.423   0.836
 8027SOL     OW24979   3.391   6.489   5.804
 8027SOL    HW124980   3.441   6.459   5.886
 8027SOL    HW224981   3.300   6.450   5.804
 8028SOL     OW24982   3.369   4.966   4.909
 8028SOL    HW124983   3.426   4.982   4.829
 8028SOL    HW224984   3.279   5.008   4.894
 8029SOL     OW24985   4.810   2.286   2.079
 8029SOL    HW124986   4.837   2.191   2.062
 8029SOL    HW224987   4.766   2.293   2.168
 8030SOL     OW24988   5.764   5.382   0.964
 8030SOL    HW124989   5.840   5.438   0.933
 8030SOL    HW224990   5.731   5.415   1.052
 8031SOL     OW24991   6.923   6.376   2.905
 8031SOL    HW124992   6.904   6.474   2.892
 8031SOL    HW224993   7.002   6.350   2.850
 8032SOL     OW24994   5.256   3.720   1.794
 8032SOL    HW124995   5.159   3.731   1.774
 8032SOL    HW224996   5.283   3.624   1.781
 8033SOL     OW24997   4.731   3.372   0.215
 8033SOL    HW124998   4.703   3.466   0.237
 8033SOL    HW224999   4.817   3.352   0.262
 8034SOL     OW25000   4.930   6.871   5.630
 8034SOL    HW125001   4.880   6.924   5.699
 8034SOL    HW225002   5.018   6.914   5.613
 8035SOL     OW25003   5.210   1.720   2.062
 8035SOL    HW125004   5.239   1.747   1.971
 8035SOL    HW225005   5.180   1.800   2.113
 8036SOL     OW25006   0.004   3.713   3.684
 8036SOL    HW125007   6.980   3.726   3.773
 8036SOL    HW225008   0.011   3.801   3.637
 8037SOL     OW25009   1.822   3.204   0.179
 8037SOL    HW125010   1.749   3.165   0.123
 8037SOL    HW225011   1.812   3.303   0.183
 8038SOL     OW25012   4.699   6.556   2.938
 8038SOL    HW125013   4.679   6.584   3.032
 8038SOL    HW225014   4.769   6.616   2.900
 8039SOL     OW25015   0.111   1.894   4.831
 8039SOL    HW125016   0.104   1.961   4.757
 8039SOL    HW225017   0.030   1.835   4.830
 8040SOL     OW25018   1.464   6.407   6.639
 8040SOL    HW125019   1.466   6.394   6.540
 8040SOL    HW225020   1.443   6.319   6.683
 8041SOL     OW25021   3.459   0.947   2.805
 8041SOL    HW125022   3.438   0.849   2.799
 8041SOL    HW225023   3.509   0.964   2.890
 8042SOL     OW25024   4.493   4.106   5.666
 8042SOL    HW125025   4.451   4.107   5.576
 8042SOL    HW225026   4.434   4.152   5.732
 8043SOL     OW25027   3.633   4.642   0.396
 8043SOL    HW125028   3.627   4.677   0.302
 8043SOL    HW225029   3.670   4.549   0.395
 8044SOL     OW25030   3.704   3.762   0.347
 8044SOL    HW125031   3.725   3.665   0.329
 8044SOL    HW225032   3.669   3.771   0.440
 8045SOL     OW25033   6.579   2.457   2.552
 8045SOL    HW125034   6.548   2.470   2.646
 8045SOL    HW225035   6.643   2.381   2.548
 8046SOL     OW25036   0.367   4.423   2.414
 8046SOL    HW125037   0.407   4.388   2.329
 8046SOL    HW225038   0.421   4.501   2.446
 8047SOL     OW25039   3.477   6.796   6.504
 8047SOL    HW125040   3.411   6.721   6.509
 8047SOL    HW225041   3.555   6.775   6.563
 8048SOL     OW25042   2.931   2.440   6.853
 8048SOL    HW125043   2.944   2.478   6.761
 8048SOL    HW225044   2.863   2.494   6.902
 8049SOL     OW25045   0.270   6.935   0.377
 8049SOL    HW125046   0.312   6.892   0.298
 8049SOL    HW225047   0.192   6.880   0.408
 8050SOL     OW25048   2.072   3.427   4.422
 8050SOL    HW125049   2.138   3.496   4.452
 8050SOL    HW225050   1.987   3.437   4.474
 8051SOL     OW25051   4.957   6.298   4.481
 8051SOL    HW125052   4.955   6.371   4.549
 8051SOL    HW225053   4.938   6.211   4.526
 8052SOL     OW25054   2.576   2.085   1.465
 8052SOL    HW125055   2.676   2.091   1.460
 8052SOL    HW225056   2.536   2.124   1.381
 8053SOL     OW25057   3.209   2.952   5.151
 8053SOL    HW125058   3.251   3.009   5.220
 8053SOL    HW225059   3.206   3.001   5.064
 8054SOL     OW25060   0.038   4.204   4.364
 8054SOL    HW125061   0.083   4.183   4.451
 8054SOL    HW225062   6.958   4.204   4.377
 8055SOL     OW25063   6.679   0.536   5.399
 8055SOL    HW125064   6.599   0.593   5.417
 8055SOL    HW225065   6.678   0.457   5.461
 8056SOL     OW25066   3.247   0.218   4.827
 8056SOL    HW125067   3.347   0.221   4.837
 8056SOL    HW225068   3.216   0.300   4.779
 8057SOL     OW25069   2.492   2.485   2.873
 8057SOL    HW125070   2.480   2.549   2.949
 8057SOL    HW225071   2.523   2.534   2.792
 8058SOL     OW25072   3.169   6.405   2.548
 8058SOL    HW125073   3.187   6.459   2.466
 8058SOL    HW225074   3.224   6.322   2.546
 8059SOL     OW25075   2.825   0.459   5.476
 8059SOL    HW125076   2.741   0.462   5.423
 8059SOL    HW225077   2.846   0.551   5.510
 8060SOL     OW25078   0.527   2.033   6.134
 8060SOL    HW125079   0.560   2.102   6.198
 8060SOL    HW225080   0.511   2.074   6.045
 8061SOL     OW25081   0.739   0.833   2.465
 8061SOL    HW125082   0.750   0.818   2.563
 8061SOL    HW225083   0.731   0.931   2.447
 8062SOL     OW25084   4.233   5.240   4.465
 8062SOL    HW125085   4.209   5.321   4.412
 8062SOL    HW225086   4.269   5.169   4.404
 8063SOL     OW25087   2.972   0.933   3.062
 8063SOL    HW125088   3.043   1.003   3.055
 8063SOL    HW225089   2.886   0.969   3.025
 8064SOL     OW25090   5.957   2.289   0.146
 8064SOL    HW125091   5.859   2.312   0.151
 8064SOL    HW225092   5.974   2.237   0.062
 8065SOL     OW25093   2.965   6.420   4.602
 8065SOL    HW125094   2.979   6.384   4.694
 8065SOL    HW225095   3.045   6.398   4.545
 8066SOL     OW25096   6.566   0.141   4.817
 8066SOL    HW125097   6.632   0.216   4.804
 8066SOL    HW225098   6.616   0.055   4.827
 8067SOL     OW25099   5.163   2.335   3.043
 8067SOL    HW125100   5.106   2.412   3.073
 8067SOL    HW225101   5.124   2.295   2.960
 8068SOL     OW25102   0.405   4.835   1.122
 8068SOL    HW125103   0.358   4.835   1.034
 8068SOL    HW225104   0.352   4.888   1.189
 8069SOL     OW25105   2.085   4.444   1.791
 8069SOL    HW125106   2.093   4.401   1.701
 8069SOL    HW225107   2.102   4.542   1.783
 8070SOL     OW25108   3.903   2.811   6.970
 8070SOL    HW125109   3.875   2.904   6.990
 8070SOL    HW225110   3.851   2.747   0.008
 8071SOL     OW25111   3.043   6.555   5.364
 8071SOL    HW125112   2.964   6.497   5.382
 8071SOL    HW225113   3.119   6.498   5.331
 8072SOL     OW25114   3.417   1.770   1.159
 8072SOL    HW125115   3.413   1.673   1.183
 8072SOL    HW225116   3.423   1.780   1.059
 8073SOL     OW25117   3.071   5.783   5.293
 8073SOL    HW125118   3.135   5.830   5.354
 8073SOL    HW225119   2.979   5.822   5.304
 8074SOL     OW25120   2.506   1.350   0.953
 8074SOL    HW125121   2.519   1.279   0.884
 8074SOL    HW225122   2.496   1.439   0.908
 8075SOL     OW25123   0.055   0.706   0.245
 8075SOL    HW125124   7.007   0.773   0.213
 8075SOL    HW225125   0.035   0.681   0.339
 8076SOL     OW25126   6.035   7.009   5.404
 8076SOL    HW125127   6.016   0.078   5.447
 8076SOL    HW225128   5.973   6.940   5.442
 8077SOL     OW25129   3.190   6.113   2.589
 8077SOL    HW125130   3.276   6.064   2.571
 8077SOL    HW225131   3.143   6.130   2.502
 8078SOL     OW25132   0.599   1.981   1.720
 8078SOL    HW125133   0.609   2.072   1.760
 8078SOL    HW225134   0.542   1.986   1.639
 8079SOL     OW25135   6.705   1.169   3.579
 8079SOL    HW125136   6.690   1.263   3.547
 8079SOL    HW225137   6.746   1.115   3.506
 8080SOL     OW25138   1.089   2.280   2.246
 8080SOL    HW125139   1.113   2.341   2.322
 8080SOL    HW225140   1.134   2.192   2.260
 8081SOL     OW25141   6.254   5.451   6.012
 8081SOL    HW125142   6.292   5.359   6.022
 8081SOL    HW225143   6.166   5.445   5.965
 8082SOL     OW25144   3.376   0.497   2.472
 8082SOL    HW125145   3.321   0.484   2.390
 8082SOL    HW225146   3.471   0.514   2.445
 8083SOL     OW25147   5.303   2.549   3.886
 8083SOL    HW125148   5.237   2.604   3.938
 8083SOL    HW225149   5.291   2.452   3.909
 8084SOL     OW25150   2.401   0.516   0.020
 8084SOL    HW125151   2.358   0.453   6.975
 8084SOL    HW225152   2.438   0.594   6.990
 8085SOL     OW25153   5.947   5.787   2.534
 8085SOL    HW125154   5.997   5.864   2.573
 8085SOL    HW225155   5.887   5.820   2.461
 8086SOL     OW25156   0.127   0.483   1.440
 8086SOL    HW125157   0.055   0.430   1.485
 8086SOL    HW225158   0.120   0.471   1.341
 8087SOL     OW25159   1.436   0.423   0.155
 8087SOL    HW125160   1.399   0.346   0.102
 8087SOL    HW225161   1.504   0.388   0.220
 8088SOL     OW25162   5.357   0.616   0.355
 8088SOL    HW125163   5.320   0.524   0.369
 8088SOL    HW225164   5.284   0.676   0.322
 8089SOL     OW25165   5.613   2.988   6.687
 8089SOL    HW125166   5.654   3.041   6.612
 8089SOL    HW225167   5.680   2.924   6.723
 8090SOL     OW25168   3.849   1.137   6.218
 8090SOL    HW125169   3.922   1.205   6.207
 8090SOL    HW225170   3.860   1.090   6.305
 8091SOL     OW25171   1.372   3.571   4.868
 8091SOL    HW125172   1.371   3.516   4.952
 8091SOL    HW225173   1.389   3.667   4.890
 8092SOL     OW25174   4.987   1.979   5.085
 8092SOL    HW125175   5.000   1.895   5.137
 8092SOL    HW225176   4.947   1.956   4.996
 8093SOL     OW25177   2.764   5.269   3.272
 8093SOL    HW125178   2.802   5.349   3.317
 8093SOL    HW225179   2.670   5.287   3.244
 8094SOL     OW25180   0.417   2.714   4.972
 8094SOL    HW125181   0.332   2.746   4.931
 8094SOL    HW225182   0.495   2.752   4.923
 8095SOL     OW25183   0.911   4.234   5.077
 8095SOL    HW125184   0.835   4.250   5.014
 8095SOL    HW225185   0.929   4.136   5.083
 8096SOL     OW25186   2.366   0.620   2.480
 8096SOL    HW125187   2.335   0.579   2.566
 8096SOL    HW225188   2.290   0.669   2.437
 8097SOL     OW25189   4.720   6.816   4.561
 8097SOL    HW125190   4.662   6.738   4.538
 8097SOL    HW225191   4.797   6.784   4.617
 8098SOL     OW25192   2.312   6.372   4.045
 8098SOL    HW125193   2.321   6.377   4.144
 8098SOL    HW225194   2.380   6.432   4.002
 8099SOL     OW25195   4.789   6.525   4.372
 8099SOL    HW125196   4.834   6.437   4.389
 8099SOL    HW225197   4.852   6.585   4.323
 8100SOL     OW25198   6.870   1.628   6.618
 8100SOL    HW125199   6.836   1.571   6.544
 8100SOL    HW225200   6.794   1.676   6.661
 8101SOL     OW25201   1.539   5.810   0.875
 8101SOL    HW125202   1.623   5.864   0.879
 8101SOL    HW225203   1.562   5.713   0.886
 8102SOL     OW25204   0.792   3.630   2.845
 8102SOL    HW125205   0.862   3.649   2.776
 8102SOL    HW225206   0.705   3.609   2.799
 8103SOL     OW25207   3.652   0.162   1.690
 8103SOL    HW125208   3.732   0.220   1.679
 8103SOL    HW225209   3.587   0.179   1.616
 8104SOL     OW25210   1.370   0.699   6.446
 8104SOL    HW125211   1.455   0.646   6.446
 8104SOL    HW225212   1.375   0.770   6.516
 8105SOL     OW25213   6.752   2.950   2.556
 8105SOL    HW125214   6.687   2.962   2.630
 8105SOL    HW225215   6.773   3.039   2.516
 8106SOL     OW25216   2.882   5.907   3.140
 8106SOL    HW125217   2.962   5.951   3.100
 8106SOL    HW225218   2.799   5.950   3.104
 8107SOL     OW25219   1.079   5.312   3.931
 8107SOL    HW125220   1.087   5.379   4.005
 8107SOL    HW225221   1.152   5.327   3.864
 8108SOL     OW25222   6.601   2.675   6.591
 8108SOL    HW125223   6.540   2.726   6.652
 8108SOL    HW225224   6.564   2.675   6.499
 8109SOL     OW25225   0.214   3.552   6.465
 8109SOL    HW125226   0.163   3.470   6.492
 8109SOL    HW225227   0.174   3.590   6.381
 8110SOL     OW25228   4.121   5.888   2.082
 8110SOL    HW125229   4.098   5.925   2.171
 8110SOL    HW225230   4.125   5.962   2.015
 8111SOL     OW25231   4.719   1.583   4.764
 8111SOL    HW125232   4.654   1.621   4.698
 8111SOL    HW225233   4.811   1.617   4.744
 8112SOL     OW25234   2.465   2.458   4.230
 8112SOL    HW125235   2.455   2.547   4.185
 8112SOL    HW225236   2.473   2.472   4.329
 8113SOL     OW25237   0.456   3.951   0.748
 8113SOL    HW125238   0.435   3.873   0.807
 8113SOL    HW225239   0.373   4.002   0.729
 8114SOL     OW25240   1.877   3.639   2.570
 8114SOL    HW125241   1.858   3.605   2.662
 8114SOL    HW225242   1.824   3.723   2.555
 8115SOL     OW25243   3.482   6.976   6.292
 8115SOL    HW125244   3.477   6.918   6.373
 8115SOL    HW225245   3.530   0.042   6.315
 8116SOL     OW25246   3.852   4.824   0.408
 8116SOL    HW125247   3.938   4.869   0.433
 8116SOL    HW225248   3.837   4.832   0.310
 8117SOL     OW25249   1.928   0.235   3.141
 8117SOL    HW125250   1.892   0.142   3.148
 8117SOL    HW225251   2.016   0.234   3.094
 8118SOL     OW25252   5.287   3.884   5.871
 8118SOL    HW125253   5.217   3.816   5.892
 8118SOL    HW225254   5.284   3.957   5.939
 8119SOL     OW25255   5.349   6.542   6.454
 8119SOL    HW125256   5.358   6.640   6.471
 8119SOL    HW225257   5.265   6.525   6.401
 8120SOL     OW25258   3.064   4.472   0.944
 8120SOL    HW125259   3.026   4.564   0.936
 8120SOL    HW225260   2.991   4.405   0.933
 8121SOL     OW25261   0.762   5.006   1.499
 8121SOL    HW125262   0.828   4.951   1.447
 8121SOL    HW225263   0.792   5.101   1.501
 8122SOL     OW25264   0.067   4.834   2.941
 8122SOL    HW125265   7.006   4.886   2.909
 8122SOL    HW225266   0.139   4.898   2.967
 8123SOL     OW25267   6.763   2.213   6.690
 8123SOL    HW125268   6.754   2.174   6.781
 8123SOL    HW225269   6.696   2.286   6.678
 8124SOL     OW25270   4.847   6.119   2.242
 8124SOL    HW125271   4.841   6.153   2.336
 8124SOL    HW225272   4.853   6.019   2.243
 8125SOL     OW25273   1.358   1.791   3.054
 8125SOL    HW125274   1.301   1.712   3.076
 8125SOL    HW225275   1.316   1.841   2.978
 8126SOL     OW25276   5.250   5.423   3.370
 8126SOL    HW125277   5.151   5.414   3.373
 8126SOL    HW225278   5.288   5.350   3.313
 8127SOL     OW25279   2.630   3.713   6.272
 8127SOL    HW125280   2.638   3.636   6.210
 8127SOL    HW225281   2.552   3.699   6.334
 8128SOL     OW25282   2.880   2.122   2.287
 8128SOL    HW125283   2.923   2.197   2.237
 8128SOL    HW225284   2.800   2.090   2.237
 8129SOL     OW25285   3.465   1.340   5.934
 8129SOL    HW125286   3.421   1.428   5.912
 8129SOL    HW225287   3.563   1.347   5.918
 8130SOL     OW25288   0.615   4.977   6.703
 8130SOL    HW125289   0.675   5.056   6.709
 8130SOL    HW225290   0.529   4.996   6.751
 8131SOL     OW25291   2.445   1.495   1.542
 8131SOL    HW125292   2.400   1.547   1.470
 8131SOL    HW225293   2.542   1.519   1.545
 8132SOL     OW25294   5.180   6.890   4.953
 8132SOL    HW125295   5.241   6.935   4.887
 8132SOL    HW225296   5.201   6.793   4.957
 8133SOL     OW25297   2.788   5.106   2.341
 8133SOL    HW125298   2.848   5.179   2.308
 8133SOL    HW225299   2.841   5.021   2.349
 8134SOL     OW25300   0.236   1.772   6.381
 8134SOL    HW125301   0.233   1.872   6.392
 8134SOL    HW225302   0.201   1.729   6.464
 8135SOL     OW25303   2.574   0.327   1.654
 8135SOL    HW125304   2.620   0.238   1.646
 8135SOL    HW225305   2.509   0.324   1.730
 8136SOL     OW25306   4.389   5.345   2.538
 8136SOL    HW125307   4.422   5.305   2.624
 8136SOL    HW225308   4.348   5.274   2.482
 8137SOL     OW25309   3.056   1.313   5.168
 8137SOL    HW125310   3.117   1.319   5.246
 8137SOL    HW225311   3.083   1.236   5.110
 8138SOL     OW25312   5.417   1.217   1.421
 8138SOL    HW125313   5.375   1.260   1.342
 8138SOL    HW225314   5.445   1.123   1.397
 8139SOL     OW25315   0.347   0.661   2.046
 8139SOL    HW125316   0.400   0.678   1.963
 8139SOL    HW225317   0.290   0.741   2.067
 8140SOL     OW25318   6.112   0.428   5.835
 8140SOL    HW125319   6.016   0.419   5.809
 8140SOL    HW225320   6.137   0.525   5.834
 8141SOL     OW25321   4.361   5.301   5.044
 8141SOL    HW125322   4.402   5.260   4.962
 8141SOL    HW225323   4.386   5.398   5.048
 8142SOL     OW25324   0.376   5.441   0.229
 8142SOL    HW125325   0.282   5.416   0.207
 8142SOL    HW225326   0.396   5.415   0.324
 8143SOL     OW25327   6.086   4.339   0.621
 8143SOL    HW125328   6.111   4.324   0.525
 8143SOL    HW225329   5.987   4.332   0.631
 8144SOL     OW25330   5.878   6.282   6.965
 8144SOL    HW125331   5.876   6.267   0.044
 8144SOL    HW225332   5.915   6.201   6.919
 8145SOL     OW25333   4.848   5.956   1.796
 8145SOL    HW125334   4.863   6.051   1.769
 8145SOL    HW225335   4.863   5.947   1.895
 8146SOL     OW25336   4.006   0.762   4.975
 8146SOL    HW125337   4.018   0.753   5.073
 8146SOL    HW225338   4.090   0.799   4.934
 8147SOL     OW25339   5.893   2.520   2.550
 8147SOL    HW125340   5.870   2.591   2.484
 8147SOL    HW225341   5.987   2.489   2.535
 8148SOL     OW25342   5.126   4.169   1.568
 8148SOL    HW125343   5.210   4.154   1.621
 8148SOL    HW225344   5.093   4.262   1.584
 8149SOL     OW25345   2.137   5.953   1.917
 8149SOL    HW125346   2.064   5.945   1.985
 8149SOL    HW225347   2.210   6.011   1.953
 8150SOL     OW25348   0.371   5.025   6.794
 8150SOL    HW125349   0.327   5.100   6.745
 8150SOL    HW225350   0.317   4.942   6.782
 8151SOL     OW25351   6.637   2.241   1.620
 8151SOL    HW125352   6.625   2.236   1.719
 8151SOL    HW225353   6.720   2.292   1.599
 8152SOL     OW25354   0.589   2.256   2.802
 8152SOL    HW125355   0.492   2.234   2.809
 8152SOL    HW225356   0.639   2.214   2.878
 8153SOL     OW25357   3.870   0.412   3.002
 8153SOL    HW125358   3.876   0.415   3.102
 8153SOL    HW225359   3.898   0.322   2.969
 8154SOL     OW25360   3.000   5.786   3.646
 8154SOL    HW125361   2.968   5.794   3.551
 8154SOL    HW225362   3.071   5.715   3.651
 8155SOL     OW25363   2.567   3.377   1.770
 8155SOL    HW125364   2.477   3.409   1.798
 8155SOL    HW225365   2.558   3.316   1.691
 8156SOL     OW25366   4.818   0.106   6.018
 8156SOL    HW125367   4.771   0.060   6.093
 8156SOL    HW225368   4.764   0.186   5.989
 8157SOL     OW25369   5.934   5.503   6.296
 8157SOL    HW125370   6.026   5.474   6.273
 8157SOL    HW225371   5.897   5.559   6.222
 8158SOL     OW25372   0.499   5.636   1.270
 8158SOL    HW125373   0.461   5.713   1.218
 8158SOL    HW225374   0.549   5.671   1.349
 8159SOL     OW25375   2.618   6.312   2.439
 8159SOL    HW125376   2.704   6.360   2.456
 8159SOL    HW225377   2.589   6.327   2.344
 8160SOL     OW25378   4.526   1.619   1.885
 8160SOL    HW125379   4.452   1.677   1.918
 8160SOL    HW225380   4.533   1.627   1.786
 8161SOL     OW25381   5.138   1.383   0.301
 8161SOL    HW125382   5.163   1.293   0.337
 8161SOL    HW225383   5.206   1.411   0.233
 8162SOL     OW25384   6.551   6.871   6.280
 8162SOL    HW125385   6.496   6.798   6.238
 8162SOL    HW225386   6.642   6.873   6.238
 8163SOL     OW25387   2.600   3.741   5.480
 8163SOL    HW125388   2.657   3.684   5.539
 8163SOL    HW225389   2.567   3.820   5.532
 8164SOL     OW25390   5.923   3.618   0.680
 8164SOL    HW125391   5.941   3.555   0.756
 8164SOL    HW225392   5.825   3.616   0.658
 8165SOL     OW25393   1.026   4.970   6.712
 8165SOL    HW125394   1.124   4.990   6.722
 8165SOL    HW225395   0.999   4.984   6.617
 8166SOL     OW25396   2.766   0.970   2.311
 8166SOL    HW125397   2.715   0.891   2.276
 8166SOL    HW225398   2.761   0.971   2.411
 8167SOL     OW25399   5.624   1.416   4.075
 8167SOL    HW125400   5.613   1.491   4.140
 8167SOL    HW225401   5.608   1.449   3.982
 8168SOL     OW25402   3.684   1.009   2.671
 8168SOL    HW125403   3.696   0.917   2.632
 8168SOL    HW225404   3.605   1.009   2.732
 8169SOL     OW25405   5.353   3.465   1.762
 8169SOL    HW125406   5.302   3.379   1.760
 8169SOL    HW225407   5.429   3.461   1.697
 8170SOL     OW25408   1.689   5.985   3.042
 8170SOL    HW125409   1.737   5.965   3.127
 8170SOL    HW225410   1.681   6.084   3.031
 8171SOL     OW25411   1.330   1.669   6.733
 8171SOL    HW125412   1.406   1.614   6.700
 8171SOL    HW225413   1.275   1.616   6.797
 8172SOL     OW25414   0.577   0.727   1.356
 8172SOL    HW125415   0.669   0.696   1.330
 8172SOL    HW225416   0.509   0.666   1.316
 8173SOL     OW25417   3.643   1.965   0.329
 8173SOL    HW125418   3.741   1.965   0.307
 8173SOL    HW225419   3.629   1.923   0.419
 8174SOL     OW25420   4.988   1.733   1.074
 8174SOL    HW125421   4.942   1.701   1.157
 8174SOL    HW225422   5.083   1.756   1.095
 8175SOL     OW25423   0.138   2.562   6.200
 8175SOL    HW125424   0.183   2.619   6.267
 8175SOL    HW225425   0.196   2.553   6.119
 8176SOL     OW25426   2.989   5.982   1.770
 8176SOL    HW125427   3.011   5.980   1.868
 8176SOL    HW225428   2.897   5.946   1.756
 8177SOL     OW25429   2.098   6.050   4.369
 8177SOL    HW125430   2.062   6.016   4.282
 8177SOL    HW225431   2.139   5.974   4.419
 8178SOL     OW25432   1.579   6.893   6.570
 8178SOL    HW125433   1.561   6.914   6.666
 8178SOL    HW225434   1.651   6.954   6.536
 8179SOL     OW25435   3.558   3.162   6.992
 8179SOL    HW125436   3.535   3.228   0.045
 8179SOL    HW225437   3.478   3.149   6.933
 8180SOL     OW25438   6.526   6.940   3.956
 8180SOL    HW125439   6.617   6.909   3.983
 8180SOL    HW225440   6.530   6.982   3.866
 8181SOL     OW25441   2.175   0.865   2.417
 8181SOL    HW125442   2.252   0.925   2.397
 8181SOL    HW225443   2.135   0.890   2.505
 8182SOL     OW25444   4.077   1.713   6.739
 8182SOL    HW125445   4.075   1.699   6.838
 8182SOL    HW225446   4.156   1.771   6.716
 8183SOL     OW25447   0.500   2.388   4.991
 8183SOL    HW125448   0.439   2.447   5.043
 8183SOL    HW225449   0.508   2.421   4.897
 8184SOL     OW25450   5.623   1.759   5.598
 8184SOL    HW125451   5.571   1.710   5.668
 8184SOL    HW225452   5.615   1.711   5.511
 8185SOL     OW25453   2.935   0.480   0.467
 8185SOL    HW125454   2.875   0.513   0.541
 8185SOL    HW225455   2.977   0.394   0.495
 8186SOL     OW25456   2.935   6.379   6.545
 8186SOL    HW125457   2.940   6.460   6.487
 8186SOL    HW225458   2.947   6.297   6.489
 8187SOL     OW25459   1.692   2.341   4.910
 8187SOL    HW125460   1.771   2.282   4.927
 8187SOL    HW225461   1.723   2.435   4.899
 8188SOL     OW25462   5.762   1.705   2.648
 8188SOL    HW125463   5.698   1.774   2.614
 8188SOL    HW225464   5.772   1.715   2.747
 8189SOL     OW25465   4.931   4.431   2.238
 8189SOL    HW125466   4.906   4.354   2.297
 8189SOL    HW225467   4.909   4.408   2.143
 8190SOL     OW25468   5.161   5.401   4.514
 8190SOL    HW125469   5.198   5.314   4.547
 8190SOL    HW225470   5.149   5.398   4.415
 8191SOL     OW25471   2.340   5.491   3.372
 8191SOL    HW125472   2.402   5.551   3.422
 8191SOL    HW225473   2.247   5.503   3.406
 8192SOL     OW25474   2.645   6.057   0.150
 8192SOL    HW125475   2.694   6.053   0.237
 8192SOL    HW225476   2.552   6.089   0.165
 8193SOL     OW25477   5.902   6.755   4.654
 8193SOL    HW125478   5.931   6.851   4.653
 8193SOL    HW225479   5.961   6.702   4.593
 8194SOL     OW25480   6.193   2.559   6.847
 8194SOL    HW125481   6.125   2.547   6.920
 8194SOL    HW225482   6.279   2.517   6.875
 8195SOL     OW25483   0.732   0.954   0.804
 8195SOL    HW125484   0.806   0.932   0.741
 8195SOL    HW225485   0.767   1.014   0.877
 8196SOL     OW25486   4.078   0.009   5.693
 8196SOL    HW125487   4.034   0.002   5.603
 8196SOL    HW225488   4.047   0.092   5.739
 8197SOL     OW25489   5.219   1.671   6.250
 8197SOL    HW125490   5.200   1.730   6.328
 8197SOL    HW225491   5.135   1.624   6.222
 8198SOL     OW25492   3.153   6.468   2.228
 8198SOL    HW125493   3.160   6.538   2.157
 8198SOL    HW225494   3.079   6.404   2.205
 8199SOL     OW25495   6.738   4.040   0.353
 8199SOL    HW125496   6.726   3.992   0.439
 8199SOL    HW225497   6.753   4.138   0.371
 8200SOL     OW25498   4.584   4.091   1.078
 8200SOL    HW125499   4.563   3.996   1.097
 8200SOL    HW225500   4.677   4.112   1.108
 8201SOL     OW25501   5.323   0.694   4.726
 8201SOL    HW125502   5.382   0.721   4.650
 8201SOL    HW225503   5.234   0.667   4.692
 8202SOL     OW25504   1.412   5.485   4.305
 8202SOL    HW125505   1.435   5.392   4.333
 8202SOL    HW225506   1.487   5.524   4.252
 8203SOL     OW25507   4.710   3.260   0.628
 8203SOL    HW125508   4.777   3.334   0.618
 8203SOL    HW225509   4.712   3.226   0.722
 8204SOL     OW25510   3.703   6.086   1.142
 8204SOL    HW125511   3.697   6.038   1.055
 8204SOL    HW225512   3.626   6.149   1.151
 8205SOL     OW25513   5.834   4.682   1.750
 8205SOL    HW125514   5.800   4.729   1.832
 8205SOL    HW225515   5.782   4.598   1.735
 8206SOL     OW25516   3.245   2.299   5.619
 8206SOL    HW125517   3.195   2.372   5.664
 8206SOL    HW225518   3.278   2.330   5.529
 8207SOL     OW25519   3.387   4.661   5.358
 8207SOL    HW125520   3.380   4.704   5.448
 8207SOL    HW225521   3.305   4.679   5.305
 8208SOL     OW25522   2.169   6.497   1.405
 8208SOL    HW125523   2.217   6.412   1.382
 8208SOL    HW225524   2.202   6.571   1.347
 8209SOL     OW25525   1.066   1.138   5.030
 8209SOL    HW125526   1.022   1.196   5.098
 8209SOL    HW225527   1.152   1.103   5.067
 8210SOL     OW25528   3.330   0.988   0.566
 8210SOL    HW125529   3.281   0.948   0.643
 8210SOL    HW225530   3.396   1.054   0.600
 8211SOL     OW25531   3.564   4.146   4.349
 8211SOL    HW125532   3.641   4.192   4.392
 8211SOL    HW225533   3.497   4.121   4.418
 8212SOL     OW25534   2.806   0.427   0.714
 8212SOL    HW125535   2.812   0.469   0.805
 8212SOL    HW225536   2.747   0.346   0.719
 8213SOL     OW25537   4.738   5.398   3.493
 8213SOL    HW125538   4.652   5.375   3.539
 8213SOL    HW225539   4.781   5.476   3.539
 8214SOL     OW25540   2.317   5.536   4.280
 8214SOL    HW125541   2.391   5.566   4.219
 8214SOL    HW225542   2.335   5.569   4.373
 8215SOL     OW25543   4.313   5.739   0.170
 8215SOL    HW125544   4.380   5.767   0.239
 8215SOL    HW225545   4.345   5.656   0.125
 8216SOL     OW25546   5.017   6.780   3.005
 8216SOL    HW125547   5.072   6.778   3.088
 8216SOL    HW225548   5.003   6.875   2.976
 8217SOL     OW25549   2.267   4.140   2.496
 8217SOL    HW125550   2.185   4.098   2.457
 8217SOL    HW225551   2.337   4.148   2.425
 8218SOL     OW25552   2.017   6.929   5.561
 8218SOL    HW125553   1.927   6.910   5.522
 8218SOL    HW225554   2.059   6.844   5.594
 8219SOL     OW25555   2.918   4.016   1.653
 8219SOL    HW125556   2.938   3.999   1.557
 8219SOL    HW225557   2.955   4.105   1.680
 8220SOL     OW25558   3.541   4.414   5.318
 8220SOL    HW125559   3.473   4.488   5.324
 8220SOL    HW225560   3.527   4.364   5.232
 8221SOL     OW25561   5.762   3.856   3.358
 8221SOL    HW125562   5.741   3.759   3.369
 8221SOL    HW225563   5.767   3.899   3.448
 8222SOL     OW25564   5.862   2.592   0.632
 8222SOL    HW125565   5.843   2.633   0.722
 8222SOL    HW225566   5.886   2.496   0.645
 8223SOL     OW25567   6.981   5.282   5.389
 8223SOL    HW125568   0.049   5.260   5.345
 8223SOL    HW225569   6.921   5.202   5.386
 8224SOL     OW25570   4.337   1.647   1.014
 8224SOL    HW125571   4.319   1.643   1.113
 8224SOL    HW225572   4.384   1.564   0.986
 8225SOL     OW25573   3.700   7.001   0.495
 8225SOL    HW125574   3.630   6.933   0.519
 8225SOL    HW225575   3.785   6.954   0.472
 8226SOL     OW25576   3.484   0.761   0.518
 8226SOL    HW125577   3.447   0.854   0.512
 8226SOL    HW225578   3.414   0.695   0.493
 8227SOL     OW25579   5.719   1.182   2.454
 8227SOL    HW125580   5.703   1.270   2.499
 8227SOL    HW225581   5.658   1.114   2.493
 8228SOL     OW25582   0.689   1.279   5.321
 8228SOL    HW125583   0.599   1.275   5.276
 8228SOL    HW225584   0.719   1.187   5.344
 8229SOL     OW25585   4.245   4.857   0.997
 8229SOL    HW125586   4.314   4.924   1.024
 8229SOL    HW225587   4.275   4.765   1.022
 8230SOL     OW25588   4.322   6.817   5.595
 8230SOL    HW125589   4.303   6.895   5.654
 8230SOL    HW225590   4.418   6.788   5.607
 8231SOL     OW25591   3.589   1.420   2.397
 8231SOL    HW125592   3.670   1.400   2.341
 8231SOL    HW225593   3.512   1.366   2.364
 8232SOL     OW25594   5.383   1.333   2.141
 8232SOL    HW125595   5.423   1.249   2.105
 8232SOL    HW225596   5.394   1.336   2.241
 8233SOL     OW25597   0.842   0.414   5.609
 8233SOL    HW125598   0.899   0.462   5.541
 8233SOL    HW225599   0.875   0.437   5.701
 8234SOL     OW25600   3.135   3.063   0.152
 8234SOL    HW125601   3.176   3.154   0.138
 8234SOL    HW225602   3.037   3.072   0.166
 8235SOL     OW25603   6.902   4.873   6.762
 8235SOL    HW125604   6.949   4.871   6.850
 8235SOL    HW225605   6.816   4.823   6.769
 8236SOL     OW25606   0.093   6.227   5.944
 8236SOL    HW125607   0.043   6.246   5.860
 8236SOL    HW225608   0.113   6.129   5.950
 8237SOL     OW25609   4.322   5.321   6.293
 8237SOL    HW125610   4.306   5.356   6.201
 8237SOL    HW225611   4.354   5.396   6.352
 8238SOL     OW25612   1.463   5.791   6.968
 8238SOL    HW125613   1.489   5.814   0.043
 8238SOL    HW225614   1.402   5.861   6.933
 8239SOL     OW25615   0.237   1.102   4.803
 8239SOL    HW125616   0.312   1.093   4.738
 8239SOL    HW225617   0.224   1.016   4.853
 8240SOL     OW25618   3.033   3.126   3.176
 8240SOL    HW125619   3.026   3.143   3.078
 8240SOL    HW225620   3.018   3.028   3.193
 8241SOL     OW25621   1.543   3.158   0.501
 8241SOL    HW125622   1.459   3.104   0.492
 8241SOL    HW225623   1.584   3.140   0.590
 8242SOL     OW25624   0.911   3.798   4.466
 8242SOL    HW125625   0.873   3.846   4.545
 8242SOL    HW225626   0.998   3.840   4.440
 8243SOL     OW25627   0.282   4.775   5.938
 8243SOL    HW125628   0.375   4.766   5.973
 8243SOL    HW225629   0.239   4.685   5.933
 8244SOL     OW25630   1.006   0.544   3.399
 8244SOL    HW125631   0.970   0.454   3.376
 8244SOL    HW225632   0.943   0.590   3.461
 8245SOL     OW25633   4.611   1.788   3.606
 8245SOL    HW125634   4.709   1.804   3.603
 8245SOL    HW225635   4.578   1.766   3.514
 8246SOL     OW25636   1.005   3.955   6.764
 8246SOL    HW125637   1.025   3.870   6.812
 8246SOL    HW225638   0.980   4.026   6.830
 8247SOL     OW25639   2.984   4.973   3.678
 8247SOL    HW125640   3.060   4.954   3.616
 8247SOL    HW225641   2.922   5.039   3.636
 8248SOL     OW25642   1.224   6.030   3.951
 8248SOL    HW125643   1.275   5.948   3.925
 8248SOL    HW225644   1.278   6.111   3.930
 8249SOL     OW25645   2.355   1.986   5.359
 8249SOL    HW125646   2.265   1.983   5.403
 8249SOL    HW225647   2.412   2.054   5.403
 8250SOL     OW25648   2.852   1.705   0.890
 8250SOL    HW125649   2.860   1.684   0.792
 8250SOL    HW225650   2.844   1.620   0.942
 8251SOL     OW25651   6.517   2.044   4.821
 8251SOL    HW125652   6.477   2.120   4.873
 8251SOL    HW225653   6.585   1.997   4.878
 8252SOL     OW25654   2.167   2.163   6.519
 8252SOL    HW125655   2.190   2.183   6.615
 8252SOL    HW225656   2.165   2.248   6.467
 8253SOL     OW25657   3.868   5.865   6.146
 8253SOL    HW125658   3.805   5.858   6.068
 8253SOL    HW225659   3.947   5.805   6.131
 8254SOL     OW25660   5.939   4.708   6.388
 8254SOL    HW125661   6.034   4.699   6.358
 8254SOL    HW225662   5.923   4.801   6.421
 8255SOL     OW25663   0.568   6.818   6.717
 8255SOL    HW125664   0.604   6.773   6.636
 8255SOL    HW225665   0.469   6.833   6.706
 8256SOL     OW25666   0.539   6.769   3.053
 8256SOL    HW125667   0.552   6.828   3.133
 8256SOL    HW225668   0.548   6.674   3.080
 8257SOL     OW25669   5.746   4.375   4.399
 8257SOL    HW125670   5.785   4.391   4.308
 8257SOL    HW225671   5.648   4.392   4.397
 8258SOL     OW25672   5.529   2.873   1.097
 8258SOL    HW125673   5.610   2.849   1.151
 8258SOL    HW225674   5.458   2.909   1.157
 8259SOL     OW25675   4.359   1.934   4.338
 8259SOL    HW125676   4.321   1.876   4.411
 8259SOL    HW225677   4.418   2.003   4.379
 8260SOL     OW25678   2.238   6.560   0.043
 8260SOL    HW125679   2.223   6.544   0.140
 8260SOL    HW225680   2.332   6.591   0.029
 8261SOL     OW25681   5.593   6.488   3.176
 8261SOL    HW125682   5.615   6.501   3.273
 8261SOL    HW225683   5.494   6.491   3.163
 8262SOL     OW25684   0.424   5.030   0.694
 8262SOL    HW125685   0.354   5.101   0.696
 8262SOL    HW225686   0.462   5.023   0.602
 8263SOL     OW25687   6.726   3.205   6.564
 8263SOL    HW125688   6.706   3.281   6.503
 8263SOL    HW225689   6.749   3.124   6.510
 8264SOL     OW25690   1.767   0.041   1.365
 8264SOL    HW125691   1.791   0.060   1.460
 8264SOL    HW225692   1.777   0.125   1.310
 8265SOL     OW25693   4.084   0.573   1.632
 8265SOL    HW125694   4.065   0.475   1.621
 8265SOL    HW225695   4.182   0.587   1.642
 8266SOL     OW25696   2.982   6.918   4.629
 8266SOL    HW125697   2.934   6.985   4.572
 8266SOL    HW225698   3.078   6.942   4.635
 8267SOL     OW25699   1.525   4.848   2.282
 8267SOL    HW125700   1.623   4.829   2.268
 8267SOL    HW225701   1.487   4.781   2.345
 8268SOL     OW25702   2.760   3.774   6.785
 8268SOL    HW125703   2.728   3.850   6.728
 8268SOL    HW225704   2.700   3.764   6.864
 8269SOL     OW25705   4.723   2.872   3.032
 8269SOL    HW125706   4.751   2.934   3.105
 8269SOL    HW225707   4.701   2.782   3.072
 8270SOL     OW25708   2.894   6.927   5.744
 8270SOL    HW125709   2.882   0.007   5.745
 8270SOL    HW225710   2.896   6.892   5.837
 8271SOL     OW25711   5.633   6.191   4.611
 8271SOL    HW125712   5.575   6.271   4.592
 8271SOL    HW225713   5.601   6.114   4.557
 8272SOL     OW25714   0.771   0.317   2.400
 8272SOL    HW125715   0.706   0.274   2.462
 8272SOL    HW225716   0.837   0.249   2.367
 8273SOL     OW25717   2.953   7.013   0.041
 8273SOL    HW125718   2.895   0.042   0.107
 8273SOL    HW225719   3.049   0.019   0.057
 8274SOL     OW25720   3.897   4.964   7.006
 8274SOL    HW125721   3.990   4.939   0.014
 8274SOL    HW225722   3.892   4.969   6.906
 8275SOL     OW25723   6.882   0.180   4.535
 8275SOL    HW125724   6.801   0.142   4.491
 8275SOL    HW225725   6.962   0.126   4.510
 8276SOL     OW25726   6.899   2.659   5.507
 8276SOL    HW125727   6.969   2.611   5.455
 8276SOL    HW225728   6.886   2.751   5.469
 8277SOL     OW25729   1.586   6.002   5.636
 8277SOL    HW125730   1.636   6.014   5.550
 8277SOL    HW225731   1.507   5.942   5.621
 8278SOL     OW25732   3.375   1.143   6.082
 8278SOL    HW125733   3.289   1.122   6.035
 8278SOL    HW225734   3.421   1.218   6.034
 8279SOL     OW25735   4.978   5.903   6.953
 8279SOL    HW125736   5.017   5.894   6.861
 8279SOL    HW225737   5.007   5.825   7.009
 8280SOL     OW25738   4.837   2.734   0.257
 8280SOL    HW125739   4.915   2.691   0.212
 8280SOL    HW225740   4.782   2.664   0.303
 8281SOL     OW25741   1.925   4.626   0.304
 8281SOL    HW125742   1.954   4.720   0.283
 8281SOL    HW225743   2.006   4.569   0.318
 8282SOL     OW25744   2.546   2.212   1.068
 8282SOL    HW125745   2.530   2.280   0.997
 8282SOL    HW225746   2.638   2.174   1.058
 8283SOL     OW25747   0.698   5.235   3.655
 8283SOL    HW125748   0.710   5.152   3.600
 8283SOL    HW225749   0.703   5.315   3.597
 8284SOL     OW25750   1.905   2.509   2.842
 8284SOL    HW125751   1.814   2.528   2.807
 8284SOL    HW225752   1.951   2.594   2.866
 8285SOL     OW25753   3.315   3.875   6.045
 8285SOL    HW125754   3.411   3.884   6.019
 8285SOL    HW225755   3.259   3.934   5.986
 8286SOL     OW25756   5.628   0.856   4.815
 8286SOL    HW125757   5.573   0.798   4.874
 8286SOL    HW225758   5.585   0.864   4.726
 8287SOL     OW25759   1.362   6.616   4.368
 8287SOL    HW125760   1.324   6.677   4.298
 8287SOL    HW225761   1.302   6.616   4.448
 8288SOL     OW25762   1.974   2.165   2.372
 8288SOL    HW125763   1.998   2.198   2.464
 8288SOL    HW225764   2.058   2.157   2.318
 8289SOL     OW25765   6.050   1.358   5.580
 8289SOL    HW125766   6.060   1.362   5.480
 8289SOL    HW225767   5.988   1.430   5.609
 8290SOL     OW25768   3.599   2.757   1.511
 8290SOL    HW125769   3.612   2.849   1.549
 8290SOL    HW225770   3.602   2.762   1.411
 8291SOL     OW25771   5.620   6.738   6.551
 8291SOL    HW125772   5.608   6.640   6.567
 8291SOL    HW225773   5.531   6.784   6.555
 8292SOL     OW25774   1.692   4.948   5.779
 8292SOL    HW125775   1.640   4.996   5.708
 8292SOL    HW225776   1.754   4.882   5.737
 8293SOL     OW25777   1.899   4.728   1.956
 8293SOL    HW125778   1.890   4.742   1.857
 8293SOL    HW225779   1.994   4.743   1.983
 8294SOL     OW25780   0.075   3.845   5.378
 8294SOL    HW125781   0.034   3.819   5.466
 8294SOL    HW225782   0.050   3.939   5.357
 8295SOL     OW25783   4.835   3.873   3.747
 8295SOL    HW125784   4.827   3.896   3.650
 8295SOL    HW225785   4.823   3.956   3.802
 8296SOL     OW25786   3.439   5.790   6.636
 8296SOL    HW125787   3.422   5.858   6.564
 8296SOL    HW225788   3.443   5.836   6.725
 8297SOL     OW25789   6.083   3.932   2.393
 8297SOL    HW125790   5.996   3.926   2.441
 8297SOL    HW225791   6.145   3.860   2.425
 8298SOL     OW25792   0.702   0.843   6.631
 8298SOL    HW125793   0.798   0.857   6.656
 8298SOL    HW225794   0.661   0.778   6.695
 8299SOL     OW25795   0.016   4.037   2.158
 8299SOL    HW125796   0.060   4.001   2.240
 8299SOL    HW225797   6.945   3.994   2.147
 8300SOL     OW25798   5.770   5.424   4.639
 8300SOL    HW125799   5.837   5.350   4.629
 8300SOL    HW225800   5.683   5.396   4.597
 8301SOL     OW25801   4.333   0.201   6.879
 8301SOL    HW125802   4.404   0.268   6.860
 8301SOL    HW225803   4.354   0.153   6.964
 8302SOL     OW25804   3.037   6.405   4.869
 8302SOL    HW125805   3.017   6.411   4.967
 8302SOL    HW225806   3.131   6.434   4.852
 8303SOL     OW25807   6.727   0.384   2.329
 8303SOL    HW125808   6.764   0.295   2.302
 8303SOL    HW225809   6.665   0.373   2.406
 8304SOL     OW25810   5.616   4.190   3.678
 8304SOL    HW125811   5.660   4.126   3.741
 8304SOL    HW225812   5.657   4.181   3.587
 8305SOL     OW25813   4.617   5.741   4.245
 8305SOL    HW125814   4.536   5.784   4.283
 8305SOL    HW225815   4.613   5.642   4.262
 8306SOL     OW25816   6.488   0.947   2.814
 8306SOL    HW125817   6.552   0.971   2.741
 8306SOL    HW225818   6.539   0.932   2.899
 8307SOL     OW25819   1.315   4.788   1.253
 8307SOL    HW125820   1.296   4.850   1.330
 8307SOL    HW225821   1.282   4.829   1.168
 8308SOL     OW25822   1.346   4.342   0.517
 8308SOL    HW125823   1.423   4.384   0.470
 8308SOL    HW225824   1.313   4.264   0.464
 8309SOL     OW25825   6.726   4.882   4.841
 8309SOL    HW125826   6.778   4.797   4.857
 8309SOL    HW225827   6.629   4.864   4.854
 8310SOL     OW25828   0.358   6.684   0.647
 8310SOL    HW125829   0.438   6.647   0.694
 8310SOL    HW225830   0.359   6.784   0.655
 8311SOL     OW25831   5.359   6.256   3.787
 8311SOL    HW125832   5.288   6.310   3.833
 8311SOL    HW225833   5.387   6.180   3.846
 8312SOL     OW25834   4.938   6.968   0.544
 8312SOL    HW125835   4.934   0.048   0.553
 8312SOL    HW225836   5.005   6.944   0.474
 8313SOL     OW25837   3.850   6.592   5.586
 8313SOL    HW125838   3.836   6.686   5.619
 8313SOL    HW225839   3.924   6.549   5.637
 8314SOL     OW25840   5.198   6.312   6.627
 8314SOL    HW125841   5.237   6.404   6.623
 8314SOL    HW225842   5.164   6.286   6.537
 8315SOL     OW25843   3.605   3.494   3.992
 8315SOL    HW125844   3.699   3.493   3.959
 8315SOL    HW225845   3.577   3.401   4.016
 8316SOL     OW25846   1.363   3.336   0.098
 8316SOL    HW125847   1.456   3.363   0.073
 8316SOL    HW225848   1.302   3.350   0.021
 8317SOL     OW25849   1.915   2.151   4.874
 8317SOL    HW125850   1.952   2.176   4.964
 8317SOL    HW225851   1.981   2.091   4.828
 8318SOL     OW25852   4.061   0.939   6.095
 8318SOL    HW125853   4.070   0.844   6.125
 8318SOL    HW225854   3.986   0.983   6.145
 8319SOL     OW25855   1.295   0.221   6.197
 8319SOL    HW125856   1.327   0.308   6.159
 8319SOL    HW225857   1.277   0.157   6.123
 8320SOL     OW25858   3.038   4.009   4.232
 8320SOL    HW125859   3.027   4.102   4.196
 8320SOL    HW225860   3.133   3.995   4.258
 8321SOL     OW25861   6.817   0.461   6.845
 8321SOL    HW125862   6.899   0.509   6.814
 8321SOL    HW225863   6.736   0.506   6.808
 8322SOL     OW25864   0.107   1.383   0.525
 8322SOL    HW125865   0.084   1.327   0.445
 8322SOL    HW225866   0.170   1.333   0.583
 8323SOL     OW25867   4.935   4.632   1.467
 8323SOL    HW125868   4.842   4.603   1.490
 8323SOL    HW225869   4.939   4.655   1.369
 8324SOL     OW25870   6.309   0.823   6.761
 8324SOL    HW125871   6.230   0.789   6.710
 8324SOL    HW225872   6.284   0.908   6.807
 8325SOL     OW25873   1.348   5.705   4.883
 8325SOL    HW125874   1.443   5.676   4.882
 8325SOL    HW225875   1.291   5.630   4.918
 8326SOL     OW25876   2.884   4.022   0.511
 8326SOL    HW125877   2.981   4.022   0.535
 8326SOL    HW225878   2.839   3.944   0.554
 8327SOL     OW25879   0.605   0.900   5.401
 8327SOL    HW125880   0.524   0.945   5.438
 8327SOL    HW225881   0.618   0.812   5.446
 8328SOL     OW25882   0.672   6.143   5.715
 8328SOL    HW125883   0.762   6.142   5.672
 8328SOL    HW225884   0.628   6.231   5.697
 8329SOL     OW25885   0.757   2.405   5.153
 8329SOL    HW125886   0.840   2.350   5.146
 8329SOL    HW225887   0.690   2.373   5.086
 8330SOL     OW25888   4.031   1.100   6.463
 8330SOL    HW125889   4.121   1.121   6.425
 8330SOL    HW225890   3.992   1.183   6.502
 8331SOL     OW25891   1.946   2.074   0.517
 8331SOL    HW125892   1.882   2.000   0.495
 8331SOL    HW225893   2.005   2.092   0.438
 8332SOL     OW25894   5.102   4.880   1.822
 8332SOL    HW125895   5.004   4.864   1.833
 8332SOL    HW225896   5.121   4.978   1.835
 8333SOL     OW25897   2.012   4.752   1.030
 8333SOL    HW125898   1.926   4.804   1.035
 8333SOL    HW225899   1.991   4.654   1.028
 8334SOL     OW25900   3.312   1.596   6.160
 8334SOL    HW125901   3.296   1.531   6.086
 8334SOL    HW225902   3.404   1.583   6.196
 8335SOL     OW25903   4.509   2.938   6.521
 8335SOL    HW125904   4.528   2.918   6.617
 8335SOL    HW225905   4.532   2.859   6.465
 8336SOL     OW25906   1.352   3.450   2.274
 8336SOL    HW125907   1.323   3.540   2.307
 8336SOL    HW225908   1.441   3.426   2.312
 8337SOL     OW25909   1.463   0.840   4.875
 8337SOL    HW125910   1.457   0.939   4.883
 8337SOL    HW225911   1.554   0.810   4.902
 8338SOL     OW25912   3.825   4.909   1.975
 8338SOL    HW125913   3.787   4.987   2.024
 8338SOL    HW225914   3.823   4.828   2.033
 8339SOL     OW25915   0.092   1.006   0.565
 8339SOL    HW125916   0.141   0.921   0.584
 8339SOL    HW225917   0.141   1.083   0.607
 8340SOL     OW25918   5.232   2.551   0.910
 8340SOL    HW125919   5.186   2.531   0.823
 8340SOL    HW225920   5.163   2.573   0.979
 8341SOL     OW25921   3.369   0.182   6.045
 8341SOL    HW125922   3.438   0.149   5.981
 8341SOL    HW225923   3.409   0.190   6.136
 8342SOL     OW25924   3.400   6.165   0.502
 8342SOL    HW125925   3.431   6.155   0.407
 8342SOL    HW225926   3.404   6.076   0.547
 8343SOL     OW25927   6.335   5.084   4.041
 8343SOL    HW125928   6.351   5.024   4.119
 8343SOL    HW225929   6.414   5.145   4.029
 8344SOL     OW25930   0.602   4.594   4.207
 8344SOL    HW125931   0.633   4.551   4.123
 8344SOL    HW225932   0.650   4.681   4.220
 8345SOL     OW25933   5.257   1.244   3.155
 8345SOL    HW125934   5.232   1.338   3.177
 8345SOL    HW225935   5.273   1.193   3.240
 8346SOL     OW25936   4.317   3.003   6.321
 8346SOL    HW125937   4.218   2.994   6.334
 8346SOL    HW225938   4.364   2.974   6.404
 8347SOL     OW25939   1.878   6.673   6.630
 8347SOL    HW125940   1.943   6.631   6.694
 8347SOL    HW225941   1.871   6.617   6.548
 8348SOL     OW25942   3.048   0.014   0.930
 8348SOL    HW125943   3.026   0.110   0.945
 8348SOL    HW225944   3.081   6.993   1.016
 8349SOL     OW25945   0.475   6.782   1.999
 8349SOL    HW125946   0.433   6.789   1.908
 8349SOL    HW225947   0.517   6.692   2.009
 8350SOL     OW25948   2.968   0.048   6.068
 8350SOL    HW125949   2.980   6.969   6.054
 8350SOL    HW225950   2.915   0.064   6.151
 8351SOL     OW25951   6.059   5.532   4.161
 8351SOL    HW125952   5.976   5.522   4.216
 8351SOL    HW225953   6.137   5.496   4.212
 8352SOL     OW25954   2.859   6.149   2.300
 8352SOL    HW125955   2.858   6.067   2.358
 8352SOL    HW225956   2.878   6.229   2.356
 8353SOL     OW25957   1.130   3.915   1.544
 8353SOL    HW125958   1.077   3.951   1.621
 8353SOL    HW225959   1.091   3.949   1.458
 8354SOL     OW25960   3.527   6.497   3.921
 8354SOL    HW125961   3.560   6.570   3.981
 8354SOL    HW225962   3.504   6.535   3.832
 8355SOL     OW25963   1.485   0.215   6.396
 8355SOL    HW125964   1.411   0.222   6.329
 8355SOL    HW225965   1.466   0.276   6.473
 8356SOL     OW25966   0.956   5.572   1.970
 8356SOL    HW125967   0.999   5.578   2.060
 8356SOL    HW225968   0.864   5.610   1.974
 8357SOL     OW25969   3.714   5.544   6.195
 8357SOL    HW125970   3.665   5.630   6.179
 8357SOL    HW225971   3.655   5.482   6.248
 8358SOL     OW25972   1.213   2.618   5.916
 8358SOL    HW125973   1.235   2.656   5.826
 8358SOL    HW225974   1.218   2.518   5.913
 8359SOL     OW25975   2.495   0.949   4.387
 8359SOL    HW125976   2.448   0.874   4.433
 8359SOL    HW225977   2.493   0.934   4.288
 8360SOL     OW25978   4.558   6.887   0.708
 8360SOL    HW125979   4.614   6.834   0.645
 8360SOL    HW225980   4.523   6.827   0.780
 8361SOL     OW25981   2.423   0.092   6.572
 8361SOL    HW125982   2.357   0.049   6.511
 8361SOL    HW225983   2.435   0.188   6.546
 8362SOL     OW25984   6.003   2.135   0.356
 8362SOL    HW125985   5.969   2.215   0.308
 8362SOL    HW225986   6.077   2.093   0.303
 8363SOL     OW25987   4.155   2.038   0.293
 8363SOL    HW125988   4.211   1.991   0.226
 8363SOL    HW225989   4.196   2.127   0.314
 8364SOL     OW25990   0.736   3.162   3.981
 8364SOL    HW125991   0.744   3.070   3.942
 8364SOL    HW225992   0.689   3.222   3.917
 8365SOL     OW25993   1.860   2.543   2.266
 8365SOL    HW125994   1.922   2.489   2.209
 8365SOL    HW225995   1.795   2.483   2.312
 8366SOL     OW25996   4.045   5.534   1.360
 8366SOL    HW125997   4.045   5.558   1.457
 8366SOL    HW225998   4.000   5.446   1.346
 8367SOL     OW25999   2.881   5.222   4.859
 8367SOL    HW126000   2.838   5.301   4.902
 8367SOL    HW226001   2.842   5.208   4.767
 8368SOL     OW26002   0.623   6.534   6.976
 8368SOL    HW126003   0.671   6.540   6.888
 8368SOL    HW226004   0.683   6.570   0.029
 8369SOL     OW26005   0.803   2.021   1.435
 8369SOL    HW126006   0.748   1.938   1.444
 8369SOL    HW226007   0.809   2.047   1.339
 8370SOL     OW26008   2.757   1.800   6.859
 8370SOL    HW126009   2.721   1.826   6.949
 8370SOL    HW226010   2.772   1.881   6.804
 8371SOL     OW26011   1.679   3.133   5.758
 8371SOL    HW126012   1.730   3.128   5.672
 8371SOL    HW226013   1.605   3.066   5.757
 8372SOL     OW26014   2.363   6.613   1.624
 8372SOL    HW126015   2.315   6.660   1.550
 8372SOL    HW226016   2.300   6.551   1.671
 8373SOL     OW26017   0.563   1.531   4.672
 8373SOL    HW126018   0.475   1.548   4.629
 8373SOL    HW226019   0.630   1.506   4.602
 8374SOL     OW26020   1.188   0.558   4.058
 8374SOL    HW126021   1.267   0.598   4.104
 8374SOL    HW226022   1.147   0.625   3.996
 8375SOL     OW26023   4.036   0.919   5.538
 8375SOL    HW126024   3.970   0.914   5.613
 8375SOL    HW226025   3.999   0.872   5.458
 8376SOL     OW26026   1.476   1.450   3.911
 8376SOL    HW126027   1.449   1.391   3.835
 8376SOL    HW226028   1.477   1.546   3.880
 8377SOL     OW26029   5.008   5.474   0.504
 8377SOL    HW126030   5.085   5.474   0.440
 8377SOL    HW226031   4.937   5.412   0.471
 8378SOL     OW26032   5.344   5.364   2.951
 8378SOL    HW126033   5.387   5.312   2.878
 8378SOL    HW226034   5.343   5.310   3.035
 8379SOL     OW26035   5.026   2.153   1.376
 8379SOL    HW126036   5.116   2.162   1.333
 8379SOL    HW226037   4.968   2.093   1.321
 8380SOL     OW26038   6.616   6.894   0.075
 8380SOL    HW126039   6.599   6.900   0.173
 8380SOL    HW226040   6.714   6.899   0.058
 8381SOL     OW26041   0.241   2.627   3.226
 8381SOL    HW126042   0.312   2.690   3.194
 8381SOL    HW226043   0.255   2.537   3.184
 8382SOL     OW26044   2.433   0.236   0.858
 8382SOL    HW126045   2.345   0.230   0.907
 8382SOL    HW226046   2.435   0.320   0.804
 8383SOL     OW26047   2.566   0.376   5.268
 8383SOL    HW126048   2.624   0.403   5.192
 8383SOL    HW226049   2.488   0.324   5.234
 8384SOL     OW26050   6.844   2.053   1.297
 8384SOL    HW126051   6.803   1.971   1.257
 8384SOL    HW226052   6.774   2.124   1.308
 8385SOL     OW26053   4.888   3.015   0.855
 8385SOL    HW126054   4.928   2.999   0.946
 8385SOL    HW226055   4.811   2.953   0.841
 8386SOL     OW26056   1.959   5.692   0.872
 8386SOL    HW126057   1.912   5.605   0.885
 8386SOL    HW226058   1.975   5.735   0.961
 8387SOL     OW26059   2.034   1.914   1.479
 8387SOL    HW126060   2.005   1.844   1.544
 8387SOL    HW226061   2.122   1.951   1.508
 8388SOL     OW26062   1.331   6.734   0.302
 8388SOL    HW126063   1.384   6.790   0.366
 8388SOL    HW226064   1.265   6.791   0.253
 8389SOL     OW26065   1.822   3.397   3.751
 8389SOL    HW126066   1.781   3.308   3.769
 8389SOL    HW226067   1.910   3.386   3.705
 8390SOL     OW26068   3.343   0.212   6.564
 8390SOL    HW126069   3.344   0.123   6.609
 8390SOL    HW226070   3.425   0.222   6.508
 8391SOL     OW26071   5.110   5.386   0.954
 8391SOL    HW126072   5.111   5.286   0.960
 8391SOL    HW226073   5.030   5.415   0.901
 8392SOL     OW26074   6.493   5.475   5.103
 8392SOL    HW126075   6.467   5.565   5.137
 8392SOL    HW226076   6.565   5.437   5.161
 8393SOL     OW26077   0.565   0.356   3.618
 8393SOL    HW126078   0.502   0.298   3.566
 8393SOL    HW226079   0.548   0.452   3.595
 8394SOL     OW26080   1.135   1.645   2.367
 8394SOL    HW126081   1.146   1.688   2.278
 8394SOL    HW226082   1.044   1.666   2.403
 8395SOL     OW26083   0.418   6.611   4.230
 8395SOL    HW126084   0.408   6.593   4.328
 8395SOL    HW226085   0.508   6.580   4.199
 8396SOL     OW26086   4.592   4.421   2.773
 8396SOL    HW126087   4.537   4.340   2.753
 8396SOL    HW226088   4.687   4.394   2.789
 8397SOL     OW26089   2.443   6.785   2.765
 8397SOL    HW126090   2.449   6.743   2.674
 8397SOL    HW226091   2.524   6.761   2.818
 8398SOL     OW26092   3.741   1.687   0.166
 8398SOL    HW126093   3.804   1.761   0.189
 8398SOL    HW226094   3.665   1.686   0.232
 8399SOL     OW26095   6.030   6.323   0.449
 8399SOL    HW126096   5.990   6.257   0.513
 8399SOL    HW226097   6.078   6.394   0.500
 8400SOL     OW26098   0.741   0.385   3.017
 8400SOL    HW126099   0.840   0.376   3.005
 8400SOL    HW226100   0.703   0.297   3.047
 8401SOL     OW26101   4.291   3.190   5.561
 8401SOL    HW126102   4.347   3.140   5.495
 8401SOL    HW226103   4.330   3.180   5.653
 8402SOL     OW26104   3.055   1.449   5.575
 8402SOL    HW126105   3.055   1.548   5.584
 8402SOL    HW226106   3.072   1.424   5.479
 8403SOL     OW26107   0.502   1.489   3.435
 8403SOL    HW126108   0.476   1.576   3.394
 8403SOL    HW226109   0.468   1.414   3.378
 8404SOL     OW26110   5.588   6.450   6.504
 8404SOL    HW126111   5.497   6.490   6.508
 8404SOL    HW226112   5.592   6.370   6.565
 8405SOL     OW26113   1.803   1.373   0.210
 8405SOL    HW126114   1.787   1.402   0.304
 8405SOL    HW226115   1.831   1.452   0.155
 8406SOL     OW26116   4.073   1.645   0.958
 8406SOL    HW126117   4.075   1.731   0.907
 8406SOL    HW226118   4.167   1.616   0.977
 8407SOL     OW26119   5.487   5.398   4.258
 8407SOL    HW126120   5.435   5.344   4.192
 8407SOL    HW226121   5.581   5.407   4.227
 8408SOL     OW26122   5.246   1.256   3.852
 8408SOL    HW126123   5.270   1.293   3.942
 8408SOL    HW226124   5.192   1.324   3.801
 8409SOL     OW26125   6.538   2.146   3.829
 8409SOL    HW126126   6.594   2.065   3.811
 8409SOL    HW226127   6.444   2.117   3.850
 8410SOL     OW26128   4.435   1.046   1.497
 8410SOL    HW126129   4.368   1.119   1.485
 8410SOL    HW226130   4.526   1.086   1.505
 8411SOL     OW26131   1.950   5.387   3.882
 8411SOL    HW126132   1.919   5.309   3.827
 8411SOL    HW226133   1.878   5.414   3.945
 8412SOL     OW26134   3.897   1.636   1.198
 8412SOL    HW126135   3.950   1.661   1.279
 8412SOL    HW226136   3.944   1.562   1.150
 8413SOL     OW26137   4.636   4.806   0.416
 8413SOL    HW126138   4.650   4.757   0.501
 8413SOL    HW226139   4.576   4.753   0.356
 8414SOL     OW26140   3.821   0.160   1.985
 8414SOL    HW126141   3.917   0.185   1.974
 8414SOL    HW226142   3.764   0.222   1.931
 8415SOL     OW26143   0.526   4.695   3.813
 8415SOL    HW126144   0.522   4.774   3.752
 8415SOL    HW226145   0.433   4.661   3.830
 8416SOL     OW26146   4.559   4.848   3.108
 8416SOL    HW126147   4.564   4.874   3.011
 8416SOL    HW226148   4.515   4.759   3.116
 8417SOL     OW26149   1.553   6.292   5.327
 8417SOL    HW126150   1.590   6.200   5.315
 8417SOL    HW226151   1.501   6.318   5.245
 8418SOL     OW26152   5.524   5.249   1.698
 8418SOL    HW126153   5.596   5.180   1.698
 8418SOL    HW226154   5.503   5.276   1.792
 8419SOL     OW26155   4.513   0.530   1.950
 8419SOL    HW126156   4.511   0.554   1.853
 8419SOL    HW226157   4.605   0.501   1.975
 8420SOL     OW26158   3.655   6.498   0.896
 8420SOL    HW126159   3.617   6.414   0.856
 8420SOL    HW226160   3.633   6.576   0.837
 8421SOL     OW26161   2.960   6.810   1.204
 8421SOL    HW126162   2.987   6.714   1.215
 8421SOL    HW226163   2.884   6.815   1.139
 8422SOL     OW26164   5.175   6.186   1.181
 8422SOL    HW126165   5.079   6.215   1.169
 8422SOL    HW226166   5.200   6.195   1.277
 8423SOL     OW26167   4.148   4.512   6.534
 8423SOL    HW126168   4.131   4.572   6.613
 8423SOL    HW226169   4.194   4.564   6.462
 8424SOL     OW26170   2.624   2.289   2.696
 8424SOL    HW126171   2.573   2.344   2.762
 8424SOL    HW226172   2.693   2.235   2.744
 8425SOL     OW26173   7.004   5.455   1.114
 8425SOL    HW126174   6.939   5.462   1.038
 8425SOL    HW226175   6.956   5.424   1.196
 8426SOL     OW26176   3.639   2.992   4.020
 8426SOL    HW126177   3.707   3.050   4.065
 8426SOL    HW226178   3.669   2.973   3.926
 8427SOL     OW26179   1.483   4.133   5.690
 8427SOL    HW126180   1.511   4.206   5.627
 8427SOL    HW226181   1.390   4.103   5.668
 8428SOL     OW26182   6.304   4.440   2.331
 8428SOL    HW126183   6.387   4.477   2.373
 8428SOL    HW226184   6.236   4.423   2.402
 8429SOL     OW26185   1.691   4.471   4.614
 8429SOL    HW126186   1.744   4.476   4.698
 8429SOL    HW226187   1.715   4.387   4.565
 8430SOL     OW26188   3.887   5.195   2.886
 8430SOL    HW126189   3.978   5.234   2.870
 8430SOL    HW226190   3.891   5.096   2.871
 8431SOL     OW26191   2.318   4.870   0.817
 8431SOL    HW126192   2.293   4.835   0.907
 8431SOL    HW226193   2.399   4.822   0.783
 8432SOL     OW26194   4.406   5.245   5.814
 8432SOL    HW126195   4.491   5.209   5.853
 8432SOL    HW226196   4.429   5.307   5.738
 8433SOL     OW26197   0.227   2.388   6.500
 8433SOL    HW126198   0.141   2.383   6.448
 8433SOL    HW226199   0.227   2.319   6.572
 8434SOL     OW26200   2.768   0.112   4.910
 8434SOL    HW126201   2.835   0.115   4.984
 8434SOL    HW226202   2.789   0.184   4.843
 8435SOL     OW26203   5.173   1.582   1.429
 8435SOL    HW126204   5.074   1.587   1.417
 8435SOL    HW226205   5.214   1.534   1.351
 8436SOL     OW26206   3.898   6.484   3.559
 8436SOL    HW126207   3.804   6.473   3.527
 8436SOL    HW226208   3.959   6.429   3.502
 8437SOL     OW26209   1.771   6.906   2.096
 8437SOL    HW126210   1.689   6.859   2.128
 8437SOL    HW226211   1.754   6.944   2.005
 8438SOL     OW26212   2.956   4.759   2.157
 8438SOL    HW126213   2.955   4.749   2.257
 8438SOL    HW226214   2.901   4.687   2.116
 8439SOL     OW26215   6.662   5.864   1.889
 8439SOL    HW126216   6.665   5.944   1.829
 8439SOL    HW226217   6.589   5.876   1.956
 8440SOL     OW26218   0.437   0.771   2.611
 8440SOL    HW126219   0.447   0.805   2.518
 8440SOL    HW226220   0.527   0.767   2.654
 8441SOL     OW26221   6.392   5.949   0.262
 8441SOL    HW126222   6.338   6.027   0.293
 8441SOL    HW226223   6.486   5.958   0.295
 8442SOL     OW26224   4.033   3.030   6.331
 8442SOL    HW126225   3.947   3.075   6.311
 8442SOL    HW226226   4.056   2.967   6.257
 8443SOL     OW26227   1.727   6.804   3.296
 8443SOL    HW126228   1.659   6.779   3.228
 8443SOL    HW226229   1.702   6.764   3.385
 8444SOL     OW26230   3.174   6.313   3.621
 8444SOL    HW126231   3.135   6.225   3.649
 8444SOL    HW226232   3.223   6.302   3.535
 8445SOL     OW26233   3.203   4.959   2.012
 8445SOL    HW126234   3.191   4.922   2.104
 8445SOL    HW226235   3.163   5.050   2.007
 8446SOL     OW26236   4.682   5.422   1.446
 8446SOL    HW126237   4.780   5.403   1.446
 8446SOL    HW226238   4.666   5.519   1.427
 8447SOL     OW26239   6.120   2.242   2.305
 8447SOL    HW126240   6.095   2.303   2.230
 8447SOL    HW226241   6.042   2.227   2.365
 8448SOL     OW26242   0.271   3.677   5.326
 8448SOL    HW126243   0.208   3.751   5.349
 8448SOL    HW226244   0.357   3.715   5.292
 8449SOL     OW26245   0.179   2.652   4.407
 8449SOL    HW126246   0.279   2.660   4.406
 8449SOL    HW226247   0.139   2.728   4.355
 8450SOL     OW26248   2.135   6.258   2.067
 8450SOL    HW126249   2.202   6.330   2.089
 8450SOL    HW226250   2.174   6.197   1.999
 8451SOL     OW26251   4.056   2.771   0.434
 8451SOL    HW126252   4.028   2.863   0.461
 8451SOL    HW226253   4.115   2.777   0.353
 8452SOL     OW26254   0.109   0.138   1.253
 8452SOL    HW126255   0.203   0.172   1.264
 8452SOL    HW226256   0.056   0.163   1.334
 8453SOL     OW26257   6.255   4.382   6.143
 8453SOL    HW126258   6.284   4.375   6.048
 8453SOL    HW226259   6.223   4.476   6.161
 8454SOL     OW26260   1.587   5.527   1.942
 8454SOL    HW126261   1.556   5.507   2.035
 8454SOL    HW226262   1.685   5.543   1.943
 8455SOL     OW26263   4.848   1.919   0.856
 8455SOL    HW126264   4.928   1.968   0.821
 8455SOL    HW226265   4.876   1.856   0.928
 8456SOL     OW26266   5.522   4.916   3.035
 8456SOL    HW126267   5.457   4.952   2.968
 8456SOL    HW226268   5.616   4.937   3.006
 8457SOL     OW26269   6.560   6.389   5.648
 8457SOL    HW126270   6.515   6.410   5.561
 8457SOL    HW226271   6.541   6.462   5.714
 8458SOL     OW26272   1.833   0.864   6.852
 8458SOL    HW126273   1.801   0.950   6.893
 8458SOL    HW226274   1.762   0.828   6.791
 8459SOL     OW26275   3.239   6.996   1.165
 8459SOL    HW126276   3.165   6.940   1.201
 8459SOL    HW226277   3.297   6.941   1.105
 8460SOL     OW26278   4.368   2.699   5.877
 8460SOL    HW126279   4.270   2.718   5.878
 8460SOL    HW226280   4.410   2.741   5.797
 8461SOL     OW26281   0.888   3.495   1.936
 8461SOL    HW126282   0.985   3.489   1.959
 8461SOL    HW226283   0.836   3.523   2.017
 8462SOL     OW26284   3.216   2.402   0.144
 8462SOL    HW126285   3.175   2.349   0.070
 8462SOL    HW226286   3.220   2.499   0.118
 8463SOL     OW26287   0.323   1.825   0.253
 8463SOL    HW126288   0.271   1.745   0.280
 8463SOL    HW226289   0.421   1.808   0.268
 8464SOL     OW26290   0.046   4.341   5.238
 8464SOL    HW126291   7.001   4.398   5.289
 8464SOL    HW226292   0.005   4.316   5.150
 8465SOL     OW26293   3.020   1.922   0.669
 8465SOL    HW126294   2.942   1.905   0.729
 8465SOL    HW226295   3.042   1.838   0.619
 8466SOL     OW26296   6.071   6.976   4.958
 8466SOL    HW126297   6.021   6.894   4.989
 8466SOL    HW226298   6.147   6.994   5.021
 8467SOL     OW26299   4.094   1.122   1.184
 8467SOL    HW126300   4.121   1.182   1.259
 8467SOL    HW226301   4.045   1.043   1.221
 8468SOL     OW26302   5.934   3.086   6.737
 8468SOL    HW126303   5.899   3.018   6.801
 8468SOL    HW226304   5.921   3.178   6.775
 8469SOL     OW26305   2.798   2.027   5.287
 8469SOL    HW126306   2.797   1.937   5.244
 8469SOL    HW226307   2.819   2.018   5.384
 8470SOL     OW26308   1.203   4.564   0.221
 8470SOL    HW126309   1.255   4.647   0.197
 8470SOL    HW226310   1.258   4.507   0.282
 8471SOL     OW26311   3.859   0.735   5.402
 8471SOL    HW126312   3.916   0.759   5.323
 8471SOL    HW226313   3.792   0.667   5.375
 8472SOL     OW26314   5.625   1.431   5.225
 8472SOL    HW126315   5.694   1.377   5.176
 8472SOL    HW226316   5.592   1.379   5.304
 8473SOL     OW26317   5.363   5.311   0.498
 8473SOL    HW126318   5.284   5.301   0.559
 8473SOL    HW226319   5.405   5.401   0.513
 8474SOL     OW26320   3.447   4.021   1.853
 8474SOL    HW126321   3.358   4.025   1.897
 8474SOL    HW226322   3.454   3.937   1.799
 8475SOL     OW26323   6.591   2.969   2.320
 8475SOL    HW126324   6.654   3.044   2.302
 8475SOL    HW226325   6.599   2.900   2.248
 8476SOL     OW26326   6.739   1.489   1.576
 8476SOL    HW126327   6.699   1.405   1.611
 8476SOL    HW226328   6.690   1.568   1.613
 8477SOL     OW26329   4.274   6.445   2.542
 8477SOL    HW126330   4.290   6.361   2.593
 8477SOL    HW226331   4.357   6.473   2.495
 8478SOL     OW26332   0.670   1.164   5.619
 8478SOL    HW126333   0.604   1.194   5.551
 8478SOL    HW226334   0.688   1.238   5.684
 8479SOL     OW26335   1.194   2.842   1.598
 8479SOL    HW126336   1.133   2.830   1.520
 8479SOL    HW226337   1.278   2.887   1.568
 8480SOL     OW26338   5.444   3.510   0.101
 8480SOL    HW126339   5.383   3.524   0.023
 8480SOL    HW226340   5.436   3.588   0.163
 8481SOL     OW26341   4.905   2.413   4.839
 8481SOL    HW126342   4.850   2.439   4.760
 8481SOL    HW226343   4.846   2.395   4.917
 8482SOL     OW26344   4.771   0.398   1.778
 8482SOL    HW126345   4.766   0.306   1.817
 8482SOL    HW226346   4.784   0.392   1.679
 8483SOL     OW26347   2.603   5.711   3.232
 8483SOL    HW126348   2.535   5.656   3.281
 8483SOL    HW226349   2.689   5.710   3.283
 8484SOL     OW26350   6.677   6.136   4.858
 8484SOL    HW126351   6.609   6.109   4.790
 8484SOL    HW226352   6.700   6.057   4.916
 8485SOL     OW26353   3.829   2.404   0.337
 8485SOL    HW126354   3.841   2.475   0.407
 8485SOL    HW226355   3.772   2.330   0.373
 8486SOL     OW26356   1.969   0.573   2.931
 8486SOL    HW126357   1.984   0.475   2.919
 8486SOL    HW226358   1.901   0.604   2.864
 8487SOL     OW26359   5.629   2.394   6.214
 8487SOL    HW126360   5.623   2.397   6.314
 8487SOL    HW226361   5.624   2.486   6.177
 8488SOL     OW26362   5.343   5.850   2.796
 8488SOL    HW126363   5.441   5.866   2.782
 8488SOL    HW226364   5.305   5.922   2.855
 8489SOL     OW26365   0.072   0.463   1.183
 8489SOL    HW126366   0.031   0.552   1.162
 8489SOL    HW226367   0.031   0.394   1.123
 8490SOL     OW26368   3.377   6.752   5.904
 8490SOL    HW126369   3.305   6.807   5.862
 8490SOL    HW226370   3.373   6.658   5.868
 8491SOL     OW26371   1.771   6.056   2.429
 8491SOL    HW126372   1.744   6.117   2.503
 8491SOL    HW226373   1.865   6.078   2.401
 8492SOL     OW26374   5.820   5.144   4.186
 8492SOL    HW126375   5.767   5.067   4.153
 8492SOL    HW226376   5.914   5.137   4.153
 8493SOL     OW26377   2.201   1.727   6.966
 8493SOL    HW126378   2.130   1.695   6.902
 8493SOL    HW226379   2.268   1.655   6.979
 8494SOL     OW26380   3.694   5.400   2.287
 8494SOL    HW126381   3.662   5.318   2.335
 8494SOL    HW226382   3.652   5.480   2.328
 8495SOL     OW26383   0.397   5.527   0.635
 8495SOL    HW126384   0.409   5.498   0.730
 8495SOL    HW226385   0.405   5.448   0.575
 8496SOL     OW26386   6.354   1.251   2.333
 8496SOL    HW126387   6.321   1.314   2.403
 8496SOL    HW226388   6.281   1.233   2.267
 8497SOL     OW26389   0.618   0.716   3.229
 8497SOL    HW126390   0.625   0.622   3.261
 8497SOL    HW226391   0.538   0.760   3.270
 8498SOL     OW26392   6.933   6.724   3.156
 8498SOL    HW126393   6.833   6.727   3.155
 8498SOL    HW226394   6.964   6.662   3.227
 8499SOL     OW26395   0.618   4.294   0.273
 8499SOL    HW126396   0.709   4.321   0.242
 8499SOL    HW226397   0.622   4.261   0.367
 8500SOL     OW26398   1.516   6.607   5.529
 8500SOL    HW126399   1.579   6.574   5.459
 8500SOL    HW226400   1.543   6.571   5.618
 8501SOL     OW26401   0.450   2.449   6.379
 8501SOL    HW126402   0.368   2.423   6.431
 8501SOL    HW226403   0.507   2.368   6.364
 8502SOL     OW26404   0.336   3.069   1.515
 8502SOL    HW126405   0.388   3.026   1.589
 8502SOL    HW226406   0.378   3.046   1.427
 8503SOL     OW26407   0.198   5.800   5.280
 8503SOL    HW126408   0.272   5.747   5.322
 8503SOL    HW226409   0.167   5.870   5.344
 8504SOL     OW26410   1.513   5.460   2.193
 8504SOL    HW126411   1.581   5.439   2.264
 8504SOL    HW226412   1.443   5.520   2.231
 8505SOL     OW26413   5.899   3.512   2.822
 8505SOL    HW126414   5.854   3.430   2.787
 8505SOL    HW226415   5.960   3.549   2.752
 8506SOL     OW26416   1.738   0.346   6.825
 8506SOL    HW126417   1.782   0.296   6.750
 8506SOL    HW226418   1.806   0.370   6.894
 8507SOL     OW26419   3.722   0.002   5.200
 8507SOL    HW126420   3.798   6.979   5.150
 8507SOL    HW226421   3.698   0.089   5.157
 8508SOL     OW26422   4.140   1.566   5.496
 8508SOL    HW126423   4.123   1.517   5.581
 8508SOL    HW226424   4.057   1.565   5.439
 8509SOL     OW26425   5.898   6.764   3.180
 8509SOL    HW126426   5.933   6.679   3.220
 8509SOL    HW226427   5.813   6.789   3.227
 8510SOL     OW26428   5.206   3.683   2.824
 8510SOL    HW126429   5.241   3.590   2.815
 8510SOL    HW226430   5.109   3.683   2.800
 8511SOL     OW26431   6.444   2.870   2.525
 8511SOL    HW126432   6.508   2.906   2.456
 8511SOL    HW226433   6.362   2.926   2.526
 8512SOL     OW26434   2.768   6.577   2.700
 8512SOL    HW126435   2.866   6.562   2.699
 8512SOL    HW226436   2.742   6.622   2.786
 8513SOL     OW26437   0.023   5.827   0.974
 8513SOL    HW126438   0.079   5.744   0.977
 8513SOL    HW226439   6.971   5.817   0.905
 8514SOL     OW26440   2.713   0.823   3.600
 8514SOL    HW126441   2.765   0.888   3.656
 8514SOL    HW226442   2.715   0.734   3.644
 8515SOL     OW26443   4.683   2.371   1.005
 8515SOL    HW126444   4.632   2.423   0.936
 8515SOL    HW226445   4.635   2.375   1.092
 8516SOL     OW26446   0.113   2.029   2.525
 8516SOL    HW126447   0.085   2.021   2.430
 8516SOL    HW226448   0.033   2.033   2.584
 8517SOL     OW26449   0.591   2.684   5.442
 8517SOL    HW126450   0.605   2.745   5.363
 8517SOL    HW226451   0.667   2.619   5.447
 8518SOL     OW26452   4.100   4.632   0.410
 8518SOL    HW126453   4.057   4.601   0.325
 8518SOL    HW226454   4.029   4.652   0.477
 8519SOL     OW26455   1.878   5.620   1.822
 8519SOL    HW126456   1.976   5.635   1.835
 8519SOL    HW226457   1.828   5.704   1.845
 8520SOL     OW26458   3.642   1.382   0.547
 8520SOL    HW126459   3.651   1.416   0.453
 8520SOL    HW226460   3.615   1.456   0.607
 8521SOL     OW26461   2.014   5.730   5.688
 8521SOL    HW126462   2.076   5.705   5.614
 8521SOL    HW226463   2.063   5.732   5.775
 8522SOL     OW26464   1.291   5.306   2.178
 8522SOL    HW126465   1.360   5.376   2.197
 8522SOL    HW226466   1.337   5.217   2.165
 8523SOL     OW26467   2.771   0.103   6.274
 8523SOL    HW126468   2.690   0.047   6.254
 8523SOL    HW226469   2.754   0.158   6.356
 8524SOL     OW26470   1.277   3.217   4.711
 8524SOL    HW126471   1.245   3.312   4.709
 8524SOL    HW226472   1.307   3.191   4.620
 8525SOL     OW26473   6.196   3.807   3.160
 8525SOL    HW126474   6.201   3.750   3.242
 8525SOL    HW226475   6.232   3.756   3.082
 8526SOL     OW26476   2.730   3.641   1.726
 8526SOL    HW126477   2.691   3.733   1.723
 8526SOL    HW226478   2.657   3.573   1.718
 8527SOL     OW26479   4.106   0.317   4.909
 8527SOL    HW126480   4.146   0.371   4.982
 8527SOL    HW226481   4.168   0.242   4.885
 8528SOL     OW26482   5.149   3.550   5.708
 8528SOL    HW126483   5.133   3.616   5.782
 8528SOL    HW226484   5.246   3.524   5.706
 8529SOL     OW26485   1.376   6.863   6.979
 8529SOL    HW126486   1.298   6.910   0.001
 8529SOL    HW226487   1.409   6.793   0.023
 8530SOL     OW26488   0.871   4.947   5.840
 8530SOL    HW126489   0.842   4.859   5.805
 8530SOL    HW226490   0.813   5.019   5.801
 8531SOL     OW26491   5.501   3.950   3.366
 8531SOL    HW126492   5.476   4.038   3.326
 8531SOL    HW226493   5.593   3.924   3.335
 8532SOL     OW26494   4.220   4.792   5.002
 8532SOL    HW126495   4.128   4.810   5.037
 8532SOL    HW226496   4.238   4.694   5.006
 8533SOL     OW26497   2.087   0.635   5.298
 8533SOL    HW126498   2.025   0.709   5.271
 8533SOL    HW226499   2.075   0.616   5.395
 8534SOL     OW26500   6.886   4.841   2.622
 8534SOL    HW126501   6.798   4.811   2.585
 8534SOL    HW226502   6.872   4.922   2.678
 8535SOL     OW26503   0.909   2.195   4.745
 8535SOL    HW126504   0.868   2.184   4.654
 8535SOL    HW226505   1.005   2.168   4.741
 8536SOL     OW26506   6.009   2.669   4.750
 8536SOL    HW126507   6.066   2.595   4.714
 8536SOL    HW226508   5.917   2.661   4.714
 8537SOL     OW26509   6.071   1.460   0.854
 8537SOL    HW126510   6.133   1.395   0.898
 8537SOL    HW226511   6.124   1.531   0.807
 8538SOL     OW26512   0.788   0.587   4.937
 8538SOL    HW126513   0.777   0.657   4.865
 8538SOL    HW226514   0.701   0.540   4.951
 8539SOL     OW26515   6.154   2.435   2.539
 8539SOL    HW126516   6.214   2.391   2.472
 8539SOL    HW226517   6.177   2.403   2.631
 8540SOL     OW26518   3.583   1.859   0.608
 8540SOL    HW126519   3.664   1.913   0.633
 8540SOL    HW226520   3.504   1.920   0.600
 8541SOL     OW26521   2.673   1.326   5.487
 8541SOL    HW126522   2.710   1.416   5.464
 8541SOL    HW226523   2.729   1.285   5.560
 8542SOL     OW26524   3.407   4.406   6.344
 8542SOL    HW126525   3.353   4.322   6.348
 8542SOL    HW226526   3.497   4.390   6.384
 8543SOL     OW26527   2.819   1.776   5.200
 8543SOL    HW126528   2.736   1.727   5.226
 8543SOL    HW226529   2.837   1.761   5.102
 8544SOL     OW26530   5.502   3.011   5.418
 8544SOL    HW126531   5.477   3.057   5.504
 8544SOL    HW226532   5.419   2.976   5.374
 8545SOL     OW26533   3.135   6.873   4.895
 8545SOL    HW126534   3.150   6.942   4.823
 8545SOL    HW226535   3.043   6.836   4.886
 8546SOL     OW26536   5.449   0.708   1.128
 8546SOL    HW126537   5.505   0.776   1.082
 8546SOL    HW226538   5.356   0.743   1.139
 8547SOL     OW26539   6.454   0.675   5.455
 8547SOL    HW126540   6.415   0.736   5.523
 8547SOL    HW226541   6.426   0.581   5.474
 8548SOL     OW26542   0.594   2.930   5.142
 8548SOL    HW126543   0.665   2.972   5.199
 8548SOL    HW226544   0.611   2.832   5.134
 8549SOL     OW26545   0.776   1.786   3.969
 8549SOL    HW126546   0.870   1.806   3.942
 8549SOL    HW226547   0.747   1.851   4.040
 8550SOL     OW26548   0.638   4.173   6.329
 8550SOL    HW126549   0.690   4.097   6.367
 8550SOL    HW226550   0.541   4.149   6.324
 8551SOL     OW26551   2.038   2.337   6.806
 8551SOL    HW126552   2.138   2.336   6.808
 8551SOL    HW226553   2.002   2.356   6.898
 8552SOL     OW26554   3.192   0.439   2.270
 8552SOL    HW126555   3.188   0.408   2.174
 8552SOL    HW226556   3.142   0.374   2.327
 8553SOL     OW26557   3.746   4.388   0.429
 8553SOL    HW126558   3.779   4.348   0.344
 8553SOL    HW226559   3.694   4.320   0.480
 8554SOL     OW26560   0.926   6.569   1.431
 8554SOL    HW126561   0.987   6.636   1.474
 8554SOL    HW226562   0.837   6.612   1.413
 8555SOL     OW26563   4.418   1.859   3.078
 8555SOL    HW126564   4.335   1.842   3.131
 8555SOL    HW226565   4.476   1.778   3.079
 8556SOL     OW26566   1.536   6.188   5.823
 8556SOL    HW126567   1.551   6.112   5.760
 8556SOL    HW226568   1.614   6.197   5.884
 8557SOL     OW26569   6.594   0.727   0.852
 8557SOL    HW126570   6.535   0.808   0.846
 8557SOL    HW226571   6.687   0.752   0.826
 8558SOL     OW26572   2.122   4.855   2.854
 8558SOL    HW126573   2.159   4.764   2.832
 8558SOL    HW226574   2.028   4.845   2.887
 8559SOL     OW26575   0.890   6.693   2.851
 8559SOL    HW126576   0.928   6.748   2.926
 8559SOL    HW226577   0.837   6.617   2.889
 8560SOL     OW26578   1.273   5.417   1.669
 8560SOL    HW126579   1.211   5.493   1.690
 8560SOL    HW226580   1.328   5.397   1.750
 8561SOL     OW26581   3.952   0.022   3.449
 8561SOL    HW126582   3.988   6.950   3.466
 8561SOL    HW226583   3.854   0.024   3.471
 8562SOL     OW26584   3.902   0.550   6.607
 8562SOL    HW126585   3.935   0.462   6.642
 8562SOL    HW226586   3.803   0.545   6.594
 8563SOL     OW26587   1.478   5.825   2.072
 8563SOL    HW126588   1.426   5.804   2.155
 8563SOL    HW226589   1.438   5.778   1.994
 8564SOL     OW26590   3.676   5.930   6.367
 8564SOL    HW126591   3.725   5.924   6.280
 8564SOL    HW226592   3.607   5.857   6.372
 8565SOL     OW26593   3.706   5.295   1.523
 8565SOL    HW126594   3.778   5.263   1.462
 8565SOL    HW226595   3.690   5.393   1.508
 8566SOL     OW26596   2.475   0.832   2.613
 8566SOL    HW126597   2.442   0.741   2.588
 8566SOL    HW226598   2.462   0.895   2.537
 8567SOL     OW26599   1.505   2.229   1.702
 8567SOL    HW126600   1.538   2.313   1.745
 8567SOL    HW226601   1.533   2.227   1.607
 8568SOL     OW26602   6.839   1.183   0.293
 8568SOL    HW126603   6.780   1.133   0.229
 8568SOL    HW226604   6.798   1.272   0.313
 8569SOL     OW26605   4.713   1.964   5.831
 8569SOL    HW126606   4.711   1.919   5.742
 8569SOL    HW226607   4.800   2.013   5.841
 8570SOL     OW26608   1.790   1.643   4.212
 8570SOL    HW126609   1.786   1.717   4.278
 8570SOL    HW226610   1.698   1.603   4.201
 8571SOL     OW26611   1.227   0.743   4.743
 8571SOL    HW126612   1.304   0.768   4.802
 8571SOL    HW226613   1.142   0.772   4.785
 8572SOL     OW26614   2.159   4.161   5.792
 8572SOL    HW126615   2.174   4.067   5.762
 8572SOL    HW226616   2.181   4.223   5.716
 8573SOL     OW26617   2.832   6.365   6.803
 8573SOL    HW126618   2.883   6.437   6.849
 8573SOL    HW226619   2.868   6.354   6.710
 8574SOL     OW26620   6.322   6.828   6.044
 8574SOL    HW126621   6.274   6.916   6.045
 8574SOL    HW226622   6.402   6.835   5.984
 8575SOL     OW26623   3.600   0.883   2.172
 8575SOL    HW126624   3.521   0.828   2.144
 8575SOL    HW226625   3.605   0.886   2.272
 8576SOL     OW26626   1.462   4.434   4.296
 8576SOL    HW126627   1.487   4.345   4.258
 8576SOL    HW226628   1.542   4.475   4.340
 8577SOL     OW26629   1.486   0.714   5.868
 8577SOL    HW126630   1.392   0.745   5.853
 8577SOL    HW226631   1.549   0.790   5.853
 8578SOL     OW26632   6.149   5.839   5.919
 8578SOL    HW126633   6.157   5.852   6.018
 8578SOL    HW226634   6.226   5.785   5.886
 8579SOL     OW26635   1.893   6.174   2.003
 8579SOL    HW126636   1.986   6.210   1.999
 8579SOL    HW226637   1.882   6.120   2.087
 8580SOL     OW26638   1.412   6.412   0.869
 8580SOL    HW126639   1.472   6.332   0.855
 8580SOL    HW226640   1.369   6.436   0.782
 8581SOL     OW26641   3.897   4.846   1.469
 8581SOL    HW126642   3.918   4.853   1.372
 8581SOL    HW226643   3.908   4.751   1.498
 8582SOL     OW26644   4.612   4.399   5.647
 8582SOL    HW126645   4.640   4.307   5.622
 8582SOL    HW226646   4.692   4.452   5.676
 8583SOL     OW26647   3.852   7.019   3.099
 8583SOL    HW126648   3.914   6.943   3.117
 8583SOL    HW226649   3.802   0.023   3.183
 8584SOL     OW26650   0.198   0.602   5.179
 8584SOL    HW126651   0.263   0.532   5.210
 8584SOL    HW226652   0.105   0.567   5.186
 8585SOL     OW26653   5.870   1.376   0.692
 8585SOL    HW126654   5.800   1.447   0.697
 8585SOL    HW226655   5.957   1.411   0.727
 8586SOL     OW26656   4.731   6.522   1.308
 8586SOL    HW126657   4.695   6.590   1.371
 8586SOL    HW226658   4.830   6.511   1.324
 8587SOL     OW26659   1.226   1.362   4.925
 8587SOL    HW126660   1.183   1.451   4.910
 8587SOL    HW226661   1.169   1.307   4.986
 8588SOL     OW26662   4.442   1.200   7.016
 8588SOL    HW126663   4.374   1.224   0.066
 8588SOL    HW226664   4.479   1.283   6.975
 8589SOL     OW26665   6.978   3.171   5.297
 8589SOL    HW126666   6.988   3.253   5.353
 8589SOL    HW226667   0.046   3.149   5.253
 8590SOL     OW26668   0.169   0.258   2.624
 8590SOL    HW126669   0.222   0.341   2.644
 8590SOL    HW226670   0.227   0.177   2.638
 8591SOL     OW26671   6.767   4.653   0.209
 8591SOL    HW126672   6.740   4.661   0.113
 8591SOL    HW226673   6.711   4.584   0.254
 8592SOL     OW26674   0.452   3.070   6.977
 8592SOL    HW126675   0.361   3.102   7.003
 8592SOL    HW226676   0.446   2.977   6.940
 8593SOL     OW26677   3.605   0.922   6.678
 8593SOL    HW126678   3.691   0.893   6.635
 8593SOL    HW226679   3.557   0.985   6.617
 8594SOL     OW26680   6.413   2.743   5.804
 8594SOL    HW126681   6.426   2.755   5.705
 8594SOL    HW226682   6.480   2.799   5.853
 8595SOL     OW26683   6.313   0.767   3.678
 8595SOL    HW126684   6.393   0.709   3.693
 8595SOL    HW226685   6.253   0.724   3.611
 8596SOL     OW26686   1.340   4.185   3.065
 8596SOL    HW126687   1.381   4.109   3.014
 8596SOL    HW226688   1.249   4.158   3.096
 8597SOL     OW26689   5.727   2.097   0.822
 8597SOL    HW126690   5.699   2.083   0.917
 8597SOL    HW226691   5.821   2.066   0.811
 8598SOL     OW26692   5.524   0.166   5.622
 8598SOL    HW126693   5.529   0.259   5.585
 8598SOL    HW226694   5.577   0.162   5.707
 8599SOL     OW26695   1.063   2.772   4.175
 8599SOL    HW126696   1.116   2.750   4.256
 8599SOL    HW226697   1.109   2.845   4.124
 8600SOL     OW26698   5.049   3.818   0.745
 8600SOL    HW126699   5.024   3.795   0.651
 8600SOL    HW226700   5.137   3.776   0.767
 8601SOL     OW26701   6.880   1.426   3.930
 8601SOL    HW126702   6.833   1.505   3.890
 8601SOL    HW226703   6.979   1.442   3.928
 8602SOL     OW26704   2.384   6.521   3.076
 8602SOL    HW126705   2.311   6.494   3.138
 8602SOL    HW226706   2.373   6.474   2.988
 8603SOL     OW26707   5.518   0.992   6.589
 8603SOL    HW126708   5.487   1.039   6.672
 8603SOL    HW226709   5.486   1.042   6.508
 8604SOL     OW26710   0.801   2.681   6.290
 8604SOL    HW126711   0.845   2.709   6.375
 8604SOL    HW226712   0.764   2.762   6.244
 8605SOL     OW26713   1.051   4.376   3.798
 8605SOL    HW126714   1.121   4.433   3.839
 8605SOL    HW226715   1.066   4.369   3.699
 8606SOL     OW26716   2.976   1.635   6.951
 8606SOL    HW126717   2.915   1.712   6.932
 8606SOL    HW226718   2.933   1.550   6.920
 8607SOL     OW26719   2.505   4.694   0.076
 8607SOL    HW126720   2.420   4.745   0.083
 8607SOL    HW226721   2.565   4.739   0.010
 8608SOL     OW26722   2.292   5.047   1.895
 8608SOL    HW126723   2.336   5.095   1.971
 8608SOL    HW226724   2.197   5.078   1.886
 8609SOL     OW26725   5.149   0.857   4.026
 8609SOL    HW126726   5.082   0.797   4.070
 8609SOL    HW226727   5.144   0.845   3.926
 8610SOL     OW26728   0.133   0.069   3.239
 8610SOL    HW126729   0.129   7.002   3.189
 8610SOL    HW226730   0.112   0.144   3.176
 8611SOL     OW26731   2.928   1.172   4.071
 8611SOL    HW126732   2.992   1.096   4.066
 8611SOL    HW226733   2.848   1.145   4.125
 8612SOL     OW26734   2.906   3.565   1.500
 8612SOL    HW126735   2.847   3.627   1.552
 8612SOL    HW226736   2.897   3.473   1.538
 8613SOL     OW26737   2.821   2.322   1.719
 8613SOL    HW126738   2.835   2.356   1.812
 8613SOL    HW226739   2.728   2.284   1.711
 8614SOL     OW26740   1.604   2.331   3.190
 8614SOL    HW126741   1.683   2.300   3.136
 8614SOL    HW226742   1.603   2.283   3.278
 8615SOL     OW26743   4.275   1.558   5.124
 8615SOL    HW126744   4.302   1.483   5.185
 8615SOL    HW226745   4.341   1.565   5.049
 8616SOL     OW26746   2.424   4.616   1.756
 8616SOL    HW126747   2.376   4.687   1.704
 8616SOL    HW226748   2.438   4.536   1.698
 8617SOL     OW26749   5.791   0.820   3.956
 8617SOL    HW126750   5.815   0.828   3.860
 8617SOL    HW226751   5.874   0.822   4.012
 8618SOL     OW26752   6.630   4.230   0.537
 8618SOL    HW126753   6.665   4.139   0.556
 8618SOL    HW226754   6.636   4.286   0.620
 8619SOL     OW26755   4.392   5.063   3.048
 8619SOL    HW126756   4.451   4.988   3.080
 8619SOL    HW226757   4.383   5.130   3.122
 8620SOL     OW26758   1.931   0.319   4.727
 8620SOL    HW126759   1.868   0.253   4.769
 8620SOL    HW226760   1.879   0.383   4.670
 8621SOL     OW26761   4.875   3.087   2.274
 8621SOL    HW126762   4.834   3.020   2.335
 8621SOL    HW226763   4.827   3.086   2.186
 8622SOL     OW26764   5.926   5.082   1.583
 8622SOL    HW126765   5.846   5.141   1.576
 8622SOL    HW226766   5.907   4.993   1.542
 8623SOL     OW26767   0.649   3.868   4.866
 8623SOL    HW126768   0.660   3.777   4.905
 8623SOL    HW226769   0.635   3.935   4.939
 8624SOL     OW26770   3.769   3.463   5.982
 8624SOL    HW126771   3.794   3.516   6.064
 8624SOL    HW226772   3.767   3.524   5.903
 8625SOL     OW26773   4.376   0.906   6.034
 8625SOL    HW126774   4.361   0.889   5.937
 8625SOL    HW226775   4.357   0.824   6.087
 8626SOL     OW26776   3.558   3.297   6.383
 8626SOL    HW126777   3.619   3.371   6.414
 8626SOL    HW226778   3.511   3.257   6.462
 8627SOL     OW26779   2.307   1.473   2.521
 8627SOL    HW126780   2.270   1.560   2.554
 8627SOL    HW226781   2.405   1.468   2.544
 8628SOL     OW26782   6.291   7.015   6.889
 8628SOL    HW126783   6.324   0.031   6.801
 8628SOL    HW226784   6.345   0.037   6.963
 8629SOL     OW26785   1.256   6.417   5.541
 8629SOL    HW126786   1.187   6.456   5.480
 8629SOL    HW226787   1.347   6.449   5.514
 8630SOL     OW26788   4.739   4.067   4.327
 8630SOL    HW126789   4.741   4.099   4.422
 8630SOL    HW226790   4.815   4.003   4.312
 8631SOL     OW26791   1.236   6.235   6.230
 8631SOL    HW126792   1.195   6.240   6.321
 8631SOL    HW226793   1.173   6.272   6.162
 8632SOL     OW26794   3.966   4.057   5.220
 8632SOL    HW126795   4.029   4.094   5.288
 8632SOL    HW226796   3.882   4.027   5.266
 8633SOL     OW26797   5.686   3.761   5.864
 8633SOL    HW126798   5.683   3.662   5.851
 8633SOL    HW226799   5.728   3.782   5.952
 8634SOL     OW26800   5.232   4.747   0.225
 8634SOL    HW126801   5.213   4.805   0.304
 8634SOL    HW226802   5.148   4.702   0.195
 8635SOL     OW26803   6.146   2.535   6.585
 8635SOL    HW126804   6.058   2.566   6.550
 8635SOL    HW226805   6.155   2.561   6.681
 8636SOL     OW26806   4.569   6.003   0.741
 8636SOL    HW126807   4.538   5.914   0.773
 8636SOL    HW226808   4.568   6.068   0.817
 8637SOL     OW26809   2.125   1.351   6.104
 8637SOL    HW126810   2.026   1.361   6.111
 8637SOL    HW226811   2.160   1.412   6.033
 8638SOL     OW26812   3.870   2.514   5.372
 8638SOL    HW126813   3.931   2.529   5.294
 8638SOL    HW226814   3.783   2.478   5.339
 8639SOL     OW26815   4.299   3.957   0.095
 8639SOL    HW126816   4.303   3.883   0.162
 8639SOL    HW226817   4.211   3.955   0.048
 8640SOL     OW26818   4.198   3.397   1.093
 8640SOL    HW126819   4.244   3.323   1.044
 8640SOL    HW226820   4.118   3.427   1.041
 8641SOL     OW26821   4.120   5.008   4.344
 8641SOL    HW126822   4.125   5.022   4.245
 8641SOL    HW226823   4.038   4.956   4.366
 8642SOL     OW26824   0.642   6.867   3.309
 8642SOL    HW126825   0.717   6.932   3.305
 8642SOL    HW226826   0.672   6.784   3.356
 8643SOL     OW26827   2.033   0.365   0.325
 8643SOL    HW126828   2.005   0.455   0.293
 8643SOL    HW226829   2.126   0.346   0.293
 8644SOL     OW26830   6.483   2.716   6.319
 8644SOL    HW126831   6.398   2.663   6.322
 8644SOL    HW226832   6.555   2.659   6.279
 8645SOL     OW26833   4.570   5.138   1.545
 8645SOL    HW126834   4.655   5.091   1.522
 8645SOL    HW226835   4.564   5.224   1.496
 8646SOL     OW26836   0.633   1.943   0.069
 8646SOL    HW126837   0.602   1.891   0.148
 8646SOL    HW226838   0.723   1.910   0.040
 8647SOL     OW26839   2.579   5.422   0.337
 8647SOL    HW126840   2.643   5.496   0.317
 8647SOL    HW226841   2.610   5.337   0.293
 8648SOL     OW26842   6.312   5.989   1.277
 8648SOL    HW126843   6.411   5.992   1.285
 8648SOL    HW226844   6.279   6.074   1.237
 8649SOL     OW26845   5.583   6.591   0.129
 8649SOL    HW126846   5.641   6.633   0.059
 8649SOL    HW226847   5.517   6.530   0.085
 8650SOL     OW26848   1.630   6.678   4.409
 8650SOL    HW126849   1.560   6.651   4.343
 8650SOL    HW226850   1.590   6.740   4.477
 8651SOL     OW26851   3.166   1.478   0.968
 8651SOL    HW126852   3.111   1.476   1.052
 8651SOL    HW226853   3.247   1.535   0.982
 8652SOL     OW26854   1.199   4.660   3.582
 8652SOL    HW126855   1.260   4.599   3.633
 8652SOL    HW226856   1.109   4.618   3.575
 8653SOL     OW26857   6.766   1.329   5.411
 8653SOL    HW126858   6.790   1.376   5.496
 8653SOL    HW226859   6.743   1.396   5.341
 8654SOL     OW26860   0.785   4.770   0.793
 8654SOL    HW126861   0.726   4.849   0.810
 8654SOL    HW226862   0.870   4.801   0.751
 8655SOL     OW26863   5.806   0.973   5.401
 8655SOL    HW126864   5.757   0.886   5.412
 8655SOL    HW226865   5.891   0.971   5.455
 8656SOL     OW26866   5.605   0.600   1.914
 8656SOL    HW126867   5.582   0.693   1.889
 8656SOL    HW226868   5.610   0.592   2.014
 8657SOL     OW26869   5.674   5.985   6.861
 8657SOL    HW126870   5.614   5.970   6.782
 8657SOL    HW226871   5.704   5.898   6.897
 8658SOL     OW26872   6.431   5.941   0.917
 8658SOL    HW126873   6.438   6.038   0.938
 8658SOL    HW226874   6.352   5.902   0.963
 8659SOL     OW26875   4.462   2.443   2.748
 8659SOL    HW126876   4.373   2.481   2.724
 8659SOL    HW226877   4.481   2.364   2.690
 8660SOL     OW26878   0.078   2.448   2.417
 8660SOL    HW126879   0.124   2.512   2.478
 8660SOL    HW226880   0.029   2.380   2.472
 8661SOL     OW26881   5.672   4.164   2.062
 8661SOL    HW126882   5.597   4.201   2.007
 8661SOL    HW226883   5.635   4.112   2.139
 8662SOL     OW26884   3.822   6.264   2.001
 8662SOL    HW126885   3.747   6.305   2.054
 8662SOL    HW226886   3.809   6.285   1.904
 8663SOL     OW26887   2.592   5.168   2.543
 8663SOL    HW126888   2.611   5.105   2.619
 8663SOL    HW226889   2.666   5.161   2.476
 8664SOL     OW26890   2.387   5.284   2.772
 8664SOL    HW126891   2.346   5.203   2.814
 8664SOL    HW226892   2.455   5.257   2.705
 8665SOL     OW26893   6.325   5.789   4.570
 8665SOL    HW126894   6.248   5.775   4.507
 8665SOL    HW226895   6.395   5.720   4.552
 8666SOL     OW26896   5.707   0.509   4.460
 8666SOL    HW126897   5.609   0.526   4.471
 8666SOL    HW226898   5.732   0.519   4.363
 8667SOL     OW26899   5.145   1.502   4.490
 8667SOL    HW126900   5.054   1.470   4.515
 8667SOL    HW226901   5.206   1.423   4.481
 8668SOL     OW26902   5.255   3.102   4.752
 8668SOL    HW126903   5.196   3.050   4.691
 8668SOL    HW226904   5.272   3.050   4.835
 8669SOL     OW26905   0.021   6.537   5.946
 8669SOL    HW126906   6.955   6.539   5.997
 8669SOL    HW226907   0.061   6.445   5.952
 8670SOL     OW26908   4.682   5.212   5.912
 8670SOL    HW126909   4.770   5.258   5.910
 8670SOL    HW226910   4.682   5.138   5.844
 8671SOL     OW26911   0.856   1.674   2.334
 8671SOL    HW126912   0.868   1.759   2.284
 8671SOL    HW226913   0.794   1.689   2.411
 8672SOL     OW26914   0.852   0.297   3.618
 8672SOL    HW126915   0.862   0.254   3.708
 8672SOL    HW226916   0.779   0.366   3.622
 8673SOL     OW26917   6.691   1.562   7.010
 8673SOL    HW126918   6.630   1.504   6.956
 8673SOL    HW226919   6.696   1.528   0.085
 8674SOL     OW26920   6.533   4.781   2.857
 8674SOL    HW126921   6.461   4.720   2.889
 8674SOL    HW226922   6.494   4.857   2.806
 8675SOL     OW26923   4.248   1.177   5.308
 8675SOL    HW126924   4.191   1.168   5.390
 8675SOL    HW226925   4.302   1.261   5.315
 8676SOL     OW26926   5.215   0.846   1.200
 8676SOL    HW126927   5.231   0.945   1.200
 8676SOL    HW226928   5.147   0.823   1.131
 8677SOL     OW26929   1.802   5.923   5.848
 8677SOL    HW126930   1.895   5.945   5.818
 8677SOL    HW226931   1.738   5.947   5.775
 8678SOL     OW26932   0.344   0.081   0.570
 8678SOL    HW126933   0.417   0.034   0.620
 8678SOL    HW226934   0.311   0.022   0.497
 8679SOL     OW26935   1.965   1.145   3.904
 8679SOL    HW126936   1.918   1.058   3.915
 8679SOL    HW226937   1.941   1.185   3.815
 8680SOL     OW26938   6.212   2.785   6.458
 8680SOL    HW126939   6.154   2.715   6.416
 8680SOL    HW226940   6.299   2.789   6.409
 8681SOL     OW26941   4.832   5.444   1.205
 8681SOL    HW126942   4.735   5.422   1.197
 8681SOL    HW226943   4.882   5.362   1.231
 8682SOL     OW26944   6.854   0.208   1.311
 8682SOL    HW126945   6.813   0.281   1.366
 8682SOL    HW226946   6.833   0.120   1.353
 8683SOL     OW26947   1.617   2.941   4.875
 8683SOL    HW126948   1.655   3.018   4.927
 8683SOL    HW226949   1.658   2.856   4.907
 8684SOL     OW26950   0.079   3.563   4.732
 8684SOL    HW126951   7.007   3.538   4.699
 8684SOL    HW226952   0.074   3.581   4.831
 8685SOL     OW26953   5.421   3.299   6.659
 8685SOL    HW126954   5.419   3.230   6.731
 8685SOL    HW226955   5.515   3.327   6.641
 8686SOL     OW26956   6.054   6.798   2.589
 8686SOL    HW126957   6.078   6.894   2.570
 8686SOL    HW226958   6.137   6.745   2.606
 8687SOL     OW26959   6.243   5.001   3.178
 8687SOL    HW126960   6.234   5.100   3.179
 8687SOL    HW226961   6.165   4.959   3.225
 8688SOL     OW26962   1.489   3.960   0.037
 8688SOL    HW126963   1.524   4.049   0.066
 8688SOL    HW226964   1.435   3.971   6.973
 8689SOL     OW26965   4.979   3.439   0.357
 8689SOL    HW126966   4.954   3.415   0.451
 8689SOL    HW226967   5.076   3.420   0.342
 8690SOL     OW26968   0.579   3.058   2.795
 8690SOL    HW126969   0.585   2.963   2.766
 8690SOL    HW226970   0.557   3.062   2.892
 8691SOL     OW26971   3.056   1.839   4.990
 8691SOL    HW126972   3.037   1.923   5.041
 8691SOL    HW226973   2.972   1.804   4.951
 8692SOL     OW26974   3.611   1.030   5.213
 8692SOL    HW126975   3.536   1.097   5.223
 8692SOL    HW226976   3.572   0.940   5.196
 8693SOL     OW26977   6.911   1.697   6.241
 8693SOL    HW126978   6.903   1.611   6.291
 8693SOL    HW226979   6.918   1.678   6.143
 8694SOL     OW26980   5.883   1.957   4.992
 8694SOL    HW126981   5.826   1.975   5.073
 8694SOL    HW226982   5.829   1.910   4.922
 8695SOL     OW26983   4.065   2.796   5.869
 8695SOL    HW126984   4.086   2.762   5.777
 8695SOL    HW226985   3.996   2.869   5.862
 8696SOL     OW26986   2.411   6.017   5.305
 8696SOL    HW126987   2.466   5.934   5.300
 8696SOL    HW226988   2.352   6.013   5.385
 8697SOL     OW26989   0.597   4.323   6.096
 8697SOL    HW126990   0.619   4.259   6.170
 8697SOL    HW226991   0.597   4.416   6.131
 8698SOL     OW26992   5.394   6.011   5.651
 8698SOL    HW126993   5.379   5.987   5.747
 8698SOL    HW226994   5.456   6.089   5.646
 8699SOL     OW26995   2.125   3.053   6.063
 8699SOL    HW126996   2.221   3.075   6.047
 8699SOL    HW226997   2.075   3.059   5.977
 8700SOL     OW26998   1.549   0.883   5.447
 8700SOL    HW126999   1.649   0.873   5.444
 8700SOL    HW227000   1.519   0.937   5.368
 8701SOL     OW27001   1.979   1.274   6.791
 8701SOL    HW127002   1.909   1.229   6.847
 8701SOL    HW227003   1.994   1.221   6.708
 8702SOL     OW27004   4.821   5.191   1.961
 8702SOL    HW127005   4.845   5.151   2.050
 8702SOL    HW227006   4.827   5.121   1.890
 8703SOL     OW27007   3.292   5.088   6.999
 8703SOL    HW127008   3.205   5.090   0.029
 8703SOL    HW227009   3.367   5.078   0.044
 8704SOL     OW27010   6.729   3.430   3.812
 8704SOL    HW127011   6.759   3.502   3.750
 8704SOL    HW227012   6.640   3.395   3.783
 8705SOL     OW27013   4.458   1.867   6.354
 8705SOL    HW127014   4.483   1.958   6.388
 8705SOL    HW227015   4.475   1.799   6.425
 8706SOL     OW27016   5.416   2.265   6.998
 8706SOL    HW127017   5.335   2.291   6.946
 8706SOL    HW227018   5.450   2.177   6.965
 8707SOL     OW27019   0.849   2.579   3.656
 8707SOL    HW127020   0.947   2.575   3.640
 8707SOL    HW227021   0.832   2.599   3.752
 8708SOL     OW27022   4.034   1.347   4.046
 8708SOL    HW127023   4.122   1.349   4.093
 8708SOL    HW227024   4.036   1.410   3.969
 8709SOL     OW27025   6.940   6.955   6.877
 8709SOL    HW127026   7.014   6.949   6.944
 8709SOL    HW227027   6.894   0.025   6.885
 8710SOL     OW27028   1.952   2.362   3.672
 8710SOL    HW127029   1.941   2.264   3.690
 8710SOL    HW227030   1.897   2.388   3.593
 8711SOL     OW27031   1.349   6.886   1.708
 8711SOL    HW127032   1.367   6.929   1.797
 8711SOL    HW227033   1.340   6.957   1.638
 8712SOL     OW27034   3.054   1.605   4.097
 8712SOL    HW127035   3.151   1.624   4.083
 8712SOL    HW227036   3.044   1.518   4.146
 8713SOL     OW27037   0.358   4.290   1.364
 8713SOL    HW127038   0.433   4.225   1.378
 8713SOL    HW227039   0.374   4.341   1.279
 8714SOL     OW27040   0.703   6.778   0.247
 8714SOL    HW127041   0.651   6.695   0.271
 8714SOL    HW227042   0.768   6.756   0.174
 8715SOL     OW27043   3.641   1.621   6.919
 8715SOL    HW127044   3.693   1.650   6.999
 8715SOL    HW227045   3.571   1.690   6.898
 8716SOL     OW27046   6.571   6.604   0.862
 8716SOL    HW127047   6.581   6.660   0.780
 8716SOL    HW227048   6.570   6.507   0.836
 8717SOL     OW27049   2.318   3.573   5.971
 8717SOL    HW127050   2.360   3.646   6.025
 8717SOL    HW227051   2.359   3.570   5.880
 8718SOL     OW27052   1.606   2.327   6.315
 8718SOL    HW127053   1.679   2.259   6.316
 8718SOL    HW227054   1.642   2.416   6.346
 8719SOL     OW27055   4.137   1.026   0.265
 8719SOL    HW127056   4.051   1.077   0.268
 8719SOL    HW227057   4.185   1.048   0.179
 8720SOL     OW27058   0.207   5.648   5.960
 8720SOL    HW127059   0.256   5.630   6.045
 8720SOL    HW227060   0.115   5.608   5.965
 8721SOL     OW27061   6.340   0.170   0.503
 8721SOL    HW127062   6.322   0.074   0.524
 8721SOL    HW227063   6.396   0.176   0.420
 8722SOL     OW27064   3.353   1.008   0.298
 8722SOL    HW127065   3.348   1.003   0.398
 8722SOL    HW227066   3.392   1.095   0.271
 8723SOL     OW27067   5.822   6.886   2.380
 8723SOL    HW127068   5.885   6.946   2.430
 8723SOL    HW227069   5.768   6.941   2.316
 8724SOL     OW27070   5.785   0.478   4.197
 8724SOL    HW127071   5.761   0.525   4.112
 8724SOL    HW227072   5.748   0.385   4.196
 8725SOL     OW27073   0.479   6.496   5.053
 8725SOL    HW127074   0.513   6.404   5.075
 8725SOL    HW227075   0.412   6.490   4.980
 8726SOL     OW27076   6.933   0.738   0.586
 8726SOL    HW127077   6.895   0.810   0.528
 8726SOL    HW227078   0.013   0.745   0.587
 8727SOL     OW27079   5.654   7.017   0.145
 8727SOL    HW127080   5.634   6.995   0.050
 8727SOL    HW227081   5.649   6.934   0.200
 8728SOL     OW27082   5.603   1.595   2.241
 8728SOL    HW127083   5.505   1.591   2.258
 8728SOL    HW227084   5.639   1.501   2.235
 8729SOL     OW27085   3.118   5.248   5.505
 8729SOL    HW127086   3.087   5.231   5.598
 8729SOL    HW227087   3.150   5.162   5.464
 8730SOL     OW27088   4.937   4.603   3.166
 8730SOL    HW127089   4.894   4.619   3.254
 8730SOL    HW227090   4.983   4.687   3.135
 8731SOL     OW27091   0.582   3.090   3.099
 8731SOL    HW127092   0.665   3.045   3.128
 8731SOL    HW227093   0.579   3.183   3.137
 8732SOL     OW27094   5.465   4.257   1.797
 8732SOL    HW127095   5.418   4.187   1.851
 8732SOL    HW227096   5.463   4.231   1.701
 8733SOL     OW27097   0.923   5.876   0.905
 8733SOL    HW127098   0.991   5.940   0.941
 8733SOL    HW227099   0.900   5.809   0.974
 8734SOL     OW27100   6.958   3.384   2.334
 8734SOL    HW127101   7.016   3.462   2.355
 8734SOL    HW227102   6.898   3.406   2.257
 8735SOL     OW27103   1.068   3.095   5.379
 8735SOL    HW127104   1.159   3.135   5.368
 8735SOL    HW227105   1.016   3.148   5.446
 8736SOL     OW27106   0.318   5.167   2.251
 8736SOL    HW127107   0.224   5.143   2.275
 8736SOL    HW227108   0.365   5.202   2.331
 8737SOL     OW27109   2.556   6.636   6.476
 8737SOL    HW127110   2.629   6.689   6.432
 8737SOL    HW227111   2.496   6.698   6.526
 8738SOL     OW27112   2.172   4.977   3.464
 8738SOL    HW127113   2.207   4.971   3.371
 8738SOL    HW227114   2.180   5.071   3.497
 8739SOL     OW27115   4.998   4.446   5.508
 8739SOL    HW127116   4.996   4.464   5.607
 8739SOL    HW227117   5.087   4.475   5.472
 8740SOL     OW27118   3.620   2.028   2.670
 8740SOL    HW127119   3.643   1.948   2.724
 8740SOL    HW227120   3.661   2.021   2.579
 8741SOL     OW27121   2.611   0.521   2.665
 8741SOL    HW127122   2.656   0.533   2.754
 8741SOL    HW227123   2.670   0.558   2.593
 8742SOL     OW27124   4.055   0.013   2.139
 8742SOL    HW127125   3.955   0.021   2.144
 8742SOL    HW227126   4.079   6.969   2.065
 8743SOL     OW27127   1.888   1.233   1.973
 8743SOL    HW127128   1.815   1.264   1.912
 8743SOL    HW227129   1.918   1.309   2.031
 8744SOL     OW27130   4.661   2.823   0.796
 8744SOL    HW127131   4.616   2.808   0.884
 8744SOL    HW227132   4.706   2.738   0.767
 8745SOL     OW27133   6.872   2.649   6.584
 8745SOL    HW127134   6.775   2.629   6.571
 8745SOL    HW227135   6.922   2.564   6.597
 8746SOL     OW27136   4.852   5.483   4.787
 8746SOL    HW127137   4.946   5.491   4.821
 8746SOL    HW227138   4.802   5.418   4.843
 8747SOL     OW27139   6.754   1.588   2.145
 8747SOL    HW127140   6.835   1.578   2.201
 8747SOL    HW227141   6.673   1.557   2.196
 8748SOL     OW27142   0.974   1.668   4.480
 8748SOL    HW127143   1.074   1.676   4.473
 8748SOL    HW227144   0.932   1.742   4.428
 8749SOL     OW27145   1.994   0.911   5.226
 8749SOL    HW127146   2.044   0.878   5.146
 8749SOL    HW227147   2.024   1.003   5.249
 8750SOL     OW27148   4.079   2.956   5.330
 8750SOL    HW127149   4.130   3.042   5.323
 8750SOL    HW227150   4.141   2.879   5.312
 8751SOL     OW27151   6.699   0.195   1.068
 8751SOL    HW127152   6.755   0.217   1.148
 8751SOL    HW227153   6.757   0.161   0.995
 8752SOL     OW27154   4.894   2.821   6.883
 8752SOL    HW127155   4.874   2.900   6.941
 8752SOL    HW227156   4.811   2.765   6.874
 8753SOL     OW27157   2.256   3.861   0.268
 8753SOL    HW127158   2.300   3.877   0.180
 8753SOL    HW227159   2.273   3.766   0.297
 8754SOL     OW27160   2.951   4.814   5.981
 8754SOL    HW127161   3.032   4.826   5.924
 8754SOL    HW227162   2.924   4.902   6.020
 8755SOL     OW27163   1.813   0.952   1.124
 8755SOL    HW127164   1.815   0.904   1.037
 8755SOL    HW227165   1.768   0.895   1.193
 8756SOL     OW27166   1.664   2.679   3.608
 8756SOL    HW127167   1.756   2.717   3.605
 8756SOL    HW227168   1.645   2.644   3.699
 8757SOL     OW27169   5.042   5.789   6.239
 8757SOL    HW127170   5.053   5.754   6.146
 8757SOL    HW227171   4.954   5.759   6.275
 8758SOL     OW27172   4.581   6.508   3.842
 8758SOL    HW127173   4.514   6.434   3.839
 8758SOL    HW227174   4.534   6.596   3.840
 8759SOL     OW27175   6.090   1.817   0.122
 8759SOL    HW127176   6.161   1.816   0.052
 8759SOL    HW227177   6.001   1.829   0.079
 8760SOL     OW27178   2.486   1.774   4.326
 8760SOL    HW127179   2.470   1.699   4.262
 8760SOL    HW227180   2.558   1.834   4.290
 8761SOL     OW27181   6.316   2.225   1.785
 8761SOL    HW127182   6.298   2.147   1.724
 8761SOL    HW227183   6.401   2.208   1.836
 8762SOL     OW27184   1.577   5.968   4.170
 8762SOL    HW127185   1.526   5.900   4.116
 8762SOL    HW227186   1.513   6.033   4.211
 8763SOL     OW27187   6.326   0.239   4.953
 8763SOL    HW127188   6.296   0.187   5.033
 8763SOL    HW227189   6.408   0.197   4.914
 8764SOL     OW27190   4.807   6.041   6.131
 8764SOL    HW127191   4.719   6.014   6.170
 8764SOL    HW227192   4.813   6.141   6.127
 8765SOL     OW27193   5.436   1.134   5.020
 8765SOL    HW127194   5.463   1.228   5.041
 8765SOL    HW227195   5.517   1.077   5.011
 8766SOL     OW27196   4.230   4.307   5.378
 8766SOL    HW127197   4.272   4.394   5.353
 8766SOL    HW227198   4.159   4.322   5.447
 8767SOL     OW27199   3.595   0.275   3.741
 8767SOL    HW127200   3.677   0.260   3.687
 8767SOL    HW227201   3.620   0.302   3.834
 8768SOL     OW27202   0.779   1.699   1.082
 8768SOL    HW127203   0.851   1.640   1.118
 8768SOL    HW227204   0.739   1.753   1.157
 8769SOL     OW27205   0.086   1.160   2.014
 8769SOL    HW127206   0.169   1.148   2.067
 8769SOL    HW227207   0.071   1.080   1.956
 8770SOL     OW27208   4.925   4.873   2.152
 8770SOL    HW127209   5.007   4.817   2.165
 8770SOL    HW227210   4.846   4.813   2.144
 8771SOL     OW27211   0.464   3.001   6.004
 8771SOL    HW127212   0.529   2.963   6.070
 8771SOL    HW227213   0.494   2.976   5.911
 8772SOL     OW27214   5.059   0.588   5.498
 8772SOL    HW127215   5.046   0.687   5.494
 8772SOL    HW227216   4.978   0.545   5.537
 8773SOL     OW27217   5.775   2.505   3.262
 8773SOL    HW127218   5.868   2.541   3.263
 8773SOL    HW227219   5.756   2.460   3.350
 8774SOL     OW27220   0.687   6.712   6.500
 8774SOL    HW127221   0.777   6.693   6.460
 8774SOL    HW227222   0.616   6.667   6.446
 8775SOL     OW27223   5.210   1.144   5.816
 8775SOL    HW127224   5.298   1.144   5.769
 8775SOL    HW227225   5.196   1.232   5.861
 8776SOL     OW27226   4.819   2.975   1.418
 8776SOL    HW127227   4.917   2.996   1.412
 8776SOL    HW227228   4.782   3.014   1.503
 8777SOL     OW27229   0.387   3.541   3.269
 8777SOL    HW127230   0.299   3.533   3.316
 8777SOL    HW227231   0.426   3.450   3.254
 8778SOL     OW27232   4.483   3.780   6.035
 8778SOL    HW127233   4.397   3.792   5.986
 8778SOL    HW227234   4.491   3.685   6.065
 8779SOL     OW27235   2.589   5.959   2.398
 8779SOL    HW127236   2.664   5.902   2.431
 8779SOL    HW227237   2.578   6.037   2.460
 8780SOL     OW27238   0.778   5.884   3.091
 8780SOL    HW127239   0.810   5.799   3.050
 8780SOL    HW227240   0.691   5.910   3.050
 8781SOL     OW27241   4.511   6.878   2.677
 8781SOL    HW127242   4.580   6.839   2.616
 8781SOL    HW227243   4.420   6.860   2.638
 8782SOL     OW27244   6.268   1.260   1.752
 8782SOL    HW127245   6.238   1.165   1.747
 8782SOL    HW227246   6.191   1.321   1.732
 8783SOL     OW27247   6.160   3.649   3.951
 8783SOL    HW127248   6.243   3.604   3.983
 8783SOL    HW227249   6.100   3.667   4.029
 8784SOL     OW27250   6.431   6.239   0.916
 8784SOL    HW127251   6.491   6.274   0.843
 8784SOL    HW227252   6.472   6.259   1.005
 8785SOL     OW27253   0.218   5.207   5.891
 8785SOL    HW127254   0.291   5.229   5.955
 8785SOL    HW227255   0.256   5.168   5.807
 8786SOL     OW27256   3.749   1.746   2.407
 8786SOL    HW127257   3.775   1.838   2.436
 8786SOL    HW227258   3.661   1.722   2.447
 8787SOL     OW27259   3.401   0.697   2.069
 8787SOL    HW127260   3.395   0.693   1.970
 8787SOL    HW227261   3.310   0.687   2.110
 8788SOL     OW27262   6.636   1.076   5.109
 8788SOL    HW127263   6.601   0.999   5.162
 8788SOL    HW227264   6.559   1.125   5.068
 8789SOL     OW27265   6.796   4.152   5.466
 8789SOL    HW127266   6.827   4.146   5.371
 8789SOL    HW227267   6.706   4.110   5.474
 8790SOL     OW27268   6.552   1.732   6.769
 8790SOL    HW127269   6.494   1.813   6.765
 8790SOL    HW227270   6.601   1.729   6.856
 8791SOL     OW27271   4.956   6.465   4.689
 8791SOL    HW127272   4.899   6.404   4.744
 8791SOL    HW227273   4.930   6.560   4.706
 8792SOL     OW27274   2.984   4.786   2.840
 8792SOL    HW127275   3.009   4.881   2.817
 8792SOL    HW227276   2.949   4.741   2.758
 8793SOL     OW27277   0.965   4.721   3.741
 8793SOL    HW127278   0.983   4.802   3.684
 8793SOL    HW227279   1.013   4.730   3.828
 8794SOL     OW27280   6.622   0.841   3.602
 8794SOL    HW127281   6.592   0.849   3.507
 8794SOL    HW227282   6.658   0.929   3.633
 8795SOL     OW27283   1.167   5.137   5.212
 8795SOL    HW127284   1.143   5.228   5.246
 8795SOL    HW227285   1.085   5.092   5.176
 8796SOL     OW27286   5.976   3.533   3.414
 8796SOL    HW127287   5.923   3.584   3.481
 8796SOL    HW227288   5.974   3.436   3.436
 8797SOL     OW27289   6.873   0.037   4.209
 8797SOL    HW127290   6.941   7.012   4.268
 8797SOL    HW227291   6.898   0.132   4.193
 8798SOL     OW27292   4.645   6.513   5.561
 8798SOL    HW127293   4.587   6.449   5.511
 8798SOL    HW227294   4.740   6.483   5.556
 8799SOL     OW27295   2.543   4.511   2.299
 8799SOL    HW127296   2.481   4.434   2.285
 8799SOL    HW227297   2.626   4.498   2.245
 8800SOL     OW27298   5.987   5.714   5.705
 8800SOL    HW127299   6.012   5.714   5.802
 8800SOL    HW227300   6.070   5.716   5.649
 8801SOL     OW27301   6.199   1.886   5.145
 8801SOL    HW127302   6.172   1.971   5.191
 8801SOL    HW227303   6.118   1.830   5.128
 8802SOL     OW27304   1.498   5.662   5.504
 8802SOL    HW127305   1.400   5.683   5.512
 8802SOL    HW227306   1.512   5.564   5.517
 8803SOL     OW27307   0.044   0.990   0.222
 8803SOL    HW127308   0.132   0.986   0.269
 8803SOL    HW227309   6.991   1.011   0.289
 8804SOL     OW27310   1.568   6.206   1.151
 8804SOL    HW127311   1.620   6.176   1.231
 8804SOL    HW227312   1.632   6.231   1.078
 8805SOL     OW27313   3.968   5.229   3.654
 8805SOL    HW127314   4.034   5.283   3.602
 8805SOL    HW227315   3.981   5.132   3.634
 8806SOL     OW27316   2.261   5.420   0.493
 8806SOL    HW127317   2.355   5.427   0.526
 8806SOL    HW227318   2.261   5.405   0.395
 8807SOL     OW27319   4.227   2.296   0.040
 8807SOL    HW127320   4.139   2.325   0.003
 8807SOL    HW227321   4.250   2.206   0.003
 8808SOL     OW27322   0.497   2.242   6.738
 8808SOL    HW127323   0.538   2.224   6.827
 8808SOL    HW227324   0.553   2.308   6.688
 8809SOL     OW27325   2.316   4.280   3.325
 8809SOL    HW127326   2.350   4.312   3.413
 8809SOL    HW227327   2.270   4.191   3.336
 8810SOL     OW27328   5.850   1.286   5.130
 8810SOL    HW127329   5.902   1.256   5.049
 8810SOL    HW227330   5.911   1.290   5.209
 8811SOL     OW27331   4.017   0.427   2.543
 8811SOL    HW127332   4.019   0.478   2.629
 8811SOL    HW227333   4.065   0.479   2.472
 8812SOL     OW27334   3.019   0.446   6.730
 8812SOL    HW127335   3.061   0.508   6.665
 8812SOL    HW227336   2.923   0.472   6.744
 8813SOL     OW27337   2.011   4.451   2.350
 8813SOL    HW127338   2.100   4.493   2.331
 8813SOL    HW227339   1.999   4.370   2.292
 8814SOL     OW27340   5.333   6.774   0.362
 8814SOL    HW127341   5.433   6.784   0.357
 8814SOL    HW227342   5.303   6.788   0.457
 8815SOL     OW27343   5.534   0.314   1.548
 8815SOL    HW127344   5.498   0.232   1.504
 8815SOL    HW227345   5.584   0.287   1.631
 8816SOL     OW27346   0.353   6.548   6.972
 8816SOL    HW127347   0.451   6.563   6.983
 8816SOL    HW227348   0.332   6.531   6.875
 8817SOL     OW27349   0.577   3.700   4.067
 8817SOL    HW127350   0.651   3.650   4.112
 8817SOL    HW227351   0.500   3.709   4.129
 8818SOL     OW27352   1.152   6.559   2.789
 8818SOL    HW127353   1.202   6.488   2.839
 8818SOL    HW227354   1.057   6.560   2.818
 8819SOL     OW27355   5.826   4.385   5.297
 8819SOL    HW127356   5.757   4.384   5.224
 8819SOL    HW227357   5.917   4.392   5.256
 8820SOL     OW27358   2.956   1.568   4.696
 8820SOL    HW127359   3.025   1.638   4.716
 8820SOL    HW227360   2.978   1.524   4.609
 8821SOL     OW27361   1.124   5.538   0.004
 8821SOL    HW127362   1.077   5.608   6.969
 8821SOL    HW227363   1.214   5.520   6.983
 8822SOL     OW27364   0.436   0.215   2.967
 8822SOL    HW127365   0.495   0.239   3.045
 8822SOL    HW227366   0.341   0.225   2.994
 8823SOL     OW27367   2.263   0.727   2.057
 8823SOL    HW127368   2.234   0.637   2.025
 8823SOL    HW227369   2.208   0.798   2.012
 8824SOL     OW27370   1.104   0.688   1.112
 8824SOL    HW127371   1.163   0.764   1.086
 8824SOL    HW227372   1.108   0.675   1.211
 8825SOL     OW27373   0.668   0.493   1.669
 8825SOL    HW127374   0.599   0.427   1.639
 8825SOL    HW227375   0.708   0.462   1.755
 8826SOL     OW27376   0.845   3.394   1.410
 8826SOL    HW127377   0.753   3.390   1.450
 8826SOL    HW227378   0.909   3.344   1.468
 8827SOL     OW27379   3.881   0.182   2.621
 8827SOL    HW127380   3.944   0.251   2.586
 8827SOL    HW227381   3.804   0.172   2.558
 8828SOL     OW27382   3.841   4.725   6.358
 8828SOL    HW127383   3.829   4.632   6.324
 8828SOL    HW227384   3.802   4.732   6.450
 8829SOL     OW27385   6.175   1.575   1.834
 8829SOL    HW127386   6.264   1.583   1.790
 8829SOL    HW227387   6.117   1.512   1.781
 8830SOL     OW27388   1.877   1.594   2.741
 8830SOL    HW127389   1.800   1.622   2.685
 8830SOL    HW227390   1.870   1.634   2.832
 8831SOL     OW27391   6.376   3.290   2.475
 8831SOL    HW127392   6.371   3.194   2.447
 8831SOL    HW227393   6.412   3.345   2.399
 8832SOL     OW27394   0.171   6.363   4.280
 8832SOL    HW127395   0.089   6.419   4.274
 8832SOL    HW227396   0.246   6.417   4.318
 8833SOL     OW27397   3.757   3.996   0.202
 8833SOL    HW127398   3.747   3.928   0.275
 8833SOL    HW227399   3.791   4.082   0.242
 8834SOL     OW27400   6.206   3.122   4.900
 8834SOL    HW127401   6.304   3.132   4.917
 8834SOL    HW227402   6.176   3.032   4.929
 8835SOL     OW27403   5.862   1.585   6.362
 8835SOL    HW127404   5.889   1.497   6.322
 8835SOL    HW227405   5.922   1.606   6.439
 8836SOL     OW27406   5.508   2.281   0.464
 8836SOL    HW127407   5.516   2.249   0.559
 8836SOL    HW227408   5.567   2.360   0.451
 8837SOL     OW27409   6.822   0.345   1.918
 8837SOL    HW127410   6.869   0.295   1.991
 8837SOL    HW227411   6.729   0.369   1.948
 8838SOL     OW27412   0.547   4.650   2.509
 8838SOL    HW127413   0.505   4.723   2.456
 8838SOL    HW227414   0.541   4.672   2.606
 8839SOL     OW27415   4.461   5.946   2.528
 8839SOL    HW127416   4.524   5.868   2.538
 8839SOL    HW227417   4.474   5.987   2.438
 8840SOL     OW27418   5.695   0.272   1.785
 8840SOL    HW127419   5.671   0.369   1.793
 8840SOL    HW227420   5.709   0.233   1.876
 8841SOL     OW27421   5.028   1.378   2.671
 8841SOL    HW127422   4.961   1.443   2.636
 8841SOL    HW227423   5.017   1.370   2.770
 8842SOL     OW27424   3.272   4.093   3.964
 8842SOL    HW127425   3.204   4.045   3.907
 8842SOL    HW227426   3.257   4.069   4.060
 8843SOL     OW27427   1.904   3.090   4.605
 8843SOL    HW127428   1.907   3.094   4.705
 8843SOL    HW227429   1.832   3.027   4.576
 8844SOL     OW27430   6.817   1.667   5.059
 8844SOL    HW127431   6.876   1.670   5.140
 8844SOL    HW227432   6.870   1.694   4.979
 8845SOL     OW27433   2.444   4.799   0.390
 8845SOL    HW127434   2.442   4.887   0.439
 8845SOL    HW227435   2.394   4.809   0.304
 8846SOL     OW27436   5.860   4.909   4.359
 8846SOL    HW127437   5.769   4.942   4.384
 8846SOL    HW227438   5.877   4.928   4.262
 8847SOL     OW27439   1.784   0.880   2.455
 8847SOL    HW127440   1.828   0.858   2.368
 8847SOL    HW227441   1.706   0.820   2.469
 8848SOL     OW27442   3.209   2.116   2.074
 8848SOL    HW127443   3.179   2.023   2.097
 8848SOL    HW227444   3.135   2.180   2.092
 8849SOL     OW27445   3.272   4.902   3.632
 8849SOL    HW127446   3.312   4.979   3.581
 8849SOL    HW227447   3.324   4.888   3.716
 8850SOL     OW27448   2.814   1.058   0.924
 8850SOL    HW127449   2.777   0.965   0.934
 8850SOL    HW227450   2.821   1.101   1.014
 8851SOL     OW27451   1.217   4.463   2.189
 8851SOL    HW127452   1.222   4.548   2.241
 8851SOL    HW227453   1.179   4.482   2.098
 8852SOL     OW27454   4.958   3.148   6.234
 8852SOL    HW127455   4.982   3.233   6.188
 8852SOL    HW227456   5.006   3.072   6.191
 8853SOL     OW27457   3.680   7.016   4.047
 8853SOL    HW127458   3.706   0.022   3.953
 8853SOL    HW227459   3.698   0.074   4.107
 8854SOL     OW27460   2.406   0.646   6.412
 8854SOL    HW127461   2.476   0.716   6.400
 8854SOL    HW227462   2.319   0.689   6.438
 8855SOL     OW27463   6.580   6.198   0.209
 8855SOL    HW127464   6.661   6.162   0.255
 8855SOL    HW227465   6.600   6.212   0.112
 8856SOL     OW27466   6.298   6.862   5.654
 8856SOL    HW127467   6.282   6.840   5.558
 8856SOL    HW227468   6.339   6.953   5.662
 8857SOL     OW27469   6.239   1.725   3.826
 8857SOL    HW127470   6.203   1.773   3.745
 8857SOL    HW227471   6.319   1.671   3.800
 8858SOL     OW27472   2.221   3.199   5.780
 8858SOL    HW127473   2.152   3.253   5.827
 8858SOL    HW227474   2.312   3.227   5.812
 8859SOL     OW27475   0.470   0.091   5.514
 8859SOL    HW127476   0.380   0.135   5.506
 8859SOL    HW227477   0.495   0.086   5.611
 8860SOL     OW27478   1.631   3.821   2.945
 8860SOL    HW127479   1.710   3.761   2.958
 8860SOL    HW227480   1.574   3.820   3.027
 8861SOL     OW27481   2.729   2.352   6.483
 8861SOL    HW127482   2.679   2.274   6.520
 8861SOL    HW227483   2.667   2.408   6.429
 8862SOL     OW27484   6.146   1.324   3.702
 8862SOL    HW127485   6.133   1.372   3.615
 8862SOL    HW227486   6.151   1.226   3.685
 8863SOL     OW27487   1.418   5.374   4.664
 8863SOL    HW127488   1.408   5.458   4.612
 8863SOL    HW227489   1.508   5.373   4.709
 8864SOL     OW27490   2.420   3.573   6.397
 8864SOL    HW127491   2.438   3.493   6.454
 8864SOL    HW227492   2.373   3.546   6.314
 8865SOL     OW27493   3.109   1.619   5.130
 8865SOL    HW127494   3.172   1.562   5.078
 8865SOL    HW227495   3.090   1.703   5.079
 8866SOL     OW27496   4.951   0.043   4.139
 8866SOL    HW127497   4.964   6.991   4.071
 8866SOL    HW227498   4.873   0.020   4.198
 8867SOL     OW27499   5.040   2.550   3.147
 8867SOL    HW127500   4.962   2.547   3.085
 8867SOL    HW227501   5.010   2.580   3.237
 8868SOL     OW27502   5.631   3.886   0.704
 8868SOL    HW127503   5.654   3.791   0.722
 8868SOL    HW227504   5.715   3.940   0.697
 8869SOL     OW27505   4.315   5.445   3.438
 8869SOL    HW127506   4.258   5.428   3.519
 8869SOL    HW227507   4.315   5.364   3.380
 8870SOL     OW27508   3.279   0.223   0.366
 8870SOL    HW127509   3.207   0.233   0.435
 8870SOL    HW227510   3.367   0.246   0.407
 8871SOL     OW27511   3.602   1.369   3.915
 8871SOL    HW127512   3.650   1.320   3.987
 8871SOL    HW227513   3.656   1.448   3.886
 8872SOL     OW27514   1.620   4.071   4.369
 8872SOL    HW127515   1.594   4.114   4.283
 8872SOL    HW227516   1.538   4.056   4.425
 8873SOL     OW27517   6.367   6.196   1.830
 8873SOL    HW127518   6.277   6.236   1.846
 8873SOL    HW227519   6.361   6.125   1.760
 8874SOL     OW27520   1.881   6.888   1.150
 8874SOL    HW127521   1.872   6.942   1.235
 8874SOL    HW227522   1.856   6.945   1.072
 8875SOL     OW27523   1.027   2.397   4.302
 8875SOL    HW127524   0.963   2.436   4.236
 8875SOL    HW227525   1.017   2.443   4.390
 8876SOL     OW27526   1.018   0.069   4.560
 8876SOL    HW127527   0.992   0.155   4.605
 8876SOL    HW227528   1.016   0.081   4.461
 8877SOL     OW27529   2.996   0.648   4.727
 8877SOL    HW127530   3.069   0.660   4.794
 8877SOL    HW227531   2.991   0.729   4.669
 8878SOL     OW27532   0.894   5.421   0.519
 8878SOL    HW127533   0.965   5.481   0.483
 8878SOL    HW227534   0.894   5.425   0.619
 8879SOL     OW27535   6.307   5.214   1.198
 8879SOL    HW127536   6.271   5.194   1.107
 8879SOL    HW227537   6.348   5.306   1.198
 8880SOL     OW27538   0.017   5.579   4.504
 8880SOL    HW127539   0.028   5.626   4.592
 8880SOL    HW227540   0.047   5.484   4.514
 8881SOL     OW27541   6.054   6.950   3.647
 8881SOL    HW127542   5.966   6.986   3.677
 8881SOL    HW227543   6.128   7.010   3.681
 8882SOL     OW27544   5.154   1.577   0.560
 8882SOL    HW127545   5.219   1.608   0.630
 8882SOL    HW227546   5.196   1.504   0.506
 8883SOL     OW27547   0.738   1.392   5.760
 8883SOL    HW127548   0.759   1.482   5.723
 8883SOL    HW227549   0.693   1.401   5.849
 8884SOL     OW27550   5.957   6.525   6.602
 8884SOL    HW127551   5.873   6.513   6.656
 8884SOL    HW227552   5.950   6.471   6.518
 8885SOL     OW27553   6.647   4.130   1.356
 8885SOL    HW127554   6.678   4.205   1.415
 8885SOL    HW227555   6.680   4.146   1.263
 8886SOL     OW27556   3.172   5.875   5.824
 8886SOL    HW127557   3.210   5.803   5.767
 8886SOL    HW227558   3.163   5.842   5.918
 8887SOL     OW27559   3.168   1.415   1.251
 8887SOL    HW127560   3.165   1.316   1.235
 8887SOL    HW227561   3.143   1.434   1.346
 8888SOL     OW27562   0.619   1.820   1.430
 8888SOL    HW127563   0.530   1.812   1.386
 8888SOL    HW227564   0.665   1.731   1.431
 8889SOL     OW27565   5.266   6.539   5.918
 8889SOL    HW127566   5.187   6.594   5.890
 8889SOL    HW227567   5.244   6.442   5.910
 8890SOL     OW27568   6.508   6.185   4.602
 8890SOL    HW127569   6.510   6.265   4.542
 8890SOL    HW227570   6.588   6.128   4.583
 8891SOL     OW27571   5.976   3.374   6.009
 8891SOL    HW127572   5.974   3.397   6.106
 8891SOL    HW227573   6.023   3.287   5.996
 8892SOL     OW27574   3.007   6.076   3.701
 8892SOL    HW127575   2.992   5.980   3.680
 8892SOL    HW227576   2.921   6.126   3.689
 8893SOL     OW27577   0.999   0.706   1.817
 8893SOL    HW127578   0.956   0.744   1.735
 8893SOL    HW227579   0.929   0.662   1.874
 8894SOL     OW27580   3.831   3.222   5.619
 8894SOL    HW127581   3.759   3.251   5.682
 8894SOL    HW227582   3.907   3.184   5.671
 8895SOL     OW27583   6.729   1.327   2.014
 8895SOL    HW127584   6.737   1.416   2.059
 8895SOL    HW227585   6.638   1.317   1.974
 8896SOL     OW27586   1.735   3.321   4.536
 8896SOL    HW127587   1.821   3.274   4.516
 8896SOL    HW227588   1.726   3.333   4.635
 8897SOL     OW27589   1.637   1.802   2.658
 8897SOL    HW127590   1.684   1.889   2.674
 8897SOL    HW227591   1.562   1.816   2.593
 8898SOL     OW27592   6.229   3.147   4.633
 8898SOL    HW127593   6.184   3.145   4.723
 8898SOL    HW227594   6.321   3.109   4.641
 8899SOL     OW27595   1.543   4.462   0.358
 8899SOL    HW127596   1.593   4.538   0.399
 8899SOL    HW227597   1.535   4.476   0.259
 8900SOL     OW27598   5.603   3.974   2.972
 8900SOL    HW127599   5.679   3.986   3.035
 8900SOL    HW227600   5.567   3.881   2.980
 8901SOL     OW27601   2.775   0.977   4.375
 8901SOL    HW127602   2.689   0.936   4.404
 8901SOL    HW227603   2.772   1.076   4.388
 8902SOL     OW27604   3.226   6.177   6.853
 8902SOL    HW127605   3.312   6.180   6.803
 8902SOL    HW227606   3.193   6.082   6.858
 8903SOL     OW27607   1.895   0.772   4.145
 8903SOL    HW127608   1.853   0.821   4.221
 8903SOL    HW227609   1.913   0.837   4.070
 8904SOL     OW27610   0.060   5.012   3.695
 8904SOL    HW127611   0.023   4.933   3.647
 8904SOL    HW227612   0.137   4.984   3.752
 8905SOL     OW27613   2.173   4.042   4.546
 8905SOL    HW127614   2.235   4.056   4.622
 8905SOL    HW227615   2.087   4.003   4.579
 8906SOL     OW27616   6.636   6.705   6.872
 8906SOL    HW127617   6.687   6.725   6.788
 8906SOL    HW227618   6.631   6.787   6.929
 8907SOL     OW27619   3.555   2.087   4.660
 8907SOL    HW127620   3.461   2.110   4.632
 8907SOL    HW227621   3.563   2.094   4.759
 8908SOL     OW27622   1.436   2.852   6.926
 8908SOL    HW127623   1.417   2.881   0.001
 8908SOL    HW227624   1.534   2.839   6.915
 8909SOL     OW27625   2.262   0.487   5.168
 8909SOL    HW127626   2.179   0.542   5.179
 8909SOL    HW227627   2.250   0.399   5.215
 8910SOL     OW27628   2.317   3.435   6.210
 8910SOL    HW127629   2.305   3.476   6.119
 8910SOL    HW227630   2.238   3.378   6.232
 8911SOL     OW27631   3.924   2.049   4.768
 8911SOL    HW127632   3.918   2.018   4.863
 8911SOL    HW227633   3.973   2.136   4.764
 8912SOL     OW27634   4.071   1.476   6.575
 8912SOL    HW127635   4.062   1.559   6.630
 8912SOL    HW227636   4.011   1.405   6.613
 8913SOL     OW27637   4.603   5.215   0.663
 8913SOL    HW127638   4.532   5.161   0.708
 8913SOL    HW227639   4.661   5.155   0.608
 8914SOL     OW27640   4.471   0.686   5.881
 8914SOL    HW127641   4.540   0.615   5.871
 8914SOL    HW227642   4.513   0.776   5.872
 8915SOL     OW27643   0.692   2.742   4.109
 8915SOL    HW127644   0.637   2.795   4.044
 8915SOL    HW227645   0.787   2.772   4.104
 8916SOL     OW27646   0.377   3.741   2.229
 8916SOL    HW127647   0.440   3.678   2.182
 8916SOL    HW227648   0.284   3.724   2.198
 8917SOL     OW27649   5.615   5.000   6.300
 8917SOL    HW127650   5.633   4.993   6.202
 8917SOL    HW227651   5.531   4.951   6.322
 8918SOL     OW27652   6.845   6.239   0.941
 8918SOL    HW127653   6.766   6.291   0.974
 8918SOL    HW227654   6.928   6.293   0.952
 8919SOL     OW27655   4.210   3.252   0.640
 8919SOL    HW127656   4.227   3.216   0.548
 8919SOL    HW227657   4.297   3.262   0.689
 8920SOL     OW27658   6.699   6.584   6.498
 8920SOL    HW127659   6.606   6.619   6.506
 8920SOL    HW227660   6.764   6.659   6.509
 8921SOL     OW27661   2.426   1.611   2.964
 8921SOL    HW127662   2.490   1.649   3.031
 8921SOL    HW227663   2.476   1.574   2.887
 8922SOL     OW27664   2.313   4.962   1.270
 8922SOL    HW127665   2.379   5.036   1.281
 8922SOL    HW227666   2.311   4.906   1.353
 8923SOL     OW27667   1.726   3.613   6.203
 8923SOL    HW127668   1.704   3.701   6.246
 8923SOL    HW227669   1.716   3.622   6.104
 8924SOL     OW27670   2.930   5.481   6.185
 8924SOL    HW127671   2.923   5.498   6.087
 8924SOL    HW227672   2.881   5.553   6.235
 8925SOL     OW27673   0.835   0.631   2.095
 8925SOL    HW127674   0.903   0.651   2.165
 8925SOL    HW227675   0.759   0.581   2.135
 8926SOL     OW27676   5.982   3.425   0.355
 8926SOL    HW127677   5.893   3.442   0.312
 8926SOL    HW227678   6.042   3.379   0.290
 8927SOL     OW27679   1.647   2.015   4.794
 8927SOL    HW127680   1.735   2.061   4.803
 8927SOL    HW227681   1.580   2.077   4.754
 8928SOL     OW27682   6.862   0.722   4.990
 8928SOL    HW127683   6.946   0.774   5.005
 8928SOL    HW227684   6.800   0.774   4.932
 8929SOL     OW27685   0.591   3.670   3.690
 8929SOL    HW127686   0.556   3.651   3.598
 8929SOL    HW227687   0.515   3.670   3.755
 8930SOL     OW27688   2.035   4.851   4.867
 8930SOL    HW127689   2.048   4.892   4.957
 8930SOL    HW227690   2.024   4.923   4.799
 8931SOL     OW27691   3.670   2.768   0.381
 8931SOL    HW127692   3.585   2.730   0.343
 8931SOL    HW227693   3.690   2.855   0.337
 8932SOL     OW27694   5.459   0.317   6.691
 8932SOL    HW127695   5.546   0.348   6.730
 8932SOL    HW227696   5.441   0.367   6.607
 8933SOL     OW27697   0.993   2.217   5.305
 8933SOL    HW127698   0.945   2.156   5.242
 8933SOL    HW227699   1.081   2.177   5.330
 8934SOL     OW27700   2.527   5.595   4.084
 8934SOL    HW127701   2.590   5.671   4.065
 8934SOL    HW227702   2.570   5.532   4.148
 8935SOL     OW27703   5.108   3.975   1.878
 8935SOL    HW127704   5.078   4.070   1.888
 8935SOL    HW227705   5.070   3.937   1.793
 8936SOL     OW27706   0.707   3.643   0.880
 8936SOL    HW127707   0.675   3.667   0.788
 8936SOL    HW227708   0.767   3.564   0.874
 8937SOL     OW27709   7.018   0.879   4.070
 8937SOL    HW127710   6.966   0.803   4.109
 8937SOL    HW227711   0.092   0.850   4.051
 8938SOL     OW27712   6.858   1.658   0.365
 8938SOL    HW127713   6.938   1.605   0.394
 8938SOL    HW227714   6.866   1.751   0.401
 8939SOL     OW27715   6.575   2.916   4.808
 8939SOL    HW127716   6.661   2.882   4.845
 8939SOL    HW227717   6.514   2.838   4.790
 8940SOL     OW27718   5.509   2.017   0.410
 8940SOL    HW127719   5.435   1.978   0.465
 8940SOL    HW227720   5.511   2.116   0.422
 8941SOL     OW27721   4.988   2.159   1.667
 8941SOL    HW127722   4.979   2.252   1.701
 8941SOL    HW227723   4.977   2.158   1.568
 8942SOL     OW27724   0.852   5.131   4.205
 8942SOL    HW127725   0.857   5.118   4.106
 8942SOL    HW227726   0.838   5.228   4.225
 8943SOL     OW27727   4.315   4.672   0.065
 8943SOL    HW127728   4.251   4.740   0.100
 8943SOL    HW227729   4.382   4.716   0.005
 8944SOL     OW27730   5.011   5.165   4.711
 8944SOL    HW127731   4.959   5.079   4.704
 8944SOL    HW227732   5.084   5.154   4.778
 8945SOL     OW27733   0.020   2.646   4.897
 8945SOL    HW127734   0.061   2.561   4.864
 8945SOL    HW227735   0.083   2.722   4.879
 8946SOL     OW27736   3.496   0.274   4.269
 8946SOL    HW127737   3.543   0.333   4.335
 8946SOL    HW227738   3.494   0.180   4.304
 8947SOL     OW27739   1.679   3.888   6.237
 8947SOL    HW127740   1.717   3.921   6.151
 8947SOL    HW227741   1.715   3.943   6.312
 8948SOL     OW27742   6.405   6.111   3.425
 8948SOL    HW127743   6.333   6.042   3.413
 8948SOL    HW227744   6.447   6.131   3.336
 8949SOL     OW27745   3.599   5.596   7.009
 8949SOL    HW127746   3.556   5.682   6.980
 8949SOL    HW227747   3.559   5.520   6.958
 8950SOL     OW27748   4.432   3.403   1.427
 8950SOL    HW127749   4.368   3.334   1.394
 8950SOL    HW227750   4.483   3.366   1.504
 8951SOL     OW27751   2.234   1.396   4.320
 8951SOL    HW127752   2.260   1.304   4.350
 8951SOL    HW227753   2.137   1.410   4.337
 8952SOL     OW27754   2.141   5.204   3.280
 8952SOL    HW127755   2.233   5.165   3.270
 8952SOL    HW227756   2.123   5.224   3.376
 8953SOL     OW27757   2.028   5.262   1.408
 8953SOL    HW127758   2.079   5.234   1.327
 8953SOL    HW227759   2.032   5.190   1.477
 8954SOL     OW27760   0.449   6.115   4.108
 8954SOL    HW127761   0.417   6.101   4.014
 8954SOL    HW227762   0.540   6.075   4.118
 8955SOL     OW27763   0.024   2.859   2.532
 8955SOL    HW127764   0.040   2.761   2.539
 8955SOL    HW227765   6.945   2.876   2.523
 8956SOL     OW27766   0.409   0.339   6.531
 8956SOL    HW127767   0.377   0.269   6.594
 8956SOL    HW227768   0.382   0.429   6.565
 8957SOL     OW27769   1.608   4.979   1.847
 8957SOL    HW127770   1.643   4.923   1.772
 8957SOL    HW227771   1.654   4.953   1.932
 8958SOL     OW27772   1.348   2.799   5.005
 8958SOL    HW127773   1.363   2.892   4.971
 8958SOL    HW227774   1.317   2.741   4.930
 8959SOL     OW27775   1.047   3.595   2.180
 8959SOL    HW127776   1.119   3.571   2.115
 8959SOL    HW227777   0.992   3.514   2.199
 8960SOL     OW27778   6.723   5.153   4.052
 8960SOL    HW127779   6.818   5.149   4.022
 8960SOL    HW227780   6.711   5.232   4.113
 8961SOL     OW27781   3.947   1.085   4.107
 8961SOL    HW127782   3.848   1.083   4.118
 8961SOL    HW227783   3.977   1.177   4.081
 8962SOL     OW27784   0.127   6.149   1.889
 8962SOL    HW127785   0.094   6.236   1.852
 8962SOL    HW227786   0.056   6.080   1.879
 8963SOL     OW27787   3.528   6.201   4.631
 8963SOL    HW127788   3.531   6.285   4.577
 8963SOL    HW227789   3.616   6.187   4.677
 8964SOL     OW27790   4.851   3.907   3.122
 8964SOL    HW127791   4.939   3.931   3.164
 8964SOL    HW227792   4.866   3.878   3.028
 8965SOL     OW27793   3.593   4.917   0.486
 8965SOL    HW127794   3.499   4.883   0.478
 8965SOL    HW227795   3.657   4.848   0.452
 8966SOL     OW27796   6.470   4.958   6.445
 8966SOL    HW127797   6.456   4.877   6.501
 8966SOL    HW227798   6.526   4.935   6.365
 8967SOL     OW27799   4.286   0.722   3.182
 8967SOL    HW127800   4.245   0.631   3.189
 8967SOL    HW227801   4.375   0.716   3.138
 8968SOL     OW27802   2.581   4.836   1.450
 8968SOL    HW127803   2.486   4.817   1.474
 8968SOL    HW227804   2.639   4.825   1.530
 8969SOL     OW27805   0.497   0.300   3.271
 8969SOL    HW127806   0.576   0.360   3.280
 8969SOL    HW227807   0.420   0.339   3.321
 8970SOL     OW27808   1.263   2.396   6.834
 8970SOL    HW127809   1.194   2.335   6.874
 8970SOL    HW227810   1.354   2.365   6.860
 8971SOL     OW27811   4.696   6.718   1.518
 8971SOL    HW127812   4.635   6.688   1.591
 8971SOL    HW227813   4.669   6.810   1.489
 8972SOL     OW27814   5.367   4.642   0.648
 8972SOL    HW127815   5.419   4.721   0.618
 8972SOL    HW227816   5.426   4.583   0.704
 8973SOL     OW27817   0.173   2.631   2.605
 8973SOL    HW127818   0.226   2.589   2.678
 8973SOL    HW227819   0.230   2.695   2.554
 8974SOL     OW27820   2.142   3.848   3.801
 8974SOL    HW127821   2.199   3.879   3.876
 8974SOL    HW227822   2.144   3.916   3.727
 8975SOL     OW27823   0.394   6.844   0.147
 8975SOL    HW127824   0.493   6.843   0.130
 8975SOL    HW227825   0.348   6.794   0.074
 8976SOL     OW27826   6.513   6.398   0.680
 8976SOL    HW127827   6.587   6.338   0.650
 8976SOL    HW227828   6.476   6.448   0.602
 8977SOL     OW27829   6.938   4.880   6.319
 8977SOL    HW127830   6.960   4.824   6.399
 8977SOL    HW227831   7.012   4.873   6.252
 8978SOL     OW27832   5.351   6.159   4.968
 8978SOL    HW127833   5.263   6.157   4.920
 8978SOL    HW227834   5.413   6.094   4.926
 8979SOL     OW27835   0.995   5.465   6.362
 8979SOL    HW127836   0.974   5.398   6.291
 8979SOL    HW227837   0.910   5.493   6.408
 8980SOL     OW27838   4.812   2.166   5.521
 8980SOL    HW127839   4.843   2.254   5.557
 8980SOL    HW227840   4.865   2.144   5.438
 8981SOL     OW27841   4.976   2.380   5.535
 8981SOL    HW127842   5.073   2.373   5.557
 8981SOL    HW227843   4.961   2.351   5.440
 8982SOL     OW27844   6.652   1.741   1.748
 8982SOL    HW127845   6.638   1.811   1.678
 8982SOL    HW227846   6.738   1.757   1.795
 8983SOL     OW27847   1.422   5.247   1.427
 8983SOL    HW127848   1.362   5.311   1.379
 8983SOL    HW227849   1.366   5.183   1.480
 8984SOL     OW27850   6.212   7.011   4.572
 8984SOL    HW127851   6.244   0.084   4.551
 8984SOL    HW227852   6.137   7.015   4.638
 8985SOL     OW27853   4.314   2.289   1.064
 8985SOL    HW127854   4.251   2.220   1.100
 8985SOL    HW227855   4.331   2.270   0.967
 8986SOL     OW27856   5.419   4.331   2.304
 8986SOL    HW127857   5.403   4.292   2.213
 8986SOL    HW227858   5.334   4.370   2.339
 8987SOL     OW27859   3.044   0.578   1.230
 8987SOL    HW127860   3.016   0.651   1.169
 8987SOL    HW227861   2.964   0.543   1.280
 8988SOL     OW27862   2.133   5.189   0.255
 8988SOL    HW127863   2.228   5.202   0.283
 8988SOL    HW227864   2.125   5.202   0.157
 8989SOL     OW27865   5.067   2.956   3.038
 8989SOL    HW127866   5.157   2.915   3.026
 8989SOL    HW227867   5.005   2.889   3.081
 8990SOL     OW27868   2.342   6.289   1.253
 8990SOL    HW127869   2.407   6.318   1.183
 8990SOL    HW227870   2.271   6.231   1.212
 8991SOL     OW27871   2.612   2.559   1.622
 8991SOL    HW127872   2.619   2.487   1.690
 8991SOL    HW227873   2.546   2.532   1.551
 8992SOL     OW27874   0.341   3.237   0.641
 8992SOL    HW127875   0.282   3.260   0.719
 8992SOL    HW227876   0.286   3.228   0.559
 8993SOL     OW27877   4.957   2.274   3.457
 8993SOL    HW127878   4.879   2.255   3.398
 8993SOL    HW227879   5.033   2.309   3.402
 8994SOL     OW27880   1.736   4.953   4.437
 8994SOL    HW127881   1.810   4.994   4.490
 8994SOL    HW227882   1.775   4.890   4.370
 8995SOL     OW27883   1.438   2.268   5.429
 8995SOL    HW127884   1.491   2.240   5.509
 8995SOL    HW227885   1.386   2.351   5.451
 8996SOL     OW27886   0.657   3.665   1.589
 8996SOL    HW127887   0.564   3.660   1.553
 8996SOL    HW227888   0.660   3.624   1.680
 8997SOL     OW27889   5.349   0.951   6.124
 8997SOL    HW127890   5.299   0.890   6.187
 8997SOL    HW227891   5.426   0.901   6.084
 8998SOL     OW27892   0.067   1.967   5.183
 8998SOL    HW127893   0.100   2.020   5.261
 8998SOL    HW227894   0.061   2.026   5.103
 8999SOL     OW27895   5.083   0.947   6.027
 8999SOL    HW127896   5.057   1.042   6.008
 8999SOL    HW227897   5.182   0.937   6.013
 9000SOL     OW27898   2.576   4.306   6.392
 9000SOL    HW127899   2.492   4.260   6.365
 9000SOL    HW227900   2.559   4.404   6.404
 9001SOL     OW27901   1.056   4.555   2.714
 9001SOL    HW127902   1.005   4.602   2.786
 9001SOL    HW227903   1.120   4.620   2.672
 9002SOL     OW27904   0.021   5.501   5.646
 9002SOL    HW127905   7.016   5.502   5.743
 9002SOL    HW227906   6.992   5.574   5.598
 9003SOL     OW27907   6.204   2.386   0.828
 9003SOL    HW127908   6.151   2.335   0.759
 9003SOL    HW227909   6.301   2.367   0.816
 9004SOL     OW27910   5.378   6.511   1.682
 9004SOL    HW127911   5.331   6.598   1.673
 9004SOL    HW227912   5.459   6.511   1.623
 9005SOL     OW27913   5.441   2.422   3.651
 9005SOL    HW127914   5.372   2.355   3.678
 9005SOL    HW227915   5.429   2.506   3.704
 9006SOL     OW27916   1.178   5.673   1.256
 9006SOL    HW127917   1.220   5.748   1.204
 9006SOL    HW227918   1.248   5.605   1.276
 9007SOL     OW27919   3.378   5.307   3.698
 9007SOL    HW127920   3.450   5.365   3.735
 9007SOL    HW227921   3.289   5.348   3.718
 9008SOL     OW27922   6.071   4.623   2.210
 9008SOL    HW127923   6.153   4.639   2.154
 9008SOL    HW227924   6.020   4.545   2.172
 9009SOL     OW27925   2.609   6.576   1.192
 9009SOL    HW127926   2.581   6.619   1.106
 9009SOL    HW227927   2.676   6.504   1.173
 9010SOL     OW27928   1.245   6.764   4.987
 9010SOL    HW127929   1.198   6.708   4.919
 9010SOL    HW227930   1.178   6.799   5.053
 9011SOL     OW27931   3.787   2.243   1.481
 9011SOL    HW127932   3.733   2.312   1.432
 9011SOL    HW227933   3.815   2.279   1.570
 9012SOL     OW27934   1.817   5.511   0.684
 9012SOL    HW127935   1.819   5.582   0.613
 9012SOL    HW227936   1.909   5.478   0.700
 9013SOL     OW27937   6.222   5.624   4.859
 9013SOL    HW127938   6.315   5.658   4.845
 9013SOL    HW227939   6.179   5.608   4.770
 9014SOL     OW27940   1.433   1.585   0.168
 9014SOL    HW127941   1.480   1.605   0.254
 9014SOL    HW227942   1.444   1.488   0.146
 9015SOL     OW27943   6.943   1.422   6.950
 9015SOL    HW127944   7.013   1.464   6.893
 9015SOL    HW227945   6.882   1.493   6.985
 9016SOL     OW27946   6.232   6.277   5.590
 9016SOL    HW127947   6.218   6.199   5.652
 9016SOL    HW227948   6.189   6.359   5.629
 9017SOL     OW27949   6.212   2.337   3.370
 9017SOL    HW127950   6.121   2.367   3.398
 9017SOL    HW227951   6.264   2.415   3.335
 9018SOL     OW27952   3.477   1.643   5.304
 9018SOL    HW127953   3.453   1.587   5.224
 9018SOL    HW227954   3.564   1.689   5.287
 9019SOL     OW27955   1.848   6.795   6.890
 9019SOL    HW127956   1.852   6.722   6.822
 9019SOL    HW227957   1.792   6.870   6.856
 9020SOL     OW27958   1.957   4.064   2.417
 9020SOL    HW127959   1.918   4.121   2.344
 9020SOL    HW227960   1.887   3.999   2.448
 9021SOL     OW27961   6.821   6.159   3.675
 9021SOL    HW127962   6.834   6.084   3.610
 9021SOL    HW227963   6.908   6.206   3.690
 9022SOL     OW27964   2.597   0.314   0.485
 9022SOL    HW127965   2.537   0.394   0.485
 9022SOL    HW227966   2.641   0.306   0.395
 9023SOL     OW27967   4.126   3.508   3.571
 9023SOL    HW127968   4.216   3.468   3.588
 9023SOL    HW227969   4.107   3.577   3.641
 9024SOL     OW27970   1.505   6.127   6.248
 9024SOL    HW127971   1.429   6.191   6.249
 9024SOL    HW227972   1.501   6.071   6.165
 9025SOL     OW27973   6.260   6.047   1.597
 9025SOL    HW127974   6.164   6.031   1.571
 9025SOL    HW227975   6.317   5.976   1.557
 9026SOL     OW27976   3.516   3.254   4.038
 9026SOL    HW127977   3.552   3.161   4.048
 9026SOL    HW227978   3.465   3.261   3.952
 9027SOL     OW27979   2.558   1.592   3.507
 9027SOL    HW127980   2.531   1.663   3.572
 9027SOL    HW227981   2.482   1.571   3.447
 9028SOL     OW27982   1.695   4.294   6.494
 9028SOL    HW127983   1.713   4.347   6.577
 9028SOL    HW227984   1.733   4.342   6.415
 9029SOL     OW27985   3.957   5.205   4.589
 9029SOL    HW127986   4.054   5.203   4.564
 9029SOL    HW227987   3.910   5.273   4.533
 9030SOL     OW27988   1.465   0.305   2.557
 9030SOL    HW127989   1.542   0.241   2.551
 9030SOL    HW227990   1.458   0.340   2.651
 9031SOL     OW27991   3.065   5.158   5.777
 9031SOL    HW127992   3.113   5.220   5.838
 9031SOL    HW227993   3.079   5.064   5.808
 9032SOL     OW27994   3.565   2.817   0.955
 9032SOL    HW127995   3.547   2.722   0.981
 9032SOL    HW227996   3.638   2.821   0.888
 9033SOL     OW27997   1.937   3.312   4.180
 9033SOL    HW127998   2.008   3.337   4.245
 9033SOL    HW227999   1.970   3.327   4.087
 9034SOL     OW28000   2.440   6.633   5.055
 9034SOL    HW128001   2.466   6.649   5.150
 9034SOL    HW228002   2.522   6.637   4.997
 9035SOL     OW28003   0.517   6.723   5.463
 9035SOL    HW128004   0.498   6.684   5.553
 9035SOL    HW228005   0.452   6.796   5.444
 9036SOL     OW28006   2.366   2.275   5.495
 9036SOL    HW128007   2.306   2.330   5.438
 9036SOL    HW228008   2.461   2.307   5.483
 9037SOL     OW28009   2.032   4.007   6.458
 9037SOL    HW128010   2.064   3.919   6.492
 9037SOL    HW228011   2.110   4.067   6.441
 9038SOL     OW28012   5.672   1.086   6.042
 9038SOL    HW128013   5.595   1.128   6.090
 9038SOL    HW228014   5.757   1.132   6.068
 9039SOL     OW28015   2.101   4.406   5.145
 9039SOL    HW128016   2.132   4.313   5.168
 9039SOL    HW228017   2.156   4.441   5.069
 9040SOL     OW28018   2.878   0.649   3.415
 9040SOL    HW128019   2.839   0.687   3.499
 9040SOL    HW228020   2.941   0.715   3.374
 9041SOL     OW28021   0.526   1.574   2.068
 9041SOL    HW128022   0.581   1.497   2.101
 9041SOL    HW228023   0.430   1.559   2.090
 9042SOL     OW28024   2.495   6.498   3.872
 9042SOL    HW128025   2.563   6.429   3.846
 9042SOL    HW228026   2.495   6.571   3.803
 9043SOL     OW28027   2.208   1.718   5.688
 9043SOL    HW128028   2.147   1.641   5.667
 9043SOL    HW228029   2.285   1.686   5.743
 9044SOL     OW28030   6.160   1.077   0.703
 9044SOL    HW128031   6.191   1.168   0.678
 9044SOL    HW228032   6.076   1.083   0.756
 9045SOL     OW28033   3.933   1.138   2.672
 9045SOL    HW128034   3.850   1.108   2.626
 9045SOL    HW228035   3.920   1.131   2.771
 9046SOL     OW28036   3.464   3.873   5.264
 9046SOL    HW128037   3.502   3.922   5.185
 9046SOL    HW228038   3.381   3.824   5.236
 9047SOL     OW28039   1.948   4.220   5.522
 9047SOL    HW128040   1.939   4.226   5.621
 9047SOL    HW228041   1.886   4.149   5.487
 9048SOL     OW28042   1.117   3.672   5.880
 9048SOL    HW128043   1.020   3.651   5.892
 9048SOL    HW228044   1.171   3.589   5.895
 9049SOL     OW28045   4.727   6.248   6.929
 9049SOL    HW128046   4.632   6.217   6.924
 9049SOL    HW228047   4.729   6.348   6.926
 9050SOL     OW28048   1.107   5.550   6.613
 9050SOL    HW128049   1.204   5.526   6.617
 9050SOL    HW228050   1.075   5.546   6.519
 9051SOL     OW28051   4.452   6.106   1.207
 9051SOL    HW128052   4.471   6.081   1.302
 9051SOL    HW228053   4.369   6.060   1.177
 9052SOL     OW28054   2.894   4.867   4.580
 9052SOL    HW128055   2.809   4.918   4.593
 9052SOL    HW228056   2.882   4.802   4.504
 9053SOL     OW28057   2.389   2.056   3.667
 9053SOL    HW128058   2.474   2.090   3.625
 9053SOL    HW228059   2.331   2.133   3.692
 9054SOL     OW28060   1.776   0.562   2.313
 9054SOL    HW128061   1.858   0.555   2.371
 9054SOL    HW228062   1.803   0.597   2.223
 9055SOL     OW28063   0.718   4.209   3.069
 9055SOL    HW128064   0.688   4.124   3.114
 9055SOL    HW228065   0.651   4.281   3.085
 9056SOL     OW28066   5.017   0.581   1.447
 9056SOL    HW128067   5.091   0.519   1.472
 9056SOL    HW228068   5.030   0.614   1.353
 9057SOL     OW28069   6.385   4.641   5.803
 9057SOL    HW128070   6.291   4.661   5.829
 9057SOL    HW228071   6.427   4.723   5.763
 9058SOL     OW28072   1.956   1.787   4.660
 9058SOL    HW128073   2.012   1.856   4.706
 9058SOL    HW228074   1.887   1.754   4.724
 9059SOL     OW28075   6.882   0.450   3.118
 9059SOL    HW128076   6.945   0.380   3.150
 9059SOL    HW228077   6.788   0.421   3.133
 9060SOL     OW28078   6.494   3.390   2.704
 9060SOL    HW128079   6.448   3.332   2.636
 9060SOL    HW228080   6.470   3.485   2.688
 9061SOL     OW28081   4.513   5.434   2.992
 9061SOL    HW128082   4.514   5.344   2.949
 9061SOL    HW228083   4.567   5.431   3.076
 9062SOL     OW28084   1.110   5.016   1.817
 9062SOL    HW128085   1.093   4.921   1.789
 9062SOL    HW228086   1.195   5.020   1.870
 9063SOL     OW28087   3.239   0.860   2.323
 9063SOL    HW128088   3.202   0.953   2.321
 9063SOL    HW228089   3.179   0.801   2.377
 9064SOL     OW28090   6.261   4.353   4.085
 9064SOL    HW128091   6.354   4.388   4.083
 9064SOL    HW228092   6.200   4.415   4.036
 9065SOL     OW28093   2.829   6.045   5.519
 9065SOL    HW128094   2.806   5.957   5.478
 9065SOL    HW228095   2.745   6.091   5.548
 9066SOL     OW28096   6.494   0.270   6.092
 9066SOL    HW128097   6.530   0.196   6.149
 9066SOL    HW228098   6.571   0.316   6.046
 9067SOL     OW28099   6.758   6.029   4.544
 9067SOL    HW128100   6.835   6.064   4.598
 9067SOL    HW228101   6.743   5.932   4.565
 9068SOL     OW28102   3.519   6.781   5.163
 9068SOL    HW128103   3.473   6.827   5.086
 9068SOL    HW228104   3.606   6.827   5.182
 9069SOL     OW28105   4.548   2.214   2.597
 9069SOL    HW128106   4.456   2.188   2.567
 9069SOL    HW228107   4.614   2.186   2.527
 9070SOL     OW28108   1.631   2.073   6.161
 9070SOL    HW128109   1.545   2.116   6.188
 9070SOL    HW228110   1.650   1.995   6.221
 9071SOL     OW28111   5.404   0.510   6.434
 9071SOL    HW128112   5.324   0.563   6.406
 9071SOL    HW228113   5.473   0.512   6.362
 9072SOL     OW28114   5.215   6.471   1.261
 9072SOL    HW128115   5.205   6.473   1.162
 9072SOL    HW228116   5.251   6.559   1.292
 9073SOL     OW28117   3.827   6.565   1.136
 9073SOL    HW128118   3.762   6.572   1.060
 9073SOL    HW228119   3.882   6.482   1.125
 9074SOL     OW28120   1.561   0.673   1.496
 9074SOL    HW128121   1.505   0.714   1.568
 9074SOL    HW228122   1.571   0.739   1.421
 9075SOL     OW28123   0.450   0.176   2.144
 9075SOL    HW128124   0.415   0.263   2.179
 9075SOL    HW228125   0.398   0.149   2.064
 9076SOL     OW28126   4.911   1.577   3.991
 9076SOL    HW128127   4.829   1.632   3.981
 9076SOL    HW228128   4.906   1.525   4.076
 9077SOL     OW28129   4.660   1.552   6.397
 9077SOL    HW128130   4.757   1.573   6.384
 9077SOL    HW228131   4.632   1.583   6.488
 9078SOL     OW28132   5.478   5.181   6.615
 9078SOL    HW128133   5.550   5.121   6.651
 9078SOL    HW228134   5.512   5.229   6.534
 9079SOL     OW28135   1.850   6.986   4.638
 9079SOL    HW128136   1.785   0.021   4.692
 9079SOL    HW228137   1.924   6.954   4.698
 9080SOL     OW28138   6.427   2.790   0.161
 9080SOL    HW128139   6.483   2.800   0.079
 9080SOL    HW228140   6.474   2.832   0.239
 9081SOL     OW28141   3.462   1.669   1.461
 9081SOL    HW128142   3.389   1.605   1.483
 9081SOL    HW228143   3.549   1.633   1.493
 9082SOL     OW28144   2.212   6.755   4.941
 9082SOL    HW128145   2.125   6.736   4.986
 9082SOL    HW228146   2.286   6.712   4.992
 9083SOL     OW28147   4.362   3.879   6.365
 9083SOL    HW128148   4.281   3.936   6.382
 9083SOL    HW228149   4.427   3.931   6.309
 9084SOL     OW28150   0.995   2.293   6.221
 9084SOL    HW128151   1.074   2.321   6.275
 9084SOL    HW228152   0.993   2.345   6.135
 9085SOL     OW28153   2.329   5.797   1.494
 9085SOL    HW128154   2.351   5.714   1.545
 9085SOL    HW228155   2.364   5.877   1.544
 9086SOL     OW28156   5.843   4.263   1.177
 9086SOL    HW128157   5.915   4.199   1.205
 9086SOL    HW228158   5.778   4.274   1.252
 9087SOL     OW28159   5.413   2.887   2.414
 9087SOL    HW128160   5.417   2.965   2.352
 9087SOL    HW228161   5.465   2.907   2.497
 9088SOL     OW28162   5.756   6.938   1.558
 9088SOL    HW128163   5.815   7.019   1.559
 9088SOL    HW228164   5.736   6.913   1.463
 9089SOL     OW28165   3.860   5.683   5.196
 9089SOL    HW128166   3.846   5.726   5.284
 9089SOL    HW228167   3.946   5.714   5.156
 9090SOL     OW28168   5.442   0.451   4.120
 9090SOL    HW128169   5.502   0.519   4.078
 9090SOL    HW228170   5.376   0.420   4.052
 9091SOL     OW28171   3.218   3.448   0.745
 9091SOL    HW128172   3.240   3.351   0.739
 9091SOL    HW228173   3.149   3.463   0.816
 9092SOL     OW28174   0.915   1.292   6.972
 9092SOL    HW128175   0.875   1.210   6.930
 9092SOL    HW228176   0.844   1.362   6.982
 9093SOL     OW28177   0.988   6.342   6.900
 9093SOL    HW128178   1.069   6.285   6.918
 9093SOL    HW228179   1.013   6.438   6.907
 9094SOL     OW28180   0.678   5.366   2.627
 9094SOL    HW128181   0.701   5.459   2.656
 9094SOL    HW228182   0.680   5.305   2.706
 9095SOL     OW28183   4.984   4.201   6.236
 9095SOL    HW128184   4.925   4.266   6.284
 9095SOL    HW228185   4.928   4.133   6.190
 9096SOL     OW28186   5.465   3.729   2.934
 9096SOL    HW128187   5.475   3.633   2.960
 9096SOL    HW228188   5.374   3.744   2.895
 9097SOL     OW28189   0.455   3.185   6.698
 9097SOL    HW128190   0.541   3.230   6.674
 9097SOL    HW228191   0.456   3.161   6.795
 9098SOL     OW28192   3.815   3.053   7.007
 9098SOL    HW128193   3.728   3.102   7.014
 9098SOL    HW228194   3.884   3.113   6.967
 9099SOL     OW28195   3.513   3.515   0.157
 9099SOL    HW128196   3.500   3.573   0.238
 9099SOL    HW228197   3.495   3.420   0.181
 9100SOL     OW28198   1.009   3.216   3.037
 9100SOL    HW128199   1.054   3.229   3.126
 9100SOL    HW228200   1.033   3.126   3.001
 9101SOL     OW28201   2.041   2.663   3.150
 9101SOL    HW128202   2.050   2.648   3.249
 9101SOL    HW228203   2.088   2.590   3.101
 9102SOL     OW28204   3.416   6.708   1.880
 9102SOL    HW128205   3.463   6.759   1.809
 9102SOL    HW228206   3.465   6.719   1.967
 9103SOL     OW28207   6.674   3.567   6.885
 9103SOL    HW128208   6.605   3.557   6.957
 9103SOL    HW228209   6.657   3.652   6.835
 9104SOL     OW28210   4.415   6.089   2.931
 9104SOL    HW128211   4.375   6.178   2.955
 9104SOL    HW228212   4.502   6.078   2.978
 9105SOL     OW28213   1.636   1.131   0.719
 9105SOL    HW128214   1.635   1.208   0.782
 9105SOL    HW228215   1.603   1.160   0.629
 9106SOL     OW28216   6.089   3.812   6.844
 9106SOL    HW128217   6.087   3.778   6.938
 9106SOL    HW228218   6.146   3.753   6.788
 9107SOL     OW28219   3.711   0.978   5.443
 9107SOL    HW128220   3.674   0.998   5.353
 9107SOL    HW228221   3.765   0.894   5.439
 9108SOL     OW28222   4.749   3.684   5.860
 9108SOL    HW128223   4.793   3.683   5.950
 9108SOL    HW228224   4.745   3.778   5.826
 9109SOL     OW28225   1.459   2.675   2.962
 9109SOL    HW128226   1.374   2.721   2.938
 9109SOL    HW228227   1.498   2.632   2.881
 9110SOL     OW28228   2.006   4.313   4.304
 9110SOL    HW128229   1.944   4.296   4.227
 9110SOL    HW228230   2.095   4.271   4.284
 9111SOL     OW28231   4.278   3.514   0.039
 9111SOL    HW128232   4.222   3.597   0.040
 9111SOL    HW228233   4.284   3.478   6.965
 9112SOL     OW28234   0.701   4.241   4.920
 9112SOL    HW128235   0.625   4.212   4.978
 9112SOL    HW228236   0.682   4.215   4.825
 9113SOL     OW28237   4.504   6.614   0.884
 9113SOL    HW128238   4.430   6.640   0.822
 9113SOL    HW228239   4.467   6.558   0.958
 9114SOL     OW28240   1.634   5.190   1.279
 9114SOL    HW128241   1.680   5.277   1.267
 9114SOL    HW228242   1.548   5.204   1.328
 9115SOL     OW28243   0.891   5.524   6.065
 9115SOL    HW128244   0.897   5.424   6.074
 9115SOL    HW228245   0.795   5.551   6.054
 9116SOL     OW28246   6.402   1.798   0.326
 9116SOL    HW128247   6.331   1.866   0.308
 9116SOL    HW228248   6.394   1.723   0.261
 9117SOL     OW28249   5.959   2.995   0.374
 9117SOL    HW128250   6.050   2.999   0.334
 9117SOL    HW228251   5.893   2.969   0.304
 9118SOL     OW28252   6.473   5.608   0.351
 9118SOL    HW128253   6.412   5.586   0.274
 9118SOL    HW228254   6.536   5.681   0.325
 9119SOL     OW28255   5.845   1.147   1.740
 9119SOL    HW128256   5.824   1.049   1.744
 9119SOL    HW228257   5.910   1.164   1.666
 9120SOL     OW28258   5.759   2.673   5.738
 9120SOL    HW128259   5.844   2.694   5.786
 9120SOL    HW228260   5.692   2.745   5.757
 9121SOL     OW28261   2.550   2.464   6.293
 9121SOL    HW128262   2.535   2.545   6.236
 9121SOL    HW228263   2.488   2.390   6.264
 9122SOL     OW28264   1.917   3.997   1.991
 9122SOL    HW128265   1.937   3.900   2.001
 9122SOL    HW228266   1.991   4.041   1.939
 9123SOL     OW28267   3.414   6.964   4.469
 9123SOL    HW128268   3.394   6.970   4.371
 9123SOL    HW228269   3.505   7.002   4.487
 9124SOL     OW28270   5.517   6.928   6.301
 9124SOL    HW128271   5.539   6.866   6.226
 9124SOL    HW228272   5.587   6.999   6.308
 9125SOL     OW28273   5.050   4.210   1.970
 9125SOL    HW128274   5.102   4.284   2.012
 9125SOL    HW228275   4.952   4.229   1.978
 9126SOL     OW28276   5.852   2.450   1.438
 9126SOL    HW128277   5.884   2.456   1.344
 9126SOL    HW228278   5.770   2.506   1.448
 9127SOL     OW28279   6.849   1.290   5.812
 9127SOL    HW128280   6.925   1.338   5.856
 9127SOL    HW228281   6.883   1.205   5.771
 9128SOL     OW28282   4.463   1.553   4.913
 9128SOL    HW128283   4.560   1.531   4.903
 9128SOL    HW228284   4.438   1.625   4.848
 9129SOL     OW28285   0.243   2.954   0.877
 9129SOL    HW128286   0.227   2.890   0.952
 9129SOL    HW228287   0.290   3.035   0.911
 9130SOL     OW28288   0.117   3.359   0.415
 9130SOL    HW128289   0.173   3.359   0.332
 9130SOL    HW228290   0.073   3.448   0.425
 9131SOL     OW28291   0.074   2.957   5.636
 9131SOL    HW128292   0.034   2.915   5.717
 9131SOL    HW228293   0.153   3.014   5.662
 9132SOL     OW28294   0.200   4.937   4.341
 9132SOL    HW128295   0.140   4.944   4.261
 9132SOL    HW228296   0.200   4.843   4.375
 9133SOL     OW28297   4.103   6.256   1.429
 9133SOL    HW128298   4.036   6.199   1.382
 9133SOL    HW228299   4.167   6.293   1.362
 9134SOL     OW28300   4.567   5.862   0.334
 9134SOL    HW128301   4.510   5.943   0.350
 9134SOL    HW228302   4.602   5.828   0.421
 9135SOL     OW28303   6.213   6.659   1.977
 9135SOL    HW128304   6.210   6.758   1.965
 9135SOL    HW228305   6.126   6.619   1.949
 9136SOL     OW28306   5.311   5.668   6.266
 9136SOL    HW128307   5.292   5.593   6.329
 9136SOL    HW228308   5.248   5.662   6.188
 9137SOL     OW28309   5.257   1.786   1.189
 9137SOL    HW128310   5.319   1.708   1.194
 9137SOL    HW228311   5.257   1.834   1.278
 9138SOL     OW28312   0.135   5.992   5.482
 9138SOL    HW128313   0.045   5.988   5.524
 9138SOL    HW228314   0.197   6.042   5.543
 9139SOL     OW28315   2.201   1.605   4.783
 9139SOL    HW128316   2.255   1.670   4.730
 9139SOL    HW228317   2.112   1.591   4.740
 9140SOL     OW28318   6.291   3.431   3.107
 9140SOL    HW128319   6.351   3.357   3.138
 9140SOL    HW228320   6.196   3.401   3.112
 9141SOL     OW28321   5.855   0.633   6.822
 9141SOL    HW128322   5.900   0.642   6.733
 9141SOL    HW228323   5.922   0.647   6.895
 9142SOL     OW28324   0.565   2.407   1.369
 9142SOL    HW128325   0.467   2.411   1.350
 9142SOL    HW228326   0.614   2.375   1.288
 9143SOL     OW28327   6.052   3.012   1.190
 9143SOL    HW128328   6.018   2.919   1.205
 9143SOL    HW228329   6.140   3.008   1.142
 9144SOL     OW28330   2.473   5.092   5.748
 9144SOL    HW128331   2.506   5.069   5.657
 9144SOL    HW228332   2.514   5.030   5.815
 9145SOL     OW28333   0.038   5.619   0.460
 9145SOL    HW128334   0.077   5.664   0.379
 9145SOL    HW228335   0.078   5.658   0.543
 9146SOL     OW28336   5.229   2.718   3.001
 9146SOL    HW128337   5.185   2.649   3.058
 9146SOL    HW228338   5.229   2.688   2.906
 9147SOL     OW28339   5.977   0.358   4.390
 9147SOL    HW128340   6.065   0.406   4.395
 9147SOL    HW228341   5.918   0.402   4.322
 9148SOL     OW28342   5.253   6.368   0.663
 9148SOL    HW128343   5.204   6.327   0.740
 9148SOL    HW228344   5.337   6.317   0.647
 9149SOL     OW28345   6.062   3.267   3.495
 9149SOL    HW128346   6.125   3.265   3.418
 9149SOL    HW228347   6.112   3.249   3.580
 9150SOL     OW28348   2.876   5.023   2.036
 9150SOL    HW128349   2.923   4.957   2.094
 9150SOL    HW228350   2.940   5.095   2.009
 9151SOL     OW28351   1.813   4.367   3.825
 9151SOL    HW128352   1.896   4.338   3.778
 9151SOL    HW228353   1.820   4.463   3.850
 9152SOL     OW28354   2.373   4.332   4.734
 9152SOL    HW128355   2.350   4.245   4.776
 9152SOL    HW228356   2.427   4.387   4.798
 9153SOL     OW28357   1.174   3.749   0.328
 9153SOL    HW128358   1.134   3.665   0.366
 9153SOL    HW228359   1.178   3.818   0.400
 9154SOL     OW28360   4.312   4.607   6.325
 9154SOL    HW128361   4.403   4.637   6.356
 9154SOL    HW228362   4.295   4.644   6.233
 9155SOL     OW28363   1.770   3.772   1.830
 9155SOL    HW128364   1.756   3.760   1.732
 9155SOL    HW228365   1.820   3.857   1.847
 9156SOL     OW28366   0.992   2.360   0.935
 9156SOL    HW128367   1.046   2.292   0.985
 9156SOL    HW228368   0.911   2.317   0.897
 9157SOL     OW28369   6.599   4.520   5.631
 9157SOL    HW128370   6.662   4.597   5.622
 9157SOL    HW228371   6.514   4.551   5.673
 9158SOL     OW28372   5.809   3.359   4.817
 9158SOL    HW128373   5.852   3.317   4.896
 9158SOL    HW228374   5.800   3.457   4.832
 9159SOL     OW28375   1.718   0.190   2.475
 9159SOL    HW128376   1.790   0.253   2.503
 9159SOL    HW228377   1.720   0.179   2.376
 9160SOL     OW28378   6.173   0.435   5.402
 9160SOL    HW128379   6.201   0.489   5.322
 9160SOL    HW228380   6.140   0.496   5.474
 9161SOL     OW28381   4.881   3.988   4.840
 9161SOL    HW128382   4.781   3.991   4.840
 9161SOL    HW228383   4.913   3.930   4.914
 9162SOL     OW28384   4.708   0.766   4.437
 9162SOL    HW128385   4.633   0.701   4.449
 9162SOL    HW228386   4.739   0.798   4.527
 9163SOL     OW28387   1.644   2.836   4.246
 9163SOL    HW128388   1.657   2.934   4.264
 9163SOL    HW228389   1.685   2.783   4.321
 9164SOL     OW28390   2.674   0.746   6.062
 9164SOL    HW128391   2.645   0.840   6.079
 9164SOL    HW228392   2.594   0.687   6.056
 9165SOL     OW28393   6.155   2.243   5.867
 9165SOL    HW128394   6.238   2.254   5.923
 9165SOL    HW228395   6.163   2.297   5.784
 9166SOL     OW28396   3.922   6.118   1.278
 9166SOL    HW128397   3.829   6.130   1.243
 9166SOL    HW228398   3.957   6.029   1.248
 9167SOL     OW28399   2.372   2.457   6.626
 9167SOL    HW128400   2.290   2.497   6.667
 9167SOL    HW228401   2.406   2.518   6.554
 9168SOL     OW28402   0.060   0.082   6.656
 9168SOL    HW128403   0.153   0.092   6.690
 9168SOL    HW228404   0.006   0.029   6.722
 9169SOL     OW28405   5.591   0.819   5.178
 9169SOL    HW128406   5.581   0.918   5.191
 9169SOL    HW228407   5.551   0.794   5.090
 9170SOL     OW28408   1.587   6.088   0.132
 9170SOL    HW128409   1.571   6.001   0.177
 9170SOL    HW228410   1.678   6.123   0.157
 9171SOL     OW28411   4.426   5.040   1.111
 9171SOL    HW128412   4.378   5.006   1.191
 9171SOL    HW228413   4.401   5.136   1.095
 9172SOL     OW28414   3.881   1.072   2.945
 9172SOL    HW128415   3.953   1.017   2.986
 9172SOL    HW228416   3.796   1.020   2.943
 9173SOL     OW28417   6.993   3.424   5.389
 9173SOL    HW128418   6.943   3.508   5.368
 9173SOL    HW228419   0.033   3.439   5.468
 9174SOL     OW28420   5.436   3.965   1.867
 9174SOL    HW128421   5.396   3.874   1.853
 9174SOL    HW228422   5.530   3.965   1.834
 9175SOL     OW28423   0.852   0.384   5.239
 9175SOL    HW128424   0.916   0.441   5.290
 9175SOL    HW228425   0.777   0.440   5.205
 9176SOL     OW28426   2.735   1.353   4.673
 9176SOL    HW128427   2.787   1.370   4.757
 9176SOL    HW228428   2.667   1.426   4.661
 9177SOL     OW28429   0.705   4.736   4.953
 9177SOL    HW128430   0.711   4.644   4.915
 9177SOL    HW228431   0.673   4.800   4.882
 9178SOL     OW28432   1.755   4.923   0.163
 9178SOL    HW128433   1.705   4.991   0.217
 9178SOL    HW228434   1.768   4.956   0.070
 9179SOL     OW28435   2.819   4.721   4.369
 9179SOL    HW128436   2.907   4.721   4.322
 9179SOL    HW228437   2.750   4.681   4.308
 9180SOL     OW28438   6.253   2.758   3.468
 9180SOL    HW128439   6.283   2.854   3.467
 9180SOL    HW228440   6.228   2.732   3.561
 9181SOL     OW28441   4.308   1.983   5.424
 9181SOL    HW128442   4.284   1.898   5.379
 9181SOL    HW228443   4.403   2.007   5.404
 9182SOL     OW28444   2.956   6.643   1.562
 9182SOL    HW128445   2.868   6.670   1.522
 9182SOL    HW228446   2.959   6.672   1.658
 9183SOL     OW28447   4.875   5.715   0.510
 9183SOL    HW128448   4.915   5.626   0.529
 9183SOL    HW228449   4.862   5.725   0.411
 9184SOL     OW28450   4.485   1.936   0.490
 9184SOL    HW128451   4.418   1.864   0.506
 9184SOL    HW228452   4.541   1.949   0.572
 9185SOL     OW28453   4.501   6.820   4.385
 9185SOL    HW128454   4.484   6.891   4.316
 9185SOL    HW228455   4.593   6.832   4.423
 9186SOL     OW28456   5.504   6.013   4.810
 9186SOL    HW128457   5.557   6.082   4.761
 9186SOL    HW228458   5.561   5.971   4.880
 9187SOL     OW28459   2.392   2.150   0.594
 9187SOL    HW128460   2.382   2.051   0.586
 9187SOL    HW228461   2.469   2.171   0.654
 9188SOL     OW28462   1.404   6.478   0.360
 9188SOL    HW128463   1.395   6.576   0.346
 9188SOL    HW228464   1.336   6.430   0.304
 9189SOL     OW28465   3.258   6.086   2.082
 9189SOL    HW128466   3.190   6.148   2.042
 9189SOL    HW228467   3.348   6.129   2.082
 9190SOL     OW28468   2.847   4.560   5.901
 9190SOL    HW128469   2.914   4.496   5.938
 9190SOL    HW228470   2.874   4.653   5.924
 9191SOL     OW28471   6.571   2.000   6.558
 9191SOL    HW128472   6.628   2.081   6.570
 9191SOL    HW228473   6.496   2.020   6.496
 9192SOL     OW28474   1.145   2.994   5.727
 9192SOL    HW128475   1.095   3.080   5.713
 9192SOL    HW228476   1.209   2.981   5.651
 9193SOL     OW28477   3.900   4.134   6.480
 9193SOL    HW128478   3.854   4.143   6.569
 9193SOL    HW228479   3.964   4.210   6.469
 9194SOL     OW28480   3.237   0.798   3.612
 9194SOL    HW128481   3.223   0.810   3.514
 9194SOL    HW228482   3.299   0.868   3.647
 9195SOL     OW28483   1.121   1.618   3.005
 9195SOL    HW128484   1.056   1.688   2.975
 9195SOL    HW228485   1.098   1.589   3.098
 9196SOL     OW28486   5.185   0.472   2.468
 9196SOL    HW128487   5.174   0.541   2.397
 9196SOL    HW228488   5.269   0.489   2.519
 9197SOL     OW28489   1.837   5.420   1.319
 9197SOL    HW128490   1.865   5.504   1.364
 9197SOL    HW228491   1.897   5.345   1.348
 9198SOL     OW28492   6.198   4.766   6.622
 9198SOL    HW128493   6.110   4.733   6.655
 9198SOL    HW228494   6.184   4.831   6.547
 9199SOL     OW28495   1.076   3.515   5.644
 9199SOL    HW128496   0.979   3.538   5.631
 9199SOL    HW228497   1.114   3.570   5.717
 9200SOL     OW28498   3.025   6.514   6.911
 9200SOL    HW128499   3.037   6.611   6.933
 9200SOL    HW228500   3.088   6.488   6.838
 9201SOL     OW28501   6.969   2.842   0.079
 9201SOL    HW128502   0.050   2.834   0.081
 9201SOL    HW228503   6.938   2.894   0.158
 9202SOL     OW28504   0.979   6.415   2.544
 9202SOL    HW128505   0.901   6.444   2.600
 9202SOL    HW228506   1.018   6.332   2.583
 9203SOL     OW28507   0.390   3.987   5.720
 9203SOL    HW128508   0.424   4.074   5.755
 9203SOL    HW228509   0.290   3.987   5.723
 9204SOL     OW28510   5.137   3.343   6.150
 9204SOL    HW128511   5.099   3.435   6.155
 9204SOL    HW228512   5.175   3.318   6.239
 9205SOL     OW28513   5.713   5.582   3.384
 9205SOL    HW128514   5.619   5.576   3.349
 9205SOL    HW228515   5.752   5.490   3.388
 9206SOL     OW28516   3.730   5.309   3.385
 9206SOL    HW128517   3.707   5.275   3.476
 9206SOL    HW228518   3.796   5.247   3.341
 9207SOL     OW28519   5.054   4.049   5.566
 9207SOL    HW128520   5.046   4.006   5.656
 9207SOL    HW228521   4.972   4.103   5.548
 9208SOL     OW28522   5.665   4.858   3.733
 9208SOL    HW128523   5.588   4.896   3.784
 9208SOL    HW228524   5.633   4.786   3.671
 9209SOL     OW28525   3.853   0.524   7.006
 9209SOL    HW128526   3.829   0.619   6.985
 9209SOL    HW228527   3.946   0.505   6.974
 9210SOL     OW28528   0.310   0.923   2.361
 9210SOL    HW128529   0.393   0.966   2.326
 9210SOL    HW228530   0.268   0.982   2.430
 9211SOL     OW28531   0.471   2.952   5.738
 9211SOL    HW128532   0.534   2.995   5.673
 9211SOL    HW228533   0.454   2.857   5.710
 9212SOL     OW28534   4.288   6.060   4.404
 9212SOL    HW128535   4.213   6.003   4.436
 9212SOL    HW228536   4.252   6.146   4.368
 9213SOL     OW28537   5.640   2.948   5.189
 9213SOL    HW128538   5.691   3.031   5.168
 9213SOL    HW228539   5.591   2.959   5.275
 9214SOL     OW28540   0.072   4.013   6.343
 9214SOL    HW128541   7.006   4.028   6.294
 9214SOL    HW228542   0.060   3.940   6.409
 9215SOL     OW28543   0.564   2.785   1.516
 9215SOL    HW128544   0.563   2.837   1.430
 9215SOL    HW228545   0.644   2.725   1.518
 9216SOL     OW28546   3.326   6.747   2.303
 9216SOL    HW128547   3.278   6.745   2.391
 9216SOL    HW228548   3.411   6.697   2.310
 9217SOL     OW28549   0.017   2.900   6.595
 9217SOL    HW128550   7.015   2.802   6.588
 9217SOL    HW228551   7.004   2.935   6.683
 9218SOL     OW28552   1.885   0.425   0.013
 9218SOL    HW128553   1.883   0.523   0.032
 9218SOL    HW228554   1.856   0.375   0.095
 9219SOL     OW28555   6.008   3.506   1.018
 9219SOL    HW128556   6.008   3.490   1.117
 9219SOL    HW228557   5.932   3.456   0.976
 9220SOL     OW28558   1.528   6.402   1.633
 9220SOL    HW128559   1.488   6.323   1.586
 9220SOL    HW228560   1.473   6.483   1.615
 9221SOL     OW28561   3.310   0.441   3.291
 9221SOL    HW128562   3.236   0.437   3.359
 9221SOL    HW228563   3.398   0.435   3.338
 9222SOL     OW28564   2.286   6.160   6.306
 9222SOL    HW128565   2.215   6.209   6.358
 9222SOL    HW228566   2.294   6.067   6.342
 9223SOL     OW28567   0.653   1.748   3.739
 9223SOL    HW128568   0.690   1.753   3.832
 9223SOL    HW228569   0.727   1.723   3.676
 9224SOL     OW28570   1.293   4.868   4.218
 9224SOL    HW128571   1.359   4.921   4.271
 9224SOL    HW228572   1.212   4.850   4.274
 9225SOL     OW28573   2.984   6.574   6.368
 9225SOL    HW128574   3.031   6.590   6.281
 9225SOL    HW228575   2.954   6.661   6.406
 9226SOL     OW28576   6.085   0.053   1.888
 9226SOL    HW128577   6.182   0.031   1.880
 9226SOL    HW228578   6.040   0.037   1.800
 9227SOL     OW28579   1.394   5.757   0.636
 9227SOL    HW128580   1.466   5.769   0.705
 9227SOL    HW228581   1.353   5.667   0.647
 9228SOL     OW28582   1.717   1.871   5.802
 9228SOL    HW128583   1.779   1.854   5.878
 9228SOL    HW228584   1.636   1.920   5.835
 9229SOL     OW28585   1.236   5.318   5.734
 9229SOL    HW128586   1.174   5.255   5.687
 9229SOL    HW228587   1.187   5.402   5.759
 9230SOL     OW28588   4.715   2.120   3.659
 9230SOL    HW128589   4.670   2.096   3.745
 9230SOL    HW228590   4.784   2.190   3.677
 9231SOL     OW28591   0.536   4.156   4.681
 9231SOL    HW128592   0.610   4.119   4.625
 9231SOL    HW228593   0.455   4.098   4.671
 9232SOL     OW28594   3.843   5.246   0.380
 9232SOL    HW128595   3.879   5.199   0.461
 9232SOL    HW228596   3.757   5.292   0.403
 9233SOL     OW28597   5.479   5.433   1.968
 9233SOL    HW128598   5.416   5.497   1.924
 9233SOL    HW228599   5.446   5.410   2.059
 9234SOL     OW28600   3.523   6.423   6.023
 9234SOL    HW128601   3.539   6.433   6.121
 9234SOL    HW228602   3.605   6.386   5.980
 9235SOL     OW28603   1.606   3.378   3.196
 9235SOL    HW128604   1.513   3.396   3.165
 9235SOL    HW228605   1.621   3.424   3.284
 9236SOL     OW28606   1.903   4.773   5.695
 9236SOL    HW128607   1.928   4.845   5.630
 9236SOL    HW228608   1.986   4.729   5.730
 9237SOL     OW28609   1.687   5.467   4.709
 9237SOL    HW128610   1.784   5.491   4.718
 9237SOL    HW228611   1.639   5.541   4.662
 9238SOL     OW28612   3.479   1.279   0.246
 9238SOL    HW128613   3.427   1.357   0.212
 9238SOL    HW228614   3.576   1.303   0.251
 9239SOL     OW28615   6.449   4.179   0.337
 9239SOL    HW128616   6.463   4.204   0.241
 9239SOL    HW228617   6.536   4.183   0.386
 9240SOL     OW28618   5.256   1.323   1.228
 9240SOL    HW128619   5.162   1.315   1.261
 9240SOL    HW228620   5.258   1.386   1.150
 9241SOL     OW28621   0.556   5.359   5.692
 9241SOL    HW128622   0.604   5.342   5.778
 9241SOL    HW228623   0.494   5.437   5.703
 9242SOL     OW28624   1.060   5.264   6.917
 9242SOL    HW128625   1.049   5.363   6.921
 9242SOL    HW228626   1.150   5.242   6.879
 9243SOL     OW28627   6.111   6.835   1.554
 9243SOL    HW128628   6.200   6.827   1.598
 9243SOL    HW228629   6.107   6.773   1.476
 9244SOL     OW28630   4.666   5.492   6.055
 9244SOL    HW128631   4.644   5.395   6.056
 9244SOL    HW228632   4.589   5.544   6.018
 9245SOL     OW28633   1.762   5.163   3.244
 9245SOL    HW128634   1.669   5.135   3.268
 9245SOL    HW228635   1.798   5.224   3.315
 9246SOL     OW28636   6.942   5.643   2.450
 9246SOL    HW128637   6.908   5.737   2.443
 9246SOL    HW228638   6.971   5.626   2.543
 9247SOL     OW28639   1.377   6.682   2.707
 9247SOL    HW128640   1.308   6.617   2.738
 9247SOL    HW228641   1.442   6.635   2.647
 9248SOL     OW28642   1.881   1.874   4.371
 9248SOL    HW128643   1.857   1.855   4.466
 9248SOL    HW228644   1.973   1.839   4.352
 9249SOL     OW28645   4.094   4.277   0.041
 9249SOL    HW128646   4.040   4.360   0.025
 9249SOL    HW228647   4.191   4.300   0.040
 9250SOL     OW28648   5.388   3.387   4.020
 9250SOL    HW128649   5.372   3.361   3.925
 9250SOL    HW228650   5.394   3.487   4.026
 9251SOL     OW28651   4.115   1.559   2.244
 9251SOL    HW128652   4.187   1.625   2.264
 9251SOL    HW228653   4.029   1.608   2.228
 9252SOL     OW28654   5.680   0.420   4.725
 9252SOL    HW128655   5.713   0.492   4.664
 9252SOL    HW228656   5.657   0.459   4.814
 9253SOL     OW28657   5.382   6.466   5.379
 9253SOL    HW128658   5.363   6.556   5.419
 9253SOL    HW228659   5.394   6.475   5.280
 9254SOL     OW28660   6.038   4.669   2.807
 9254SOL    HW128661   5.968   4.741   2.808
 9254SOL    HW228662   6.108   4.690   2.875
 9255SOL     OW28663   4.567   3.913   0.009
 9255SOL    HW128664   4.477   3.928   0.049
 9255SOL    HW228665   4.635   3.967   0.059
 9256SOL     OW28666   4.271   6.997   2.965
 9256SOL    HW128667   4.220   6.916   2.937
 9256SOL    HW228668   4.309   0.023   2.884
 9257SOL     OW28669   0.021   3.882   3.030
 9257SOL    HW128670   0.061   3.959   2.980
 9257SOL    HW228671   0.094   3.823   3.065
 9258SOL     OW28672   3.108   3.618   3.335
 9258SOL    HW128673   3.124   3.541   3.273
 9258SOL    HW228674   3.137   3.593   3.428
 9259SOL     OW28675   1.389   2.606   6.643
 9259SOL    HW128676   1.472   2.567   6.682
 9259SOL    HW228677   1.315   2.539   6.648
 9260SOL     OW28678   4.913   1.891   4.840
 9260SOL    HW128679   4.913   1.799   4.879
 9260SOL    HW228680   4.944   1.886   4.745
 9261SOL     OW28681   4.474   0.747   0.186
 9261SOL    HW128682   4.396   0.765   0.245
 9261SOL    HW228683   4.505   0.833   0.145
 9262SOL     OW28684   0.358   3.694   5.788
 9262SOL    HW128685   0.343   3.786   5.825
 9262SOL    HW228686   0.455   3.671   5.792
 9263SOL     OW28687   5.075   5.965   1.973
 9263SOL    HW128688   5.091   5.867   1.973
 9263SOL    HW228689   5.110   6.005   2.058
 9264SOL     OW28690   5.598   4.452   0.540
 9264SOL    HW128691   5.636   4.542   0.563
 9264SOL    HW228692   5.533   4.462   0.466
 9265SOL     OW28693   3.572   1.917   6.817
 9265SOL    HW128694   3.563   1.995   6.879
 9265SOL    HW228695   3.668   1.908   6.789
 9266SOL     OW28696   2.240   0.125   1.784
 9266SOL    HW128697   2.239   0.152   1.688
 9266SOL    HW228698   2.236   0.025   1.791
 9267SOL     OW28699   0.270   3.414   5.024
 9267SOL    HW128700   0.296   3.401   5.120
 9267SOL    HW228701   0.170   3.408   5.016
 9268SOL     OW28702   1.012   5.558   1.692
 9268SOL    HW128703   1.020   5.577   1.790
 9268SOL    HW228704   0.979   5.464   1.679
 9269SOL     OW28705   2.738   1.452   6.042
 9269SOL    HW128706   2.724   1.420   5.948
 9269SOL    HW228707   2.700   1.544   6.051
 9270SOL     OW28708   4.507   6.408   6.195
 9270SOL    HW128709   4.422   6.360   6.214
 9270SOL    HW228710   4.523   6.477   6.266
 9271SOL     OW28711   0.338   0.147   6.758
 9271SOL    HW128712   0.288   0.162   6.843
 9271SOL    HW228713   0.413   0.082   6.775
 9272SOL     OW28714   1.727   5.408   4.050
 9272SOL    HW128715   1.687   5.318   4.066
 9272SOL    HW228716   1.742   5.455   4.137
 9273SOL     OW28717   5.817   6.254   3.473
 9273SOL    HW128718   5.854   6.245   3.565
 9273SOL    HW228719   5.763   6.338   3.466
 9274SOL     OW28720   6.214   2.620   0.231
 9274SOL    HW128721   6.137   2.649   0.288
 9274SOL    HW228722   6.261   2.700   0.195
 9275SOL     OW28723   0.123   1.661   6.607
 9275SOL    HW128724   0.029   1.689   6.630
 9275SOL    HW228725   0.148   1.582   6.663
 9276SOL     OW28726   2.046   4.077   2.680
 9276SOL    HW128727   2.085   4.168   2.669
 9276SOL    HW228728   2.015   4.043   2.591
 9277SOL     OW28729   5.443   3.189   6.938
 9277SOL    HW128730   5.344   3.189   6.953
 9277SOL    HW228731   5.476   3.095   6.937
 9278SOL     OW28732   1.506   0.460   5.735
 9278SOL    HW128733   1.480   0.541   5.787
 9278SOL    HW228734   1.544   0.391   5.796
 9279SOL     OW28735   5.219   1.053   1.701
 9279SOL    HW128736   5.285   1.127   1.711
 9279SOL    HW228737   5.163   1.046   1.783
 9280SOL     OW28738   1.731   1.531   3.296
 9280SOL    HW128739   1.665   1.585   3.347
 9280SOL    HW228740   1.729   1.437   3.328
 9281SOL     OW28741   2.654   4.939   0.609
 9281SOL    HW128742   2.594   4.874   0.655
 9281SOL    HW228743   2.684   5.009   0.673
 9282SOL     OW28744   4.888   1.229   4.203
 9282SOL    HW128745   4.947   1.215   4.124
 9282SOL    HW228746   4.818   1.158   4.207
 9283SOL     OW28747   5.847   0.634   3.723
 9283SOL    HW128748   5.798   0.573   3.787
 9283SOL    HW228749   5.924   0.585   3.683
 9284SOL     OW28750   3.284   3.924   6.334
 9284SOL    HW128751   3.289   3.890   6.240
 9284SOL    HW228752   3.204   3.885   6.379
 9285SOL     OW28753   4.897   2.670   1.531
 9285SOL    HW128754   4.863   2.577   1.541
 9285SOL    HW228755   4.901   2.694   1.434
 9286SOL     OW28756   5.312   6.022   0.162
 9286SOL    HW128757   5.403   6.040   0.126
 9286SOL    HW228758   5.246   6.081   0.115
 9287SOL     OW28759   3.275   5.265   6.382
 9287SOL    HW128760   3.289   5.290   6.478
 9287SOL    HW228761   3.244   5.345   6.330
 9288SOL     OW28762   4.518   1.442   3.482
 9288SOL    HW128763   4.491   1.524   3.532
 9288SOL    HW228764   4.475   1.443   3.392
 9289SOL     OW28765   4.287   1.468   2.448
 9289SOL    HW128766   4.273   1.374   2.481
 9289SOL    HW228767   4.254   1.476   2.354
 9290SOL     OW28768   5.239   0.949   3.078
 9290SOL    HW128769   5.282   0.928   3.166
 9290SOL    HW228770   5.232   1.048   3.066
 9291SOL     OW28771   1.629   6.790   4.086
 9291SOL    HW128772   1.684   6.837   4.155
 9291SOL    HW228773   1.613   6.696   4.114
 9292SOL     OW28774   0.841   3.511   6.934
 9292SOL    HW128775   0.895   3.579   6.884
 9292SOL    HW228776   0.899   3.465   7.001
 9293SOL     OW28777   5.640   3.772   0.012
 9293SOL    HW128778   5.675   3.861   0.040
 9293SOL    HW228779   5.656   3.759   6.934
 9294SOL     OW28780   3.508   0.785   5.173
 9294SOL    HW128781   3.575   0.716   5.147
 9294SOL    HW228782   3.428   0.741   5.214
 9295SOL     OW28783   5.282   2.054   4.233
 9295SOL    HW128784   5.280   1.970   4.179
 9295SOL    HW228785   5.205   2.112   4.206
 9296SOL     OW28786   6.898   6.370   6.595
 9296SOL    HW128787   6.819   6.419   6.559
 9296SOL    HW228788   6.937   6.420   6.673
 9297SOL     OW28789   6.538   0.775   0.199
 9297SOL    HW128790   6.499   0.740   0.284
 9297SOL    HW228791   6.483   0.744   0.121
 9298SOL     OW28792   1.206   0.458   5.109
 9298SOL    HW128793   1.167   0.379   5.156
 9298SOL    HW228794   1.177   0.458   5.013
 9299SOL     OW28795   0.708   2.756   4.559
 9299SOL    HW128796   0.693   2.787   4.653
 9299SOL    HW228797   0.746   2.831   4.505
 9300SOL     OW28798   0.351   4.756   5.388
 9300SOL    HW128799   0.316   4.665   5.409
 9300SOL    HW228800   0.435   4.748   5.334
 9301SOL     OW28801   4.891   4.514   4.229
 9301SOL    HW128802   4.876   4.611   4.211
 9301SOL    HW228803   4.975   4.502   4.281
 9302SOL     OW28804   2.229   3.023   3.947
 9302SOL    HW128805   2.139   3.053   3.916
 9302SOL    HW228806   2.225   3.002   4.045
 9303SOL     OW28807   3.035   5.062   0.839
 9303SOL    HW128808   2.964   5.078   0.770
 9303SOL    HW228809   3.123   5.049   0.793
 9304SOL     OW28810   4.611   4.455   2.209
 9304SOL    HW128811   4.550   4.418   2.139
 9304SOL    HW228812   4.659   4.380   2.255
 9305SOL     OW28813   2.894   0.991   1.191
 9305SOL    HW128814   2.922   0.925   1.122
 9305SOL    HW228815   2.964   1.061   1.201
 9306SOL     OW28816   6.941   4.358   4.616
 9306SOL    HW128817   6.873   4.335   4.686
 9306SOL    HW228818   7.012   4.287   4.615
 9307SOL     OW28819   1.830   3.566   2.016
 9307SOL    HW128820   1.902   3.584   2.082
 9307SOL    HW228821   1.846   3.618   1.933
 9308SOL     OW28822   1.754   3.828   0.586
 9308SOL    HW128823   1.792   3.768   0.515
 9308SOL    HW228824   1.656   3.811   0.595
 9309SOL     OW28825   3.665   5.076   5.803
 9309SOL    HW128826   3.659   5.080   5.703
 9309SOL    HW228827   3.573   5.077   5.841
 9310SOL     OW28828   4.648   5.156   6.499
 9310SOL    HW128829   4.600   5.128   6.582
 9310SOL    HW228830   4.731   5.205   6.524
 9311SOL     OW28831   3.913   5.083   2.256
 9311SOL    HW128832   3.918   4.984   2.272
 9311SOL    HW228833   3.818   5.107   2.234
 9312SOL     OW28834   1.349   3.402   1.455
 9312SOL    HW128835   1.306   3.461   1.386
 9312SOL    HW228836   1.286   3.330   1.481
 9313SOL     OW28837   0.426   0.454   0.973
 9313SOL    HW128838   0.517   0.422   0.999
 9313SOL    HW228839   0.383   0.497   1.052
 9314SOL     OW28840   5.098   5.337   6.035
 9314SOL    HW128841   5.161   5.260   6.025
 9314SOL    HW228842   5.009   5.303   6.064
 9315SOL     OW28843   6.497   0.499   4.937
 9315SOL    HW128844   6.445   0.416   4.957
 9315SOL    HW228845   6.453   0.577   4.983
 9316SOL     OW28846   4.284   5.585   5.204
 9316SOL    HW128847   4.254   5.490   5.219
 9316SOL    HW228848   4.273   5.637   5.289
 9317SOL     OW28849   6.195   5.321   3.142
 9317SOL    HW128850   6.134   5.297   3.067
 9317SOL    HW228851   6.164   5.405   3.186
 9318SOL     OW28852   6.673   0.411   5.630
 9318SOL    HW128853   6.690   0.347   5.705
 9318SOL    HW228854   6.575   0.414   5.610
 9319SOL     OW28855   1.696   2.870   0.043
 9319SOL    HW128856   1.712   2.850   0.140
 9319SOL    HW228857   1.781   2.898   7.019
 9320SOL     OW28858   3.878   0.322   5.043
 9320SOL    HW128859   3.957   0.320   4.982
 9320SOL    HW228860   3.905   0.290   5.134
 9321SOL     OW28861   6.592   0.134   3.778
 9321SOL    HW128862   6.585   0.192   3.697
 9321SOL    HW228863   6.562   0.185   3.858
 9322SOL     OW28864   0.798   4.457   6.936
 9322SOL    HW128865   0.704   4.427   6.924
 9322SOL    HW228866   0.817   4.470   0.014
 9323SOL     OW28867   1.422   0.669   5.375
 9323SOL    HW128868   1.389   0.686   5.282
 9323SOL    HW228869   1.466   0.752   5.410
 9324SOL     OW28870   1.645   4.687   0.940
 9324SOL    HW128871   1.631   4.597   0.981
 9324SOL    HW228872   1.556   4.730   0.920
 9325SOL     OW28873   4.868   0.474   0.122
 9325SOL    HW128874   4.805   0.446   0.195
 9325SOL    HW228875   4.817   0.481   0.036
 9326SOL     OW28876   2.322   5.391   0.236
 9326SOL    HW128877   2.295   5.429   0.147
 9326SOL    HW228878   2.420   5.406   0.250
 9327SOL     OW28879   5.522   0.530   3.257
 9327SOL    HW128880   5.436   0.534   3.307
 9327SOL    HW228881   5.527   0.608   3.194
 9328SOL     OW28882   2.538   0.436   5.941
 9328SOL    HW128883   2.518   0.501   6.014
 9328SOL    HW228884   2.553   0.345   5.980
 9329SOL     OW28885   6.071   3.819   1.603
 9329SOL    HW128886   6.079   3.904   1.655
 9329SOL    HW228887   5.975   3.795   1.594
 9330SOL     OW28888   5.818   6.887   6.396
 9330SOL    HW128889   5.900   6.834   6.417
 9330SOL    HW228890   5.739   6.845   6.440
 9331SOL     OW28891   2.437   0.966   0.032
 9331SOL    HW128892   2.453   1.031   0.105
 9331SOL    HW228893   2.524   0.927   0.002
 9332SOL     OW28894   4.149   3.920   1.730
 9332SOL    HW128895   4.078   3.861   1.692
 9332SOL    HW228896   4.126   3.946   1.824
 9333SOL     OW28897   3.914   3.441   0.631
 9333SOL    HW128898   3.939   3.537   0.645
 9333SOL    HW228899   3.958   3.385   0.701
 9334SOL     OW28900   6.095   5.969   3.586
 9334SOL    HW128901   6.152   5.962   3.504
 9334SOL    HW228902   6.107   6.059   3.627
 9335SOL     OW28903   0.973   1.049   6.130
 9335SOL    HW128904   0.916   0.975   6.165
 9335SOL    HW228905   0.919   1.105   6.066
 9336SOL     OW28906   2.949   5.542   5.920
 9336SOL    HW128907   3.029   5.520   5.863
 9336SOL    HW228908   2.866   5.536   5.865
 9337SOL     OW28909   4.381   1.801   4.781
 9337SOL    HW128910   4.306   1.792   4.715
 9337SOL    HW228911   4.420   1.893   4.776
 9338SOL     OW28912   5.451   0.577   2.229
 9338SOL    HW128913   5.406   0.638   2.163
 9338SOL    HW228914   5.499   0.632   2.297
 9339SOL     OW28915   5.552   6.937   1.775
 9339SOL    HW128916   5.605   7.002   1.721
 9339SOL    HW228917   5.586   6.844   1.758
 9340SOL     OW28918   5.501   4.058   4.560
 9340SOL    HW128919   5.474   4.095   4.471
 9340SOL    HW228920   5.529   3.962   4.549
 9341SOL     OW28921   6.830   5.761   0.823
 9341SOL    HW128922   6.773   5.759   0.741
 9341SOL    HW228923   6.772   5.755   0.904
 9342SOL     OW28924   2.146   6.676   4.030
 9342SOL    HW128925   2.051   6.650   4.011
 9342SOL    HW228926   2.174   6.637   4.118
 9343SOL     OW28927   5.793   4.029   2.775
 9343SOL    HW128928   5.730   4.008   2.850
 9343SOL    HW228929   5.877   3.976   2.787
 9344SOL     OW28930   4.689   6.278   2.896
 9344SOL    HW128931   4.683   6.378   2.896
 9344SOL    HW228932   4.644   6.242   2.978
 9345SOL     OW28933   6.000   5.120   2.358
 9345SOL    HW128934   5.991   5.028   2.396
 9345SOL    HW228935   6.071   5.120   2.287
 9346SOL     OW28936   6.228   1.288   1.072
 9346SOL    HW128937   6.231   1.370   1.129
 9346SOL    HW228938   6.321   1.261   1.048
 9347SOL     OW28939   2.366   3.615   0.948
 9347SOL    HW128940   2.445   3.661   0.988
 9347SOL    HW228941   2.282   3.650   0.988
 9348SOL     OW28942   3.431   6.265   1.896
 9348SOL    HW128943   3.487   6.303   1.970
 9348SOL    HW228944   3.492   6.235   1.821
 9349SOL     OW28945   6.344   5.595   3.909
 9349SOL    HW128946   6.387   5.667   3.854
 9349SOL    HW228947   6.245   5.598   3.896
 9350SOL     OW28948   0.403   3.029   4.946
 9350SOL    HW128949   0.427   3.125   4.930
 9350SOL    HW228950   0.462   2.992   5.018
 9351SOL     OW28951   2.846   0.321   6.993
 9351SOL    HW128952   2.941   0.289   6.997
 9351SOL    HW228953   2.793   0.260   6.935
 9352SOL     OW28954   3.601   1.549   6.204
 9352SOL    HW128955   3.582   1.497   6.288
 9352SOL    HW228956   3.685   1.514   6.162
 9353SOL     OW28957   0.487   4.655   0.698
 9353SOL    HW128958   0.533   4.679   0.613
 9353SOL    HW228959   0.549   4.668   0.775
 9354SOL     OW28960   6.915   1.935   6.461
 9354SOL    HW128961   6.937   1.849   6.415
 9354SOL    HW228962   6.999   1.981   6.489
 9355SOL     OW28963   0.327   2.106   4.516
 9355SOL    HW128964   0.249   2.052   4.548
 9355SOL    HW228965   0.409   2.078   4.566
 9356SOL     OW28966   4.790   0.469   2.052
 9356SOL    HW128967   4.805   0.434   1.959
 9356SOL    HW228968   4.835   0.409   2.118
 9357SOL     OW28969   1.870   2.693   5.825
 9357SOL    HW128970   1.867   2.597   5.850
 9357SOL    HW228971   1.827   2.705   5.735
 9358SOL     OW28972   6.286   3.338   2.083
 9358SOL    HW128973   6.299   3.371   1.989
 9358SOL    HW228974   6.374   3.313   2.122
 9359SOL     OW28975   1.442   4.225   6.189
 9359SOL    HW128976   1.515   4.293   6.185
 9359SOL    HW228977   1.354   4.271   6.204
 9360SOL     OW28978   1.000   4.677   6.322
 9360SOL    HW128979   1.073   4.733   6.360
 9360SOL    HW228980   1.007   4.584   6.358
 9361SOL     OW28981   1.911   5.009   3.531
 9361SOL    HW128982   1.991   4.963   3.493
 9361SOL    HW228983   1.881   5.082   3.470
 9362SOL     OW28984   1.588   1.240   2.716
 9362SOL    HW128985   1.555   1.335   2.719
 9362SOL    HW228986   1.571   1.197   2.805
 9363SOL     OW28987   2.876   5.613   1.874
 9363SOL    HW128988   2.834   5.524   1.860
 9363SOL    HW228989   2.810   5.685   1.853
 9364SOL     OW28990   2.562   1.894   0.041
 9364SOL    HW128991   2.608   1.983   0.038
 9364SOL    HW228992   2.513   1.884   0.128
 9365SOL     OW28993   3.208   1.788   3.104
 9365SOL    HW128994   3.207   1.887   3.111
 9365SOL    HW228995   3.221   1.747   3.194
 9366SOL     OW28996   2.869   5.383   6.617
 9366SOL    HW128997   2.799   5.410   6.551
 9366SOL    HW228998   2.868   5.447   6.694
 9367SOL     OW28999   6.604   6.632   2.097
 9367SOL    HW129000   6.578   6.539   2.070
 9367SOL    HW229001   6.576   6.696   2.025
 9368SOL     OW29002   3.244   0.142   2.425
 9368SOL    HW129003   3.150   0.174   2.434
 9368SOL    HW229004   3.296   0.169   2.506
 9369SOL     OW29005   6.842   6.480   3.563
 9369SOL    HW129006   6.783   6.535   3.622
 9369SOL    HW229007   6.785   6.430   3.497
 9370SOL     OW29008   5.582   0.418   5.015
 9370SOL    HW129009   5.672   0.458   5.028
 9370SOL    HW229010   5.577   0.331   5.064
 9371SOL     OW29011   2.202   6.055   0.544
 9371SOL    HW129012   2.118   6.061   0.490
 9371SOL    HW229013   2.244   5.965   0.530
 9372SOL     OW29014   5.561   6.678   1.504
 9372SOL    HW129015   5.492   6.691   1.433
 9372SOL    HW229016   5.638   6.627   1.466
 9373SOL     OW29017   4.554   2.416   1.618
 9373SOL    HW129018   4.535   2.455   1.708
 9373SOL    HW229019   4.564   2.490   1.551
 9374SOL     OW29020   0.471   2.760   6.362
 9374SOL    HW129021   0.464   2.663   6.337
 9374SOL    HW229022   0.529   2.769   6.443
 9375SOL     OW29023   0.493   2.323   0.845
 9375SOL    HW129024   0.556   2.389   0.885
 9375SOL    HW229025   0.399   2.350   0.865
 9376SOL     OW29026   2.197   3.816   1.470
 9376SOL    HW129027   2.231   3.732   1.511
 9376SOL    HW229028   2.136   3.793   1.394
 9377SOL     OW29029   1.974   5.199   3.071
 9377SOL    HW129030   1.887   5.213   3.119
 9377SOL    HW229031   2.049   5.198   3.136
 9378SOL     OW29032   3.481   1.156   3.299
 9378SOL    HW129033   3.463   1.128   3.393
 9378SOL    HW229034   3.419   1.230   3.273
 9379SOL     OW29035   5.161   0.317   4.741
 9379SOL    HW129036   5.145   0.278   4.832
 9379SOL    HW229037   5.164   0.243   4.674
 9380SOL     OW29038   3.664   5.885   5.342
 9380SOL    HW129039   3.623   5.794   5.336
 9380SOL    HW229040   3.601   5.947   5.390
 9381SOL     OW29041   5.380   3.038   5.791
 9381SOL    HW129042   5.404   3.095   5.713
 9381SOL    HW229043   5.284   3.054   5.816
 9382SOL     OW29044   4.312   1.316   3.696
 9382SOL    HW129045   4.233   1.256   3.684
 9382SOL    HW229046   4.382   1.293   3.627
 9383SOL     OW29047   5.683   4.927   4.069
 9383SOL    HW129048   5.705   4.913   3.973
 9383SOL    HW229049   5.649   4.842   4.109
 9384SOL     OW29050   3.415   0.010   2.217
 9384SOL    HW129051   3.384   6.945   2.260
 9384SOL    HW229052   3.351   0.084   2.237
 9385SOL     OW29053   4.621   1.474   4.265
 9385SOL    HW129054   4.630   1.431   4.176
 9385SOL    HW229055   4.593   1.569   4.254
 9386SOL     OW29056   3.261   5.604   5.217
 9386SOL    HW129057   3.237   5.569   5.126
 9386SOL    HW229058   3.209   5.686   5.236
 9387SOL     OW29059   3.397   2.410   0.730
 9387SOL    HW129060   3.404   2.311   0.724
 9387SOL    HW229061   3.320   2.441   0.674
 9388SOL     OW29062   1.842   6.242   3.486
 9388SOL    HW129063   1.897   6.163   3.511
 9388SOL    HW229064   1.859   6.267   3.391
 9389SOL     OW29065   3.085   6.613   2.690
 9389SOL    HW129066   3.127   6.683   2.631
 9389SOL    HW229067   3.109   6.522   2.655
 9390SOL     OW29068   6.000   5.489   5.917
 9390SOL    HW129069   5.951   5.532   5.993
 9390SOL    HW229070   5.935   5.464   5.845
 9391SOL     OW29071   0.312   6.811   5.891
 9391SOL    HW129072   0.286   6.771   5.803
 9391SOL    HW229073   0.404   6.780   5.915
 9392SOL     OW29074   5.030   4.285   5.251
 9392SOL    HW129075   4.977   4.215   5.202
 9392SOL    HW229076   4.973   4.328   5.321
 9393SOL     OW29077   2.651   6.799   5.550
 9393SOL    HW129078   2.561   6.813   5.591
 9393SOL    HW229079   2.716   6.864   5.589
 9394SOL     OW29080   6.053   0.308   1.150
 9394SOL    HW129081   6.024   0.388   1.098
 9394SOL    HW229082   5.973   0.261   1.186
 9395SOL     OW29083   2.224   1.126   0.781
 9395SOL    HW129084   2.257   1.055   0.844
 9395SOL    HW229085   2.173   1.083   0.707
 9396SOL     OW29086   1.249   4.377   4.655
 9396SOL    HW129087   1.181   4.396   4.726
 9396SOL    HW229088   1.341   4.381   4.695
 9397SOL     OW29089   2.327   6.355   5.970
 9397SOL    HW129090   2.321   6.258   5.992
 9397SOL    HW229091   2.274   6.408   6.036
 9398SOL     OW29092   5.933   1.137   6.094
 9398SOL    HW129093   5.934   1.232   6.123
 9398SOL    HW229094   6.023   1.112   6.059
 9399SOL     OW29095   0.899   3.272   4.168
 9399SOL    HW129096   0.858   3.257   4.078
 9399SOL    HW229097   0.953   3.357   4.165
 9400SOL     OW29098   4.338   0.311   0.936
 9400SOL    HW129099   4.244   0.318   0.903
 9400SOL    HW229100   4.402   0.327   0.860
 9401SOL     OW29101   6.970   1.719   2.888
 9401SOL    HW129102   0.049   1.703   2.900
 9401SOL    HW229103   6.956   1.800   2.830
 9402SOL     OW29104   1.347   3.971   2.809
 9402SOL    HW129105   1.347   3.880   2.849
 9402SOL    HW229106   1.299   3.969   2.722
 9403SOL     OW29107   6.555   1.458   2.328
 9403SOL    HW129108   6.490   1.509   2.271
 9403SOL    HW229109   6.507   1.385   2.376
 9404SOL     OW29110   0.376   1.785   1.095
 9404SOL    HW129111   0.279   1.802   1.076
 9404SOL    HW229112   0.395   1.809   1.191
 9405SOL     OW29113   1.495   4.188   4.144
 9405SOL    HW129114   1.407   4.140   4.139
 9405SOL    HW229115   1.544   4.177   4.058
 9406SOL     OW29116   1.171   3.339   6.914
 9406SOL    HW129117   1.134   3.425   6.951
 9406SOL    HW229118   1.107   3.265   6.935
 9407SOL     OW29119   2.237   5.267   4.573
 9407SOL    HW129120   2.151   5.251   4.622
 9407SOL    HW229121   2.283   5.347   4.612
 9408SOL     OW29122   0.782   1.953   6.381
 9408SOL    HW129123   0.843   1.960   6.302
 9408SOL    HW229124   0.698   1.905   6.353
 9409SOL     OW29125   6.313   5.707   1.757
 9409SOL    HW129126   6.343   5.614   1.779
 9409SOL    HW229127   6.284   5.753   1.841
 9410SOL     OW29128   3.934   1.135   1.895
 9410SOL    HW129129   3.979   1.051   1.866
 9410SOL    HW229130   3.853   1.114   1.949
 9411SOL     OW29131   3.944   3.273   3.047
 9411SOL    HW129132   3.915   3.189   3.002
 9411SOL    HW229133   3.978   3.253   3.138
 9412SOL     OW29134   1.480   0.169   2.202
 9412SOL    HW129135   1.449   0.248   2.254
 9412SOL    HW229136   1.409   0.098   2.204
 9413SOL     OW29137   4.851   5.475   4.265
 9413SOL    HW129138   4.923   5.407   4.276
 9413SOL    HW229139   4.882   5.548   4.205
 9414SOL     OW29140   3.407   1.615   4.204
 9414SOL    HW129141   3.388   1.531   4.153
 9414SOL    HW229142   3.505   1.635   4.201
 9415SOL     OW29143   2.242   0.212   1.502
 9415SOL    HW129144   2.309   0.272   1.458
 9415SOL    HW229145   2.157   0.261   1.516
 9416SOL     OW29146   0.107   0.634   5.610
 9416SOL    HW129147   0.028   0.597   5.659
 9416SOL    HW229148   0.176   0.563   5.600
 9417SOL     OW29149   3.642   6.731   1.439
 9417SOL    HW129150   3.677   6.641   1.413
 9417SOL    HW229151   3.717   6.788   1.473
 9418SOL     OW29152   2.724   1.268   2.341
 9418SOL    HW129153   2.739   1.174   2.311
 9418SOL    HW229154   2.694   1.324   2.264
 9419SOL     OW29155   1.516   3.268   6.715
 9419SOL    HW129156   1.555   3.226   6.633
 9419SOL    HW229157   1.487   3.362   6.693
 9420SOL     OW29158   5.160   4.269   0.146
 9420SOL    HW129159   5.146   4.366   0.130
 9420SOL    HW229160   5.104   4.239   0.224
 9421SOL     OW29161   2.808   5.280   4.061
 9421SOL    HW129162   2.710   5.288   4.080
 9421SOL    HW229163   2.840   5.189   4.087
 9422SOL     OW29164   2.631   6.242   3.873
 9422SOL    HW129165   2.557   6.175   3.871
 9422SOL    HW229166   2.671   6.245   3.965
 9423SOL     OW29167   3.882   6.421   3.116
 9423SOL    HW129168   3.809   6.355   3.126
 9423SOL    HW229169   3.971   6.376   3.129
 9424SOL     OW29170   5.542   2.063   4.326
 9424SOL    HW129171   5.444   2.047   4.317
 9424SOL    HW229172   5.587   1.977   4.351
 9425SOL     OW29173   5.718   5.135   1.082
 9425SOL    HW129174   5.800   5.138   1.139
 9425SOL    HW229175   5.708   5.221   1.033
 9426SOL     OW29176   2.513   1.853   6.219
 9426SOL    HW129177   2.559   1.932   6.178
 9426SOL    HW229178   2.448   1.884   6.288
 9427SOL     OW29179   2.464   5.999   3.220
 9427SOL    HW129180   2.540   6.028   3.278
 9427SOL    HW229181   2.416   5.922   3.262
 9428SOL     OW29182   6.538   6.949   0.832
 9428SOL    HW129183   6.573   6.891   0.759
 9428SOL    HW229184   6.613   6.975   0.893
 9429SOL     OW29185   2.238   2.299   3.867
 9429SOL    HW129186   2.255   2.350   3.783
 9429SOL    HW229187   2.143   2.312   3.896
 9430SOL     OW29188   0.291   2.403   4.384
 9430SOL    HW129189   0.335   2.354   4.459
 9430SOL    HW229190   0.255   2.490   4.418
 9431SOL     OW29191   6.885   4.686   1.272
 9431SOL    HW129192   6.826   4.757   1.234
 9431SOL    HW229193   6.941   4.724   1.346
 9432SOL     OW29194   5.971   1.610   4.500
 9432SOL    HW129195   6.024   1.529   4.528
 9432SOL    HW229196   5.959   1.609   4.401
 9433SOL     OW29197   3.944   6.686   3.174
 9433SOL    HW129198   3.909   6.597   3.146
 9433SOL    HW229199   3.921   6.702   3.270
 9434SOL     OW29200   6.364   5.757   3.641
 9434SOL    HW129201   6.293   5.711   3.587
 9434SOL    HW229202   6.335   5.850   3.661
 9435SOL     OW29203   0.313   1.670   2.872
 9435SOL    HW129204   0.401   1.718   2.880
 9435SOL    HW229205   0.268   1.698   2.787
 9436SOL     OW29206   1.536   1.533   2.748
 9436SOL    HW129207   1.438   1.537   2.767
 9436SOL    HW229208   1.556   1.587   2.666
 9437SOL     OW29209   0.744   5.012   3.502
 9437SOL    HW129210   0.689   5.019   3.418
 9437SOL    HW229211   0.836   4.983   3.479
 9438SOL     OW29212   1.518   0.035   1.945
 9438SOL    HW129213   1.609   0.057   1.909
 9438SOL    HW229214   1.512   0.068   2.039
 9439SOL     OW29215   0.539   3.375   1.367
 9439SOL    HW129216   0.526   3.416   1.277
 9439SOL    HW229217   0.555   3.277   1.357
 9440SOL     OW29218   3.829   4.939   3.844
 9440SOL    HW129219   3.761   4.923   3.772
 9440SOL    HW229220   3.917   4.900   3.816
 9441SOL     OW29221   6.557   6.210   5.287
 9441SOL    HW129222   6.506   6.161   5.358
 9441SOL    HW229223   6.648   6.169   5.277
 9442SOL     OW29224   4.758   3.455   1.760
 9442SOL    HW129225   4.716   3.408   1.683
 9442SOL    HW229226   4.770   3.391   1.836
 9443SOL     OW29227   2.605   5.473   0.813
 9443SOL    HW129228   2.525   5.527   0.836
 9443SOL    HW229229   2.653   5.447   0.897
 9444SOL     OW29230   1.657   4.606   0.691
 9444SOL    HW129231   1.639   4.687   0.634
 9444SOL    HW229232   1.663   4.633   0.787
 9445SOL     OW29233   6.854   2.544   3.166
 9445SOL    HW129234   6.910   2.462   3.163
 9445SOL    HW229235   6.839   2.579   3.074
 9446SOL     OW29236   0.657   5.098   4.444
 9446SOL    HW129237   0.722   5.127   4.514
 9446SOL    HW229238   0.703   5.092   4.356
 9447SOL     OW29239   5.323   4.713   3.429
 9447SOL    HW129240   5.391   4.671   3.489
 9447SOL    HW229241   5.232   4.697   3.467
 9448SOL     OW29242   6.867   6.734   6.691
 9448SOL    HW129243   6.888   6.817   6.744
 9448SOL    HW229244   6.901   6.654   6.740
 9449SOL     OW29245   5.802   6.769   0.001
 9449SOL    HW129246   5.875   6.702   7.012
 9449SOL    HW229247   5.796   6.823   6.936
 9450SOL     OW29248   2.190   5.256   3.557
 9450SOL    HW129249   2.181   5.262   3.656
 9450SOL    HW229250   2.282   5.283   3.530
 9451SOL     OW29251   4.124   5.950   5.736
 9451SOL    HW129252   4.138   6.049   5.737
 9451SOL    HW229253   4.026   5.931   5.734
 9452SOL     OW29254   0.897   4.187   6.900
 9452SOL    HW129255   0.803   4.167   6.872
 9452SOL    HW229256   0.913   4.286   6.898
 9453SOL     OW29257   2.703   4.713   2.395
 9453SOL    HW129258   2.684   4.713   2.493
 9453SOL    HW229259   2.646   4.646   2.350
 9454SOL     OW29260   3.889   3.165   6.607
 9454SOL    HW129261   3.928   3.178   6.698
 9454SOL    HW229262   3.906   3.245   6.551
 9455SOL     OW29263   2.366   2.138   2.563
 9455SOL    HW129264   2.321   2.212   2.614
 9455SOL    HW229265   2.465   2.153   2.563
 9456SOL     OW29266   6.075   4.051   1.724
 9456SOL    HW129267   6.077   4.131   1.664
 9456SOL    HW229268   6.003   4.063   1.792
 9457SOL     OW29269   0.327   4.619   4.211
 9457SOL    HW129270   0.330   4.697   4.147
 9457SOL    HW229271   0.420   4.588   4.230
 9458SOL     OW29272   6.947   4.060   0.161
 9458SOL    HW129273   6.943   4.018   0.070
 9458SOL    HW229274   6.857   4.055   0.203
 9459SOL     OW29275   5.362   4.791   3.946
 9459SOL    HW129276   5.415   4.869   3.915
 9459SOL    HW229277   5.347   4.729   3.869
 9460SOL     OW29278   2.252   2.940   4.619
 9460SOL    HW129279   2.262   2.869   4.549
 9460SOL    HW229280   2.269   3.029   4.577
 9461SOL     OW29281   0.643   1.607   1.796
 9461SOL    HW129282   0.739   1.633   1.809
 9461SOL    HW229283   0.606   1.571   1.882
 9462SOL     OW29284   2.004   3.124   3.800
 9462SOL    HW129285   2.044   3.135   3.709
 9462SOL    HW229286   1.904   3.135   3.794
 9463SOL     OW29287   5.460   6.326   1.332
 9463SOL    HW129288   5.483   6.331   1.235
 9463SOL    HW229289   5.371   6.369   1.348
 9464SOL     OW29290   5.618   0.020   0.654
 9464SOL    HW129291   5.585   0.054   0.566
 9464SOL    HW229292   5.629   6.940   0.650
 9465SOL     OW29293   6.705   4.404   1.446
 9465SOL    HW129294   6.779   4.442   1.390
 9465SOL    HW229295   6.738   4.387   1.538
 9466SOL     OW29296   3.572   3.955   5.942
 9466SOL    HW129297   3.582   4.005   5.856
 9466SOL    HW229298   3.604   4.012   6.018
 9467SOL     OW29299   0.836   2.763   1.148
 9467SOL    HW129300   0.753   2.713   1.174
 9467SOL    HW229301   0.873   2.724   1.063
 9468SOL     OW29302   6.731   3.690   6.540
 9468SOL    HW129303   6.711   3.732   6.628
 9468SOL    HW229304   6.805   3.623   6.551
 9469SOL     OW29305   6.990   5.780   1.266
 9469SOL    HW129306   0.006   5.818   1.351
 9469SOL    HW229307   0.021   5.819   1.188
 9470SOL     OW29308   4.571   3.709   6.840
 9470SOL    HW129309   4.562   3.771   6.918
 9470SOL    HW229310   4.534   3.754   6.758
 9471SOL     OW29311   6.248   1.844   5.515
 9471SOL    HW129312   6.221   1.886   5.602
 9471SOL    HW229313   6.286   1.754   5.532
 9472SOL     OW29314   1.079   4.089   5.701
 9472SOL    HW129315   1.156   4.145   5.670
 9472SOL    HW229316   1.104   4.042   5.786
 9473SOL     OW29317   2.827   4.228   6.535
 9473SOL    HW129318   2.761   4.257   6.465
 9473SOL    HW229319   2.787   4.155   6.590
 9474SOL     OW29320   6.065   3.251   2.239
 9474SOL    HW129321   6.146   3.294   2.199
 9474SOL    HW229322   6.054   3.159   2.200
 9475SOL     OW29323   4.717   4.034   0.200
 9475SOL    HW129324   4.670   3.997   0.280
 9475SOL    HW229325   4.813   4.049   0.222
 9476SOL     OW29326   4.000   3.597   5.118
 9476SOL    HW129327   4.070   3.529   5.094
 9476SOL    HW229328   4.033   3.654   5.192
 9477SOL     OW29329   0.888   3.043   1.094
 9477SOL    HW129330   0.903   3.023   0.998
 9477SOL    HW229331   0.840   2.966   1.137
 9478SOL     OW29332   5.008   2.734   1.277
 9478SOL    HW129333   5.075   2.804   1.302
 9478SOL    HW229334   4.993   2.737   1.179
 9479SOL     OW29335   3.933   6.727   0.707
 9479SOL    HW129336   3.995   6.774   0.770
 9479SOL    HW229337   3.979   6.650   0.664
 9480SOL     OW29338   5.865   5.342   0.428
 9480SOL    HW129339   5.940   5.309   0.370
 9480SOL    HW229340   5.786   5.281   0.418
 9481SOL     OW29341   5.699   2.217   2.518
 9481SOL    HW129342   5.649   2.238   2.602
 9481SOL    HW229343   5.721   2.302   2.470
 9482SOL     OW29344   6.611   0.359   2.579
 9482SOL    HW129345   6.533   0.421   2.592
 9482SOL    HW229346   6.675   0.371   2.655
 9483SOL     OW29347   1.354   1.380   0.424
 9483SOL    HW129348   1.367   1.476   0.400
 9483SOL    HW229349   1.355   1.370   0.524
 9484SOL     OW29350   2.841   0.281   4.701
 9484SOL    HW129351   2.848   0.207   4.634
 9484SOL    HW229352   2.905   0.354   4.678
 9485SOL     OW29353   0.099   1.577   0.862
 9485SOL    HW129354   0.192   1.583   0.828
 9485SOL    HW229355   0.087   1.641   0.938
 9486SOL     OW29356   4.626   6.229   1.485
 9486SOL    HW129357   4.668   6.261   1.400
 9486SOL    HW229358   4.597   6.134   1.474
 9487SOL     OW29359   3.300   3.928   4.245
 9487SOL    HW129360   3.385   3.978   4.259
 9487SOL    HW229361   3.289   3.859   4.317
 9488SOL     OW29362   2.639   0.312   1.060
 9488SOL    HW129363   2.573   0.388   1.062
 9488SOL    HW229364   2.598   0.231   1.102
 9489SOL     OW29365   5.069   4.432   1.231
 9489SOL    HW129366   5.098   4.346   1.189
 9489SOL    HW229367   4.995   4.414   1.295
 9490SOL     OW29368   0.011   6.325   3.708
 9490SOL    HW129369   0.104   6.354   3.730
 9490SOL    HW229370   6.992   6.388   3.641
 9491SOL     OW29371   6.110   5.303   4.515
 9491SOL    HW129372   6.095   5.204   4.518
 9491SOL    HW229373   6.187   5.323   4.454
 9492SOL     OW29374   3.631   3.162   5.151
 9492SOL    HW129375   3.681   3.222   5.088
 9492SOL    HW229376   3.689   3.084   5.176
 9493SOL     OW29377   3.333   5.795   4.159
 9493SOL    HW129378   3.395   5.744   4.100
 9493SOL    HW229379   3.372   5.803   4.250
 9494SOL     OW29380   5.735   3.167   2.284
 9494SOL    HW129381   5.803   3.218   2.231
 9494SOL    HW229382   5.721   3.077   2.243
 9495SOL     OW29383   6.958   1.529   2.325
 9495SOL    HW129384   0.012   1.575   2.275
 9495SOL    HW229385   6.967   1.547   2.423
 9496SOL     OW29386   4.854   2.411   1.839
 9496SOL    HW129387   4.878   2.507   1.828
 9496SOL    HW229388   4.851   2.388   1.936
 9497SOL     OW29389   4.906   6.199   5.189
 9497SOL    HW129390   4.848   6.138   5.134
 9497SOL    HW229391   4.973   6.144   5.240
 9498SOL     OW29392   6.606   4.500   5.226
 9498SOL    HW129393   6.601   4.487   5.127
 9498SOL    HW229394   6.581   4.415   5.272
 9499SOL     OW29395   0.417   6.092   4.855
 9499SOL    HW129396   0.353   6.074   4.929
 9499SOL    HW229397   0.468   6.009   4.834
 9500SOL     OW29398   4.040   6.511   0.542
 9500SOL    HW129399   4.109   6.446   0.573
 9500SOL    HW229400   4.053   6.530   0.445
 9501SOL     OW29401   1.810   1.295   4.064
 9501SOL    HW129402   1.837   1.301   4.160
 9501SOL    HW229403   1.884   1.253   4.012
 9502SOL     OW29404   6.225   3.933   4.658
 9502SOL    HW129405   6.283   4.015   4.656
 9502SOL    HW229406   6.197   3.915   4.752
 9503SOL     OW29407   6.781   2.355   0.396
 9503SOL    HW129408   6.791   2.320   0.490
 9503SOL    HW229409   6.870   2.388   0.364
 9504SOL     OW29410   6.536   3.977   1.942
 9504SOL    HW129411   6.623   3.942   1.907
 9504SOL    HW229412   6.470   3.986   1.867
 9505SOL     OW29413   5.276   4.482   5.485
 9505SOL    HW129414   5.329   4.480   5.400
 9505SOL    HW229415   5.326   4.535   5.553
 9506SOL     OW29416   1.567   2.628   0.903
 9506SOL    HW129417   1.621   2.703   0.864
 9506SOL    HW229418   1.497   2.600   0.837
 9507SOL     OW29419   6.800   0.876   1.406
 9507SOL    HW129420   6.726   0.941   1.422
 9507SOL    HW229421   6.763   0.791   1.368
 9508SOL     OW29422   5.712   2.053   2.836
 9508SOL    HW129423   5.691   1.962   2.872
 9508SOL    HW229424   5.627   2.098   2.808
 9509SOL     OW29425   0.144   0.668   3.632
 9509SOL    HW129426   0.095   0.584   3.609
 9509SOL    HW229427   0.088   0.747   3.607
 9510SOL     OW29428   1.314   3.395   3.185
 9510SOL    HW129429   1.302   3.477   3.241
 9510SOL    HW229430   1.288   3.416   3.091
 9511SOL     OW29431   1.849   1.040   1.744
 9511SOL    HW129432   1.774   1.032   1.678
 9511SOL    HW229433   1.812   1.039   1.837
 9512SOL     OW29434   6.592   2.528   0.972
 9512SOL    HW129435   6.522   2.593   0.941
 9512SOL    HW229436   6.646   2.568   1.046
 9513SOL     OW29437   2.755   4.722   6.293
 9513SOL    HW129438   2.773   4.810   6.339
 9513SOL    HW229439   2.840   4.672   6.284
 9514SOL     OW29440   2.663   4.585   6.734
 9514SOL    HW129441   2.739   4.613   6.676
 9514SOL    HW229442   2.687   4.502   6.783
 9515SOL     OW29443   2.142   5.923   2.458
 9515SOL    HW129444   2.056   5.949   2.415
 9515SOL    HW229445   2.150   5.823   2.460
 9516SOL     OW29446   5.640   4.781   0.290
 9516SOL    HW129447   5.570   4.720   0.326
 9516SOL    HW229448   5.675   4.744   0.203
 9517SOL     OW29449   1.727   3.759   1.478
 9517SOL    HW129450   1.675   3.674   1.483
 9517SOL    HW229451   1.824   3.739   1.468
 9518SOL     OW29452   2.146   1.625   0.738
 9518SOL    HW129453   2.109   1.590   0.824
 9518SOL    HW229454   2.133   1.724   0.733
 9519SOL     OW29455   2.934   3.006   5.290
 9519SOL    HW129456   2.883   2.945   5.350
 9519SOL    HW229457   3.021   2.963   5.266
 9520SOL     OW29458   3.188   0.511   2.866
 9520SOL    HW129459   3.148   0.574   2.932
 9520SOL    HW229460   3.197   0.420   2.908
 9521SOL     OW29461   5.813   5.460   2.416
 9521SOL    HW129462   5.895   5.454   2.472
 9521SOL    HW229463   5.796   5.372   2.372
 9522SOL     OW29464   3.472   5.449   0.927
 9522SOL    HW129465   3.560   5.495   0.939
 9522SOL    HW229466   3.487   5.361   0.880
 9523SOL     OW29467   3.194   5.507   4.954
 9523SOL    HW129468   3.111   5.528   4.903
 9523SOL    HW229469   3.274   5.523   4.896
 9524SOL     OW29470   4.002   2.592   1.650
 9524SOL    HW129471   3.951   2.677   1.645
 9524SOL    HW229472   4.019   2.558   1.557
 9525SOL     OW29473   2.625   2.684   6.454
 9525SOL    HW129474   2.613   2.616   6.381
 9525SOL    HW229475   2.536   2.723   6.477
 9526SOL     OW29476   5.171   5.722   1.983
 9526SOL    HW129477   5.196   5.660   1.909
 9526SOL    HW229478   5.193   5.680   2.071
 9527SOL     OW29479   0.770   0.280   1.237
 9527SOL    HW129480   0.728   0.189   1.240
 9527SOL    HW229481   0.853   0.280   1.293
 9528SOL     OW29482   6.873   0.876   0.001
 9528SOL    HW129483   6.934   0.936   0.052
 9528SOL    HW229484   6.846   0.798   0.059
 9529SOL     OW29485   0.150   2.931   4.955
 9529SOL    HW129486   0.128   2.904   5.049
 9529SOL    HW229487   0.245   2.961   4.950
 9530SOL     OW29488   1.709   3.159   3.784
 9530SOL    HW129489   1.682   3.098   3.709
 9530SOL    HW229490   1.650   3.142   3.863
 9531SOL     OW29491   3.361   5.140   3.474
 9531SOL    HW129492   3.288   5.185   3.423
 9531SOL    HW229493   3.413   5.209   3.525
 9532SOL     OW29494   0.372   6.037   2.233
 9532SOL    HW129495   0.277   6.067   2.223
 9532SOL    HW229496   0.382   5.986   2.319
 9533SOL     OW29497   6.928   0.522   5.179
 9533SOL    HW129498   6.847   0.521   5.237
 9533SOL    HW229499   6.914   0.583   5.101
 9534SOL     OW29500   5.998   2.926   5.524
 9534SOL    HW129501   6.044   2.864   5.588
 9534SOL    HW229502   5.899   2.914   5.533
 9535SOL     OW29503   2.417   1.251   6.002
 9535SOL    HW129504   2.424   1.290   6.093
 9535SOL    HW229505   2.483   1.296   5.941
 9536SOL     OW29506   2.526   4.921   5.350
 9536SOL    HW129507   2.451   4.940   5.286
 9536SOL    HW229508   2.588   4.853   5.309
 9537SOL     OW29509   2.716   0.233   2.512
 9537SOL    HW129510   2.653   0.310   2.522
 9537SOL    HW229511   2.695   0.164   2.581
 9538SOL     OW29512   6.507   1.760   4.337
 9538SOL    HW129513   6.560   1.835   4.378
 9538SOL    HW229514   6.555   1.726   4.256
 9539SOL     OW29515   2.133   4.538   6.331
 9539SOL    HW129516   2.163   4.479   6.407
 9539SOL    HW229517   2.119   4.482   6.249
 9540SOL     OW29518   4.612   4.362   5.323
 9540SOL    HW129519   4.655   4.275   5.298
 9540SOL    HW229520   4.683   4.426   5.353
 9541SOL     OW29521   2.331   2.136   5.732
 9541SOL    HW129522   2.309   2.186   5.648
 9541SOL    HW229523   2.264   2.064   5.747
 9542SOL     OW29524   4.689   3.753   5.343
 9542SOL    HW129525   4.678   3.692   5.265
 9542SOL    HW229526   4.772   3.728   5.393
 9543SOL     OW29527   4.715   0.990   4.223
 9543SOL    HW129528   4.621   1.023   4.237
 9543SOL    HW229529   4.736   0.921   4.291
 9544SOL     OW29530   5.488   0.855   1.900
 9544SOL    HW129531   5.467   0.892   1.810
 9544SOL    HW229532   5.497   0.930   1.965
 9545SOL     OW29533   6.517   5.507   2.991
 9545SOL    HW129534   6.583   5.581   3.005
 9545SOL    HW229535   6.504   5.457   3.077
 9546SOL     OW29536   2.414   3.909   0.048
 9546SOL    HW129537   2.474   3.835   0.017
 9546SOL    HW229538   2.469   3.989   0.070
 9547SOL     OW29539   2.411   5.983   4.460
 9547SOL    HW129540   2.387   6.059   4.521
 9547SOL    HW229541   2.510   5.983   4.444
 9548SOL     OW29542   6.864   5.278   5.064
 9548SOL    HW129543   6.835   5.263   4.970
 9548SOL    HW229544   6.963   5.282   5.068
 9549SOL     OW29545   3.099   4.832   1.017
 9549SOL    HW129546   3.193   4.842   1.047
 9549SOL    HW229547   3.078   4.904   0.950
 9550SOL     OW29548   6.939   1.079   6.108
 9550SOL    HW129549   6.980   1.170   6.107
 9550SOL    HW229550   6.992   1.019   6.168
 9551SOL     OW29551   0.137   6.642   4.173
 9551SOL    HW129552   0.231   6.641   4.138
 9551SOL    HW229553   0.074   6.657   4.097
 9552SOL     OW29554   1.790   6.200   2.681
 9552SOL    HW129555   1.882   6.175   2.649
 9552SOL    HW229556   1.797   6.283   2.738
 9553SOL     OW29557   5.708   4.566   6.706
 9553SOL    HW129558   5.744   4.561   6.613
 9553SOL    HW229559   5.636   4.497   6.718
 9554SOL     OW29560   3.019   1.047   1.608
 9554SOL    HW129561   3.013   0.966   1.550
 9554SOL    HW229562   2.928   1.075   1.637
 9555SOL     OW29563   6.323   2.587   0.997
 9555SOL    HW129564   6.266   2.518   0.954
 9555SOL    HW229565   6.300   2.593   1.095
 9556SOL     OW29566   2.280   1.994   1.580
 9556SOL    HW129567   2.369   2.003   1.536
 9556SOL    HW229568   2.273   2.061   1.655
 9557SOL     OW29569   5.992   0.532   2.632
 9557SOL    HW129570   5.913   0.481   2.597
 9557SOL    HW229571   6.072   0.472   2.630
 9558SOL     OW29572   6.825   5.349   3.648
 9558SOL    HW129573   6.726   5.356   3.661
 9558SOL    HW229574   6.864   5.441   3.641
 9559SOL     OW29575   6.696   4.184   2.665
 9559SOL    HW129576   6.721   4.234   2.748
 9559SOL    HW229577   6.769   4.194   2.597
 9560SOL     OW29578   2.094   1.404   2.363
 9560SOL    HW129579   2.187   1.415   2.398
 9560SOL    HW229580   2.032   1.468   2.410
 9561SOL     OW29581   3.031   6.818   0.438
 9561SOL    HW129582   3.081   6.814   0.352
 9561SOL    HW229583   3.060   6.898   0.490
 9562SOL     OW29584   3.460   5.769   4.390
 9562SOL    HW129585   3.392   5.769   4.464
 9562SOL    HW229586   3.516   5.851   4.397
 9563SOL     OW29587   6.231   6.389   6.919
 9563SOL    HW129588   6.293   6.468   6.915
 9563SOL    HW229589   6.137   6.421   6.923
 9564SOL     OW29590   2.603   0.339   6.708
 9564SOL    HW129591   2.680   0.403   6.708
 9564SOL    HW229592   2.545   0.358   6.629
 9565SOL     OW29593   4.418   5.864   5.362
 9565SOL    HW129594   4.361   5.932   5.317
 9565SOL    HW229595   4.361   5.791   5.399
 9566SOL     OW29596   3.453   4.725   6.872
 9566SOL    HW129597   3.421   4.705   6.964
 9566SOL    HW229598   3.377   4.758   6.817
 9567SOL     OW29599   6.394   5.323   6.296
 9567SOL    HW129600   6.320   5.267   6.257
 9567SOL    HW229601   6.364   5.418   6.302
 9568SOL     OW29602   4.526   3.443   6.337
 9568SOL    HW129603   4.624   3.459   6.347
 9568SOL    HW229604   4.504   3.351   6.370
 9569SOL     OW29605   6.210   0.888   0.465
 9569SOL    HW129606   6.115   0.915   0.482
 9569SOL    HW229607   6.268   0.922   0.538
 9570SOL     OW29608   0.513   1.494   1.578
 9570SOL    HW129609   0.421   1.533   1.570
 9570SOL    HW229610   0.558   1.530   1.660
 9571SOL     OW29611   2.911   3.167   0.319
 9571SOL    HW129612   2.979   3.227   0.361
 9571SOL    HW229613   2.892   3.090   0.380
 9572SOL     OW29614   1.415   4.838   0.897
 9572SOL    HW129615   1.448   4.923   0.938
 9572SOL    HW229616   1.323   4.818   0.931
 9573SOL     OW29617   0.544   1.069   6.647
 9573SOL    HW129618   0.573   1.125   6.570
 9573SOL    HW229619   0.586   0.979   6.640
 9574SOL     OW29620   3.370   3.375   5.008
 9574SOL    HW129621   3.465   3.407   5.005
 9574SOL    HW229622   3.368   3.276   4.993
 9575SOL     OW29623   6.006   1.046   0.940
 9575SOL    HW129624   6.072   1.075   1.010
 9575SOL    HW229625   5.914   1.053   0.976
 9576SOL     OW29626   3.892   0.898   3.316
 9576SOL    HW129627   3.811   0.839   3.319
 9576SOL    HW229628   3.966   0.854   3.367
 9577SOL     OW29629   0.963   0.971   2.197
 9577SOL    HW129630   0.899   0.977   2.121
 9577SOL    HW229631   1.025   0.894   2.183
 9578SOL     OW29632   5.808   2.804   2.737
 9578SOL    HW129633   5.807   2.802   2.637
 9578SOL    HW229634   5.829   2.712   2.772
 9579SOL     OW29635   1.070   6.681   2.469
 9579SOL    HW129636   1.141   6.659   2.401
 9579SOL    HW229637   1.046   6.597   2.519
 9580SOL     OW29638   5.262   3.521   6.603
 9580SOL    HW129639   5.332   3.589   6.624
 9580SOL    HW229640   5.297   3.429   6.624
 9581SOL     OW29641   2.012   4.923   6.260
 9581SOL    HW129642   1.917   4.917   6.291
 9581SOL    HW229643   2.023   4.869   6.176
 9582SOL     OW29644   4.500   4.540   4.155
 9582SOL    HW129645   4.578   4.515   4.098
 9582SOL    HW229646   4.503   4.488   4.241
 9583SOL     OW29647   1.963   3.329   1.903
 9583SOL    HW129648   1.920   3.419   1.895
 9583SOL    HW229649   2.061   3.336   1.885
 9584SOL     OW29650   6.066   5.723   6.816
 9584SOL    HW129651   6.142   5.788   6.816
 9584SOL    HW229652   6.092   5.640   6.766
 9585SOL     OW29653   5.772   0.369   2.552
 9585SOL    HW129654   5.700   0.437   2.536
 9585SOL    HW229655   5.736   0.293   2.605
 9586SOL     OW29656   5.478   3.359   3.589
 9586SOL    HW129657   5.413   3.335   3.660
 9586SOL    HW229658   5.445   3.438   3.538
 9587SOL     OW29659   6.126   0.411   1.592
 9587SOL    HW129660   6.126   0.490   1.654
 9587SOL    HW229661   6.211   0.359   1.603
 9588SOL     OW29662   0.058   0.800   1.386
 9588SOL    HW129663   0.051   0.717   1.442
 9588SOL    HW229664   6.986   0.840   1.374
 9589SOL     OW29665   2.134   6.489   6.426
 9589SOL    HW129666   2.041   6.457   6.442
 9589SOL    HW229667   2.192   6.464   6.503
 9590SOL     OW29668   0.480   3.831   2.531
 9590SOL    HW129669   0.565   3.883   2.526
 9590SOL    HW229670   0.436   3.831   2.441
 9591SOL     OW29671   2.114   6.833   0.776
 9591SOL    HW129672   2.187   6.870   0.719
 9591SOL    HW229673   2.120   6.733   0.778
 9592SOL     OW29674   4.061   5.188   3.151
 9592SOL    HW129675   4.150   5.206   3.193
 9592SOL    HW229676   4.060   5.223   3.058
 9593SOL     OW29677   5.513   2.395   4.327
 9593SOL    HW129678   5.495   2.298   4.348
 9593SOL    HW229679   5.607   2.417   4.350
 9594SOL     OW29680   0.025   6.728   2.895
 9594SOL    HW129681   6.986   6.740   2.975
 9594SOL    HW229682   0.097   6.662   2.916
 9595SOL     OW29683   2.118   5.810   4.507
 9595SOL    HW129684   2.109   5.863   4.592
 9595SOL    HW229685   2.214   5.786   4.493
 9596SOL     OW29686   0.249   5.367   5.578
 9596SOL    HW129687   0.327   5.382   5.640
 9596SOL    HW229688   0.172   5.422   5.608
 9597SOL     OW29689   6.903   4.258   2.247
 9597SOL    HW129690   6.953   4.186   2.199
 9597SOL    HW229691   6.806   4.233   2.254
 9598SOL     OW29692   0.126   4.259   5.764
 9598SOL    HW129693   0.198   4.269   5.696
 9598SOL    HW229694   0.039   4.294   5.727
 9599SOL     OW29695   3.792   6.952   5.463
 9599SOL    HW129696   3.886   6.920   5.451
 9599SOL    HW229697   3.764   7.003   5.381
 9600SOL     OW29698   1.793   0.645   5.703
 9600SOL    HW129699   1.782   0.736   5.742
 9600SOL    HW229700   1.770   0.576   5.771
 9601SOL     OW29701   0.104   4.310   6.404
 9601SOL    HW129702   0.106   4.212   6.388
 9601SOL    HW229703   0.037   4.352   6.343
 9602SOL     OW29704   6.706   4.716   6.082
 9602SOL    HW129705   6.638   4.653   6.045
 9602SOL    HW229706   6.795   4.698   6.039
 9603SOL     OW29707   2.683   6.324   4.614
 9603SOL    HW129708   2.779   6.345   4.593
 9603SOL    HW229709   2.677   6.233   4.656
 9604SOL     OW29710   5.039   1.062   0.556
 9604SOL    HW129711   4.949   1.104   0.570
 9604SOL    HW229712   5.033   0.964   0.572
 9605SOL     OW29713   1.451   4.922   5.606
 9605SOL    HW129714   1.381   4.920   5.536
 9605SOL    HW229715   1.486   4.829   5.621
 9606SOL     OW29716   1.025   6.697   3.314
 9606SOL    HW129717   1.001   6.760   3.240
 9606SOL    HW229718   1.089   6.743   3.376
 9607SOL     OW29719   1.133   1.292   1.859
 9607SOL    HW129720   1.105   1.293   1.956
 9607SOL    HW229721   1.146   1.198   1.829
 9608SOL     OW29722   6.725   6.954   2.008
 9608SOL    HW129723   6.657   6.898   1.960
 9608SOL    HW229724   6.746   6.913   2.097
 9609SOL     OW29725   1.859   4.238   4.759
 9609SOL    HW129726   1.830   4.240   4.664
 9609SOL    HW229727   1.872   4.143   4.788
 9610SOL     OW29728   1.840   2.414   5.866
 9610SOL    HW129729   1.746   2.449   5.865
 9610SOL    HW229730   1.849   2.346   5.939
 9611SOL     OW29731   6.476   0.345   1.124
 9611SOL    HW129732   6.409   0.306   1.187
 9611SOL    HW229733   6.544   0.275   1.100
 9612SOL     OW29734   7.016   3.519   0.767
 9612SOL    HW129735   0.002   3.592   0.835
 9612SOL    HW229736   0.039   3.549   0.682
 9613SOL     OW29737   5.579   6.669   4.243
 9613SOL    HW129738   5.481   6.661   4.257
 9613SOL    HW229739   5.627   6.624   4.318
 9614SOL     OW29740   3.786   3.941   2.237
 9614SOL    HW129741   3.785   3.951   2.138
 9614SOL    HW229742   3.812   4.028   2.279
 9615SOL     OW29743   2.263   5.843   2.959
 9615SOL    HW129744   2.292   5.773   3.024
 9615SOL    HW229745   2.212   5.799   2.884
 9616SOL     OW29746   3.550   2.752   1.249
 9616SOL    HW129747   3.617   2.779   1.180
 9616SOL    HW229748   3.466   2.804   1.235
 9617SOL     OW29749   1.206   3.534   3.423
 9617SOL    HW129750   1.123   3.589   3.423
 9617SOL    HW229751   1.191   3.450   3.476
 9618SOL     OW29752   3.858   6.777   6.498
 9618SOL    HW129753   3.805   6.851   6.538
 9618SOL    HW229754   3.821   6.754   6.408
 9619SOL     OW29755   1.934   5.543   0.087
 9619SOL    HW129756   1.928   5.457   0.139
 9619SOL    HW229757   1.848   5.558   0.038
 9620SOL     OW29758   4.175   0.299   6.335
 9620SOL    HW129759   4.106   0.236   6.300
 9620SOL    HW229760   4.192   0.280   6.431
 9621SOL     OW29761   1.002   0.198   2.363
 9621SOL    HW129762   1.072   0.264   2.337
 9621SOL    HW229763   1.035   0.140   2.437
 9622SOL     OW29764   6.982   1.296   6.695
 9622SOL    HW129765   6.898   1.274   6.743
 9622SOL    HW229766   0.035   1.318   6.761
 9623SOL     OW29767   4.506   5.538   6.370
 9623SOL    HW129768   4.548   5.525   6.460
 9623SOL    HW229769   4.563   5.496   6.300
 9624SOL     OW29770   5.633   5.343   5.368
 9624SOL    HW129771   5.614   5.246   5.350
 9624SOL    HW229772   5.682   5.382   5.290
 9625SOL     OW29773   5.488   4.421   6.705
 9625SOL    HW129774   5.413   4.401   6.769
 9625SOL    HW229775   5.549   4.343   6.700
 9626SOL     OW29776   1.502   4.264   4.769
 9626SOL    HW129777   1.444   4.203   4.824
 9626SOL    HW229778   1.589   4.278   4.816
 9627SOL     OW29779   1.611   4.319   5.883
 9627SOL    HW129780   1.567   4.268   5.809
 9627SOL    HW229781   1.562   4.405   5.897
 9628SOL     OW29782   5.754   3.990   0.086
 9628SOL    HW129783   5.775   4.017   0.180
 9628SOL    HW229784   5.839   3.982   0.034
 9629SOL     OW29785   6.765   6.180   3.031
 9629SOL    HW129786   6.806   6.265   3.000
 9629SOL    HW229787   6.709   6.140   2.958
 9630SOL     OW29788   5.960   6.562   5.532
 9630SOL    HW129789   5.983   6.554   5.629
 9630SOL    HW229790   5.983   6.477   5.485
 9631SOL     OW29791   4.838   1.074   1.144
 9631SOL    HW129792   4.855   1.136   1.068
 9631SOL    HW229793   4.757   1.018   1.124
 9632SOL     OW29794   2.123   5.443   1.589
 9632SOL    HW129795   2.108   5.397   1.676
 9632SOL    HW229796   2.064   5.403   1.519
 9633SOL     OW29797   3.807   2.991   2.332
 9633SOL    HW129798   3.886   3.029   2.380
 9633SOL    HW229799   3.800   2.893   2.352
 9634SOL     OW29800   5.199   4.416   2.460
 9634SOL    HW129801   5.108   4.447   2.488
 9634SOL    HW229802   5.266   4.439   2.531
 9635SOL     OW29803   0.154   3.884   3.992
 9635SOL    HW129804   0.165   3.950   4.067
 9635SOL    HW229805   0.074   3.910   3.938
 9636SOL     OW29806   4.082   1.429   5.730
 9636SOL    HW129807   4.163   1.386   5.771
 9636SOL    HW229808   4.017   1.452   5.802
 9637SOL     OW29809   2.683   2.808   1.305
 9637SOL    HW129810   2.627   2.826   1.386
 9637SOL    HW229811   2.752   2.740   1.326
 9638SOL     OW29812   6.982   4.351   6.113
 9638SOL    HW129813   6.948   4.385   6.026
 9638SOL    HW229814   6.916   4.288   6.153
 9639SOL     OW29815   4.493   2.534   1.848
 9639SOL    HW129816   4.395   2.510   1.846
 9639SOL    HW229817   4.505   2.626   1.811
 9640SOL     OW29818   4.193   1.376   1.986
 9640SOL    HW129819   4.143   1.462   1.989
 9640SOL    HW229820   4.141   1.305   2.034
 9641SOL     OW29821   5.705   5.300   3.058
 9641SOL    HW129822   5.631   5.266   2.999
 9641SOL    HW229823   5.722   5.396   3.038
 9642SOL     OW29824   1.726   0.254   4.312
 9642SOL    HW129825   1.716   0.164   4.355
 9642SOL    HW229826   1.727   0.243   4.213
 9643SOL     OW29827   5.191   4.229   3.871
 9643SOL    HW129828   5.190   4.319   3.916
 9643SOL    HW229829   5.196   4.241   3.772
 9644SOL     OW29830   2.299   6.116   4.949
 9644SOL    HW129831   2.223   6.158   4.999
 9644SOL    HW229832   2.383   6.166   4.967
 9645SOL     OW29833   1.425   4.549   5.286
 9645SOL    HW129834   1.403   4.494   5.206
 9645SOL    HW229835   1.523   4.543   5.305
 9646SOL     OW29836   3.111   6.717   4.374
 9646SOL    HW129837   3.030   6.755   4.418
 9646SOL    HW229838   3.083   6.656   4.300
 9647SOL     OW29839   6.576   6.087   2.871
 9647SOL    HW129840   6.510   6.035   2.924
 9647SOL    HW229841   6.539   6.177   2.850
 9648SOL     OW29842   5.200   2.573   1.641
 9648SOL    HW129843   5.222   2.642   1.572
 9648SOL    HW229844   5.103   2.582   1.667
 9649SOL     OW29845   2.116   3.742   6.507
 9649SOL    HW129846   2.093   3.671   6.441
 9649SOL    HW229847   2.140   3.699   6.594
 9650SOL     OW29848   6.323   4.911   3.776
 9650SOL    HW129849   6.322   4.953   3.685
 9650SOL    HW229850   6.306   4.982   3.845
 9651SOL     OW29851   2.980   1.059   0.547
 9651SOL    HW129852   2.954   0.963   0.560
 9651SOL    HW229853   3.062   1.079   0.599
 9652SOL     OW29854   0.668   4.419   1.305
 9652SOL    HW129855   0.715   4.454   1.224
 9652SOL    HW229856   0.720   4.342   1.343
 9653SOL     OW29857   4.314   4.627   5.758
 9653SOL    HW129858   4.342   4.535   5.732
 9653SOL    HW229859   4.229   4.651   5.712
 9654SOL     OW29860   3.475   2.906   2.855
 9654SOL    HW129861   3.377   2.905   2.833
 9654SOL    HW229862   3.486   2.918   2.954
 9655SOL     OW29863   6.896   1.334   0.727
 9655SOL    HW129864   6.974   1.385   0.692
 9655SOL    HW229865   6.902   1.328   0.826
 9656SOL     OW29866   4.865   2.943   0.440
 9656SOL    HW129867   4.874   2.876   0.366
 9656SOL    HW229868   4.775   2.987   0.433
 9657SOL     OW29869   5.160   4.208   3.608
 9657SOL    HW129870   5.189   4.118   3.641
 9657SOL    HW229871   5.183   4.217   3.511
 9658SOL     OW29872   5.633   1.955   2.564
 9658SOL    HW129873   5.692   2.032   2.543
 9658SOL    HW229874   5.540   1.987   2.578
 9659SOL     OW29875   2.891   1.619   0.374
 9659SOL    HW129876   2.795   1.626   0.347
 9659SOL    HW229877   2.938   1.555   0.313
 9660SOL     OW29878   0.481   6.309   1.003
 9660SOL    HW129879   0.391   6.269   1.021
 9660SOL    HW229880   0.550   6.236   1.004
 9661SOL     OW29881   4.227   5.742   1.297
 9661SOL    HW129882   4.201   5.784   1.210
 9661SOL    HW229883   4.171   5.661   1.313
 9662SOL     OW29884   5.372   4.156   0.068
 9662SOL    HW129885   5.288   4.202   0.098
 9662SOL    HW229886   5.445   4.174   0.134
 9663SOL     OW29887   0.443   4.697   2.771
 9663SOL    HW129888   0.351   4.700   2.732
 9663SOL    HW229889   0.458   4.609   2.815
 9664SOL     OW29890   5.272   3.946   3.613
 9664SOL    HW129891   5.308   3.904   3.696
 9664SOL    HW229892   5.343   3.949   3.544
 9665SOL     OW29893   6.380   6.383   5.371
 9665SOL    HW129894   6.446   6.319   5.332
 9665SOL    HW229895   6.328   6.338   5.444
 9666SOL     OW29896   6.538   4.922   1.266
 9666SOL    HW129897   6.495   4.991   1.324
 9666SOL    HW229898   6.623   4.959   1.228
 9667SOL     OW29899   4.797   4.414   0.989
 9667SOL    HW129900   4.778   4.339   1.052
 9667SOL    HW229901   4.720   4.478   0.989
 9668SOL     OW29902   1.450   0.444   6.116
 9668SOL    HW129903   1.530   0.505   6.121
 9668SOL    HW229904   1.377   0.482   6.173
 9669SOL     OW29905   2.767   0.158   0.610
 9669SOL    HW129906   2.690   0.212   0.575
 9669SOL    HW229907   2.756   0.063   0.581
 9670SOL     OW29908   0.245   6.129   5.257
 9670SOL    HW129909   0.229   6.077   5.341
 9670SOL    HW229910   0.221   6.073   5.178
 9671SOL     OW29911   0.602   4.676   0.455
 9671SOL    HW129912   0.662   4.599   0.477
 9671SOL    HW229913   0.569   4.668   0.361
 9672SOL     OW29914   1.229   4.765   2.668
 9672SOL    HW129915   1.200   4.809   2.753
 9672SOL    HW229916   1.246   4.834   2.598
 9673SOL     OW29917   3.712   4.122   1.493
 9673SOL    HW129918   3.632   4.182   1.488
 9673SOL    HW229919   3.754   4.114   1.403
 9674SOL     OW29920   3.652   6.422   2.807
 9674SOL    HW129921   3.582   6.438   2.737
 9674SOL    HW229922   3.724   6.364   2.770
 9675SOL     OW29923   5.376   3.713   0.281
 9675SOL    HW129924   5.456   3.773   0.273
 9675SOL    HW229925   5.303   3.748   0.222
 9676SOL     OW29926   1.341   3.005   6.692
 9676SOL    HW129927   1.392   3.089   6.710
 9676SOL    HW229928   1.382   2.929   6.742
 9677SOL     OW29929   6.529   5.263   6.537
 9677SOL    HW129930   6.571   5.352   6.521
 9677SOL    HW229931   6.465   5.242   6.464
 9678SOL     OW29932   3.154   3.592   4.657
 9678SOL    HW129933   3.060   3.558   4.650
 9678SOL    HW229934   3.168   3.664   4.588
 9679SOL     OW29935   2.626   1.959   4.138
 9679SOL    HW129936   2.633   2.058   4.127
 9679SOL    HW229937   2.656   1.913   4.054
 9680SOL     OW29938   5.309   6.999   4.749
 9680SOL    HW129939   5.333   6.936   4.676
 9680SOL    HW229940   5.307   0.073   4.713
 9681SOL     OW29941   2.876   1.458   1.713
 9681SOL    HW129942   2.806   1.419   1.652
 9681SOL    HW229943   2.855   1.433   1.807
 9682SOL     OW29944   5.126   4.706   3.639
 9682SOL    HW129945   5.107   4.804   3.631
 9682SOL    HW229946   5.040   4.655   3.635
 9683SOL     OW29947   2.146   6.563   0.718
 9683SOL    HW129948   2.213   6.535   0.787
 9683SOL    HW229949   2.080   6.489   0.703
 9684SOL     OW29950   0.630   3.808   4.606
 9684SOL    HW129951   0.628   3.836   4.701
 9684SOL    HW229952   0.657   3.711   4.600
 9685SOL     OW29953   4.323   3.500   0.541
 9685SOL    HW129954   4.366   3.471   0.455
 9685SOL    HW229955   4.258   3.430   0.571
 9686SOL     OW29956   0.552   2.920   0.316
 9686SOL    HW129957   0.616   2.871   0.256
 9686SOL    HW229958   0.514   2.856   0.382
 9687SOL     OW29959   6.422   0.290   2.088
 9687SOL    HW129960   6.427   0.217   2.157
 9687SOL    HW229961   6.333   0.334   2.093
 9688SOL     OW29962   0.851   3.882   0.910
 9688SOL    HW129963   0.810   3.791   0.913
 9688SOL    HW229964   0.876   3.911   1.002
 9689SOL     OW29965   0.806   4.678   6.150
 9689SOL    HW129966   0.822   4.603   6.086
 9689SOL    HW229967   0.884   4.687   6.211
 9690SOL     OW29968   4.356   5.750   5.706
 9690SOL    HW129969   4.442   5.791   5.737
 9690SOL    HW229970   4.280   5.811   5.727
 9691SOL     OW29971   3.313   3.687   2.354
 9691SOL    HW129972   3.302   3.600   2.403
 9691SOL    HW229973   3.252   3.755   2.394
 9692SOL     OW29974   4.823   5.495   0.737
 9692SOL    HW129975   4.820   5.404   0.779
 9692SOL    HW229976   4.885   5.494   0.659
 9693SOL     OW29977   5.530   4.294   4.055
 9693SOL    HW129978   5.612   4.345   4.083
 9693SOL    HW229979   5.463   4.356   4.016
 9694SOL     OW29980   3.825   0.687   1.146
 9694SOL    HW129981   3.840   0.775   1.101
 9694SOL    HW229982   3.833   0.699   1.245
 9695SOL     OW29983   0.377   3.390   2.675
 9695SOL    HW129984   0.375   3.291   2.692
 9695SOL    HW229985   0.312   3.412   2.603
 9696SOL     OW29986   6.102   1.734   2.280
 9696SOL    HW129987   6.098   1.652   2.224
 9696SOL    HW229988   6.176   1.726   2.346
 9697SOL     OW29989   0.280   6.585   0.926
 9697SOL    HW129990   0.373   6.567   0.895
 9697SOL    HW229991   0.222   6.607   0.848
 9698SOL     OW29992   5.983   3.066   6.306
 9698SOL    HW129993   5.985   3.066   6.206
 9698SOL    HW229994   6.076   3.050   6.341
 9699SOL     OW29995   1.040   6.193   0.284
 9699SOL    HW129996   0.963   6.228   0.339
 9699SOL    HW229997   1.019   6.100   0.253
 9700SOL     OW29998   6.214   5.286   3.791
 9700SOL    HW129999   6.249   5.201   3.829
 9700SOL    HW230000   6.156   5.332   3.859
 9701SOL     OW30001   4.210   3.726   5.977
 9701SOL    HW130002   4.145   3.726   5.901
 9701SOL    HW230003   4.160   3.713   6.063
 9702SOL     OW30004   4.123   2.801   0.124
 9702SOL    HW130005   4.049   2.787   0.058
 9702SOL    HW230006   4.133   2.720   0.181
 9703SOL     OW30007   5.591   3.784   4.540
 9703SOL    HW130008   5.545   3.786   4.629
 9703SOL    HW230009   5.584   3.692   4.501
 9704SOL     OW30010   3.184   5.206   2.448
 9704SOL    HW130011   3.222   5.148   2.520
 9704SOL    HW230012   3.164   5.297   2.486
 9705SOL     OW30013   6.215   4.476   5.477
 9705SOL    HW130014   6.273   4.552   5.450
 9705SOL    HW230015   6.270   4.392   5.483
 9706SOL     OW30016   2.320   2.195   1.275
 9706SOL    HW130017   2.350   2.100   1.264
 9706SOL    HW230018   2.302   2.234   1.185
 9707SOL     OW30019   5.373   5.276   2.186
 9707SOL    HW130020   5.383   5.180   2.213
 9707SOL    HW230021   5.421   5.334   2.252
 9708SOL     OW30022   1.646   1.867   2.324
 9708SOL    HW130023   1.725   1.891   2.380
 9708SOL    HW230024   1.657   1.775   2.286
 9709SOL     OW30025   4.718   4.691   2.065
 9709SOL    HW130026   4.698   4.618   2.131
 9709SOL    HW230027   4.743   4.650   1.978
 9710SOL     OW30028   6.529   0.297   0.660
 9710SOL    HW130029   6.486   0.385   0.679
 9710SOL    HW230030   6.476   0.247   0.592
 9711SOL     OW30031   3.483   5.684   6.327
 9711SOL    HW130032   3.394   5.675   6.284
 9711SOL    HW230033   3.488   5.624   6.407
 9712SOL     OW30034   6.355   3.350   0.551
 9712SOL    HW130035   6.413   3.293   0.609
 9712SOL    HW230036   6.412   3.417   0.503
 9713SOL     OW30037   2.909   5.842   3.391
 9713SOL    HW130038   2.818   5.865   3.427
 9713SOL    HW230039   2.912   5.858   3.293
 9714SOL     OW30040   4.086   6.204   5.687
 9714SOL    HW130041   4.013   6.179   5.623
 9714SOL    HW230042   4.045   6.236   5.772
 9715SOL     OW30043   6.104   4.956   6.876
 9715SOL    HW130044   6.158   5.012   6.813
 9715SOL    HW230045   6.045   4.894   6.825
 9716SOL     OW30046   3.792   4.186   6.721
 9716SOL    HW130047   3.747   4.276   6.723
 9716SOL    HW230048   3.888   4.196   6.745
 9717SOL     OW30049   4.765   6.276   0.395
 9717SOL    HW130050   4.720   6.258   0.483
 9717SOL    HW230051   4.696   6.294   0.325
 9718SOL     OW30052   3.971   3.020   0.522
 9718SOL    HW130053   3.952   3.032   0.424
 9718SOL    HW230054   3.886   3.023   0.574
 9719SOL     OW30055   5.331   6.731   5.482
 9719SOL    HW130056   5.374   6.729   5.573
 9719SOL    HW230057   5.250   6.789   5.485
 9720SOL     OW30058   0.775   3.593   2.414
 9720SOL    HW130059   0.788   3.511   2.357
 9720SOL    HW230060   0.724   3.568   2.496
 9721SOL     OW30061   0.505   1.549   0.051
 9721SOL    HW130062   0.600   1.546   0.023
 9721SOL    HW230063   0.449   1.585   6.995
 9722SOL     OW30064   3.387   1.492   5.098
 9722SOL    HW130065   3.445   1.476   5.018
 9722SOL    HW230066   3.401   1.417   5.164
 9723SOL     OW30067   5.715   5.412   4.099
 9723SOL    HW130068   5.768   5.468   4.036
 9723SOL    HW230069   5.758   5.322   4.109
 9724SOL     OW30070   2.239   4.802   6.853
 9724SOL    HW130071   2.332   4.783   6.821
 9724SOL    HW230072   2.173   4.773   6.784
 9725SOL     OW30073   4.586   6.071   5.622
 9725SOL    HW130074   4.627   6.044   5.709
 9725SOL    HW230075   4.565   5.989   5.569
 9726SOL     OW30076   4.535   1.641   4.515
 9726SOL    HW130077   4.599   1.711   4.546
 9726SOL    HW230078   4.530   1.640   4.416
 9727SOL     OW30079   0.847   2.473   0.452
 9727SOL    HW130080   0.769   2.457   0.393
 9727SOL    HW230081   0.817   2.518   0.537
 9728SOL     OW30082   6.923   2.015   6.052
 9728SOL    HW130083   6.979   2.085   6.008
 9728SOL    HW230084   6.875   2.055   6.130
 9729SOL     OW30085   1.268   4.001   4.042
 9729SOL    HW130086   1.291   3.978   3.948
 9729SOL    HW230087   1.177   3.964   4.064
 9730SOL     OW30088   0.909   4.410   2.993
 9730SOL    HW130089   0.823   4.359   2.997
 9730SOL    HW230090   0.984   4.350   3.022
 9731SOL     OW30091   4.797   5.449   1.874
 9731SOL    HW130092   4.812   5.366   1.928
 9731SOL    HW230093   4.701   5.453   1.847
 9732SOL     OW30094   6.991   3.307   1.744
 9732SOL    HW130095   0.048   3.313   1.809
 9732SOL    HW230096   6.966   3.399   1.714
 9733SOL     OW30097   5.754   5.780   0.966
 9733SOL    HW130098   5.713   5.738   1.047
 9733SOL    HW230099   5.783   5.873   0.987
 9734SOL     OW30100   6.606   0.212   0.331
 9734SOL    HW130101   6.646   0.208   0.422
 9734SOL    HW230102   6.675   0.240   0.265
 9735SOL     OW30103   1.435   2.617   3.405
 9735SOL    HW130104   1.488   2.651   3.482
 9735SOL    HW230105   1.495   2.597   3.328
 9736SOL     OW30106   5.347   1.745   5.991
 9736SOL    HW130107   5.325   1.733   6.088
 9736SOL    HW230108   5.279   1.805   5.949
 9737SOL     OW30109   5.646   2.219   3.137
 9737SOL    HW130110   5.693   2.296   3.180
 9737SOL    HW230111   5.565   2.252   3.088
 9738SOL     OW30112   1.397   6.882   0.508
 9738SOL    HW130113   1.417   6.827   0.589
 9738SOL    HW230114   1.455   6.964   0.507
 9739SOL     OW30115   4.975   6.125   0.309
 9739SOL    HW130116   4.957   6.143   0.212
 9739SOL    HW230117   4.904   6.170   0.364
 9740SOL     OW30118   5.791   1.339   2.934
 9740SOL    HW130119   5.818   1.277   2.861
 9740SOL    HW230120   5.767   1.286   3.016
 9741SOL     OW30121   2.500   0.638   3.830
 9741SOL    HW130122   2.587   0.604   3.796
 9741SOL    HW230123   2.493   0.621   3.928
 9742SOL     OW30124   3.940   1.316   0.586
 9742SOL    HW130125   3.983   1.232   0.618
 9742SOL    HW230126   3.845   1.297   0.559
 9743SOL     OW30127   0.087   4.472   3.315
 9743SOL    HW130128   0.142   4.412   3.257
 9743SOL    HW230129   0.044   4.542   3.259
 9744SOL     OW30130   2.687   6.887   3.171
 9744SOL    HW130131   2.684   6.987   3.164
 9744SOL    HW230132   2.594   6.851   3.159
 9745SOL     OW30133   5.323   2.932   6.709
 9745SOL    HW130134   5.290   2.975   6.626
 9745SOL    HW230135   5.422   2.946   6.717
 9746SOL     OW30136   5.540   6.364   6.197
 9746SOL    HW130137   5.504   6.447   6.240
 9746SOL    HW230138   5.466   6.298   6.186
 9747SOL     OW30139   3.054   2.237   1.612
 9747SOL    HW130140   3.114   2.198   1.682
 9747SOL    HW230141   2.962   2.247   1.649
 9748SOL     OW30142   0.256   6.579   2.762
 9748SOL    HW130143   0.178   6.525   2.730
 9748SOL    HW230144   0.326   6.518   2.800
 9749SOL     OW30145   1.105   1.370   2.670
 9749SOL    HW130146   1.085   1.314   2.750
 9749SOL    HW230147   1.184   1.334   2.622
 9750SOL     OW30148   6.365   5.688   4.181
 9750SOL    HW130149   6.463   5.681   4.196
 9750SOL    HW230150   6.346   5.679   4.083
 9751SOL     OW30151   1.546   0.080   0.591
 9751SOL    HW130152   1.608   0.159   0.598
 9751SOL    HW230153   1.542   0.034   0.680
 9752SOL     OW30154   3.670   1.706   5.953
 9752SOL    HW130155   3.635   1.675   6.042
 9752SOL    HW230156   3.601   1.764   5.909
 9753SOL     OW30157   1.421   6.030   6.492
 9753SOL    HW130158   1.455   6.030   6.398
 9753SOL    HW230159   1.327   6.064   6.494
 9754SOL     OW30160   2.633   0.009   0.841
 9754SOL    HW130161   2.729   7.011   0.861
 9754SOL    HW230162   2.617   0.107   0.833
 9755SOL     OW30163   3.341   3.870   4.917
 9755SOL    HW130164   3.318   3.772   4.911
 9755SOL    HW230165   3.403   3.884   4.994
 9756SOL     OW30166   6.335   2.104   6.474
 9756SOL    HW130167   6.317   2.145   6.385
 9756SOL    HW230168   6.325   2.174   6.545
 9757SOL     OW30169   5.810   4.382   4.995
 9757SOL    HW130170   5.770   4.297   5.031
 9757SOL    HW230171   5.908   4.382   5.012
 9758SOL     OW30172   1.909   1.122   0.456
 9758SOL    HW130173   1.945   1.196   0.512
 9758SOL    HW230174   1.946   1.131   0.363
 9759SOL     OW30175   1.138   1.895   0.526
 9759SOL    HW130176   1.081   1.945   0.591
 9759SOL    HW230177   1.176   1.960   0.459
 9760SOL     OW30178   4.796   3.371   6.318
 9760SOL    HW130179   4.866   3.372   6.390
 9760SOL    HW230180   4.794   3.282   6.274
 9761SOL     OW30181   1.339   2.431   2.563
 9761SOL    HW130182   1.299   2.480   2.640
 9761SOL    HW230183   1.348   2.493   2.485
 9762SOL     OW30184   3.278   1.464   4.617
 9762SOL    HW130185   3.282   1.557   4.582
 9762SOL    HW230186   3.321   1.459   4.707
 9763SOL     OW30187   5.881   0.954   3.175
 9763SOL    HW130188   5.933   0.869   3.180
 9763SOL    HW230189   5.932   1.023   3.123
 9764SOL     OW30190   6.614   2.262   2.241
 9764SOL    HW130191   6.549   2.225   2.307
 9764SOL    HW230192   6.694   2.202   2.236
 9765SOL     OW30193   6.834   0.069   2.862
 9765SOL    HW130194   6.843   0.167   2.849
 9765SOL    HW230195   6.925   0.027   2.862
 9766SOL     OW30196   2.170   6.770   2.843
 9766SOL    HW130197   2.113   6.796   2.765
 9766SOL    HW230198   2.264   6.759   2.813
 9767SOL     OW30199   2.395   2.787   5.281
 9767SOL    HW130200   2.366   2.717   5.215
 9767SOL    HW230201   2.390   2.877   5.238
 9768SOL     OW30202   4.275   1.449   1.287
 9768SOL    HW130203   4.221   1.529   1.314
 9768SOL    HW230204   4.372   1.467   1.305
 9769SOL     OW30205   3.786   0.777   4.599
 9769SOL    HW130206   3.726   0.756   4.675
 9769SOL    HW230207   3.839   0.696   4.575
 9770SOL     OW30208   3.873   1.567   5.370
 9770SOL    HW130209   3.817   1.507   5.313
 9770SOL    HW230210   3.819   1.647   5.398
 9771SOL     OW30211   2.185   6.133   1.087
 9771SOL    HW130212   2.240   6.058   1.124
 9771SOL    HW230213   2.162   6.114   0.992
 9772SOL     OW30214   2.098   6.200   1.722
 9772SOL    HW130215   1.999   6.185   1.729
 9772SOL    HW230216   2.134   6.149   1.645
 9773SOL     OW30217   5.352   5.643   3.244
 9773SOL    HW130218   5.309   5.560   3.280
 9773SOL    HW230219   5.360   5.636   3.145
 9774SOL     OW30220   0.509   5.146   2.881
 9774SOL    HW130221   0.596   5.151   2.930
 9774SOL    HW230222   0.463   5.234   2.886
 9775SOL     OW30223   2.968   7.015   3.924
 9775SOL    HW130224   2.962   0.039   4.014
 9775SOL    HW230225   2.887   0.018   3.870
 9776SOL     OW30226   1.399   3.983   6.008
 9776SOL    HW130227   1.482   3.971   5.952
 9776SOL    HW230228   1.409   4.065   6.064
 9777SOL     OW30229   5.346   5.932   0.780
 9777SOL    HW130230   5.305   5.940   0.871
 9777SOL    HW230231   5.422   5.868   0.783
 9778SOL     OW30232   6.919   1.723   4.798
 9778SOL    HW130233   6.830   1.715   4.752
 9778SOL    HW230234   6.978   1.648   4.769
 9779SOL     OW30235   0.108   2.373   3.845
 9779SOL    HW130236   0.036   2.353   3.910
 9779SOL    HW230237   0.148   2.287   3.811
 9780SOL     OW30238   2.119   2.038   0.930
 9780SOL    HW130239   2.072   2.003   1.011
 9780SOL    HW230240   2.122   2.138   0.934
 9781SOL     OW30241   2.102   3.168   4.441
 9781SOL    HW130242   2.034   3.147   4.511
 9781SOL    HW230243   2.120   3.266   4.440
 9782SOL     OW30244   0.728   1.579   0.439
 9782SOL    HW130245   0.791   1.510   0.406
 9782SOL    HW230246   0.637   1.564   0.399
 9783SOL     OW30247   4.405   2.335   3.242
 9783SOL    HW130248   4.424   2.341   3.144
 9783SOL    HW230249   4.349   2.254   3.261
 9784SOL     OW30250   3.869   0.649   5.922
 9784SOL    HW130251   3.939   0.646   5.993
 9784SOL    HW230252   3.779   0.660   5.965
 9785SOL     OW30253   6.250   2.497   5.516
 9785SOL    HW130254   6.151   2.480   5.521
 9785SOL    HW230255   6.292   2.469   5.602
 9786SOL     OW30256   2.603   3.538   0.622
 9786SOL    HW130257   2.508   3.520   0.644
 9786SOL    HW230258   2.633   3.478   0.548
 9787SOL     OW30259   2.931   3.745   3.185
 9787SOL    HW130260   2.991   3.702   3.252
 9787SOL    HW230261   2.860   3.797   3.233
 9788SOL     OW30262   0.633   0.243   1.895
 9788SOL    HW130263   0.645   0.159   1.948
 9788SOL    HW230264   0.560   0.298   1.937
 9789SOL     OW30265   2.048   6.308   6.901
 9789SOL    HW130266   2.143   6.277   6.913
 9789SOL    HW230267   2.048   6.400   6.863
 9790SOL     OW30268   6.540   4.499   5.986
 9790SOL    HW130269   6.483   4.564   5.935
 9790SOL    HW230270   6.561   4.420   5.928
 9791SOL     OW30271   0.435   0.592   6.974
 9791SOL    HW130272   0.414   0.666   0.019
 9791SOL    HW230273   0.413   0.504   7.017
 9792SOL     OW30274   3.497   5.172   0.798
 9792SOL    HW130275   3.422   5.106   0.806
 9792SOL    HW230276   3.573   5.130   0.748
 9793SOL     OW30277   4.253   0.175   2.598
 9793SOL    HW130278   4.313   0.185   2.677
 9793SOL    HW230279   4.244   0.263   2.550
 9794SOL     OW30280   6.336   4.716   5.399
 9794SOL    HW130281   6.295   4.806   5.383
 9794SOL    HW230282   6.436   4.724   5.395
 9795SOL     OW30283   1.335   3.192   4.444
 9795SOL    HW130284   1.266   3.175   4.374
 9795SOL    HW230285   1.427   3.181   4.405
 9796SOL     OW30286   3.853   3.616   3.035
 9796SOL    HW130287   3.846   3.711   3.066
 9796SOL    HW230288   3.949   3.592   3.023
 9797SOL     OW30289   1.814   5.278   6.988
 9797SOL    HW130290   1.898   5.286   0.022
 9797SOL    HW230291   1.813   5.346   6.915
 9798SOL     OW30292   2.546   0.794   2.125
 9798SOL    HW130293   2.558   0.705   2.170
 9798SOL    HW230294   2.463   0.792   2.069
 9799SOL     OW30295   3.053   3.714   5.813
 9799SOL    HW130296   3.101   3.630   5.792
 9799SOL    HW230297   3.116   3.792   5.806
 9800SOL     OW30298   5.451   4.536   4.338
 9800SOL    HW130299   5.367   4.500   4.299
 9800SOL    HW230300   5.460   4.505   4.433
 9801SOL     OW30301   4.978   4.585   0.235
 9801SOL    HW130302   4.883   4.611   0.217
 9801SOL    HW230303   4.989   4.562   0.332
 9802SOL     OW30304   4.799   5.371   0.361
 9802SOL    HW130305   4.828   5.351   0.267
 9802SOL    HW230306   4.704   5.402   0.360
 9803SOL     OW30307   1.937   3.538   6.363
 9803SOL    HW130308   1.884   3.595   6.300
 9803SOL    HW230309   1.939   3.444   6.328
 9804SOL     OW30310   0.528   5.928   2.933
 9804SOL    HW130311   0.448   5.897   2.984
 9804SOL    HW230312   0.524   5.891   2.840
 9805SOL     OW30313   0.284   6.731   3.560
 9805SOL    HW130314   0.281   6.632   3.549
 9805SOL    HW230315   0.287   6.775   3.471
 9806SOL     OW30316   1.369   1.249   6.882
 9806SOL    HW130317   1.412   1.236   6.793
 9806SOL    HW230318   1.437   1.282   6.947
 9807SOL     OW30319   3.192   3.684   1.500
 9807SOL    HW130320   3.229   3.752   1.436
 9807SOL    HW230321   3.093   3.679   1.488
 9808SOL     OW30322   3.763   5.662   4.385
 9808SOL    HW130323   3.745   5.752   4.346
 9808SOL    HW230324   3.690   5.599   4.360
 9809SOL     OW30325   0.590   3.732   0.358
 9809SOL    HW130326   0.562   3.660   0.294
 9809SOL    HW230327   0.538   3.815   0.341
 9810SOL     OW30328   3.289   2.122   4.607
 9810SOL    HW130329   3.241   2.142   4.692
 9810SOL    HW230330   3.247   2.043   4.562
 9811SOL     OW30331   5.923   4.894   3.637
 9811SOL    HW130332   5.946   4.799   3.658
 9811SOL    HW230333   5.824   4.905   3.636
 9812SOL     OW30334   3.209   1.811   5.330
 9812SOL    HW130335   3.271   1.763   5.269
 9812SOL    HW230336   3.135   1.852   5.277
 9813SOL     OW30337   5.336   1.914   0.952
 9813SOL    HW130338   5.304   2.008   0.958
 9813SOL    HW230339   5.331   1.871   1.043
 9814SOL     OW30340   6.224   1.089   6.895
 9814SOL    HW130341   6.279   1.150   6.952
 9814SOL    HW230342   6.150   1.140   6.852
 9815SOL     OW30343   4.545   2.537   4.329
 9815SOL    HW130344   4.464   2.481   4.316
 9815SOL    HW230345   4.625   2.478   4.344
 9816SOL     OW30346   0.531   1.607   6.143
 9816SOL    HW130347   0.469   1.533   6.170
 9816SOL    HW230348   0.485   1.666   6.077
 9817SOL     OW30349   1.232   0.230   3.421
 9817SOL    HW130350   1.225   0.245   3.520
 9817SOL    HW230351   1.220   0.317   3.373
 9818SOL     OW30352   6.514   2.014   4.535
 9818SOL    HW130353   6.526   2.005   4.634
 9818SOL    HW230354   6.461   2.097   4.516
 9819SOL     OW30355   4.894   3.070   3.654
 9819SOL    HW130356   4.942   3.102   3.735
 9819SOL    HW230357   4.872   2.973   3.663
 9820SOL     OW30358   4.037   3.189   6.869
 9820SOL    HW130359   4.094   3.110   6.844
 9820SOL    HW230360   4.096   3.267   6.889
 9821SOL     OW30361   6.115   1.268   6.602
 9821SOL    HW130362   6.080   1.359   6.626
 9821SOL    HW230363   6.062   1.198   6.650
 9822SOL     OW30364   1.711   6.975   3.626
 9822SOL    HW130365   1.641   0.026   3.638
 9822SOL    HW230366   1.797   7.018   3.600
 9823SOL     OW30367   3.606   6.981   0.990
 9823SOL    HW130368   3.568   6.948   1.076
 9823SOL    HW230369   3.652   0.050   1.005
 9824SOL     OW30370   1.914   4.595   5.073
 9824SOL    HW130371   1.968   4.670   5.112
 9824SOL    HW230372   1.962   4.509   5.087
 9825SOL     OW30373   3.775   5.141   6.025
 9825SOL    HW130374   3.705   5.194   6.073
 9825SOL    HW230375   3.743   5.121   5.933
 9826SOL     OW30376   4.987   5.063   6.090
 9826SOL    HW130377   5.042   4.989   6.130
 9826SOL    HW230378   5.019   5.082   5.998
 9827SOL     OW30379   2.097   3.388   3.953
 9827SOL    HW130380   2.133   3.458   3.891
 9827SOL    HW230381   2.094   3.300   3.907
 9828SOL     OW30382   2.305   3.066   6.470
 9828SOL    HW130383   2.301   3.165   6.457
 9828SOL    HW230384   2.367   3.025   6.403
 9829SOL     OW30385   2.756   6.030   0.409
 9829SOL    HW130386   2.840   6.085   0.414
 9829SOL    HW230387   2.684   6.075   0.461
 9830SOL     OW30388   5.323   2.337   1.766
 9830SOL    HW130389   5.281   2.418   1.725
 9830SOL    HW230390   5.296   2.256   1.714
 9831SOL     OW30391   1.921   5.927   0.756
 9831SOL    HW130392   1.925   5.832   0.787
 9831SOL    HW230393   1.940   5.931   0.658
 9832SOL     OW30394   5.139   5.743   2.618
 9832SOL    HW130395   5.213   5.793   2.663
 9832SOL    HW230396   5.109   5.668   2.678
 9833SOL     OW30397   3.785   2.934   4.931
 9833SOL    HW130398   3.691   2.914   4.957
 9833SOL    HW230399   3.846   2.907   5.005
 9834SOL     OW30400   3.462   4.488   5.627
 9834SOL    HW130401   3.364   4.485   5.610
 9834SOL    HW230402   3.509   4.423   5.567
 9835SOL     OW30403   3.607   2.653   5.840
 9835SOL    HW130404   3.526   2.673   5.785
 9835SOL    HW230405   3.586   2.580   5.905
 9836SOL     OW30406   5.997   4.637   3.670
 9836SOL    HW130407   5.960   4.544   3.670
 9836SOL    HW230408   6.059   4.649   3.747
 9837SOL     OW30409   3.169   6.983   2.704
 9837SOL    HW130410   3.104   0.027   2.664
 9837SOL    HW230411   3.166   6.990   2.803
 9838SOL     OW30412   0.516   6.647   5.740
 9838SOL    HW130413   0.544   6.679   5.830
 9838SOL    HW230414   0.417   6.628   5.741
 9839SOL     OW30415   5.709   1.168   3.137
 9839SOL    HW130416   5.645   1.171   3.213
 9839SOL    HW230417   5.767   1.087   3.145
 9840SOL     OW30418   0.662   1.254   1.591
 9840SOL    HW130419   0.747   1.251   1.539
 9840SOL    HW230420   0.631   1.349   1.598
 9841SOL     OW30421   1.610   3.684   4.671
 9841SOL    HW130422   1.613   3.595   4.717
 9841SOL    HW230423   1.519   3.700   4.634
 9842SOL     OW30424   3.929   3.629   2.694
 9842SOL    HW130425   3.954   3.680   2.777
 9842SOL    HW230426   3.890   3.540   2.721
 9843SOL     OW30427   5.875   0.945   1.169
 9843SOL    HW130428   5.933   0.867   1.191
 9843SOL    HW230429   5.922   1.030   1.192
 9844SOL     OW30430   5.826   0.666   2.243
 9844SOL    HW130431   5.891   0.709   2.306
 9844SOL    HW230432   5.735   0.704   2.258
 9845SOL     OW30433   3.115   1.171   3.265
 9845SOL    HW130434   3.055   1.094   3.286
 9845SOL    HW230435   3.095   1.206   3.173
 9846SOL     OW30436   4.111   3.347   1.659
 9846SOL    HW130437   4.131   3.295   1.742
 9846SOL    HW230438   4.111   3.445   1.681
 9847SOL     OW30439   3.308   2.897   4.714
 9847SOL    HW130440   3.275   2.809   4.682
 9847SOL    HW230441   3.407   2.902   4.703
 9848SOL     OW30442   3.358   2.883   6.148
 9848SOL    HW130443   3.277   2.827   6.131
 9848SOL    HW230444   3.432   2.853   6.089
 9849SOL     OW30445   0.010   0.119   0.341
 9849SOL    HW130446   0.004   0.030   0.386
 9849SOL    HW230447   0.047   0.187   0.405
 9850SOL     OW30448   6.178   6.770   3.484
 9850SOL    HW130449   6.126   6.824   3.550
 9850SOL    HW230450   6.118   6.699   3.445
 9851SOL     OW30451   4.840   1.881   5.543
 9851SOL    HW130452   4.864   1.969   5.584
 9851SOL    HW230453   4.850   1.887   5.444
 9852SOL     OW30454   4.204   2.227   2.635
 9852SOL    HW130455   4.244   2.259   2.549
 9852SOL    HW230456   4.120   2.177   2.615
 9853SOL     OW30457   4.926   4.816   4.194
 9853SOL    HW130458   4.885   4.867   4.270
 9853SOL    HW230459   4.980   4.879   4.138
 9854SOL     OW30460   0.742   5.593   4.914
 9854SOL    HW130461   0.648   5.562   4.894
 9854SOL    HW230462   0.793   5.599   4.829
 9855SOL     OW30463   2.010   3.851   1.254
 9855SOL    HW130464   2.073   3.920   1.218
 9855SOL    HW230465   1.924   3.895   1.281
 9856SOL     OW30466   4.947   3.905   6.105
 9856SOL    HW130467   4.951   3.855   6.191
 9856SOL    HW230468   4.852   3.919   6.078
 9857SOL     OW30469   4.492   2.105   4.119
 9857SOL    HW130470   4.403   2.150   4.114
 9857SOL    HW230471   4.537   2.129   4.205
 9858SOL     OW30472   0.556   0.962   1.211
 9858SOL    HW130473   0.509   0.960   1.123
 9858SOL    HW230474   0.548   0.872   1.254
 9859SOL     OW30475   5.874   6.738   2.156
 9859SOL    HW130476   5.887   6.788   2.242
 9859SOL    HW230477   5.895   6.641   2.170
 9860SOL     OW30478   0.151   1.498   3.342
 9860SOL    HW130479   0.203   1.417   3.314
 9860SOL    HW230480   0.193   1.580   3.303
 9861SOL     OW30481   3.624   6.997   2.923
 9861SOL    HW130482   3.603   6.900   2.932
 9861SOL    HW230483   3.721   7.013   2.945
 9862SOL     OW30484   3.191   4.283   0.483
 9862SOL    HW130485   3.187   4.380   0.456
 9862SOL    HW230486   3.240   4.231   0.414
 9863SOL     OW30487   3.789   0.307   3.538
 9863SOL    HW130488   3.812   0.269   3.449
 9863SOL    HW230489   3.873   0.338   3.584
 9864SOL     OW30490   3.858   6.122   3.948
 9864SOL    HW130491   3.798   6.151   3.873
 9864SOL    HW230492   3.824   6.161   4.034
 9865SOL     OW30493   1.387   0.749   3.817
 9865SOL    HW130494   1.449   0.797   3.879
 9865SOL    HW230495   1.436   0.721   3.735
 9866SOL     OW30496   5.366   4.903   5.930
 9866SOL    HW130497   5.312   4.827   5.895
 9866SOL    HW230498   5.327   4.935   6.017
 9867SOL     OW30499   5.679   0.872   0.831
 9867SOL    HW130500   5.609   0.807   0.803
 9867SOL    HW230501   5.659   0.905   0.923
 9868SOL     OW30502   0.963   4.042   5.338
 9868SOL    HW130503   0.986   4.136   5.364
 9868SOL    HW230504   0.963   3.984   5.420
 9869SOL     OW30505   1.680   3.106   2.338
 9869SOL    HW130506   1.664   3.191   2.287
 9869SOL    HW230507   1.753   3.121   2.405
 9870SOL     OW30508   3.958   5.812   2.674
 9870SOL    HW130509   3.901   5.890   2.701
 9870SOL    HW230510   3.918   5.768   2.593
 9871SOL     OW30511   0.215   6.007   6.368
 9871SOL    HW130512   0.153   6.044   6.437
 9871SOL    HW230513   0.221   6.070   6.291
 9872SOL     OW30514   2.395   4.799   4.451
 9872SOL    HW130515   2.331   4.727   4.480
 9872SOL    HW230516   2.488   4.774   4.479
 9873SOL     OW30517   3.013   2.385   0.862
 9873SOL    HW130518   3.072   2.307   0.884
 9873SOL    HW230519   2.964   2.415   0.944
 9874SOL     OW30520   0.909   3.506   4.433
 9874SOL    HW130521   0.989   3.458   4.472
 9874SOL    HW230522   0.922   3.604   4.443
 9875SOL     OW30523   6.486   6.805   1.927
 9875SOL    HW130524   6.500   6.767   1.836
 9875SOL    HW230525   6.444   6.895   1.920
 9876SOL     OW30526   6.717   0.919   3.004
 9876SOL    HW130527   6.694   0.880   3.093
 9876SOL    HW230528   6.761   1.008   3.016
 9877SOL     OW30529   0.281   6.458   3.588
 9877SOL    HW130530   0.219   6.393   3.545
 9877SOL    HW230531   0.336   6.411   3.657
 9878SOL     OW30532   2.751   4.793   5.233
 9878SOL    HW130533   2.805   4.741   5.300
 9878SOL    HW230534   2.767   4.757   5.142
 9879SOL     OW30535   5.194   5.703   4.557
 9879SOL    HW130536   5.289   5.727   4.537
 9879SOL    HW230537   5.184   5.603   4.554
 9880SOL     OW30538   2.694   0.989   5.483
 9880SOL    HW130539   2.734   1.060   5.425
 9880SOL    HW230540   2.672   1.028   5.572
 9881SOL     OW30541   0.942   1.168   4.789
 9881SOL    HW130542   0.993   1.142   4.871
 9881SOL    HW230543   0.964   1.263   4.766
 9882SOL     OW30544   1.132   3.117   3.774
 9882SOL    HW130545   1.072   3.037   3.778
 9882SOL    HW230546   1.149   3.149   3.867
 9883SOL     OW30547   1.215   6.378   0.161
 9883SOL    HW130548   1.286   6.331   0.108
 9883SOL    HW230549   1.152   6.310   0.199
 9884SOL     OW30550   4.855   1.965   2.415
 9884SOL    HW130551   4.818   2.058   2.410
 9884SOL    HW230552   4.950   1.965   2.386
 9885SOL     OW30553   6.746   2.347   4.886
 9885SOL    HW130554   6.835   2.362   4.844
 9885SOL    HW230555   6.756   2.279   4.960
 9886SOL     OW30556   1.447   4.141   2.514
 9886SOL    HW130557   1.507   4.062   2.502
 9886SOL    HW230558   1.456   4.202   2.434
 9887SOL     OW30559   3.499   0.674   5.483
 9887SOL    HW130560   3.519   0.611   5.558
 9887SOL    HW230561   3.568   0.663   5.412
 9888SOL     OW30562   5.894   4.464   2.667
 9888SOL    HW130563   5.902   4.385   2.727
 9888SOL    HW230564   5.942   4.542   2.708
 9889SOL     OW30565   0.048   4.779   1.496
 9889SOL    HW130566   0.141   4.744   1.501
 9889SOL    HW230567   7.007   4.720   1.551
 9890SOL     OW30568   1.842   2.128   0.762
 9890SOL    HW130569   1.914   2.170   0.817
 9890SOL    HW230570   1.880   2.097   0.675
 9891SOL     OW30571   5.013   3.633   2.277
 9891SOL    HW130572   4.973   3.595   2.194
 9891SOL    HW230573   5.066   3.561   2.324
 9892SOL     OW30574   7.000   5.048   0.839
 9892SOL    HW130575   6.993   4.948   0.842
 9892SOL    HW230576   0.019   5.081   0.926
 9893SOL     OW30577   0.690   0.426   1.032
 9893SOL    HW130578   0.759   0.494   1.007
 9893SOL    HW230579   0.717   0.381   1.117
 9894SOL     OW30580   2.954   2.281   1.162
 9894SOL    HW130581   2.952   2.217   1.239
 9894SOL    HW230582   3.035   2.339   1.169
 9895SOL     OW30583   6.244   4.699   4.682
 9895SOL    HW130584   6.341   4.722   4.686
 9895SOL    HW230585   6.201   4.753   4.610
 9896SOL     OW30586   6.773   0.693   6.301
 9896SOL    HW130587   6.727   0.768   6.348
 9896SOL    HW230588   6.858   0.727   6.259
 9897SOL     OW30589   5.872   5.934   3.005
 9897SOL    HW130590   5.828   6.023   3.005
 9897SOL    HW230591   5.868   5.895   3.097
 9898SOL     OW30592   1.684   5.764   4.329
 9898SOL    HW130593   1.645   5.824   4.259
 9898SOL    HW230594   1.726   5.820   4.401
 9899SOL     OW30595   1.034   5.654   0.776
 9899SOL    HW130596   1.023   5.746   0.814
 9899SOL    HW230597   1.082   5.596   0.842
 9900SOL     OW30598   1.798   2.786   3.095
 9900SOL    HW130599   1.732   2.734   3.149
 9900SOL    HW230600   1.885   2.736   3.091
 9901SOL     OW30601   2.569   0.734   6.958
 9901SOL    HW130602   2.603   0.765   6.869
 9901SOL    HW230603   2.647   0.715   7.018
 9902SOL     OW30604   3.504   4.742   1.095
 9902SOL    HW130605   3.454   4.818   1.136
 9902SOL    HW230606   3.560   4.776   1.020
 9903SOL     OW30607   5.731   2.170   1.723
 9903SOL    HW130608   5.685   2.152   1.810
 9903SOL    HW230609   5.828   2.186   1.739
 9904SOL     OW30610   1.179   3.868   6.535
 9904SOL    HW130611   1.109   3.907   6.595
 9904SOL    HW230612   1.219   3.941   6.479
 9905SOL     OW30613   1.786   0.340   6.374
 9905SOL    HW130614   1.776   0.241   6.378
 9905SOL    HW230615   1.863   0.364   6.314
 9906SOL     OW30616   2.287   3.597   1.624
 9906SOL    HW130617   2.294   3.546   1.710
 9906SOL    HW230618   2.372   3.588   1.573
 9907SOL     OW30619   0.395   0.200   1.239
 9907SOL    HW130620   0.389   0.189   1.140
 9907SOL    HW230621   0.483   0.165   1.271
 9908SOL     OW30622   6.073   1.559   4.846
 9908SOL    HW130623   5.984   1.572   4.803
 9908SOL    HW230624   6.111   1.471   4.818
 9909SOL     OW30625   4.472   1.388   3.002
 9909SOL    HW130626   4.561   1.367   2.963
 9909SOL    HW230627   4.414   1.430   2.933
 9910SOL     OW30628   1.476   5.083   2.156
 9910SOL    HW130629   1.465   5.050   2.062
 9910SOL    HW230630   1.493   5.005   2.216
 9911SOL     OW30631   2.354   6.093   1.967
 9911SOL    HW130632   2.360   6.123   2.062
 9911SOL    HW230633   2.417   6.147   1.911
 9912SOL     OW30634   3.797   0.722   1.422
 9912SOL    HW130635   3.772   0.637   1.469
 9912SOL    HW230636   3.742   0.797   1.458
 9913SOL     OW30637   6.197   3.948   1.188
 9913SOL    HW130638   6.286   3.917   1.222
 9913SOL    HW230639   6.193   3.935   1.089
 9914SOL     OW30640   6.064   1.358   5.310
 9914SOL    HW130641   6.158   1.343   5.280
 9914SOL    HW230642   6.039   1.453   5.294
 9915SOL     OW30643   5.769   0.880   3.661
 9915SOL    HW130644   5.771   0.877   3.561
 9915SOL    HW230645   5.813   0.798   3.698
 9916SOL     OW30646   2.283   1.900   2.658
 9916SOL    HW130647   2.255   1.850   2.576
 9916SOL    HW230648   2.323   1.988   2.631
 9917SOL     OW30649   5.113   4.582   6.451
 9917SOL    HW130650   5.102   4.487   6.481
 9917SOL    HW230651   5.187   4.625   6.502
 9918SOL     OW30652   2.957   1.712   2.985
 9918SOL    HW130653   2.934   1.806   2.964
 9918SOL    HW230654   3.048   1.709   3.028
 9919SOL     OW30655   0.842   5.248   0.927
 9919SOL    HW130656   0.772   5.192   0.971
 9919SOL    HW230657   0.805   5.339   0.908
 9920SOL     OW30658   5.326   1.630   2.288
 9920SOL    HW130659   5.241   1.615   2.337
 9920SOL    HW230660   5.306   1.655   2.193
 9921SOL     OW30661   3.956   6.927   5.080
 9921SOL    HW130662   3.966   6.831   5.053
 9921SOL    HW230663   4.026   6.982   5.035
 9922SOL     OW30664   2.200   4.392   0.820
 9922SOL    HW130665   2.273   4.457   0.800
 9922SOL    HW230666   2.122   4.441   0.861
 9923SOL     OW30667   5.725   5.058   6.757
 9923SOL    HW130668   5.747   5.041   6.854
 9923SOL    HW230669   5.805   5.096   6.711
 9924SOL     OW30670   6.421   1.322   3.683
 9924SOL    HW130671   6.323   1.336   3.692
 9924SOL    HW230672   6.449   1.241   3.733
 9925SOL     OW30673   0.208   4.096   4.193
 9925SOL    HW130674   0.270   4.171   4.171
 9925SOL    HW230675   0.132   4.131   4.249
 9926SOL     OW30676   4.500   3.060   1.430
 9926SOL    HW130677   4.410   3.094   1.402
 9926SOL    HW230678   4.536   2.999   1.360
 9927SOL     OW30679   0.775   0.054   0.591
 9927SOL    HW130680   0.784   0.077   0.494
 9927SOL    HW230681   0.773   0.138   0.645
 9928SOL     OW30682   5.140   4.765   3.056
 9928SOL    HW130683   5.160   4.797   2.963
 9928SOL    HW230684   5.214   4.706   3.088
 9929SOL     OW30685   3.513   4.227   5.106
 9929SOL    HW130686   3.569   4.174   5.042
 9929SOL    HW230687   3.448   4.166   5.153
 9930SOL     OW30688   6.332   6.377   4.915
 9930SOL    HW130689   6.274   6.391   4.996
 9930SOL    HW230690   6.423   6.349   4.945
 9931SOL     OW30691   0.592   5.563   4.512
 9931SOL    HW130692   0.660   5.513   4.459
 9931SOL    HW230693   0.608   5.661   4.504
 9932SOL     OW30694   3.292   3.087   6.316
 9932SOL    HW130695   3.315   3.033   6.235
 9932SOL    HW230696   3.218   3.151   6.294
 9933SOL     OW30697   0.528   5.769   3.308
 9933SOL    HW130698   0.596   5.739   3.242
 9933SOL    HW230699   0.543   5.723   3.395
 9934SOL     OW30700   6.404   2.347   5.703
 9934SOL    HW130701   6.409   2.263   5.757
 9934SOL    HW230702   6.484   2.352   5.642
 9935SOL     OW30703   3.051   6.397   0.216
 9935SOL    HW130704   2.992   6.444   0.282
 9935SOL    HW230705   2.996   6.333   0.162
 9936SOL     OW30706   6.959   4.797   7.018
 9936SOL    HW130707   6.934   4.724   0.062
 9936SOL    HW230708   0.031   4.779   6.980
 9937SOL     OW30709   0.246   1.401   1.548
 9937SOL    HW130710   0.149   1.424   1.555
 9937SOL    HW230711   0.269   1.382   1.452
 9938SOL     OW30712   6.835   5.123   3.510
 9938SOL    HW130713   6.827   5.198   3.576
 9938SOL    HW230714   6.886   5.048   3.551
 9939SOL     OW30715   4.062   2.188   1.407
 9939SOL    HW130716   3.971   2.192   1.448
 9939SOL    HW230717   4.130   2.213   1.476
 9940SOL     OW30718   0.934   0.532   0.971
 9940SOL    HW130719   0.994   0.593   1.023
 9940SOL    HW230720   0.958   0.437   0.990
 9941SOL     OW30721   3.569   3.247   4.749
 9941SOL    HW130722   3.667   3.250   4.771
 9941SOL    HW230723   3.557   3.202   4.660
 9942SOL     OW30724   2.559   5.775   2.642
 9942SOL    HW130725   2.480   5.829   2.612
 9942SOL    HW230726   2.564   5.776   2.742
 9943SOL     OW30727   0.233   4.506   5.893
 9943SOL    HW130728   0.320   4.538   5.858
 9943SOL    HW230729   0.246   4.422   5.946
 9944SOL     OW30730   0.912   4.482   6.665
 9944SOL    HW130731   1.005   4.518   6.657
 9944SOL    HW230732   0.876   4.501   6.756
 9945SOL     OW30733   4.622   5.465   6.631
 9945SOL    HW130734   4.553   5.411   6.679
 9945SOL    HW230735   4.709   5.415   6.629
 9946SOL     OW30736   6.099   0.710   3.167
 9946SOL    HW130737   6.166   0.739   3.235
 9946SOL    HW230738   6.126   0.744   3.077
 9947SOL     OW30739   2.092   2.305   4.624
 9947SOL    HW130740   2.114   2.352   4.538
 9947SOL    HW230741   2.136   2.352   4.700
 9948SOL     OW30742   6.022   4.343   5.672
 9948SOL    HW130743   5.977   4.277   5.612
 9948SOL    HW230744   6.078   4.406   5.617
 9949SOL     OW30745   6.860   5.250   4.347
 9949SOL    HW130746   6.872   5.238   4.446
 9949SOL    HW230747   6.945   5.228   4.300
 9950SOL     OW30748   5.439   5.997   5.933
 9950SOL    HW130749   5.382   6.078   5.949
 9950SOL    HW230750   5.466   5.957   6.020
 9951SOL     OW30751   0.142   1.497   3.936
 9951SOL    HW130752   0.209   1.457   3.873
 9951SOL    HW230753   0.185   1.511   4.026
 9952SOL     OW30754   1.208   4.701   0.550
 9952SOL    HW130755   1.240   4.640   0.622
 9952SOL    HW230756   1.287   4.742   0.503
 9953SOL     OW30757   5.330   2.617   4.294
 9953SOL    HW130758   5.299   2.668   4.373
 9953SOL    HW230759   5.372   2.531   4.324
 9954SOL     OW30760   0.334   0.319   6.101
 9954SOL    HW130761   0.285   0.290   6.019
 9954SOL    HW230762   0.432   0.327   6.081
 9955SOL     OW30763   5.739   2.919   5.563
 9955SOL    HW130764   5.664   2.946   5.502
 9955SOL    HW230765   5.702   2.900   5.654
 9956SOL     OW30766   1.388   6.617   1.599
 9956SOL    HW130767   1.359   6.603   1.504
 9956SOL    HW230768   1.381   6.714   1.623
 9957SOL     OW30769   5.394   5.997   2.446
 9957SOL    HW130770   5.481   5.974   2.491
 9957SOL    HW230771   5.344   6.063   2.502
 9958SOL     OW30772   2.563   5.508   6.994
 9958SOL    HW130773   2.476   5.485   6.950
 9958SOL    HW230774   2.621   5.427   7.000
 9959SOL     OW30775   4.127   3.778   4.760
 9959SOL    HW130776   4.078   3.838   4.823
 9959SOL    HW230777   4.221   3.810   4.750
 9960SOL     OW30778   0.343   0.430   2.197
 9960SOL    HW130779   0.266   0.430   2.260
 9960SOL    HW230780   0.347   0.518   2.149
 9961SOL     OW30781   1.504   5.232   4.382
 9961SOL    HW130782   1.478   5.136   4.391
 9961SOL    HW230783   1.510   5.273   4.473
 9962SOL     OW30784   5.433   5.738   1.825
 9962SOL    HW130785   5.496   5.771   1.896
 9962SOL    HW230786   5.381   5.815   1.788
 9963SOL     OW30787   2.735   3.403   6.759
 9963SOL    HW130788   2.773   3.459   6.685
 9963SOL    HW230789   2.779   3.428   6.845
 9964SOL     OW30790   5.568   4.568   5.885
 9964SOL    HW130791   5.494   4.505   5.861
 9964SOL    HW230792   5.604   4.544   5.975
 9965SOL     OW30793   4.027   6.543   6.523
 9965SOL    HW130794   4.057   6.484   6.448
 9965SOL    HW230795   3.984   6.625   6.484
 9966SOL     OW30796   2.146   5.671   2.361
 9966SOL    HW130797   2.051   5.692   2.335
 9966SOL    HW230798   2.199   5.651   2.279
 9967SOL     OW30799   6.168   6.894   2.141
 9967SOL    HW130800   6.083   6.945   2.134
 9967SOL    HW230801   6.149   6.802   2.177
 9968SOL     OW30802   2.962   3.692   6.970
 9968SOL    HW130803   2.931   3.719   6.879
 9968SOL    HW230804   2.985   3.773   0.004
 9969SOL     OW30805   1.749   2.422   3.490
 9969SOL    HW130806   1.723   2.514   3.522
 9969SOL    HW230807   1.666   2.368   3.475
 9970SOL     OW30808   5.402   4.113   2.610
 9970SOL    HW130809   5.345   4.047   2.659
 9970SOL    HW230810   5.383   4.107   2.512
 9971SOL     OW30811   2.444   5.177   0.863
 9971SOL    HW130812   2.363   5.147   0.814
 9971SOL    HW230813   2.504   5.227   0.801
 9972SOL     OW30814   3.894   4.550   1.512
 9972SOL    HW130815   3.815   4.530   1.570
 9972SOL    HW230816   3.864   4.563   1.418
 9973SOL     OW30817   4.258   2.231   4.063
 9973SOL    HW130818   4.193   2.179   4.008
 9973SOL    HW230819   4.299   2.303   4.008
 9974SOL     OW30820   6.870   3.064   3.537
 9974SOL    HW130821   6.791   3.125   3.528
 9974SOL    HW230822   6.853   2.981   3.484
 9975SOL     OW30823   6.335   4.773   6.942
 9975SOL    HW130824   6.255   4.829   6.920
 9975SOL    HW230825   6.352   4.709   6.867
 9976SOL     OW30826   1.089   6.585   5.397
 9976SOL    HW130827   1.046   6.564   5.309
 9976SOL    HW230828   1.019   6.622   5.459
 9977SOL     OW30829   0.131   5.273   5.079
 9977SOL    HW130830   0.161   5.348   5.139
 9977SOL    HW230831   0.207   5.210   5.065
 9978SOL     OW30832   6.691   3.136   2.949
 9978SOL    HW130833   6.641   3.094   2.873
 9978SOL    HW230834   6.788   3.146   2.925
 9979SOL     OW30835   6.062   4.712   5.539
 9979SOL    HW130836   6.120   4.781   5.582
 9979SOL    HW230837   6.112   4.626   5.531
 9980SOL     OW30838   1.871   1.548   5.843
 9980SOL    HW130839   1.848   1.499   5.927
 9980SOL    HW230840   1.902   1.483   5.774
 9981SOL     OW30841   2.242   2.190   1.778
 9981SOL    HW130842   2.312   2.180   1.849
 9981SOL    HW230843   2.156   2.150   1.811
 9982SOL     OW30844   0.208   0.259   3.613
 9982SOL    HW130845   0.266   0.229   3.689
 9982SOL    HW230846   0.127   0.306   3.650
 9983SOL     OW30847   0.265   2.657   3.503
 9983SOL    HW130848   0.253   2.642   3.405
 9983SOL    HW230849   0.301   2.749   3.518
 9984SOL     OW30850   1.921   0.834   0.534
 9984SOL    HW130851   1.995   0.797   0.478
 9984SOL    HW230852   1.947   0.924   0.568
 9985SOL     OW30853   2.332   1.055   1.488
 9985SOL    HW130854   2.244   1.046   1.536
 9985SOL    HW230855   2.330   1.138   1.432
 9986SOL     OW30856   5.358   4.399   5.874
 9986SOL    HW130857   5.297   4.401   5.952
 9986SOL    HW230858   5.326   4.331   5.808
 9987SOL     OW30859   6.743   2.899   3.926
 9987SOL    HW130860   6.698   2.869   4.010
 9987SOL    HW230861   6.840   2.873   3.929
 9988SOL     OW30862   0.198   5.504   5.296
 9988SOL    HW130863   0.139   5.581   5.270
 9988SOL    HW230864   0.171   5.470   5.386
 9989SOL     OW30865   6.411   4.077   3.434
 9989SOL    HW130866   6.355   4.008   3.479
 9989SOL    HW230867   6.391   4.079   3.337
 9990SOL     OW30868   2.619   5.702   1.684
 9990SOL    HW130869   2.698   5.642   1.666
 9990SOL    HW230870   2.535   5.649   1.676
 9991SOL     OW30871   2.095   2.599   3.943
 9991SOL    HW130872   2.003   2.620   3.977
 9991SOL    HW230873   2.159   2.596   4.019
 9992SOL     OW30874   5.406   4.958   0.495
 9992SOL    HW130875   5.422   5.017   0.575
 9992SOL    HW230876   5.308   4.953   0.477
 9993SOL     OW30877   3.431   0.546   0.864
 9993SOL    HW130878   3.497   0.491   0.915
 9993SOL    HW230879   3.474   0.631   0.834
 9994SOL     OW30880   0.129   5.120   3.383
 9994SOL    HW130881   0.040   5.089   3.348
 9994SOL    HW230882   0.123   5.135   3.482
 9995SOL     OW30883   4.684   1.311   2.830
 9995SOL    HW130884   4.676   1.213   2.843
 9995SOL    HW230885   4.651   1.335   2.738
 9996SOL     OW30886   2.459   3.015   1.383
 9996SOL    HW130887   2.492   2.940   1.440
 9996SOL    HW230888   2.363   2.997   1.358
 9997SOL     OW30889   3.339   2.018   0.579
 9997SOL    HW130890   3.269   1.970   0.632
 9997SOL    HW230891   3.323   2.003   0.481
 9998SOL     OW30892   5.597   4.190   0.209
 9998SOL    HW130893   5.615   4.108   0.155
 9998SOL    HW230894   5.682   4.241   0.224
 9999SOL     OW30895   0.350   2.886   5.344
 9999SOL    HW130896   0.412   2.853   5.416
 9999SOL    HW230897   0.404   2.922   5.268
10000SOL     OW30898   6.907   3.981   6.907
10000SOL    HW130899   6.936   3.985   6.812
10000SOL    HW230900   6.807   3.976   6.912
10001SOL     OW30901   4.631   0.471   2.357
10001SOL    HW130902   4.669   0.475   2.264
10001SOL    HW230903   4.544   0.421   2.355
10002SOL     OW30904   1.966   6.934   2.335
10002SOL    HW130905   1.933   6.859   2.277
10002SOL    HW230906   1.963   0.001   2.284
10003SOL     OW30907   3.757   1.183   3.347
10003SOL    HW130908   3.663   1.193   3.313
10003SOL    HW230909   3.782   1.086   3.348
10004SOL     OW30910   5.815   2.336   4.086
10004SOL    HW130911   5.896   2.284   4.058
10004SOL    HW230912   5.733   2.293   4.049
10005SOL     OW30913   4.910   0.660   4.289
10005SOL    HW130914   4.966   0.588   4.330
10005SOL    HW230915   4.845   0.695   4.356
10006SOL     OW30916   5.513   6.154   4.017
10006SOL    HW130917   5.449   6.210   4.069
10006SOL    HW230918   5.531   6.069   4.066
10007SOL     OW30919   7.007   5.021   5.567
10007SOL    HW130920   6.958   5.090   5.619
10007SOL    HW230921   0.046   4.967   5.628
10008SOL     OW30922   4.128   1.238   4.354
10008SOL    HW130923   4.209   1.254   4.297
10008SOL    HW230924   4.153   1.244   4.451
10009SOL     OW30925   2.017   3.652   1.647
10009SOL    HW130926   2.103   3.624   1.605
10009SOL    HW230927   2.035   3.692   1.737
10010SOL     OW30928   2.234   0.845   5.747
10010SOL    HW130929   2.143   0.874   5.716
10010SOL    HW230930   2.303   0.875   5.681
10011SOL     OW30931   5.159   1.341   5.269
10011SOL    HW130932   5.221   1.405   5.224
10011SOL    HW230933   5.129   1.379   5.356
10012SOL     OW30934   6.052   1.433   2.980
10012SOL    HW130935   6.072   1.489   3.060
10012SOL    HW230936   5.954   1.417   2.974
10013SOL     OW30937   0.531   1.064   3.268
10013SOL    HW130938   0.615   1.081   3.216
10013SOL    HW230939   0.467   1.011   3.212
10014SOL     OW30940   6.930   3.907   0.704
10014SOL    HW130941   6.942   3.830   0.766
10014SOL    HW230942   6.978   3.987   0.741
10015SOL     OW30943   2.478   4.419   0.123
10015SOL    HW130944   2.524   4.427   0.211
10015SOL    HW230945   2.498   4.499   0.067
10016SOL     OW30946   1.050   0.561   6.711
10016SOL    HW130947   1.147   0.537   6.713
10016SOL    HW230948   1.034   0.640   6.770
10017SOL     OW30949   2.713   1.087   3.252
10017SOL    HW130950   2.675   1.108   3.342
10017SOL    HW230951   2.641   1.086   3.183
10018SOL     OW30952   4.335   0.351   5.615
10018SOL    HW130953   4.431   0.338   5.592
10018SOL    HW230954   4.314   0.449   5.618
10019SOL     OW30955   0.209   2.124   2.994
10019SOL    HW130956   0.268   2.088   2.921
10019SOL    HW230957   0.238   2.085   3.081
10020SOL     OW30958   1.358   2.466   1.445
10020SOL    HW130959   1.268   2.422   1.443
10020SOL    HW230960   1.362   2.529   1.522
10021SOL     OW30961   6.797   2.771   1.494
10021SOL    HW130962   6.856   2.841   1.452
10021SOL    HW230963   6.850   2.688   1.509
10022SOL     OW30964   2.922   1.087   6.082
10022SOL    HW130965   2.861   1.141   6.139
10022SOL    HW230966   2.947   1.003   6.131
10023SOL     OW30967   0.980   5.252   0.202
10023SOL    HW130968   1.071   5.283   0.231
10023SOL    HW230969   0.978   5.242   0.103
10024SOL     OW30970   2.416   6.354   2.179
10024SOL    HW130971   2.397   6.274   2.236
10024SOL    HW230972   2.382   6.436   2.224
10025SOL     OW30973   1.187   2.271   1.209
10025SOL    HW130974   1.246   2.338   1.163
10025SOL    HW230975   1.228   2.245   1.296
10026SOL     OW30976   5.659   6.514   3.492
10026SOL    HW130977   5.738   6.534   3.550
10026SOL    HW230978   5.584   6.480   3.548
10027SOL     OW30979   6.375   4.179   4.681
10027SOL    HW130980   6.356   4.265   4.728
10027SOL    HW230981   6.468   4.149   4.702
10028SOL     OW30982   1.540   0.866   2.090
10028SOL    HW130983   1.600   0.928   2.141
10028SOL    HW230984   1.446   0.899   2.097
10029SOL     OW30985   5.180   1.569   4.927
10029SOL    HW130986   5.273   1.550   4.895
10029SOL    HW230987   5.127   1.484   4.928
10030SOL     OW30988   2.152   6.973   3.663
10030SOL    HW130989   2.112   0.042   3.638
10030SOL    HW230990   2.153   6.913   3.582
10031SOL     OW30991   5.552   4.836   4.959
10031SOL    HW130992   5.482   4.846   5.030
10031SOL    HW230993   5.595   4.746   4.967
10032SOL     OW30994   2.756   1.770   4.478
10032SOL    HW130995   2.770   1.720   4.393
10032SOL    HW230996   2.764   1.707   4.556
10033SOL     OW30997   6.506   3.121   4.672
10033SOL    HW130998   6.596   3.159   4.650
10033SOL    HW230999   6.516   3.040   4.729
10034SOL     OW31000   3.571   0.632   4.085
10034SOL    HW131001   3.638   0.705   4.072
10034SOL    HW231002   3.601   0.572   4.160
10035SOL     OW31003   6.490   4.972   1.646
10035SOL    HW131004   6.541   4.992   1.562
10035SOL    HW231005   6.479   4.874   1.656
10036SOL     OW31006   5.991   2.281   1.198
10036SOL    HW131007   6.081   2.308   1.163
10036SOL    HW231008   6.001   2.240   1.289
10037SOL     OW31009   0.511   1.503   0.326
10037SOL    HW131010   0.516   1.529   0.229
10037SOL    HW231011   0.482   1.407   0.333
10038SOL     OW31012   5.655   0.850   6.829
10038SOL    HW131013   5.637   0.893   6.741
10038SOL    HW231014   5.749   0.814   6.830
10039SOL     OW31015   3.987   0.714   4.023
10039SOL    HW131016   3.948   0.622   4.022
10039SOL    HW231017   4.069   0.717   3.966
10040SOL     OW31018   5.475   5.223   6.278
10040SOL    HW131019   5.528   5.273   6.209
10040SOL    HW231020   5.533   5.154   6.321
10041SOL     OW31021   4.452   5.922   6.845
10041SOL    HW131022   4.546   5.925   6.880
10041SOL    HW231023   4.427   5.828   6.822
10042SOL     OW31024   0.775   1.557   4.143
10042SOL    HW131025   0.808   1.614   4.068
10042SOL    HW231026   0.711   1.609   4.200
10043SOL     OW31027   6.393   1.813   5.001
10043SOL    HW131028   6.460   1.885   5.014
10043SOL    HW231029   6.306   1.839   5.043
10044SOL     OW31030   2.369   2.395   5.021
10044SOL    HW131031   2.344   2.338   5.099
10044SOL    HW231032   2.349   2.491   5.043
10045SOL     OW31033   3.669   0.933   1.499
10045SOL    HW131034   3.652   0.978   1.587
10045SOL    HW231035   3.610   0.973   1.429
10046SOL     OW31036   1.486   3.393   0.825
10046SOL    HW131037   1.395   3.397   0.784
10046SOL    HW231038   1.485   3.331   0.903
10047SOL     OW31039   0.823   3.071   5.259
10047SOL    HW131040   0.905   3.081   5.314
10047SOL    HW231041   0.815   3.149   5.196
10048SOL     OW31042   6.658   6.759   2.606
10048SOL    HW131043   6.639   6.777   2.702
10048SOL    HW231044   6.685   6.844   2.561
10049SOL     OW31045   1.549   1.266   5.435
10049SOL    HW131046   1.576   1.355   5.471
10049SOL    HW231047   1.544   1.200   5.510
10050SOL     OW31048   5.478   3.440   4.786
10050SOL    HW131049   5.528   3.394   4.859
10050SOL    HW231050   5.390   3.394   4.772
10051SOL     OW31051   0.845   4.413   4.333
10051SOL    HW131052   0.904   4.454   4.264
10051SOL    HW231053   0.875   4.441   4.424
10052SOL     OW31054   1.874   1.144   3.162
10052SOL    HW131055   1.889   1.233   3.120
10052SOL    HW231056   1.949   1.082   3.136
10053SOL     OW31057   4.390   5.895   3.965
10053SOL    HW131058   4.363   5.816   4.021
10053SOL    HW231059   4.392   5.976   4.023
10054SOL     OW31060   5.524   4.261   5.308
10054SOL    HW131061   5.493   4.353   5.285
10054SOL    HW231062   5.496   4.238   5.402
10055SOL     OW31063   6.311   2.534   5.922
10055SOL    HW131064   6.378   2.465   5.947
10055SOL    HW231065   6.353   2.601   5.861
10056SOL     OW31066   4.969   4.332   3.247
10056SOL    HW131067   4.900   4.297   3.309
10056SOL    HW231068   4.947   4.426   3.221
10057SOL     OW31069   5.894   3.693   5.584
10057SOL    HW131070   5.806   3.715   5.544
10057SOL    HW231071   5.881   3.666   5.680
10058SOL     OW31072   6.430   3.808   4.455
10058SOL    HW131073   6.359   3.824   4.525
10058SOL    HW231074   6.484   3.891   4.443
10059SOL     OW31075   6.939   2.231   0.940
10059SOL    HW131076   6.896   2.306   0.890
10059SOL    HW231077   6.886   2.147   0.927
10060SOL     OW31078   2.250   2.360   2.343
10060SOL    HW131079   2.287   2.268   2.336
10060SOL    HW231080   2.325   2.426   2.348
10061SOL     OW31081   4.609   1.420   4.011
10061SOL    HW131082   4.513   1.394   3.999
10061SOL    HW231083   4.664   1.374   3.940
10062SOL     OW31084   6.328   6.850   4.365
10062SOL    HW131085   6.423   6.821   4.379
10062SOL    HW231086   6.297   6.903   4.444
10063SOL     OW31087   2.684   1.830   3.887
10063SOL    HW131088   2.723   1.836   3.795
10063SOL    HW231089   2.719   1.748   3.933
10064SOL     OW31090   4.493   6.023   6.039
10064SOL    HW131091   4.507   6.087   5.963
10064SOL    HW231092   4.404   5.978   6.029
10065SOL     OW31093   1.332   0.622   2.010
10065SOL    HW131094   1.271   0.552   1.974
10065SOL    HW231095   1.391   0.582   2.080
10066SOL     OW31096   0.541   3.285   4.993
10066SOL    HW131097   0.479   3.290   5.072
10066SOL    HW231098   0.524   3.362   4.932
10067SOL     OW31099   0.656   2.907   6.200
10067SOL    HW131100   0.582   2.863   6.251
10067SOL    HW231101   0.689   2.987   6.251
10068SOL     OW31102   1.420   3.799   3.132
10068SOL    HW131103   1.324   3.781   3.112
10068SOL    HW231104   1.427   3.857   3.213
10069SOL     OW31105   3.607   4.880   1.522
10069SOL    HW131106   3.690   4.868   1.466
10069SOL    HW231107   3.564   4.967   1.498
10070SOL     OW31108   1.248   5.427   4.956
10070SOL    HW131109   1.284   5.335   4.972
10070SOL    HW231110   1.148   5.425   4.963
10071SOL     OW31111   0.912   0.176   3.925
10071SOL    HW131112   0.941   0.212   4.014
10071SOL    HW231113   0.913   0.076   3.928
10072SOL     OW31114   0.805   1.316   2.663
10072SOL    HW131115   0.711   1.281   2.668
10072SOL    HW231116   0.851   1.279   2.582
10073SOL     OW31117   6.261   3.261   3.750
10073SOL    HW131118   6.214   3.323   3.812
10073SOL    HW231119   6.227   3.168   3.765
10074SOL     OW31120   1.207   5.560   0.952
10074SOL    HW131121   1.245   5.468   0.944
10074SOL    HW231122   1.258   5.611   1.022
10075SOL     OW31123   2.011   0.493   2.407
10075SOL    HW131124   2.035   0.458   2.497
10075SOL    HW231125   2.071   0.451   2.338
10076SOL     OW31126   4.863   5.152   3.152
10076SOL    HW131127   4.900   5.245   3.152
10076SOL    HW231128   4.822   5.133   3.063
10077SOL     OW31129   5.656   2.604   0.157
10077SOL    HW131130   5.559   2.581   0.161
10077SOL    HW231131   5.690   2.627   0.248
10078SOL     OW31132   0.042   6.467   4.916
10078SOL    HW131133   7.008   6.538   4.964
10078SOL    HW231134   0.062   6.393   4.980
10079SOL     OW31135   5.688   2.367   3.497
10079SOL    HW131136   5.749   2.296   3.535
10079SOL    HW231137   5.600   2.364   3.545
10080SOL     OW31138   5.728   1.231   6.379
10080SOL    HW131139   5.667   1.291   6.327
10080SOL    HW231140   5.820   1.271   6.380
10081SOL     OW31141   1.011   1.609   0.009
10081SOL    HW131142   1.062   1.545   6.971
10081SOL    HW231143   1.062   1.627   0.093
10082SOL     OW31144   1.579   5.424   3.291
10082SOL    HW131145   1.563   5.521   3.312
10082SOL    HW231146   1.631   5.416   3.206
10083SOL     OW31147   3.586   6.101   3.406
10083SOL    HW131148   3.574   6.150   3.320
10083SOL    HW231149   3.683   6.079   3.419
10084SOL     OW31150   6.880   6.676   5.040
10084SOL    HW131151   6.795   6.636   5.072
10084SOL    HW231152   6.869   6.775   5.030
10085SOL     OW31153   4.178   6.769   0.056
10085SOL    HW131154   4.175   6.670   0.040
10085SOL    HW231155   4.164   6.787   0.153
10086SOL     OW31156   5.975   6.507   2.486
10086SOL    HW131157   5.948   6.603   2.494
10086SOL    HW231158   6.059   6.500   2.433
10087SOL     OW31159   0.655   6.511   4.710
10087SOL    HW131160   0.578   6.448   4.722
10087SOL    HW231161   0.646   6.558   4.622
10088SOL     OW31162   6.861   1.804   0.009
10088SOL    HW131163   6.903   1.807   6.938
10088SOL    HW231164   6.875   1.714   0.050
10089SOL     OW31165   3.595   1.291   2.635
10089SOL    HW131166   3.621   1.355   2.563
10089SOL    HW231167   3.674   1.233   2.657
10090SOL     OW31168   0.719   4.658   2.148
10090SOL    HW131169   0.658   4.674   2.225
10090SOL    HW231170   0.779   4.581   2.168
10091SOL     OW31171   6.709   6.099   6.494
10091SOL    HW131172   6.611   6.121   6.496
10091SOL    HW231173   6.742   6.086   6.587
10092SOL     OW31174   1.399   3.458   5.122
10092SOL    HW131175   1.327   3.404   5.166
10092SOL    HW231176   1.488   3.415   5.139
10093SOL     OW31177   5.190   3.289   5.186
10093SOL    HW131178   5.260   3.360   5.176
10093SOL    HW231179   5.100   3.333   5.197
10094SOL     OW31180   2.735   6.727   1.394
10094SOL    HW131181   2.722   6.654   1.326
10094SOL    HW231182   2.704   6.814   1.355
10095SOL     OW31183   5.650   2.074   4.619
10095SOL    HW131184   5.580   2.138   4.648
10095SOL    HW231185   5.606   1.994   4.576
10096SOL     OW31186   5.016   0.708   2.575
10096SOL    HW131187   5.066   0.625   2.549
10096SOL    HW231188   5.010   0.769   2.496
10097SOL     OW31189   2.004   1.941   6.545
10097SOL    HW131190   2.063   2.020   6.564
10097SOL    HW231191   2.009   1.919   6.447
10098SOL     OW31192   3.047   5.723   4.685
10098SOL    HW131193   3.018   5.634   4.719
10098SOL    HW231194   3.020   5.794   4.751
10099SOL     OW31195   6.430   4.467   1.503
10099SOL    HW131196   6.515   4.472   1.555
10099SOL    HW231197   6.444   4.414   1.419
10100SOL     OW31198   5.496   4.961   5.521
10100SOL    HW131199   5.569   4.919   5.576
10100SOL    HW231200   5.460   5.040   5.570
10101SOL     OW31201   6.668   3.155   1.693
10101SOL    HW131202   6.766   3.170   1.703
10101SOL    HW231203   6.645   3.064   1.726
10102SOL     OW31204   5.212   0.423   0.607
10102SOL    HW131205   5.304   0.441   0.642
10102SOL    HW231206   5.173   0.345   0.657
10103SOL     OW31207   0.576   0.352   5.686
10103SOL    HW131208   0.582   0.406   5.770
10103SOL    HW231209   0.645   0.383   5.622
10104SOL     OW31210   2.055   1.104   6.004
10104SOL    HW131211   1.968   1.075   6.044
10104SOL    HW231212   2.092   1.181   6.057
10105SOL     OW31213   2.624   1.357   5.810
10105SOL    HW131214   2.669   1.281   5.763
10105SOL    HW231215   2.616   1.434   5.747
10106SOL     OW31216   4.934   6.090   1.488
10106SOL    HW131217   4.890   6.143   1.561
10106SOL    HW231218   5.016   6.137   1.457
10107SOL     OW31219   5.094   4.130   6.825
10107SOL    HW131220   5.034   4.050   6.827
10107SOL    HW231221   5.051   4.204   6.877
10108SOL     OW31222   1.333   2.953   0.606
10108SOL    HW131223   1.421   2.911   0.586
10108SOL    HW231224   1.272   2.885   0.646
10109SOL     OW31225   0.902   1.125   0.336
10109SOL    HW131226   0.996   1.160   0.340
10109SOL    HW231227   0.871   1.124   0.241
10110SOL     OW31228   4.687   4.965   2.391
10110SOL    HW131229   4.651   4.966   2.297
10110SOL    HW231230   4.767   5.025   2.396
10111SOL     OW31231   0.744   2.962   2.197
10111SOL    HW131232   0.843   2.965   2.179
10111SOL    HW231233   0.699   3.037   2.148
10112SOL     OW31234   6.608   3.120   3.203
10112SOL    HW131235   6.665   3.124   3.120
10112SOL    HW231236   6.514   3.144   3.180
10113SOL     OW31237   4.613   1.154   6.784
10113SOL    HW131238   4.709   1.184   6.786
10113SOL    HW231239   4.565   1.192   6.863
10114SOL     OW31240   3.933   2.192   2.948
10114SOL    HW131241   4.031   2.197   2.929
10114SOL    HW231242   3.918   2.193   3.046
10115SOL     OW31243   3.791   1.439   4.153
10115SOL    HW131244   3.879   1.418   4.111
10115SOL    HW231245   3.768   1.367   4.219
10116SOL     OW31246   5.857   0.370   5.727
10116SOL    HW131247   5.838   0.468   5.718
10116SOL    HW231248   5.771   0.319   5.733
10117SOL     OW31249   6.687   5.425   5.273
10117SOL    HW131250   6.694   5.410   5.371
10117SOL    HW231251   6.750   5.364   5.225
10118SOL     OW31252   2.660   5.032   4.604
10118SOL    HW131253   2.637   5.047   4.700
10118SOL    HW231254   2.582   5.059   4.546
10119SOL     OW31255   0.041   4.880   4.128
10119SOL    HW131256   6.982   4.883   4.065
10119SOL    HW231257   0.126   4.888   4.075
10120SOL     OW31258   1.206   2.818   2.901
10120SOL    HW131259   1.174   2.833   2.995
10120SOL    HW231260   1.215   2.905   2.854
10121SOL     OW31261   6.294   4.909   0.496
10121SOL    HW131262   6.243   4.945   0.575
10121SOL    HW231263   6.253   4.823   0.467
10122SOL     OW31264   6.588   1.718   3.552
10122SOL    HW131265   6.498   1.753   3.527
10122SOL    HW231266   6.605   1.632   3.503
10123SOL     OW31267   5.702   6.294   0.807
10123SOL    HW131268   5.702   6.392   0.830
10123SOL    HW231269   5.776   6.276   0.743
10124SOL     OW31270   1.095   5.161   2.419
10124SOL    HW131271   1.017   5.122   2.468
10124SOL    HW231272   1.063   5.208   2.337
10125SOL     OW31273   2.070   1.578   1.454
10125SOL    HW131274   2.030   1.657   1.501
10125SOL    HW231275   2.170   1.582   1.462
10126SOL     OW31276   6.436   0.537   6.575
10126SOL    HW131277   6.361   0.503   6.632
10126SOL    HW231278   6.420   0.511   6.480
10127SOL     OW31279   1.125   4.265   5.993
10127SOL    HW131280   1.166   4.299   6.078
10127SOL    HW231281   1.062   4.191   6.013
10128SOL     OW31282   3.003   0.936   0.048
10128SOL    HW131283   3.061   0.858   0.026
10128SOL    HW231284   3.007   0.953   0.147
10129SOL     OW31285   6.370   1.568   2.655
10129SOL    HW131286   6.468   1.564   2.635
10129SOL    HW231287   6.355   1.552   2.752
10130SOL     OW31288   0.660   2.607   2.162
10130SOL    HW131289   0.584   2.629   2.223
10130SOL    HW231290   0.723   2.545   2.209
10131SOL     OW31291   2.484   1.166   4.646
10131SOL    HW131292   2.515   1.077   4.680
10131SOL    HW231293   2.540   1.192   4.567
10132SOL     OW31294   6.754   6.805   2.232
10132SOL    HW131295   6.841   6.757   2.226
10132SOL    HW231296   6.681   6.747   2.195
10133SOL     OW31297   4.614   5.743   0.598
10133SOL    HW131298   4.704   5.727   0.558
10133SOL    HW231299   4.572   5.655   0.623
10134SOL     OW31300   6.024   0.740   2.414
10134SOL    HW131301   6.080   0.818   2.386
10134SOL    HW231302   6.084   0.669   2.453
10135SOL     OW31303   5.605   0.645   4.042
10135SOL    HW131304   5.555   0.699   4.109
10135SOL    HW231305   5.675   0.702   3.999
10136SOL     OW31306   5.020   2.248   2.829
10136SOL    HW131307   5.001   2.151   2.846
10136SOL    HW231308   5.023   2.265   2.731
10137SOL     OW31309   0.395   5.550   5.759
10137SOL    HW131310   0.331   5.599   5.701
10137SOL    HW231311   0.365   5.556   5.855
10138SOL     OW31312   6.176   1.442   0.026
10138SOL    HW131313   6.081   1.409   0.023
10138SOL    HW231314   6.225   1.397   0.100
10139SOL     OW31315   3.159   3.484   5.698
10139SOL    HW131316   3.218   3.404   5.703
10139SOL    HW231317   3.187   3.541   5.621
10140SOL     OW31318   0.099   5.961   5.952
10140SOL    HW131319   0.009   5.937   5.987
10140SOL    HW231320   0.163   5.885   5.967
10141SOL     OW31321   4.050   1.464   3.820
10141SOL    HW131322   4.144   1.435   3.804
10141SOL    HW231323   4.003   1.475   3.733
10142SOL     OW31324   5.641   6.527   4.998
10142SOL    HW131325   5.721   6.469   4.983
10142SOL    HW231326   5.633   6.592   4.923
10143SOL     OW31327   5.274   3.223   0.685
10143SOL    HW131328   5.262   3.310   0.638
10143SOL    HW231329   5.284   3.150   0.617
10144SOL     OW31330   4.091   6.574   5.295
10144SOL    HW131331   4.006   6.628   5.293
10144SOL    HW231332   4.163   6.627   5.340
10145SOL     OW31333   4.810   5.914   1.317
10145SOL    HW131334   4.863   5.839   1.277
10145SOL    HW231335   4.870   5.974   1.369
10146SOL     OW31336   0.363   3.728   3.889
10146SOL    HW131337   0.294   3.788   3.929
10146SOL    HW231338   0.449   3.738   3.939
10147SOL     OW31339   4.209   5.077   6.367
10147SOL    HW131340   4.256   5.162   6.342
10147SOL    HW231341   4.207   5.016   6.287
10148SOL     OW31342   0.880   4.894   0.438
10148SOL    HW131343   0.785   4.915   0.458
10148SOL    HW231344   0.899   4.799   0.463
10149SOL     OW31345   4.477   5.262   1.802
10149SOL    HW131346   4.529   5.197   1.745
10149SOL    HW231347   4.389   5.222   1.826
10150SOL     OW31348   4.840   3.827   0.882
10150SOL    HW131349   4.922   3.804   0.829
10150SOL    HW231350   4.859   3.815   0.979
10151SOL     OW31351   6.852   0.020   6.026
10151SOL    HW131352   6.849   0.063   6.116
10151SOL    HW231353   6.947   0.005   5.999
10152SOL     OW31354   6.047   6.138   2.817
10152SOL    HW131355   6.054   6.233   2.847
10152SOL    HW231356   5.959   6.100   2.846
10153SOL     OW31357   4.680   5.824   3.989
10153SOL    HW131358   4.600   5.793   3.938
10153SOL    HW231359   4.672   5.796   4.084
10154SOL     OW31360   3.922   5.265   5.611
10154SOL    HW131361   3.856   5.195   5.586
10154SOL    HW231362   3.985   5.228   5.680
10155SOL     OW31363   4.911   2.343   5.833
10155SOL    HW131364   4.817   2.375   5.839
10155SOL    HW231365   4.960   2.395   5.763
10156SOL     OW31366   5.188   0.226   1.284
10156SOL    HW131367   5.116   0.199   1.348
10156SOL    HW231368   5.147   0.250   1.196
10157SOL     OW31369   6.843   2.451   0.855
10157SOL    HW131370   6.850   2.516   0.779
10157SOL    HW231371   6.762   2.473   0.910
10158SOL     OW31372   5.034   6.840   2.461
10158SOL    HW131373   5.017   6.793   2.547
10158SOL    HW231374   5.018   6.778   2.385
10159SOL     OW31375   3.393   3.223   2.884
10159SOL    HW131376   3.375   3.125   2.869
10159SOL    HW231377   3.448   3.235   2.967
10160SOL     OW31378   2.104   4.467   2.611
10160SOL    HW131379   2.068   4.445   2.521
10160SOL    HW231380   2.158   4.551   2.605
10161SOL     OW31381   3.641   4.844   6.008
10161SOL    HW131382   3.583   4.882   6.080
10161SOL    HW231383   3.662   4.915   5.941
10162SOL     OW31384   1.879   4.410   1.999
10162SOL    HW131385   1.935   4.414   1.916
10162SOL    HW231386   1.856   4.504   2.027
10163SOL     OW31387   1.698   5.979   5.035
10163SOL    HW131388   1.738   5.902   4.985
10163SOL    HW231389   1.599   5.979   5.021
10164SOL     OW31390   6.522   3.327   3.680
10164SOL    HW131391   6.564   3.257   3.622
10164SOL    HW231392   6.426   3.305   3.694
10165SOL     OW31393   5.677   2.653   3.913
10165SOL    HW131394   5.621   2.656   3.830
10165SOL    HW231395   5.626   2.695   3.989
10166SOL     OW31396   0.616   2.638   0.890
10166SOL    HW131397   0.665   2.721   0.865
10166SOL    HW231398   0.556   2.610   0.815
10167SOL     OW31399   0.120   5.155   6.296
10167SOL    HW131400   0.063   5.110   6.227
10167SOL    HW231401   0.214   5.122   6.289
10168SOL     OW31402   6.029   1.644   6.556
10168SOL    HW131403   5.968   1.709   6.602
10168SOL    HW231404   6.072   1.584   6.624
10169SOL     OW31405   6.931   4.057   3.230
10169SOL    HW131406   6.978   4.109   3.302
10169SOL    HW231407   6.975   3.968   3.219
10170SOL     OW31408   6.457   5.823   0.047
10170SOL    HW131409   6.398   5.859   0.119
10170SOL    HW231410   6.540   5.880   0.041
10171SOL     OW31411   1.927   2.895   5.416
10171SOL    HW131412   1.938   2.815   5.475
10171SOL    HW231413   2.003   2.958   5.430
10172SOL     OW31414   6.622   0.126   3.032
10172SOL    HW131415   6.707   0.100   2.986
10172SOL    HW231416   6.627   0.100   3.129
10173SOL     OW31417   3.507   5.011   6.648
10173SOL    HW131418   3.508   4.938   6.715
10173SOL    HW231419   3.420   5.061   6.654
10174SOL     OW31420   5.157   6.755   3.228
10174SOL    HW131421   5.153   6.850   3.257
10174SOL    HW231422   5.108   6.698   3.294
10175SOL     OW31423   6.581   1.896   3.208
10175SOL    HW131424   6.668   1.882   3.161
10175SOL    HW231425   6.583   1.982   3.258
10176SOL     OW31426   6.614   3.400   5.697
10176SOL    HW131427   6.587   3.489   5.660
10176SOL    HW231428   6.635   3.410   5.795
10177SOL     OW31429   2.453   0.371   1.425
10177SOL    HW131430   2.497   0.314   1.356
10177SOL    HW231431   2.512   0.379   1.505
10178SOL     OW31432   1.836   1.823   0.469
10178SOL    HW131433   1.912   1.784   0.416
10178SOL    HW231434   1.749   1.790   0.433
10179SOL     OW31435   6.935   4.400   0.269
10179SOL    HW131436   6.975   4.462   0.201
10179SOL    HW231437   7.008   4.345   0.310
10180SOL     OW31438   4.331   6.746   6.732
10180SOL    HW131439   4.239   6.780   6.713
10180SOL    HW231440   4.394   6.823   6.737
10181SOL     OW31441   6.338   4.026   1.753
10181SOL    HW131442   6.239   4.023   1.743
10181SOL    HW231443   6.377   4.083   1.681
10182SOL     OW31444   5.471   1.682   0.263
10182SOL    HW131445   5.413   1.609   0.227
10182SOL    HW231446   5.556   1.686   0.211
10183SOL     OW31447   6.689   2.595   6.195
10183SOL    HW131448   6.773   2.647   6.209
10183SOL    HW231449   6.687   2.559   6.101
10184SOL     OW31450   5.956   3.371   6.277
10184SOL    HW131451   5.902   3.288   6.285
10184SOL    HW231452   6.052   3.350   6.297
10185SOL     OW31453   3.799   6.098   2.223
10185SOL    HW131454   3.736   6.020   2.216
10185SOL    HW231455   3.814   6.136   2.132
10186SOL     OW31456   4.690   3.951   5.792
10186SOL    HW131457   4.610   4.010   5.779
10186SOL    HW231458   4.737   3.976   5.876
10187SOL     OW31459   2.552   4.309   5.673
10187SOL    HW131460   2.577   4.214   5.695
10187SOL    HW231461   2.526   4.357   5.757
10188SOL     OW31462   2.776   6.689   0.043
10188SOL    HW131463   2.763   6.763   0.109
10188SOL    HW231464   2.871   6.656   0.049
10189SOL     OW31465   1.156   1.175   0.065
10189SOL    HW131466   1.077   1.232   0.046
10189SOL    HW231467   1.220   1.179   7.008
10190SOL     OW31468   2.719   3.885   1.214
10190SOL    HW131469   2.666   3.960   1.254
10190SOL    HW231470   2.723   3.896   1.114
10191SOL     OW31471   6.045   5.673   0.813
10191SOL    HW131472   5.946   5.670   0.800
10191SOL    HW231473   6.090   5.664   0.724
10192SOL     OW31474   2.576   1.616   5.259
10192SOL    HW131475   2.528   1.547   5.205
10192SOL    HW231476   2.520   1.641   5.338
10193SOL     OW31477   3.615   3.150   2.697
10193SOL    HW131478   3.631   3.126   2.793
10193SOL    HW231479   3.660   3.237   2.676
10194SOL     OW31480   3.878   0.233   4.422
10194SOL    HW131481   3.848   0.327   4.436
10194SOL    HW231482   3.948   0.210   4.490
10195SOL     OW31483   5.667   0.475   1.368
10195SOL    HW131484   5.751   0.522   1.395
10195SOL    HW231485   5.610   0.458   1.448
10196SOL     OW31486   5.557   2.036   3.529
10196SOL    HW131487   5.549   1.979   3.447
10196SOL    HW231488   5.651   2.070   3.537
10197SOL     OW31489   5.561   0.310   3.107
10197SOL    HW131490   5.573   0.394   3.160
10197SOL    HW231491   5.580   0.231   3.165
10198SOL     OW31492   3.058   6.411   0.914
10198SOL    HW131493   3.131   6.345   0.934
10198SOL    HW231494   3.097   6.490   0.866
10199SOL     OW31495   1.363   1.963   6.948
10199SOL    HW131496   1.293   1.946   6.879
10199SOL    HW231497   1.326   1.940   0.019
10200SOL     OW31498   5.747   3.729   6.147
10200SOL    HW131499   5.687   3.805   6.171
10200SOL    HW231500   5.818   3.719   6.217
10201SOL     OW31501   0.594   5.774   2.212
10201SOL    HW131502   0.578   5.852   2.152
10201SOL    HW231503   0.514   5.714   2.212
10202SOL     OW31504   7.009   4.098   1.165
10202SOL    HW131505   0.062   4.063   1.106
10202SOL    HW231506   7.018   4.197   1.175
10203SOL     OW31507   1.934   3.189   2.441
10203SOL    HW131508   1.985   3.124   2.497
10203SOL    HW231509   1.988   3.213   2.361
10204SOL     OW31510   3.088   4.418   5.940
10204SOL    HW131511   3.156   4.477   5.896
10204SOL    HW231512   3.134   4.361   6.008
10205SOL     OW31513   4.994   1.603   3.575
10205SOL    HW131514   4.956   1.686   3.614
10205SOL    HW231515   4.947   1.581   3.490
10206SOL     OW31516   5.379   6.743   6.042
10206SOL    HW131517   5.301   6.805   6.037
10206SOL    HW231518   5.353   6.654   6.003
10207SOL     OW31519   2.096   1.043   1.646
10207SOL    HW131520   2.002   1.060   1.673
10207SOL    HW231521   2.153   1.034   1.728
10208SOL     OW31522   6.294   5.651   5.217
10208SOL    HW131523   6.226   5.717   5.186
10208SOL    HW231524   6.249   5.564   5.237
10209SOL     OW31525   0.234   0.967   5.828
10209SOL    HW131526   0.246   0.896   5.896
10209SOL    HW231527   0.323   0.996   5.793
10210SOL     OW31528   4.983   0.235   1.929
10210SOL    HW131529   5.023   0.241   2.020
10210SOL    HW231530   5.042   0.281   1.863
10211SOL     OW31531   3.514   6.522   5.561
10211SOL    HW131532   3.605   6.481   5.565
10211SOL    HW231533   3.477   6.531   5.653
10212SOL     OW31534   0.526   1.314   4.376
10212SOL    HW131535   0.439   1.354   4.345
10212SOL    HW231536   0.598   1.382   4.367
10213SOL     OW31537   5.378   1.647   2.567
10213SOL    HW131538   5.435   1.674   2.490
10213SOL    HW231539   5.435   1.610   2.640
10214SOL     OW31540   6.422   0.682   2.104
10214SOL    HW131541   6.481   0.698   2.183
10214SOL    HW231542   6.465   0.718   2.021
10215SOL     OW31543   2.922   3.391   5.850
10215SOL    HW131544   2.986   3.448   5.799
10215SOL    HW231545   2.927   3.297   5.817
10216SOL     OW31546   6.264   7.012   0.807
10216SOL    HW131547   6.212   0.037   0.879
10216SOL    HW231548   6.361   7.009   0.832
10217SOL     OW31549   2.624   1.425   4.198
10217SOL    HW131550   2.535   1.470   4.204
10217SOL    HW231551   2.697   1.494   4.194
10218SOL     OW31552   1.163   1.707   1.460
10218SOL    HW131553   1.260   1.682   1.465
10218SOL    HW231554   1.151   1.783   1.396
10219SOL     OW31555   0.626   2.244   2.400
10219SOL    HW131556   0.533   2.236   2.365
10219SOL    HW231557   0.637   2.184   2.479
10220SOL     OW31558   4.026   1.421   1.542
10220SOL    HW131559   3.949   1.400   1.602
10220SOL    HW231560   4.110   1.424   1.596
10221SOL     OW31561   2.222   1.141   4.671
10221SOL    HW131562   2.154   1.211   4.693
10221SOL    HW231563   2.314   1.177   4.690
10222SOL     OW31564   0.904   3.633   5.061
10222SOL    HW131565   0.977   3.621   4.994
10222SOL    HW231566   0.911   3.562   5.131
10223SOL     OW31567   1.364   5.122   6.368
10223SOL    HW131568   1.422   5.073   6.304
10223SOL    HW231569   1.412   5.133   6.455
10224SOL     OW31570   1.428   1.193   4.353
10224SOL    HW131571   1.442   1.291   4.342
10224SOL    HW231572   1.492   1.159   4.423
10225SOL     OW31573   1.144   6.299   5.056
10225SOL    HW131574   1.078   6.366   5.090
10225SOL    HW231575   1.118   6.208   5.089
10226SOL     OW31576   3.185   0.959   6.762
10226SOL    HW131577   3.232   0.892   6.703
10226SOL    HW231578   3.232   0.964   6.850
10227SOL     OW31579   4.707   4.574   0.660
10227SOL    HW131580   4.681   4.516   0.737
10227SOL    HW231581   4.803   4.599   0.668
10228SOL     OW31582   0.494   5.532   2.187
10228SOL    HW131583   0.585   5.503   2.218
10228SOL    HW231584   0.470   5.482   2.103
10229SOL     OW31585   0.998   1.097   3.456
10229SOL    HW131586   1.051   1.013   3.461
10229SOL    HW231587   0.907   1.082   3.493
10230SOL     OW31588   0.276   0.421   3.377
10230SOL    HW131589   0.253   0.350   3.444
10230SOL    HW231590   0.223   0.405   3.293
10231SOL     OW31591   0.106   6.930   5.179
10231SOL    HW131592   0.120   7.002   5.111
10231SOL    HW231593   0.194   6.887   5.200
10232SOL     OW31594   4.186   0.936   4.472
10232SOL    HW131595   4.187   0.888   4.385
10232SOL    HW231596   4.097   0.925   4.516
10233SOL     OW31597   4.735   2.832   5.363
10233SOL    HW131598   4.664   2.779   5.315
10233SOL    HW231599   4.692   2.904   5.417
10234SOL     OW31600   5.091   0.164   0.713
10234SOL    HW131601   5.124   0.096   0.778
10234SOL    HW231602   4.997   0.190   0.737
10235SOL     OW31603   4.471   1.319   0.422
10235SOL    HW131604   4.425   1.335   0.510
10235SOL    HW231605   4.409   1.346   0.347
10236SOL     OW31606   1.705   6.827   1.715
10236SOL    HW131607   1.715   6.733   1.747
10236SOL    HW231608   1.638   6.831   1.642
10237SOL     OW31609   6.128   4.182   1.404
10237SOL    HW131610   6.081   4.094   1.410
10237SOL    HW231611   6.081   4.248   1.463
10238SOL     OW31612   3.597   3.954   5.041
10238SOL    HW131613   3.602   3.887   4.967
10238SOL    HW231614   3.671   4.020   5.031
10239SOL     OW31615   1.298   4.396   5.812
10239SOL    HW131616   1.245   4.359   5.889
10239SOL    HW231617   1.257   4.365   5.726
10240SOL     OW31618   1.102   4.314   2.451
10240SOL    HW131619   1.147   4.371   2.382
10240SOL    HW231620   1.140   4.336   2.542
10241SOL     OW31621   0.268   0.769   1.710
10241SOL    HW131622   0.268   0.807   1.618
10241SOL    HW231623   0.357   0.729   1.730
10242SOL     OW31624   0.848   1.954   6.102
10242SOL    HW131625   0.943   1.948   6.072
10242SOL    HW231626   0.816   2.048   6.094
10243SOL     OW31627   6.929   5.282   1.411
10243SOL    HW131628   7.001   5.213   1.410
10243SOL    HW231629   6.866   5.264   1.486
10244SOL     OW31630   1.844   4.450   0.099
10244SOL    HW131631   1.941   4.458   0.076
10244SOL    HW231632   1.819   4.524   0.162
10245SOL     OW31633   2.138   3.477   6.980
10245SOL    HW131634   2.136   3.381   6.952
10245SOL    HW231635   2.131   3.535   6.899
10246SOL     OW31636   3.081   4.024   4.612
10246SOL    HW131637   3.099   4.061   4.704
10246SOL    HW231638   3.000   4.068   4.574
10247SOL     OW31639   0.620   5.271   5.449
10247SOL    HW131640   0.546   5.300   5.388
10247SOL    HW231641   0.598   5.299   5.543
10248SOL     OW31642   2.980   0.263   2.312
10248SOL    HW131643   2.910   0.244   2.381
10248SOL    HW231644   2.980   0.190   2.243
10249SOL     OW31645   3.057   0.702   5.487
10249SOL    HW131646   2.958   0.710   5.478
10249SOL    HW231647   3.082   0.716   5.583
10250SOL     OW31648   0.103   1.823   1.091
10250SOL    HW131649   0.084   1.859   1.182
10250SOL    HW231650   0.019   1.787   1.051
10251SOL     OW31651   2.392   3.119   6.046
10251SOL    HW131652   2.428   3.071   6.127
10251SOL    HW231653   2.453   3.103   5.969
10252SOL     OW31654   6.368   6.897   0.555
10252SOL    HW131655   6.319   6.812   0.535
10252SOL    HW231656   6.315   6.953   0.618
10253SOL     OW31657   4.768   5.465   6.939
10253SOL    HW131658   4.818   5.502   6.861
10253SOL    HW231659   4.678   5.509   6.945
10254SOL     OW31660   3.456   2.060   4.373
10254SOL    HW131661   3.383   2.096   4.431
10254SOL    HW231662   3.541   2.056   4.425
10255SOL     OW31663   1.898   6.204   1.359
10255SOL    HW131664   1.928   6.230   1.267
10255SOL    HW231665   1.968   6.147   1.402
10256SOL     OW31666   5.359   0.118   1.475
10256SOL    HW131667   5.333   0.146   1.382
10256SOL    HW231668   5.308   0.035   1.500
10257SOL     OW31669   0.697   4.482   5.193
10257SOL    HW131670   0.781   4.491   5.138
10257SOL    HW231671   0.665   4.573   5.219
10258SOL     OW31672   5.367   0.008   3.507
10258SOL    HW131673   5.307   7.008   3.585
10258SOL    HW231674   5.451   0.051   3.540
10259SOL     OW31675   1.155   5.040   3.166
10259SOL    HW131676   1.223   5.109   3.142
10259SOL    HW231677   1.164   5.015   3.262
10260SOL     OW31678   0.021   6.636   2.607
10260SOL    HW131679   0.013   6.684   2.694
10260SOL    HW231680   7.006   6.542   2.618
10261SOL     OW31681   6.866   5.944   2.153
10261SOL    HW131682   6.819   5.944   2.065
10261SOL    HW231683   6.878   6.039   2.183
10262SOL     OW31684   2.978   5.511   4.811
10262SOL    HW131685   2.886   5.525   4.848
10262SOL    HW231686   2.988   5.416   4.782
10263SOL     OW31687   5.146   1.609   6.727
10263SOL    HW131688   5.092   1.613   6.811
10263SOL    HW231689   5.173   1.514   6.710
10264SOL     OW31690   6.259   1.805   6.901
10264SOL    HW131691   6.231   1.745   6.827
10264SOL    HW231692   6.309   1.883   6.863
10265SOL     OW31693   3.289   1.686   2.717
10265SOL    HW131694   3.389   1.681   2.715
10265SOL    HW231695   3.251   1.620   2.652
10266SOL     OW31696   3.754   3.646   5.675
10266SOL    HW131697   3.658   3.621   5.686
10266SOL    HW231698   3.790   3.606   5.591
10267SOL     OW31699   6.418   1.987   6.805
10267SOL    HW131700   6.393   2.076   6.845
10267SOL    HW231701   6.482   2.002   6.730
10268SOL     OW31702   5.181   6.232   1.485
10268SOL    HW131703   5.165   6.206   1.580
10268SOL    HW231704   5.157   6.328   1.471
10269SOL     OW31705   2.024   1.304   5.708
10269SOL    HW131706   2.108   1.253   5.727
10269SOL    HW231707   1.946   1.256   5.748
10270SOL     OW31708   2.108   6.055   1.479
10270SOL    HW131709   2.146   6.028   1.391
10270SOL    HW231710   2.131   5.987   1.548
10271SOL     OW31711   3.111   3.306   0.515
10271SOL    HW131712   3.152   3.394   0.491
10271SOL    HW231713   3.037   3.321   0.581
10272SOL     OW31714   0.977   0.814   4.076
10272SOL    HW131715   0.944   0.865   3.996
10272SOL    HW231716   1.047   0.868   4.123
10273SOL     OW31717   3.961   5.863   3.966
10273SOL    HW131718   3.936   5.954   3.933
10273SOL    HW231719   3.898   5.795   3.930
10274SOL     OW31720   1.456   4.607   5.778
10274SOL    HW131721   1.532   4.587   5.717
10274SOL    HW231722   1.398   4.525   5.786
10275SOL     OW31723   1.287   6.979   2.170
10275SOL    HW131724   1.231   6.976   2.088
10275SOL    HW231725   1.229   6.977   2.251
10276SOL     OW31726   6.821   5.249   6.350
10276SOL    HW131727   6.866   5.221   6.435
10276SOL    HW231728   6.725   5.220   6.352
10277SOL     OW31729   2.760   6.282   4.113
10277SOL    HW131730   2.853   6.317   4.105
10277SOL    HW231731   2.712   6.333   4.184
10278SOL     OW31732   6.354   1.306   5.799
10278SOL    HW131733   6.442   1.335   5.836
10278SOL    HW231734   6.284   1.375   5.820
10279SOL     OW31735   3.840   0.480   3.988
10279SOL    HW131736   3.746   0.449   4.003
10279SOL    HW231737   3.877   0.436   3.906
10280SOL     OW31738   2.156   4.576   1.513
10280SOL    HW131739   2.227   4.506   1.528
10280SOL    HW231740   2.086   4.540   1.452
10281SOL     OW31741   5.280   2.164   2.577
10281SOL    HW131742   5.343   2.218   2.633
10281SOL    HW231743   5.282   2.069   2.607
10282SOL     OW31744   6.384   3.179   4.096
10282SOL    HW131745   6.444   3.144   4.023
10282SOL    HW231746   6.411   3.272   4.118
10283SOL     OW31747   1.203   3.037   1.196
10283SOL    HW131748   1.198   2.992   1.285
10283SOL    HW231749   1.117   3.024   1.148
10284SOL     OW31750   5.523   4.101   5.569
10284SOL    HW131751   5.439   4.155   5.567
10284SOL    HW231752   5.518   4.035   5.644
10285SOL     OW31753   4.783   0.424   1.479
10285SOL    HW131754   4.873   0.463   1.459
10285SOL    HW231755   4.713   0.493   1.466
10286SOL     OW31756   3.211   1.918   2.805
10286SOL    HW131757   3.231   1.827   2.768
10286SOL    HW231758   3.292   1.952   2.853
10287SOL     OW31759   1.778   0.099   1.842
10287SOL    HW131760   1.800   0.028   1.774
10287SOL    HW231761   1.815   0.186   1.812
10288SOL     OW31762   5.497   5.716   2.293
10288SOL    HW131763   5.519   5.774   2.215
10288SOL    HW231764   5.456   5.771   2.365
10289SOL     OW31765   3.386   0.874   1.190
10289SOL    HW131766   3.445   0.793   1.199
10289SOL    HW231767   3.357   0.904   1.281
10290SOL     OW31768   3.458   4.087   2.827
10290SOL    HW131769   3.396   4.077   2.905
10290SOL    HW231770   3.405   4.104   2.745
10291SOL     OW31771   4.255   0.248   3.942
10291SOL    HW131772   4.301   0.246   3.853
10291SOL    HW231773   4.184   0.178   3.945
10292SOL     OW31774   0.528   2.077   4.710
10292SOL    HW131775   0.626   2.097   4.703
10292SOL    HW231776   0.503   2.066   4.807
10293SOL     OW31777   1.639   6.235   3.115
10293SOL    HW131778   1.659   6.333   3.109
10293SOL    HW231779   1.603   6.214   3.206
10294SOL     OW31780   4.885   3.209   3.413
10294SOL    HW131781   4.868   3.163   3.501
10294SOL    HW231782   4.878   3.308   3.425
10295SOL     OW31783   5.719   4.524   5.665
10295SOL    HW131784   5.806   4.562   5.635
10295SOL    HW231785   5.687   4.573   5.746
10296SOL     OW31786   5.656   4.450   6.133
10296SOL    HW131787   5.731   4.385   6.143
10296SOL    HW231788   5.570   4.405   6.156
10297SOL     OW31789   2.608   6.345   4.366
10297SOL    HW131790   2.522   6.294   4.374
10297SOL    HW231791   2.657   6.342   4.453
10298SOL     OW31792   4.397   4.564   3.462
10298SOL    HW131793   4.416   4.588   3.557
10298SOL    HW231794   4.457   4.489   3.433
10299SOL     OW31795   4.414   4.615   3.165
10299SOL    HW131796   4.432   4.533   3.220
10299SOL    HW231797   4.355   4.677   3.217
10300SOL     OW31798   1.592   4.171   2.164
10300SOL    HW131799   1.627   4.173   2.070
10300SOL    HW231800   1.549   4.259   2.185
10301SOL     OW31801   5.870   2.066   3.171
10301SOL    HW131802   5.787   2.105   3.130
10301SOL    HW231803   5.903   2.127   3.244
10302SOL     OW31804   1.493   6.242   2.642
10302SOL    HW131805   1.590   6.231   2.616
10302SOL    HW231806   1.485   6.242   2.741
10303SOL     OW31807   4.071   4.420   1.058
10303SOL    HW131808   4.046   4.337   1.109
10303SOL    HW231809   4.028   4.417   0.968
10304SOL     OW31810   6.094   0.380   3.909
10304SOL    HW131811   6.139   0.324   3.978
10304SOL    HW231812   6.111   0.477   3.928
10305SOL     OW31813   1.204   6.198   6.916
10305SOL    HW131814   1.280   6.228   6.973
10305SOL    HW231815   1.206   6.098   6.908
10306SOL     OW31816   4.430   5.315   6.753
10306SOL    HW131817   4.336   5.342   6.775
10306SOL    HW231818   4.434   5.216   6.740
10307SOL     OW31819   1.555   1.091   5.212
10307SOL    HW131820   1.557   1.165   5.280
10307SOL    HW231821   1.638   1.094   5.158
10308SOL     OW31822   3.150   5.175   3.845
10308SOL    HW131823   3.091   5.151   3.923
10308SOL    HW231824   3.148   5.101   3.778
10309SOL     OW31825   6.475   6.913   3.604
10309SOL    HW131826   6.464   6.848   3.529
10309SOL    HW231827   6.563   6.959   3.596
10310SOL     OW31828   3.059   3.840   1.813
10310SOL    HW131829   2.989   3.887   1.760
10310SOL    HW231830   3.107   3.906   1.871
10311SOL     OW31831   0.662   5.692   1.479
10311SOL    HW131832   0.752   5.715   1.442
10311SOL    HW231833   0.610   5.776   1.495
10312SOL     OW31834   3.744   5.148   1.104
10312SOL    HW131835   3.647   5.141   1.082
10312SOL    HW231836   3.789   5.211   1.041
10313SOL     OW31837   4.393   7.015   2.269
10313SOL    HW131838   4.357   0.017   2.178
10313SOL    HW231839   4.324   6.965   2.321
10314SOL     OW31840   6.303   0.476   0.926
10314SOL    HW131841   6.341   0.418   0.997
10314SOL    HW231842   6.258   0.420   0.857
10315SOL     OW31843   6.294   6.023   5.155
10315SOL    HW131844   6.228   5.953   5.127
10315SOL    HW231845   6.324   6.074   5.075
10316SOL     OW31846   0.170   3.266   4.708
10316SOL    HW131847   0.135   3.226   4.623
10316SOL    HW231848   0.094   3.286   4.769
10317SOL     OW31849   3.809   4.716   5.755
10317SOL    HW131850   3.723   4.737   5.802
10317SOL    HW231851   3.844   4.799   5.711
10318SOL     OW31852   6.017   5.471   1.768
10318SOL    HW131853   6.078   5.408   1.720
10318SOL    HW231854   5.958   5.419   1.830
10319SOL     OW31855   0.485   4.907   4.579
10319SOL    HW131856   0.485   4.811   4.551
10319SOL    HW231857   0.559   4.956   4.531
10320SOL     OW31858   0.991   0.411   0.690
10320SOL    HW131859   0.909   0.354   0.689
10320SOL    HW231860   0.988   0.473   0.768
10321SOL     OW31861   3.760   6.265   4.829
10321SOL    HW131862   3.764   6.191   4.897
10321SOL    HW231863   3.850   6.276   4.787
10322SOL     OW31864   6.703   6.249   0.557
10322SOL    HW131865   6.691   6.150   0.550
10322SOL    HW231866   6.799   6.272   0.546
10323SOL     OW31867   6.967   3.494   6.573
10323SOL    HW131868   6.960   3.399   6.542
10323SOL    HW231869   6.998   3.497   6.668
10324SOL     OW31870   3.469   3.286   3.136
10324SOL    HW131871   3.459   3.241   3.224
10324SOL    HW231872   3.404   3.361   3.129
10325SOL     OW31873   6.545   4.146   3.819
10325SOL    HW131874   6.447   4.126   3.809
10325SOL    HW231875   6.567   4.230   3.770
10326SOL     OW31876   5.051   2.605   0.117
10326SOL    HW131877   5.034   2.536   0.046
10326SOL    HW231878   5.095   2.562   0.196
10327SOL     OW31879   2.262   1.214   2.573
10327SOL    HW131880   2.259   1.312   2.556
10327SOL    HW231881   2.245   1.196   2.670
10328SOL     OW31882   5.745   3.506   2.236
10328SOL    HW131883   5.839   3.510   2.271
10328SOL    HW231884   5.682   3.486   2.312
10329SOL     OW31885   2.762   0.598   4.231
10329SOL    HW131886   2.817   0.681   4.216
10329SOL    HW231887   2.813   0.519   4.196
10330SOL     OW31888   3.449   4.925   3.278
10330SOL    HW131889   3.546   4.903   3.289
10330SOL    HW231890   3.429   5.013   3.321
10331SOL     OW31891   5.734   0.820   3.368
10331SOL    HW131892   5.787   0.898   3.335
10331SOL    HW231893   5.636   0.839   3.355
10332SOL     OW31894   7.006   1.950   0.627
10332SOL    HW131895   6.973   1.919   0.716
10332SOL    HW231896   6.937   1.931   0.558
10333SOL     OW31897   5.518   4.732   4.184
10333SOL    HW131898   5.512   4.646   4.235
10333SOL    HW231899   5.434   4.747   4.132
10334SOL     OW31900   1.926   5.123   3.788
10334SOL    HW131901   1.954   5.063   3.863
10334SOL    HW231902   1.946   5.078   3.700
10335SOL     OW31903   2.173   5.090   6.772
10335SOL    HW131904   2.183   4.998   6.811
10335SOL    HW231905   2.128   5.083   6.683
10336SOL     OW31906   4.541   6.692   2.114
10336SOL    HW131907   4.619   6.754   2.105
10336SOL    HW231908   4.559   6.609   2.061
10337SOL     OW31909   0.276   5.080   4.973
10337SOL    HW131910   0.359   5.033   5.003
10337SOL    HW231911   0.266   5.071   4.874
10338SOL     OW31912   3.522   6.888   1.242
10338SOL    HW131913   3.443   6.923   1.293
10338SOL    HW231914   3.587   6.847   1.305
10339SOL     OW31915   3.968   5.732   1.150
10339SOL    HW131916   3.876   5.765   1.171
10339SOL    HW231917   3.980   5.640   1.185
10340SOL     OW31918   2.288   5.432   6.769
10340SOL    HW131919   2.357   5.381   6.718
10340SOL    HW231920   2.216   5.464   6.708
10341SOL     OW31921   2.505   2.466   2.357
10341SOL    HW131922   2.573   2.407   2.401
10341SOL    HW231923   2.520   2.465   2.258
10342SOL     OW31924   1.882   6.368   6.511
10342SOL    HW131925   1.803   6.362   6.450
10342SOL    HW231926   1.865   6.312   6.593
10343SOL     OW31927   1.933   4.438   6.649
10343SOL    HW131928   2.030   4.423   6.670
10343SOL    HW231929   1.877   4.384   6.712
10344SOL     OW31930   4.154   3.493   4.781
10344SOL    HW131931   4.235   3.477   4.726
10344SOL    HW231932   4.135   3.591   4.785
10345SOL     OW31933   2.566   1.298   7.012
10345SOL    HW131934   2.485   1.284   0.050
10345SOL    HW231935   2.648   1.300   0.051
10346SOL     OW31936   5.197   0.147   0.245
10346SOL    HW131937   5.289   0.128   0.211
10346SOL    HW231938   5.188   0.114   0.339
10347SOL     OW31939   5.249   1.692   0.806
10347SOL    HW131940   5.318   1.620   0.809
10347SOL    HW231941   5.288   1.777   0.842
10348SOL     OW31942   6.076   0.935   6.274
10348SOL    HW131943   6.080   1.001   6.199
10348SOL    HW231944   6.168   0.919   6.310
10349SOL     OW31945   5.946   0.806   0.792
10349SOL    HW131946   6.005   0.862   0.849
10349SOL    HW231947   5.851   0.822   0.816
10350SOL     OW31948   3.754   5.921   4.190
10350SOL    HW131949   3.848   5.892   4.175
10350SOL    HW231950   3.708   5.931   4.102
10351SOL     OW31951   6.436   4.878   5.143
10351SOL    HW131952   6.502   4.834   5.204
10351SOL    HW231953   6.369   4.928   5.197
10352SOL     OW31954   5.693   2.008   6.798
10352SOL    HW131955   5.704   2.107   6.788
10352SOL    HW231956   5.602   1.988   6.834
10353SOL     OW31957   7.009   3.342   3.448
10353SOL    HW131958   7.001   3.245   3.470
10353SOL    HW231959   6.929   3.371   3.394
10354SOL     OW31960   0.632   4.070   0.890
10354SOL    HW131961   0.552   4.046   0.835
10354SOL    HW231962   0.703   4.001   0.877
10355SOL     OW31963   1.202   1.890   1.247
10355SOL    HW131964   1.299   1.868   1.235
10355SOL    HW231965   1.152   1.868   1.163
10356SOL     OW31966   0.621   2.916   6.537
10356SOL    HW131967   0.625   2.835   6.595
10356SOL    HW231968   0.645   2.997   6.590
10357SOL     OW31969   1.884   2.244   6.381
10357SOL    HW131970   1.976   2.210   6.397
10357SOL    HW231971   1.855   2.300   6.459
10358SOL     OW31972   1.673   2.783   2.538
10358SOL    HW131973   1.665   2.878   2.568
10358SOL    HW231974   1.768   2.764   2.511
10359SOL     OW31975   4.873   2.610   2.452
10359SOL    HW131976   4.847   2.650   2.364
10359SOL    HW231977   4.793   2.606   2.511
10360SOL     OW31978   5.317   5.231   3.191
10360SOL    HW131979   5.369   5.172   3.253
10360SOL    HW231980   5.229   5.188   3.171
10361SOL     OW31981   1.970   1.738   1.680
10361SOL    HW131982   2.052   1.701   1.724
10361SOL    HW231983   1.889   1.690   1.715
10362SOL     OW31984   0.414   5.320   2.026
10362SOL    HW131985   0.380   5.274   2.108
10362SOL    HW231986   0.497   5.274   1.994
10363SOL     OW31987   4.469   3.180   0.222
10363SOL    HW131988   4.477   3.279   0.235
10363SOL    HW231989   4.539   3.134   0.276
10364SOL     OW31990   5.113   5.115   0.948
10364SOL    HW131991   5.073   5.024   0.962
10364SOL    HW231992   5.212   5.107   0.942
10365SOL     OW31993   6.048   5.262   0.237
10365SOL    HW131994   6.031   5.334   0.170
10365SOL    HW231995   6.032   5.173   0.194
10366SOL     OW31996   4.335   6.772   3.202
10366SOL    HW131997   4.321   6.738   3.295
10366SOL    HW231998   4.366   6.868   3.206
10367SOL     OW31999   6.547   1.980   1.936
10367SOL    HW132000   6.564   1.894   1.889
10367SOL    HW232001   6.556   1.966   2.035
10368SOL     OW32002   2.721   0.898   1.937
10368SOL    HW132003   2.767   0.816   1.904
10368SOL    HW232004   2.665   0.876   2.016
10369SOL     OW32005   3.056   6.605   5.750
10369SOL    HW132006   2.973   6.596   5.805
10369SOL    HW232007   3.041   6.675   5.680
10370SOL     OW32008   6.265   1.433   4.179
10370SOL    HW132009   6.234   1.497   4.109
10370SOL    HW232010   6.244   1.340   4.151
10371SOL     OW32011   3.512   6.472   3.030
10371SOL    HW132012   3.570   6.459   2.949
10371SOL    HW232013   3.459   6.556   3.019
10372SOL     OW32014   2.886   0.605   1.563
10372SOL    HW132015   2.805   0.622   1.507
10372SOL    HW232016   2.904   0.507   1.567
10373SOL     OW32017   0.365   0.043   4.575
10373SOL    HW132018   0.357   0.052   4.675
10373SOL    HW232019   0.459   0.061   4.547
10374SOL     OW32020   2.699   6.570   4.254
10374SOL    HW132021   2.768   6.600   4.320
10374SOL    HW232022   2.649   6.492   4.291
10375SOL     OW32023   2.941   2.420   6.102
10375SOL    HW132024   2.996   2.477   6.162
10375SOL    HW232025   2.912   2.338   6.151
10376SOL     OW32026   1.553   6.240   3.387
10376SOL    HW132027   1.592   6.183   3.459
10376SOL    HW232028   1.612   6.319   3.370
10377SOL     OW32029   0.063   2.026   1.993
10377SOL    HW132030   0.057   1.938   1.946
10377SOL    HW232031   0.050   2.100   1.926
10378SOL     OW32032   0.420   5.856   5.552
10378SOL    HW132033   0.433   5.780   5.488
10378SOL    HW232034   0.367   5.824   5.630
10379SOL     OW32035   2.760   6.023   4.545
10379SOL    HW132036   2.854   5.993   4.563
10379SOL    HW232037   2.747   6.031   4.446
10380SOL     OW32038   1.218   1.819   4.795
10380SOL    HW132039   1.193   1.822   4.891
10380SOL    HW232040   1.199   1.908   4.752
10381SOL     OW32041   4.064   4.160   1.113
10381SOL    HW132042   4.041   4.064   1.131
10381SOL    HW232043   4.164   4.171   1.113
10382SOL     OW32044   2.489   5.753   2.001
10382SOL    HW132045   2.527   5.812   2.072
10382SOL    HW232046   2.419   5.802   1.950
10383SOL     OW32047   2.020   4.049   0.258
10383SOL    HW132048   2.009   4.042   0.159
10383SOL    HW232049   2.067   3.968   0.292
10384SOL     OW32050   6.210   6.404   0.886
10384SOL    HW132051   6.228   6.492   0.930
10384SOL    HW232052   6.290   6.345   0.897
10385SOL     OW32053   3.524   5.268   6.084
10385SOL    HW132054   3.489   5.180   6.054
10385SOL    HW232055   3.532   5.269   6.184
10386SOL     OW32056   0.140   0.703   5.899
10386SOL    HW132057   0.160   0.693   5.801
10386SOL    HW232058   0.067   0.769   5.912
10387SOL     OW32059   5.348   3.006   3.539
10387SOL    HW132060   5.353   3.088   3.482
10387SOL    HW232061   5.363   2.925   3.482
10388SOL     OW32062   2.767   0.377   0.242
10388SOL    HW132063   2.840   0.416   0.297
10388SOL    HW232064   2.795   0.373   0.146
10389SOL     OW32065   6.475   3.796   0.349
10389SOL    HW132066   6.549   3.769   0.287
10389SOL    HW232067   6.487   3.891   0.377
10390SOL     OW32068   1.861   2.370   0.301
10390SOL    HW132069   1.943   2.318   0.325
10390SOL    HW232070   1.839   2.433   0.376
10391SOL     OW32071   1.497   6.352   3.770
10391SOL    HW132072   1.524   6.259   3.749
10391SOL    HW232073   1.577   6.412   3.768
10392SOL     OW32074   5.729   4.980   5.671
10392SOL    HW132075   5.775   4.927   5.742
10392SOL    HW232076   5.781   4.976   5.587
10393SOL     OW32077   1.877   3.783   3.777
10393SOL    HW132078   1.977   3.775   3.786
10393SOL    HW232079   1.850   3.877   3.797
10394SOL     OW32080   2.681   5.658   4.492
10394SOL    HW132081   2.649   5.709   4.413
10394SOL    HW232082   2.778   5.636   4.481
10395SOL     OW32083   0.222   6.397   1.561
10395SOL    HW132084   0.261   6.486   1.584
10395SOL    HW232085   0.290   6.325   1.579
10396SOL     OW32086   4.382   1.637   3.978
10396SOL    HW132087   4.473   1.659   4.013
10396SOL    HW232088   4.373   1.538   3.969
10397SOL     OW32089   3.092   2.124   3.187
10397SOL    HW132090   3.167   2.121   3.252
10397SOL    HW232091   3.032   2.201   3.208
10398SOL     OW32092   5.495   2.233   0.732
10398SOL    HW132093   5.462   2.281   0.814
10398SOL    HW232094   5.573   2.176   0.756
10399SOL     OW32095   5.195   2.261   3.666
10399SOL    HW132096   5.243   2.177   3.641
10399SOL    HW232097   5.115   2.272   3.606
10400SOL     OW32098   4.444   6.543   0.330
10400SOL    HW132099   4.440   6.625   0.387
10400SOL    HW232100   4.421   6.463   0.386
10401SOL     OW32101   6.367   0.101   3.273
10401SOL    HW132102   6.356   0.103   3.174
10401SOL    HW232103   6.279   0.080   3.316
10402SOL     OW32104   6.291   3.003   5.411
10402SOL    HW132105   6.304   3.078   5.347
10402SOL    HW232106   6.229   2.935   5.371
10403SOL     OW32107   5.029   1.393   3.771
10403SOL    HW132108   4.948   1.425   3.819
10403SOL    HW232109   5.060   1.464   3.707
10404SOL     OW32110   6.241   6.791   5.400
10404SOL    HW132111   6.204   6.882   5.416
10404SOL    HW232112   6.192   6.748   5.325
10405SOL     OW32113   0.905   0.821   5.117
10405SOL    HW132114   0.842   0.767   5.062
10405SOL    HW232115   0.991   0.835   5.067
10406SOL     OW32116   2.800   4.821   3.052
10406SOL    HW132117   2.841   4.768   2.978
10406SOL    HW232118   2.849   4.803   3.138
10407SOL     OW32119   2.843   6.547   5.904
10407SOL    HW132120   2.755   6.549   5.855
10407SOL    HW232121   2.840   6.478   5.976
10408SOL     OW32122   4.435   0.309   1.690
10408SOL    HW132123   4.402   0.397   1.656
10408SOL    HW232124   4.469   0.319   1.783
10409SOL     OW32125   0.026   4.790   0.806
10409SOL    HW132126   0.121   4.801   0.837
10409SOL    HW232127   0.015   4.702   0.761
10410SOL     OW32128   5.622   1.995   1.309
10410SOL    HW132129   5.596   2.048   1.389
10410SOL    HW232130   5.688   1.924   1.336
10411SOL     OW32131   3.418   6.855   3.559
10411SOL    HW132132   3.392   6.807   3.475
10411SOL    HW232133   3.388   6.950   3.553
10412SOL     OW32134   0.373   1.251   0.279
10412SOL    HW132135   0.313   1.269   0.201
10412SOL    HW232136   0.358   1.158   0.312
10413SOL     OW32137   6.541   2.792   0.586
10413SOL    HW132138   6.468   2.725   0.579
10413SOL    HW232139   6.547   2.825   0.681
10414SOL     OW32140   3.931   4.156   5.772
10414SOL    HW132141   3.866   4.095   5.726
10414SOL    HW232142   3.881   4.229   5.819
10415SOL     OW32143   1.593   3.449   4.335
10415SOL    HW132144   1.645   3.419   4.415
10415SOL    HW232145   1.636   3.530   4.296
10416SOL     OW32146   5.978   0.016   4.703
10416SOL    HW132147   5.989   0.002   4.801
10416SOL    HW232148   5.943   0.107   4.685
10417SOL     OW32149   3.007   5.593   4.440
10417SOL    HW132150   3.061   5.645   4.506
10417SOL    HW232151   3.068   5.535   4.385
10418SOL     OW32152   6.892   4.426   6.709
10418SOL    HW132153   6.865   4.364   6.635
10418SOL    HW232154   6.973   4.477   6.682
10419SOL     OW32155   1.624   0.118   6.132
10419SOL    HW132156   1.620   0.018   6.143
10419SOL    HW232157   1.583   0.161   6.212
10420SOL     OW32158   6.889   3.698   3.312
10420SOL    HW132159   6.841   3.746   3.238
10420SOL    HW232160   6.855   3.604   3.318
10421SOL     OW32161   0.382   1.708   3.634
10421SOL    HW132162   0.467   1.720   3.684
10421SOL    HW232163   0.390   1.752   3.544
10422SOL     OW32164   6.916   3.173   5.644
10422SOL    HW132165   6.972   3.253   5.664
10422SOL    HW232166   6.974   3.096   5.617
10423SOL     OW32167   6.179   5.328   4.876
10423SOL    HW132168   6.082   5.305   4.875
10423SOL    HW232169   6.189   5.427   4.873
10424SOL     OW32170   5.591   3.084   0.896
10424SOL    HW132171   5.607   3.029   0.814
10424SOL    HW232172   5.549   3.027   0.966
10425SOL     OW32173   0.870   0.303   1.819
10425SOL    HW132174   0.926   0.284   1.899
10425SOL    HW232175   0.774   0.294   1.842
10426SOL     OW32176   6.583   4.787   0.407
10426SOL    HW132177   6.518   4.847   0.454
10426SOL    HW232178   6.544   4.754   0.322
10427SOL     OW32179   3.791   0.455   6.160
10427SOL    HW132180   3.861   0.488   6.222
10427SOL    HW232181   3.733   0.532   6.132
10428SOL     OW32182   3.210   0.928   3.867
10428SOL    HW132183   3.154   0.905   3.788
10428SOL    HW232184   3.297   0.880   3.861
10429SOL     OW32185   0.195   5.218   0.720
10429SOL    HW132186   0.115   5.157   0.724
10429SOL    HW232187   0.167   5.311   0.745
10430SOL     OW32188   5.102   6.546   4.220
10430SOL    HW132189   5.128   6.519   4.313
10430SOL    HW232190   5.155   6.626   4.192
10431SOL     OW32191   3.398   6.104   4.077
10431SOL    HW132192   3.478   6.043   4.069
10431SOL    HW232193   3.315   6.052   4.058
10432SOL     OW32194   6.076   6.726   5.174
10432SOL    HW132195   6.072   6.696   5.079
10432SOL    HW232196   5.998   6.785   5.194
10433SOL     OW32197   1.983   6.294   1.132
10433SOL    HW132198   2.054   6.226   1.116
10433SOL    HW232199   2.013   6.383   1.098
10434SOL     OW32200   4.187   6.592   3.406
10434SOL    HW132201   4.241   6.539   3.341
10434SOL    HW232202   4.094   6.556   3.410
10435SOL     OW32203   0.333   0.239   4.393
10435SOL    HW132204   0.241   0.274   4.409
10435SOL    HW232205   0.349   0.159   4.451
10436SOL     OW32206   0.661   5.193   6.192
10436SOL    HW132207   0.642   5.254   6.116
10436SOL    HW232208   0.725   5.122   6.163
10437SOL     OW32209   5.647   5.333   6.094
10437SOL    HW132210   5.657   5.431   6.076
10437SOL    HW232211   5.659   5.282   6.009
10438SOL     OW32212   6.066   6.514   0.660
10438SOL    HW132213   5.990   6.547   0.717
10438SOL    HW232214   6.137   6.476   0.718
10439SOL     OW32215   3.834   1.129   5.778
10439SOL    HW132216   3.819   1.145   5.680
10439SOL    HW232217   3.867   1.036   5.792
10440SOL     OW32218   0.924   6.548   0.614
10440SOL    HW132219   0.918   6.620   0.545
10440SOL    HW232220   0.913   6.459   0.570
10441SOL     OW32221   4.104   0.562   0.733
10441SOL    HW132222   4.084   0.539   0.828
10441SOL    HW232223   4.170   0.496   0.696
10442SOL     OW32224   3.233   6.250   6.198
10442SOL    HW132225   3.150   6.283   6.153
10442SOL    HW232226   3.305   6.319   6.189
10443SOL     OW32227   5.215   3.943   4.725
10443SOL    HW132228   5.213   4.038   4.756
10443SOL    HW232229   5.187   3.940   4.628
10444SOL     OW32230   3.931   6.150   4.374
10444SOL    HW132231   3.977   6.133   4.461
10444SOL    HW232232   3.937   6.068   4.317
10445SOL     OW32233   1.018   5.430   4.419
10445SOL    HW132234   1.109   5.468   4.406
10445SOL    HW232235   1.025   5.335   4.449
10446SOL     OW32236   1.169   2.830   5.430
10446SOL    HW132237   1.101   2.762   5.401
10446SOL    HW232238   1.136   2.922   5.405
10447SOL     OW32239   6.672   0.849   2.149
10447SOL    HW132240   6.749   0.789   2.129
10447SOL    HW232241   6.705   0.942   2.167
10448SOL     OW32242   3.725   1.553   1.574
10448SOL    HW132243   3.791   1.627   1.578
10448SOL    HW232244   3.729   1.499   1.658
10449SOL     OW32245   1.972   5.281   4.619
10449SOL    HW132246   1.922   5.234   4.547
10449SOL    HW232247   1.958   5.380   4.610
10450SOL     OW32248   0.286   1.873   0.572
10450SOL    HW132249   0.198   1.906   0.605
10450SOL    HW232250   0.272   1.794   0.512
10451SOL     OW32251   1.774   5.089   2.531
10451SOL    HW132252   1.774   5.014   2.598
10451SOL    HW232253   1.830   5.164   2.565
10452SOL     OW32254   5.707   3.486   3.227
10452SOL    HW132255   5.757   3.559   3.180
10452SOL    HW232256   5.727   3.489   3.325
10453SOL     OW32257   4.451   5.490   1.614
10453SOL    HW132258   4.445   5.428   1.692
10453SOL    HW232259   4.542   5.482   1.573
10454SOL     OW32260   4.622   3.067   1.089
10454SOL    HW132261   4.595   2.979   1.128
10454SOL    HW232262   4.546   3.105   1.036
10455SOL     OW32263   6.836   5.279   2.112
10455SOL    HW132264   6.915   5.326   2.152
10455SOL    HW232265   6.852   5.180   2.112
10456SOL     OW32266   2.790   6.368   1.070
10456SOL    HW132267   2.830   6.371   0.979
10456SOL    HW232268   2.845   6.308   1.129
10457SOL     OW32269   3.366   3.247   2.548
10457SOL    HW132270   3.434   3.241   2.621
10457SOL    HW232271   3.320   3.159   2.538
10458SOL     OW32272   0.270   1.139   6.094
10458SOL    HW132273   0.213   1.094   6.163
10458SOL    HW232274   0.251   1.098   6.005
10459SOL     OW32275   4.864   5.139   2.469
10459SOL    HW132276   4.812   5.216   2.507
10459SOL    HW232277   4.961   5.150   2.494
10460SOL     OW32278   1.611   5.302   1.622
10460SOL    HW132279   1.543   5.269   1.557
10460SOL    HW232280   1.588   5.270   1.714
10461SOL     OW32281   1.236   5.673   5.551
10461SOL    HW132282   1.153   5.684   5.496
10461SOL    HW232283   1.217   5.608   5.626
10462SOL     OW32284   5.981   1.740   2.867
10462SOL    HW132285   5.975   1.640   2.857
10462SOL    HW232286   5.946   1.783   2.784
10463SOL     OW32287   4.078   3.028   5.689
10463SOL    HW132288   4.129   3.075   5.761
10463SOL    HW232289   4.092   3.075   5.602
10464SOL     OW32290   5.988   6.364   1.053
10464SOL    HW132291   6.065   6.342   0.994
10464SOL    HW232292   5.922   6.289   1.050
10465SOL     OW32293   5.893   6.570   0.859
10465SOL    HW132294   5.939   6.505   0.920
10465SOL    HW232295   5.912   6.663   0.889
10466SOL     OW32296   4.656   4.975   5.116
10466SOL    HW132297   4.623   5.000   5.207
10466SOL    HW232298   4.743   5.021   5.098
10467SOL     OW32299   1.065   1.978   5.572
10467SOL    HW132300   1.125   2.020   5.502
10467SOL    HW232301   0.996   1.922   5.527
10468SOL     OW32302   3.691   4.871   3.346
10468SOL    HW132303   3.724   4.786   3.389
10468SOL    HW232304   3.753   4.897   3.273
10469SOL     OW32305   3.669   2.403   6.673
10469SOL    HW132306   3.594   2.417   6.608
10469SOL    HW232307   3.745   2.463   6.649
10470SOL     OW32308   2.560   1.807   3.191
10470SOL    HW132309   2.585   1.889   3.139
10470SOL    HW232310   2.494   1.831   3.262
10471SOL     OW32311   2.193   3.153   1.035
10471SOL    HW132312   2.229   3.200   0.954
10471SOL    HW232313   2.251   3.174   1.114
10472SOL     OW32314   3.248   5.597   0.957
10472SOL    HW132315   3.332   5.542   0.955
10472SOL    HW232316   3.217   5.607   1.052
10473SOL     OW32317   5.718   0.422   0.543
10473SOL    HW132318   5.756   0.515   0.543
10473SOL    HW232319   5.781   0.361   0.495
10474SOL     OW32320   4.251   1.456   4.682
10474SOL    HW132321   4.202   1.374   4.653
10474SOL    HW232322   4.335   1.430   4.730
10475SOL     OW32323   4.442   6.304   2.206
10475SOL    HW132324   4.345   6.286   2.224
10475SOL    HW232325   4.467   6.265   2.117
10476SOL     OW32326   0.012   5.628   6.191
10476SOL    HW132327   0.087   5.569   6.223
10476SOL    HW232328   6.952   5.616   6.250
10477SOL     OW32329   6.380   2.407   4.766
10477SOL    HW132330   6.436   2.480   4.804
10477SOL    HW232331   6.373   2.332   4.832
10478SOL     OW32332   0.106   0.138   0.949
10478SOL    HW132333   0.204   0.157   0.944
10478SOL    HW232334   0.087   0.082   1.030
10479SOL     OW32335   6.873   2.806   1.809
10479SOL    HW132336   6.956   2.761   1.841
10479SOL    HW232337   6.897   2.890   1.761
10480SOL     OW32338   5.789   0.235   1.241
10480SOL    HW132339   5.725   0.158   1.242
10480SOL    HW232340   5.746   0.315   1.282
10481SOL     OW32341   2.336   0.771   5.309
10481SOL    HW132342   2.320   0.863   5.274
10481SOL    HW232343   2.256   0.714   5.291
10482SOL     OW32344   0.848   5.963   4.780
10482SOL    HW132345   0.834   6.061   4.768
10482SOL    HW232346   0.918   5.931   4.716
10483SOL     OW32347   0.041   5.278   0.210
10483SOL    HW132348   0.049   5.231   0.122
10483SOL    HW232349   6.965   5.302   0.226
10484SOL     OW32350   6.905   0.688   1.119
10484SOL    HW132351   6.918   0.786   1.132
10484SOL    HW232352   6.810   0.669   1.095
10485SOL     OW32353   3.225   3.018   2.471
10485SOL    HW132354   3.172   3.042   2.391
10485SOL    HW232355   3.295   2.950   2.446
10486SOL     OW32356   6.612   0.696   5.859
10486SOL    HW132357   6.689   0.759   5.861
10486SOL    HW232358   6.584   0.680   5.764
10487SOL     OW32359   4.390   2.012   1.428
10487SOL    HW132360   4.352   1.962   1.350
10487SOL    HW232361   4.420   1.947   1.498
10488SOL     OW32362   1.977   1.932   6.273
10488SOL    HW132363   2.042   1.894   6.207
10488SOL    HW232364   1.925   2.005   6.230
10489SOL     OW32365   6.125   6.089   4.298
10489SOL    HW132366   6.061   6.165   4.307
10489SOL    HW232367   6.193   6.093   4.371
10490SOL     OW32368   5.940   0.938   0.538
10490SOL    HW132369   5.878   1.017   0.533
10490SOL    HW232370   5.950   0.910   0.634
10491SOL     OW32371   2.214   2.846   6.196
10491SOL    HW132372   2.184   2.857   6.291
10491SOL    HW232373   2.189   2.928   6.144
10492SOL     OW32374   4.053   5.859   0.575
10492SOL    HW132375   3.977   5.907   0.530
10492SOL    HW232376   4.029   5.762   0.586
10493SOL     OW32377   2.914   5.633   1.049
10493SOL    HW132378   2.992   5.577   1.078
10493SOL    HW232379   2.836   5.574   1.029
10494SOL     OW32380   6.936   4.356   5.588
10494SOL    HW132381   6.903   4.424   5.522
10494SOL    HW232382   6.917   4.264   5.554
10495SOL     OW32383   6.223   6.683   0.519
10495SOL    HW132384   6.163   6.617   0.564
10495SOL    HW232385   6.232   6.660   0.423
10496SOL     OW32386   6.542   4.443   4.948
10496SOL    HW132387   6.580   4.488   4.867
10496SOL    HW232388   6.442   4.447   4.945
10497SOL     OW32389   1.469   6.449   2.261
10497SOL    HW132390   1.424   6.361   2.246
10497SOL    HW232391   1.402   6.523   2.251
10498SOL     OW32392   5.507   6.214   1.058
10498SOL    HW132393   5.551   6.131   1.093
10498SOL    HW232394   5.420   6.189   1.015
10499SOL     OW32395   4.966   6.447   1.369
10499SOL    HW132396   5.044   6.464   1.309
10499SOL    HW232397   4.966   6.514   1.444
10500SOL     OW32398   5.661   2.144   5.543
10500SOL    HW132399   5.745   2.104   5.579
10500SOL    HW232400   5.680   2.236   5.508
10501SOL     OW32401   2.394   6.091   2.846
10501SOL    HW132402   2.402   6.156   2.922
10501SOL    HW232403   2.374   6.000   2.881
10502SOL     OW32404   2.426   3.945   1.073
10502SOL    HW132405   2.404   3.873   1.139
10502SOL    HW232406   2.499   3.913   1.012
10503SOL     OW32407   6.091   4.218   0.183
10503SOL    HW132408   6.110   4.172   0.269
10503SOL    HW232409   6.074   4.150   0.112
10504SOL     OW32410   0.413   2.188   5.542
10504SOL    HW132411   0.385   2.256   5.610
10504SOL    HW232412   0.510   2.167   5.556
10505SOL     OW32413   5.240   6.364   1.888
10505SOL    HW132414   5.335   6.369   1.857
10505SOL    HW232415   5.189   6.442   1.851
10506SOL     OW32416   0.489   3.460   0.486
10506SOL    HW132417   0.530   3.538   0.533
10506SOL    HW232418   0.440   3.404   0.552
10507SOL     OW32419   1.766   5.489   6.800
10507SOL    HW132420   1.771   5.565   6.865
10507SOL    HW232421   1.816   5.513   6.717
10508SOL     OW32422   1.182   5.995   4.252
10508SOL    HW132423   1.150   5.930   4.320
10508SOL    HW232424   1.160   5.961   4.160
10509SOL     OW32425   6.038   4.264   4.681
10509SOL    HW132426   6.099   4.258   4.602
10509SOL    HW232427   5.957   4.318   4.656
10510SOL     OW32428   4.713   6.558   0.212
10510SOL    HW132429   4.616   6.562   0.239
10510SOL    HW232430   4.720   6.569   0.113
10511SOL     OW32431   2.853   1.376   2.009
10511SOL    HW132432   2.791   1.414   2.077
10511SOL    HW232433   2.946   1.373   2.046
10512SOL     OW32434   3.941   6.517   6.125
10512SOL    HW132435   3.909   6.564   6.207
10512SOL    HW232436   3.939   6.580   6.047
10513SOL     OW32437   6.610   2.829   3.173
10513SOL    HW132438   6.601   2.796   3.080
10513SOL    HW232439   6.652   2.920   3.172
10514SOL     OW32440   1.484   1.948   1.742
10514SOL    HW132441   1.493   1.919   1.647
10514SOL    HW232442   1.525   2.038   1.753
10515SOL     OW32443   2.413   2.677   3.997
10515SOL    HW132444   2.370   2.745   4.056
10515SOL    HW232445   2.407   2.708   3.902
10516SOL     OW32446   2.712   1.871   0.417
10516SOL    HW132447   2.749   1.952   0.371
10516SOL    HW232448   2.777   1.796   0.410
10517SOL     OW32449   1.410   4.225   1.222
10517SOL    HW132450   1.392   4.181   1.134
10517SOL    HW232451   1.332   4.282   1.247
10518SOL     OW32452   0.254   5.570   1.839
10518SOL    HW132453   0.330   5.527   1.888
10518SOL    HW232454   0.199   5.624   1.902
10519SOL     OW32455   2.653   4.760   1.076
10519SOL    HW132456   2.651   4.839   1.015
10519SOL    HW232457   2.742   4.757   1.123
10520SOL     OW32458   6.751   2.085   6.293
10520SOL    HW132459   6.760   2.180   6.320
10520SOL    HW232460   6.800   2.027   6.358
10521SOL     OW32461   6.472   5.186   1.401
10521SOL    HW132462   6.553   5.242   1.381
10521SOL    HW232463   6.412   5.186   1.321
10522SOL     OW32464   0.405   2.840   3.149
10522SOL    HW132465   0.429   2.916   3.209
10522SOL    HW232466   0.484   2.814   3.094
10523SOL     OW32467   0.219   4.595   3.020
10523SOL    HW132468   0.150   4.523   3.019
10523SOL    HW232469   0.205   4.655   2.941
10524SOL     OW32470   0.817   5.385   4.065
10524SOL    HW132471   0.869   5.344   3.990
10524SOL    HW232472   0.755   5.454   4.028
10525SOL     OW32473   4.041   6.943   5.356
10525SOL    HW132474   4.015   6.921   5.262
10525SOL    HW232475   4.131   6.904   5.375
10526SOL     OW32476   0.461   6.640   1.537
10526SOL    HW132477   0.484   6.543   1.521
10526SOL    HW232478   0.533   6.697   1.499
10527SOL     OW32479   0.980   0.225   6.007
10527SOL    HW132480   0.931   0.266   6.084
10527SOL    HW232481   0.986   0.291   5.932
10528SOL     OW32482   0.712   4.428   6.500
10528SOL    HW132483   0.743   4.415   6.406
10528SOL    HW232484   0.789   4.457   6.557
10529SOL     OW32485   1.602   5.612   4.994
10529SOL    HW132486   1.606   5.517   5.025
10529SOL    HW232487   1.553   5.667   5.062
10530SOL     OW32488   1.055   6.245   6.031
10530SOL    HW132489   0.990   6.184   5.985
10530SOL    HW232490   1.142   6.244   5.981
10531SOL     OW32491   2.956   2.257   3.892
10531SOL    HW132492   3.021   2.208   3.834
10531SOL    HW232493   2.865   2.252   3.851
10532SOL     OW32494   6.369   6.610   6.832
10532SOL    HW132495   6.306   6.676   6.872
10532SOL    HW232496   6.463   6.644   6.839
10533SOL     OW32497   3.054   6.070   4.574
10533SOL    HW132498   3.151   6.080   4.598
10533SOL    HW232499   3.045   6.063   4.475
10534SOL     OW32500   0.028   5.454   2.152
10534SOL    HW132501   6.975   5.518   2.126
10534SOL    HW232502   0.089   5.497   2.218
10535SOL     OW32503   1.712   1.349   1.765
10535SOL    HW132504   1.650   1.427   1.766
10535SOL    HW232505   1.678   1.279   1.702
10536SOL     OW32506   4.327   6.980   4.175
10536SOL    HW132507   4.233   6.950   4.162
10536SOL    HW232508   4.378   6.971   4.089
10537SOL     OW32509   4.952   6.375   3.819
10537SOL    HW132510   5.037   6.396   3.868
10537SOL    HW232511   4.925   6.281   3.838
10538SOL     OW32512   5.711   4.013   2.472
10538SOL    HW132513   5.761   3.994   2.557
10538SOL    HW232514   5.628   4.065   2.494
10539SOL     OW32515   5.706   5.486   1.212
10539SOL    HW132516   5.641   5.561   1.227
10539SOL    HW232517   5.799   5.519   1.227
10540SOL     OW32518   2.290   4.211   6.024
10540SOL    HW132519   2.269   4.137   6.088
10540SOL    HW232520   2.261   4.185   5.932
10541SOL     OW32521   3.697   2.924   3.737
10541SOL    HW132522   3.692   2.974   3.651
10541SOL    HW232523   3.655   2.834   3.726
10542SOL     OW32524   6.831   6.963   5.028
10542SOL    HW132525   6.805   0.007   5.101
10542SOL    HW232526   6.749   6.934   4.979
10543SOL     OW32527   0.575   1.837   4.465
10543SOL    HW132528   0.654   1.879   4.509
10543SOL    HW232529   0.510   1.806   4.534
10544SOL     OW32530   2.185   6.389   3.206
10544SOL    HW132531   2.200   6.405   3.304
10544SOL    HW232532   2.103   6.334   3.194
10545SOL     OW32533   1.309   2.620   1.677
10545SOL    HW132534   1.251   2.697   1.652
10545SOL    HW232535   1.255   2.552   1.727
10546SOL     OW32536   3.898   6.322   1.026
10546SOL    HW132537   3.850   6.262   1.090
10546SOL    HW232538   3.945   6.268   0.957
10547SOL     OW32539   4.893   1.484   4.234
10547SOL    HW132540   4.919   1.388   4.247
10547SOL    HW232541   4.799   1.497   4.265
10548SOL     OW32542   0.486   4.102   3.857
10548SOL    HW132543   0.442   4.092   3.768
10548SOL    HW232544   0.549   4.026   3.873
10549SOL     OW32545   0.541   1.201   1.058
10549SOL    HW132546   0.593   1.287   1.050
10549SOL    HW232547   0.604   1.126   1.078
10550SOL     OW32548   4.248   6.831   3.570
10550SOL    HW132549   4.347   6.824   3.580
10550SOL    HW232550   4.217   6.772   3.496
10551SOL     OW32551   2.199   1.746   6.029
10551SOL    HW132552   2.185   1.699   6.117
10551SOL    HW232553   2.231   1.680   5.961
10552SOL     OW32554   2.335   0.945   5.102
10552SOL    HW132555   2.418   0.989   5.134
10552SOL    HW232556   2.287   1.006   5.038
10553SOL     OW32557   6.988   4.528   0.708
10553SOL    HW132558   6.903   4.556   0.664
10553SOL    HW232559   0.043   4.529   0.641
10554SOL     OW32560   5.496   5.437   2.359
10554SOL    HW132561   5.583   5.396   2.388
10554SOL    HW232562   5.503   5.536   2.362
10555SOL     OW32563   2.868   2.249   0.661
10555SOL    HW132564   2.917   2.190   0.596
10555SOL    HW232565   2.933   2.284   0.729
10556SOL     OW32566   3.223   1.228   3.836
10556SOL    HW132567   3.140   1.277   3.810
10556SOL    HW232568   3.201   1.132   3.853
10557SOL     OW32569   1.777   3.085   4.148
10557SOL    HW132570   1.838   3.163   4.162
10557SOL    HW232571   1.825   3.015   4.095
10558SOL     OW32572   3.468   5.775   5.974
10558SOL    HW132573   3.561   5.746   5.991
10558SOL    HW232574   3.436   5.833   6.049
10559SOL     OW32575   3.556   0.776   0.824
10559SOL    HW132576   3.621   0.827   0.881
10559SOL    HW232577   3.581   0.787   0.728
10560SOL     OW32578   4.295   6.377   1.791
10560SOL    HW132579   4.225   6.440   1.824
10560SOL    HW232580   4.285   6.289   1.838
10561SOL     OW32581   3.689   4.453   1.694
10561SOL    HW132582   3.640   4.529   1.737
10561SOL    HW232583   3.646   4.367   1.722
10562SOL     OW32584   3.791   5.782   0.095
10562SOL    HW132585   3.708   5.741   0.058
10562SOL    HW232586   3.841   5.827   0.022
10563SOL     OW32587   0.780   0.576   1.312
10563SOL    HW132588   0.762   0.481   1.286
10563SOL    HW232589   0.878   0.589   1.323
10564SOL     OW32590   6.190   6.191   3.795
10564SOL    HW132591   6.190   6.124   3.869
10564SOL    HW232592   6.282   6.228   3.783
10565SOL     OW32593   6.546   6.865   5.878
10565SOL    HW132594   6.515   6.959   5.864
10565SOL    HW232595   6.623   6.845   5.817
10566SOL     OW32596   2.537   2.365   6.991
10566SOL    HW132597   2.562   2.306   0.049
10566SOL    HW232598   2.541   2.312   6.906
10567SOL     OW32599   2.269   2.529   5.949
10567SOL    HW132600   2.318   2.617   5.955
10567SOL    HW232601   2.333   2.458   5.917
10568SOL     OW32602   5.986   2.532   0.018
10568SOL    HW132603   6.011   2.446   0.064
10568SOL    HW232604   5.887   2.537   0.007
10569SOL     OW32605   5.456   0.958   1.327
10569SOL    HW132606   5.476   0.936   1.232
10569SOL    HW232607   5.386   0.897   1.362
10570SOL     OW32608   1.895   4.700   3.429
10570SOL    HW132609   1.926   4.608   3.406
10570SOL    HW232610   1.922   4.764   3.357
10571SOL     OW32611   0.475   3.993   5.422
10571SOL    HW132612   0.398   3.980   5.485
10571SOL    HW232613   0.457   4.070   5.361
10572SOL     OW32614   6.849   5.032   2.239
10572SOL    HW132615   6.804   5.014   2.327
10572SOL    HW232616   6.811   4.972   2.169
10573SOL     OW32617   4.947   0.785   5.010
10573SOL    HW132618   4.981   0.786   5.104
10573SOL    HW232619   4.974   0.699   4.966
10574SOL     OW32620   6.565   1.057   4.027
10574SOL    HW132621   6.548   1.081   4.122
10574SOL    HW232622   6.651   1.099   3.997
10575SOL     OW32623   6.166   1.052   3.706
10575SOL    HW132624   6.111   0.988   3.653
10575SOL    HW232625   6.247   1.006   3.742
10576SOL     OW32626   1.555   5.077   2.802
10576SOL    HW132627   1.605   5.101   2.719
10576SOL    HW232628   1.457   5.072   2.781
10577SOL     OW32629   2.087   4.929   0.489
10577SOL    HW132630   2.064   4.862   0.559
10577SOL    HW232631   2.186   4.931   0.476
10578SOL     OW32632   5.029   0.902   3.286
10578SOL    HW132633   4.997   0.826   3.342
10578SOL    HW232634   5.022   0.878   3.189
10579SOL     OW32635   3.313   2.890   1.264
10579SOL    HW132636   3.291   2.896   1.361
10579SOL    HW232637   3.229   2.886   1.210
10580SOL     OW32638   6.410   6.468   6.343
10580SOL    HW132639   6.353   6.547   6.320
10580SOL    HW232640   6.420   6.462   6.443
10581SOL     OW32641   4.939   7.006   2.898
10581SOL    HW132642   4.859   7.007   2.838
10581SOL    HW232643   4.976   0.080   2.905
10582SOL     OW32644   5.400   4.821   6.398
10582SOL    HW132645   5.360   4.813   6.490
10582SOL    HW232646   5.436   4.732   6.370
10583SOL     OW32647   4.488   0.615   4.507
10583SOL    HW132648   4.509   0.519   4.489
10583SOL    HW232649   4.391   0.625   4.525
10584SOL     OW32650   6.624   0.112   6.706
10584SOL    HW132651   6.688   0.120   6.782
10584SOL    HW232652   6.620   0.199   6.656
10585SOL     OW32653   2.097   1.968   5.756
10585SOL    HW132654   2.125   1.881   5.714
10585SOL    HW232655   2.037   1.950   5.834
10586SOL     OW32656   5.045   4.849   5.306
10586SOL    HW132657   5.125   4.817   5.356
10586SOL    HW232658   4.963   4.837   5.363
10587SOL     OW32659   0.056   5.539   6.834
10587SOL    HW132660   0.050   5.452   6.786
10587SOL    HW232661   6.998   5.547   6.898
10588SOL     OW32662   1.886   1.844   5.304
10588SOL    HW132663   1.789   1.830   5.283
10588SOL    HW232664   1.941   1.809   5.229
10589SOL     OW32665   5.469   6.945   4.255
10589SOL    HW132666   5.480   0.022   4.232
10589SOL    HW232667   5.545   6.893   4.217
10590SOL     OW32668   0.457   6.234   1.618
10590SOL    HW132669   0.495   6.213   1.709
10590SOL    HW232670   0.405   6.155   1.585
10591SOL     OW32671   2.275   1.902   1.285
10591SOL    HW132672   2.229   1.924   1.371
10591SOL    HW232673   2.207   1.901   1.211
10592SOL     OW32674   5.561   2.705   4.160
10592SOL    HW132675   5.485   2.678   4.219
10592SOL    HW232676   5.634   2.637   4.167
10593SOL     OW32677   1.583   6.370   0.636
10593SOL    HW132678   1.558   6.279   0.669
10593SOL    HW232679   1.572   6.374   0.537
10594SOL     OW32680   4.584   1.646   2.819
10594SOL    HW132681   4.506   1.585   2.804
10594SOL    HW232682   4.668   1.592   2.817
10595SOL     OW32683   6.053   0.170   6.969
10595SOL    HW132684   6.145   0.134   6.955
10595SOL    HW232685   6.014   0.196   6.881
10596SOL     OW32686   5.311   0.958   6.988
10596SOL    HW132687   5.333   0.864   7.016
10596SOL    HW232688   5.260   1.003   0.042
10597SOL     OW32689   2.049   0.324   5.343
10597SOL    HW132690   1.975   0.382   5.308
10597SOL    HW232691   2.056   0.242   5.286
10598SOL     OW32692   2.519   2.246   6.746
10598SOL    HW132693   2.504   2.322   6.682
10598SOL    HW232694   2.445   2.179   6.736
10599SOL     OW32695   6.215   4.088   6.473
10599SOL    HW132696   6.265   4.009   6.435
10599SOL    HW232697   6.127   4.096   6.427
10600SOL     OW32698   3.804   2.038   1.266
10600SOL    HW132699   3.809   2.132   1.300
10600SOL    HW232700   3.744   1.984   1.326
10601SOL     OW32701   1.082   5.171   5.575
10601SOL    HW132702   1.027   5.091   5.551
10601SOL    HW232703   1.055   5.248   5.517
10602SOL     OW32704   1.020   1.275   1.169
10602SOL    HW132705   1.089   1.260   1.239
10602SOL    HW232706   1.065   1.305   1.084
10603SOL     OW32707   4.669   6.756   3.357
10603SOL    HW132708   4.731   6.715   3.425
10603SOL    HW232709   4.718   6.768   3.271
10604SOL     OW32710   6.976   6.122   4.968
10604SOL    HW132711   6.999   6.135   5.065
10604SOL    HW232712   6.890   6.071   4.961
10605SOL     OW32713   1.827   0.118   6.691
10605SOL    HW132714   1.777   0.041   6.729
10605SOL    HW232715   1.823   0.116   6.591
10606SOL     OW32716   6.747   1.225   1.699
10606SOL    HW132717   6.799   1.140   1.697
10606SOL    HW232718   6.769   1.276   1.783
10607SOL     OW32719   4.100   4.857   0.649
10607SOL    HW132720   4.140   4.847   0.740
10607SOL    HW232721   4.145   4.794   0.586
10608SOL     OW32722   6.768   3.452   3.303
10608SOL    HW132723   6.785   3.417   3.210
10608SOL    HW232724   6.676   3.490   3.308
10609SOL     OW32725   2.365   6.967   6.823
10609SOL    HW132726   2.416   0.028   6.791
10609SOL    HW232727   2.267   6.983   6.814
10610SOL     OW32728   0.063   2.031   4.589
10610SOL    HW132729   0.010   2.067   4.511
10610SOL    HW232730   0.061   1.931   4.588
10611SOL     OW32731   2.787   5.209   5.810
10611SOL    HW132732   2.745   5.126   5.846
10611SOL    HW232733   2.876   5.186   5.769
10612SOL     OW32734   5.266   1.791   4.169
10612SOL    HW132735   5.195   1.731   4.206
10612SOL    HW232736   5.315   1.744   4.096
10613SOL     OW32737   6.004   5.726   4.984
10613SOL    HW132738   6.075   5.676   4.934
10613SOL    HW232739   5.914   5.704   4.947
10614SOL     OW32740   5.405   1.266   4.558
10614SOL    HW132741   5.333   1.289   4.623
10614SOL    HW232742   5.483   1.226   4.606
10615SOL     OW32743   3.349   1.104   5.423
10615SOL    HW132744   3.359   1.005   5.427
10615SOL    HW232745   3.377   1.144   5.510
10616SOL     OW32746   3.179   6.405   6.683
10616SOL    HW132747   3.103   6.383   6.622
10616SOL    HW232748   3.208   6.323   6.732
10617SOL     OW32749   2.356   4.377   1.552
10617SOL    HW132750   2.442   4.356   1.505
10617SOL    HW232751   2.303   4.294   1.564
10618SOL     OW32752   0.786   5.059   5.468
10618SOL    HW132753   0.739   5.016   5.545
10618SOL    HW232754   0.727   5.128   5.427
10619SOL     OW32755   0.591   2.726   3.359
10619SOL    HW132756   0.599   2.709   3.261
10619SOL    HW232757   0.515   2.788   3.377
10620SOL     OW32758   1.563   6.922   5.241
10620SOL    HW132759   1.505   6.844   5.264
10620SOL    HW232760   1.547   6.948   5.146
10621SOL     OW32761   0.057   4.420   2.090
10621SOL    HW132762   0.015   4.383   2.173
10621SOL    HW232763   0.048   4.353   2.016
10622SOL     OW32764   4.309   2.237   1.581
10622SOL    HW132765   4.389   2.296   1.589
10622SOL    HW232766   4.332   2.155   1.529
10623SOL     OW32767   6.529   5.810   5.288
10623SOL    HW132768   6.451   5.754   5.316
10623SOL    HW232769   6.509   5.853   5.200
10624SOL     OW32770   0.283   2.542   5.170
10624SOL    HW132771   0.329   2.603   5.106
10624SOL    HW232772   0.350   2.500   5.230
10625SOL     OW32773   0.753   3.965   1.584
10625SOL    HW132774   0.825   3.969   1.654
10625SOL    HW232775   0.723   3.870   1.572
10626SOL     OW32776   3.089   2.628   1.054
10626SOL    HW132777   3.142   2.556   1.099
10626SOL    HW232778   3.128   2.647   0.965
10627SOL     OW32779   6.382   1.200   6.619
10627SOL    HW132780   6.290   1.231   6.598
10627SOL    HW232781   6.431   1.272   6.667
10628SOL     OW32782   4.638   0.020   1.104
10628SOL    HW132783   4.710   7.005   1.043
10628SOL    HW232784   4.655   7.008   1.197
10629SOL     OW32785   3.136   4.941   4.589
10629SOL    HW132786   3.037   4.935   4.581
10629SOL    HW232787   3.166   4.898   4.674
10630SOL     OW32788   5.973   1.277   2.398
10630SOL    HW132789   5.953   1.367   2.438
10630SOL    HW232790   5.894   1.218   2.409
10631SOL     OW32791   3.892   4.536   5.546
10631SOL    HW132792   3.821   4.572   5.485
10631SOL    HW232793   3.869   4.557   5.641
10632SOL     OW32794   4.927   6.189   3.353
10632SOL    HW132795   4.917   6.258   3.425
10632SOL    HW232796   4.874   6.108   3.377
10633SOL     OW32797   2.401   2.495   1.442
10633SOL    HW132798   2.308   2.461   1.452
10633SOL    HW232799   2.461   2.421   1.413
10634SOL     OW32800   1.903   5.330   0.266
10634SOL    HW132801   1.985   5.273   0.262
10634SOL    HW232802   1.829   5.278   0.309
10635SOL     OW32803   2.047   3.376   6.583
10635SOL    HW132804   2.028   3.422   6.496
10635SOL    HW232805   2.022   3.280   6.577
10636SOL     OW32806   0.150   2.196   1.526
10636SOL    HW132807   0.089   2.230   1.598
10636SOL    HW232808   0.118   2.108   1.493
10637SOL     OW32809   1.249   5.393   6.380
10637SOL    HW132810   1.257   5.293   6.380
10637SOL    HW232811   1.155   5.418   6.401
10638SOL     OW32812   5.601   6.224   2.679
10638SOL    HW132813   5.517   6.206   2.730
10638SOL    HW232814   5.627   6.143   2.627
10639SOL     OW32815   1.860   3.457   2.347
10639SOL    HW132816   1.864   3.511   2.431
10639SOL    HW232817   1.913   3.503   2.275
10640SOL     OW32818   5.170   0.430   3.565
10640SOL    HW132819   5.183   0.345   3.616
10640SOL    HW232820   5.074   0.458   3.570
10641SOL     OW32821   2.148   1.649   2.963
10641SOL    HW132822   2.235   1.608   2.935
10641SOL    HW232823   2.165   1.735   3.010
10642SOL     OW32824   6.138   1.672   0.578
10642SOL    HW132825   6.081   1.725   0.516
10642SOL    HW232826   6.230   1.663   0.541
10643SOL     OW32827   2.199   6.234   5.358
10643SOL    HW132828   2.286   6.276   5.333
10643SOL    HW232829   2.131   6.254   5.288
10644SOL     OW32830   5.619   3.337   1.281
10644SOL    HW132831   5.681   3.267   1.246
10644SOL    HW232832   5.640   3.356   1.377
10645SOL     OW32833   2.177   2.392   4.293
10645SOL    HW132834   2.258   2.446   4.269
10645SOL    HW232835   2.191   2.297   4.266
10646SOL     OW32836   6.693   0.405   5.954
10646SOL    HW132837   6.785   0.439   5.972
10646SOL    HW232838   6.634   0.481   5.927
10647SOL     OW32839   3.398   5.182   5.129
10647SOL    HW132840   3.411   5.259   5.066
10647SOL    HW232841   3.448   5.103   5.096
10648SOL     OW32842   6.155   5.185   6.231
10648SOL    HW132843   6.068   5.135   6.231
10648SOL    HW232844   6.160   5.242   6.149
10649SOL     OW32845   0.951   3.489   3.040
10649SOL    HW132846   0.967   3.397   3.006
10649SOL    HW232847   0.895   3.540   2.975
10650SOL     OW32848   0.537   0.590   4.180
10650SOL    HW132849   0.471   0.580   4.254
10650SOL    HW232850   0.571   0.684   4.178
10651SOL     OW32851   6.363   5.677   5.894
10651SOL    HW132852   6.331   5.593   5.937
10651SOL    HW232853   6.456   5.697   5.924
10652SOL     OW32854   1.998   0.088   6.445
10652SOL    HW132855   1.959   0.015   6.388
10652SOL    HW232856   2.079   0.053   6.493
10653SOL     OW32857   3.833   6.054   5.224
10653SOL    HW132858   3.780   5.982   5.269
10653SOL    HW232859   3.800   6.067   5.131
10654SOL     OW32860   5.131   0.745   5.854
10654SOL    HW132861   5.069   0.800   5.910
10654SOL    HW232862   5.179   0.805   5.789
10655SOL     OW32863   1.625   4.692   0.017
10655SOL    HW132864   1.645   4.774   0.070
10655SOL    HW232865   1.710   4.652   7.004
10656SOL     OW32866   6.814   1.078   2.185
10656SOL    HW132867   6.895   1.123   2.223
10656SOL    HW232868   6.757   1.145   2.138
10657SOL     OW32869   6.199   0.644   4.582
10657SOL    HW132870   6.112   0.625   4.535
10657SOL    HW232871   6.237   0.558   4.617
10658SOL     OW32872   5.996   4.014   4.829
10658SOL    HW132873   5.981   4.086   4.761
10658SOL    HW232874   6.030   4.054   4.914
10659SOL     OW32875   1.031   4.855   0.701
10659SOL    HW132876   1.055   4.942   0.743
10659SOL    HW232877   1.108   4.821   0.648
10660SOL     OW32878   5.880   4.042   6.058
10660SOL    HW132879   5.795   4.095   6.050
10660SOL    HW232880   5.928   4.043   5.970
10661SOL     OW32881   1.759   6.339   0.960
10661SOL    HW132882   1.723   6.425   0.996
10661SOL    HW232883   1.814   6.295   1.030
10662SOL     OW32884   4.418   0.715   2.319
10662SOL    HW132885   4.427   0.807   2.356
10662SOL    HW232886   4.490   0.657   2.356
10663SOL     OW32887   0.807   1.457   2.906
10663SOL    HW132888   0.794   1.425   2.813
10663SOL    HW232889   0.899   1.434   2.938
10664SOL     OW32890   6.351   4.058   5.280
10664SOL    HW132891   6.415   4.115   5.230
10664SOL    HW232892   6.278   4.027   5.218
10665SOL     OW32893   1.629   2.077   6.834
10665SOL    HW132894   1.553   2.021   6.868
10665SOL    HW232895   1.688   2.021   6.775
10666SOL     OW32896   3.189   4.023   1.952
10666SOL    HW132897   3.170   4.045   2.048
10666SOL    HW232898   3.166   4.102   1.895
10667SOL     OW32899   4.859   2.389   3.693
10667SOL    HW132900   4.895   2.381   3.599
10667SOL    HW232901   4.778   2.448   3.693
10668SOL     OW32902   3.102   1.369   4.871
10668SOL    HW132903   3.079   1.459   4.834
10668SOL    HW232904   3.019   1.314   4.879
10669SOL     OW32905   6.621   0.657   1.361
10669SOL    HW132906   6.607   0.644   1.263
10669SOL    HW232907   6.660   0.573   1.400
10670SOL     OW32908   5.595   4.438   4.795
10670SOL    HW132909   5.557   4.348   4.812
10670SOL    HW232910   5.688   4.429   4.757
10671SOL     OW32911   1.557   1.813   4.349
10671SOL    HW132912   1.521   1.774   4.434
10671SOL    HW232913   1.595   1.903   4.367
10672SOL     OW32914   6.470   4.207   2.098
10672SOL    HW132915   6.476   4.132   2.031
10672SOL    HW232916   6.374   4.227   2.116
10673SOL     OW32917   0.336   1.035   0.022
10673SOL    HW132918   0.380   1.121   7.015
10673SOL    HW232919   0.364   1.010   0.115
10674SOL     OW32920   4.103   3.302   3.999
10674SOL    HW132921   4.098   3.261   4.090
10674SOL    HW232922   4.062   3.240   3.932
10675SOL     OW32923   2.184   0.290   6.535
10675SOL    HW132924   2.144   0.372   6.574
10675SOL    HW232925   2.114   0.219   6.527
10676SOL     OW32926   0.204   6.002   5.009
10676SOL    HW132927   0.172   5.919   5.054
10676SOL    HW232928   0.125   6.054   4.975
10677SOL     OW32929   1.260   0.597   1.537
10677SOL    HW132930   1.297   0.629   1.625
10677SOL    HW232931   1.319   0.524   1.501
10678SOL     OW32932   4.636   5.200   4.511
10678SOL    HW132933   4.626   5.100   4.512
10678SOL    HW232934   4.582   5.239   4.585
10679SOL     OW32935   3.992   5.577   6.265
10679SOL    HW132936   3.900   5.556   6.232
10679SOL    HW232937   4.026   5.502   6.321
10680SOL     OW32938   3.791   2.114   3.926
10680SOL    HW132939   3.803   2.065   3.840
10680SOL    HW232940   3.706   2.084   3.969
10681SOL     OW32941   0.066   3.855   0.453
10681SOL    HW132942   0.017   3.918   0.513
10681SOL    HW232943   0.154   3.895   0.426
10682SOL     OW32944   6.893   2.440   5.273
10682SOL    HW132945   6.968   2.402   5.220
10682SOL    HW232946   6.852   2.517   5.223
10683SOL     OW32947   5.093   0.923   3.739
10683SOL    HW132948   5.068   1.005   3.687
10683SOL    HW232949   5.166   0.874   3.691
10684SOL     OW32950   4.711   4.626   2.652
10684SOL    HW132951   4.685   4.552   2.715
10684SOL    HW232952   4.660   4.616   2.567
10685SOL     OW32953   0.959   5.688   1.457
10685SOL    HW132954   0.988   5.664   1.550
10685SOL    HW232955   1.040   5.697   1.399
10686SOL     OW32956   1.147   3.937   5.930
10686SOL    HW132957   1.119   3.845   5.902
10686SOL    HW232958   1.245   3.937   5.952
10687SOL     OW32959   6.266   5.352   4.230
10687SOL    HW132960   6.349   5.335   4.177
10687SOL    HW232961   6.206   5.273   4.224
10688SOL     OW32962   5.848   3.043   2.875
10688SOL    HW132963   5.839   2.949   2.843
10688SOL    HW232964   5.875   3.102   2.799
10689SOL     OW32965   6.635   0.373   3.139
10689SOL    HW132966   6.559   0.432   3.111
10689SOL    HW232967   6.622   0.281   3.101
10690SOL     OW32968   0.520   5.534   3.999
10690SOL    HW132969   0.426   5.529   4.033
10690SOL    HW232970   0.526   5.490   3.909
10691SOL     OW32971   1.466   2.076   2.252
10691SOL    HW132972   1.502   1.983   2.256
10691SOL    HW232973   1.411   2.087   2.170
10692SOL     OW32974   2.394   0.007   4.047
10692SOL    HW132975   2.453   6.957   4.088
10692SOL    HW232976   2.321   6.982   3.996
10693SOL     OW32977   1.491   5.911   1.332
10693SOL    HW132978   1.419   5.953   1.388
10693SOL    HW232979   1.449   5.858   1.258
10694SOL     OW32980   5.187   6.301   0.056
10694SOL    HW132981   5.170   6.399   0.051
10694SOL    HW232982   5.101   6.252   0.041
10695SOL     OW32983   1.264   2.193   2.663
10695SOL    HW132984   1.294   2.279   2.622
10695SOL    HW232985   1.295   2.116   2.608
10696SOL     OW32986   6.301   4.534   3.545
10696SOL    HW132987   6.392   4.524   3.504
10696SOL    HW232988   6.254   4.446   3.543
10697SOL     OW32989   0.638   6.700   4.921
10697SOL    HW132990   0.671   6.650   4.841
10697SOL    HW232991   0.593   6.636   4.983
10698SOL     OW32992   5.631   4.522   0.021
10698SOL    HW132993   5.591   4.585   6.975
10698SOL    HW232994   5.559   4.485   0.081
10699SOL     OW32995   3.944   4.277   1.690
10699SOL    HW132996   4.025   4.328   1.719
10699SOL    HW232997   3.880   4.339   1.644
10700SOL     OW32998   5.572   6.461   0.366
10700SOL    HW132999   5.473   6.457   0.379
10700SOL    HW233000   5.592   6.502   0.277
10701SOL     OW33001   2.484   6.770   6.970
10701SOL    HW133002   2.583   6.785   6.974
10701SOL    HW233003   2.441   6.849   6.926
10702SOL     OW33004   5.504   3.182   1.904
10702SOL    HW133005   5.444   3.157   1.981
10702SOL    HW233006   5.509   3.106   1.840
10703SOL     OW33007   2.611   3.033   5.395
10703SOL    HW133008   2.533   3.038   5.332
10703SOL    HW233009   2.696   3.029   5.342
10704SOL     OW33010   5.831   5.672   2.270
10704SOL    HW133011   5.819   5.584   2.316
10704SOL    HW233012   5.804   5.662   2.174
10705SOL     OW33013   6.101   5.153   1.775
10705SOL    HW133014   6.112   5.076   1.838
10705SOL    HW233015   6.058   5.120   1.690
10706SOL     OW33016   4.356   0.874   2.858
10706SOL    HW133017   4.400   0.845   2.943
10706SOL    HW233018   4.374   0.806   2.786
10707SOL     OW33019   0.089   0.041   4.496
10707SOL    HW133020   0.090   6.983   4.432
10707SOL    HW233021   0.181   0.056   4.532
10708SOL     OW33022   3.759   1.137   1.239
10708SOL    HW133023   3.840   1.146   1.295
10708SOL    HW233024   3.710   1.224   1.236
10709SOL     OW33025   5.170   5.096   5.492
10709SOL    HW133026   5.207   5.161   5.425
10709SOL    HW233027   5.231   5.091   5.571
10710SOL     OW33028   6.609   0.474   4.441
10710SOL    HW133029   6.671   0.447   4.367
10710SOL    HW233030   6.559   0.394   4.473
10711SOL     OW33031   2.107   6.702   4.508
10711SOL    HW133032   2.035   6.683   4.441
10711SOL    HW233033   2.074   6.678   4.600
10712SOL     OW33034   3.088   0.707   1.977
10712SOL    HW133035   2.994   0.734   1.955
10712SOL    HW233036   3.093   0.607   1.983
10713SOL     OW33037   0.559   3.576   2.124
10713SOL    HW133038   0.612   3.509   2.175
10713SOL    HW233039   0.533   3.538   2.035
10714SOL     OW33040   5.752   3.300   5.240
10714SOL    HW133041   5.792   3.363   5.308
10714SOL    HW233042   5.819   3.230   5.217
10715SOL     OW33043   4.673   0.707   2.477
10715SOL    HW133044   4.724   0.726   2.561
10715SOL    HW233045   4.671   0.608   2.461
10716SOL     OW33046   6.107   1.887   3.628
10716SOL    HW133047   6.039   1.889   3.700
10716SOL    HW233048   6.089   1.960   3.562
10717SOL     OW33049   0.729   2.248   1.556
10717SOL    HW133050   0.762   2.167   1.508
10717SOL    HW233051   0.658   2.292   1.502
10718SOL     OW33052   1.038   2.892   6.857
10718SOL    HW133053   1.092   2.886   6.773
10718SOL    HW233054   1.066   2.972   6.910
10719SOL     OW33055   6.337   5.519   2.544
10719SOL    HW133056   6.275   5.477   2.478
10719SOL    HW233057   6.431   5.513   2.510
10720SOL     OW33058   0.356   4.427   5.102
10720SOL    HW133059   0.277   4.418   5.042
10720SOL    HW233060   0.402   4.514   5.083
10721SOL     OW33061   5.625   3.849   5.076
10721SOL    HW133062   5.645   3.803   4.990
10721SOL    HW233063   5.621   3.781   5.150
10722SOL     OW33064   0.815   5.197   6.688
10722SOL    HW133065   0.789   5.217   6.594
10722SOL    HW233066   0.894   5.136   6.688
10723SOL     OW33067   0.245   3.117   5.758
10723SOL    HW133068   0.224   3.129   5.855
10723SOL    HW233069   0.326   3.058   5.749
10724SOL     OW33070   6.531   1.472   6.602
10724SOL    HW133071   6.618   1.505   6.566
10724SOL    HW233072   6.481   1.547   6.645
10725SOL     OW33073   1.234   5.634   4.430
10725SOL    HW133074   1.256   5.701   4.500
10725SOL    HW233075   1.318   5.593   4.395
10726SOL     OW33076   5.431   0.238   5.243
10726SOL    HW133077   5.369   0.288   5.303
10726SOL    HW233078   5.392   0.149   5.220
10727SOL     OW33079   0.530   4.987   5.067
10727SOL    HW133080   0.539   4.890   5.090
10727SOL    HW233081   0.574   5.005   4.979
10728SOL     OW33082   0.022   5.795   6.784
10728SOL    HW133083   0.110   5.840   6.767
10728SOL    HW233084   0.031   5.697   6.766
10729SOL     OW33085   5.540   1.665   1.837
10729SOL    HW133086   5.471   1.607   1.880
10729SOL    HW233087   5.497   1.725   1.770
10730SOL     OW33088   1.862   1.402   1.519
10730SOL    HW133089   1.831   1.441   1.606
10730SOL    HW233090   1.935   1.460   1.481
10731SOL     OW33091   2.957   6.204   0.575
10731SOL    HW133092   2.906   6.253   0.645
10731SOL    HW233093   3.030   6.263   0.540
10732SOL     OW33094   6.062   5.025   4.543
10732SOL    HW133095   6.063   4.935   4.498
10732SOL    HW233096   5.972   5.067   4.531
10733SOL     OW33097   6.845   1.803   1.000
10733SOL    HW133098   6.752   1.770   0.982
10733SOL    HW233099   6.857   1.893   0.958
10734SOL     OW33100   1.014   0.699   0.190
10734SOL    HW133101   0.993   0.703   0.288
10734SOL    HW233102   0.929   0.687   0.138
10735SOL     OW33103   0.836   2.826   2.987
10735SOL    HW133104   0.853   2.880   3.069
10735SOL    HW233105   0.912   2.839   2.923
10736SOL     OW33106   1.546   0.198   3.348
10736SOL    HW133107   1.455   0.171   3.379
10736SOL    HW233108   1.593   0.247   3.422
10737SOL     OW33109   2.037   1.902   1.157
10737SOL    HW133110   1.965   1.931   1.220
10737SOL    HW233111   2.003   1.826   1.101
10738SOL     OW33112   2.695   0.197   3.533
10738SOL    HW133113   2.779   0.235   3.494
10738SOL    HW233114   2.691   0.098   3.514
10739SOL     OW33115   1.035   1.831   1.041
10739SOL    HW133116   0.986   1.744   1.047
10739SOL    HW233117   1.032   1.865   0.946
10740SOL     OW33118   6.978   4.254   5.005
10740SOL    HW133119   0.030   4.307   4.958
10740SOL    HW233120   6.894   4.256   4.950
10741SOL     OW33121   5.597   0.021   1.168
10741SOL    HW133122   5.631   0.046   1.077
10741SOL    HW233123   5.512   0.069   1.186
10742SOL     OW33124   5.200   0.325   1.020
10742SOL    HW133125   5.289   0.280   1.009
10742SOL    HW233126   5.127   0.256   1.016
10743SOL     OW33127   2.534   1.263   5.255
10743SOL    HW133128   2.575   1.284   5.344
10743SOL    HW233129   2.573   1.178   5.220
10744SOL     OW33130   3.443   1.505   1.165
10744SOL    HW133131   3.376   1.447   1.211
10744SOL    HW233132   3.518   1.448   1.130
10745SOL     OW33133   0.330   5.513   6.834
10745SOL    HW133134   0.234   5.517   6.807
10745SOL    HW233135   0.350   5.424   6.875
10746SOL     OW33136   1.842   4.301   1.394
10746SOL    HW133137   1.879   4.389   1.366
10746SOL    HW233138   1.750   4.313   1.430
10747SOL     OW33139   4.237   1.112   4.103
10747SOL    HW133140   4.289   1.065   4.174
10747SOL    HW233141   4.140   1.112   4.126
10748SOL     OW33142   4.874   1.230   0.915
10748SOL    HW133143   4.851   1.323   0.942
10748SOL    HW233144   4.806   1.196   0.850
10749SOL     OW33145   0.934   5.768   2.685
10749SOL    HW133146   0.842   5.753   2.648
10749SOL    HW233147   0.943   5.864   2.711
10750SOL     OW33148   4.444   6.110   5.015
10750SOL    HW133149   4.369   6.115   4.949
10750SOL    HW233150   4.424   6.169   5.093
10751SOL     OW33151   1.832   3.878   4.336
10751SOL    HW133152   1.748   3.925   4.364
10751SOL    HW233153   1.878   3.932   4.265
10752SOL     OW33154   5.979   4.042   6.343
10752SOL    HW133155   5.916   4.054   6.419
10752SOL    HW233156   5.929   4.041   6.257
10753SOL     OW33157   4.751   6.149   4.248
10753SOL    HW133158   4.669   6.188   4.207
10753SOL    HW233159   4.831   6.177   4.195
10754SOL     OW33160   0.614   1.641   2.797
10754SOL    HW133161   0.569   1.566   2.748
10754SOL    HW233162   0.679   1.603   2.863
10755SOL     OW33163   6.716   0.931   6.419
10755SOL    HW133164   6.809   0.942   6.454
10755SOL    HW233165   6.651   0.949   6.492
10756SOL     OW33166   6.847   4.995   0.220
10756SOL    HW133167   6.856   4.950   0.131
10756SOL    HW233168   6.801   5.083   0.208
10757SOL     OW33169   1.825   2.809   0.277
10757SOL    HW133170   1.830   2.892   0.332
10757SOL    HW233171   1.890   2.741   0.312
10758SOL     OW33172   0.359   6.932   3.964
10758SOL    HW133173   0.284   6.867   3.949
10758SOL    HW233174   0.446   6.885   3.951
10759SOL     OW33175   1.868   3.299   1.082
10759SOL    HW133176   1.791   3.355   1.051
10759SOL    HW233177   1.926   3.353   1.143
10760SOL     OW33178   6.370   1.543   2.160
10760SOL    HW133179   6.286   1.492   2.144
10760SOL    HW233180   6.359   1.636   2.125
10761SOL     OW33181   0.778   0.268   6.330
10761SOL    HW133182   0.856   0.276   6.392
10761SOL    HW233183   0.727   0.185   6.353
10762SOL     OW33184   3.916   1.811   4.157
10762SOL    HW133185   3.845   1.744   4.181
10762SOL    HW233186   3.885   1.903   4.181
10763SOL     OW33187   5.282   6.152   2.650
10763SOL    HW133188   5.309   6.188   2.739
10763SOL    HW233189   5.187   6.179   2.630
10764SOL     OW33190   5.311   2.736   5.817
10764SOL    HW133191   5.344   2.805   5.882
10764SOL    HW233192   5.279   2.656   5.867
10765SOL     OW33193   5.429   1.998   6.922
10765SOL    HW133194   5.418   1.965   7.015
10765SOL    HW233195   5.343   1.986   6.872
10766SOL     OW33196   4.536   3.685   0.528
10766SOL    HW133197   4.579   3.676   0.617
10766SOL    HW233198   4.455   3.626   0.524
10767SOL     OW33199   1.356   0.760   0.245
10767SOL    HW133200   1.382   0.822   0.319
10767SOL    HW233201   1.277   0.705   0.273
10768SOL     OW33202   4.677   4.203   1.699
10768SOL    HW133203   4.592   4.247   1.729
10768SOL    HW233204   4.708   4.140   1.770
10769SOL     OW33205   2.425   4.499   4.949
10769SOL    HW133206   2.456   4.482   5.043
10769SOL    HW233207   2.356   4.571   4.950
10770SOL     OW33208   5.653   1.092   5.216
10770SOL    HW133209   5.697   1.058   5.299
10770SOL    HW233210   5.718   1.146   5.163
10771SOL     OW33211   6.190   0.601   3.493
10771SOL    HW133212   6.101   0.563   3.516
10771SOL    HW233213   6.255   0.527   3.476
10772SOL     OW33214   6.240   6.499   4.313
10772SOL    HW133215   6.270   6.528   4.221
10772SOL    HW233216   6.316   6.454   4.360
10773SOL     OW33217   6.410   5.556   6.950
10773SOL    HW133218   6.361   5.527   0.013
10773SOL    HW233219   6.460   5.641   6.968
10774SOL     OW33220   2.276   1.355   0.144
10774SOL    HW133221   2.335   1.396   0.213
10774SOL    HW233222   2.218   1.286   0.187
10775SOL     OW33223   0.192   4.934   1.265
10775SOL    HW133224   0.200   4.984   1.351
10775SOL    HW233225   0.135   4.986   1.201
10776SOL     OW33226   0.144   1.156   6.562
10776SOL    HW133227   0.080   1.212   6.615
10776SOL    HW233228   0.199   1.101   6.624
10777SOL     OW33229   3.266   5.332   3.172
10777SOL    HW133230   3.358   5.370   3.178
10777SOL    HW233231   3.265   5.255   3.109
10778SOL     OW33232   5.867   0.094   4.390
10778SOL    HW133233   5.901   0.011   4.345
10778SOL    HW233234   5.943   0.157   4.405
10779SOL     OW33235   6.656   3.585   4.056
10779SOL    HW133236   6.716   3.534   3.994
10779SOL    HW233237   6.653   3.538   4.145
10780SOL     OW33238   2.097   0.601   4.059
10780SOL    HW133239   2.034   0.642   4.125
10780SOL    HW233240   2.143   0.674   4.008
10781SOL     OW33241   4.793   1.224   3.846
10781SOL    HW133242   4.892   1.220   3.862
10781SOL    HW233243   4.753   1.133   3.860
10782SOL     OW33244   5.996   1.799   1.856
10782SOL    HW133245   6.081   1.748   1.861
10782SOL    HW233246   5.921   1.737   1.833
10783SOL     OW33247   0.571   3.369   3.193
10783SOL    HW133248   0.553   3.377   3.095
10783SOL    HW233249   0.650   3.425   3.217
10784SOL     OW33250   3.592   6.648   4.324
10784SOL    HW133251   3.661   6.672   4.393
10784SOL    HW233252   3.629   6.669   4.233
10785SOL     OW33253   0.268   4.536   0.986
10785SOL    HW133254   0.327   4.536   1.066
10785SOL    HW233255   0.269   4.627   0.944
10786SOL     OW33256   5.781   4.229   3.470
10786SOL    HW133257   5.845   4.160   3.438
10786SOL    HW233258   5.772   4.301   3.401
10787SOL     OW33259   2.382   1.405   4.860
10787SOL    HW133260   2.461   1.403   4.798
10787SOL    HW233261   2.310   1.461   4.820
10788SOL     OW33262   1.877   4.536   6.113
10788SOL    HW133263   1.864   4.635   6.120
10788SOL    HW233264   1.974   4.515   6.101
10789SOL     OW33265   0.124   3.127   6.444
10789SOL    HW133266   0.102   3.051   6.505
10789SOL    HW233267   0.222   3.126   6.423
10790SOL     OW33268   1.283   0.166   1.872
10790SOL    HW133269   1.280   0.263   1.897
10790SOL    HW233270   1.378   0.134   1.874
10791SOL     OW33271   6.576   6.970   1.440
10791SOL    HW133272   6.584   6.989   1.342
10791SOL    HW233273   6.644   6.902   1.466
10792SOL     OW33274   2.919   3.791   4.119
10792SOL    HW133275   2.949   3.874   4.166
10792SOL    HW233276   2.890   3.723   4.186
10793SOL     OW33277   5.349   3.172   4.356
10793SOL    HW133278   5.320   3.266   4.334
10793SOL    HW233279   5.330   3.113   4.278
10794SOL     OW33280   2.932   3.705   3.588
10794SOL    HW133281   2.920   3.697   3.686
10794SOL    HW233282   2.990   3.784   3.568
10795SOL     OW33283   6.477   4.904   1.964
10795SOL    HW133284   6.448   4.973   2.031
10795SOL    HW233285   6.490   4.947   1.875
10796SOL     OW33286   5.762   0.361   6.052
10796SOL    HW133287   5.836   0.318   6.104
10796SOL    HW233288   5.800   0.433   5.994
10797SOL     OW33289   3.780   2.569   1.429
10797SOL    HW133290   3.705   2.627   1.461
10797SOL    HW233291   3.764   2.543   1.333
10798SOL     OW33292   3.027   0.250   0.558
10798SOL    HW133293   2.941   0.208   0.588
10798SOL    HW233294   3.099   0.229   0.623
10799SOL     OW33295   4.001   0.850   1.659
10799SOL    HW133296   3.902   0.860   1.647
10799SOL    HW233297   4.026   0.754   1.649
10800SOL     OW33298   0.187   6.528   6.292
10800SOL    HW133299   0.165   6.625   6.282
10800SOL    HW233300   0.175   6.482   6.204
10801SOL     OW33301   0.669   6.086   6.108
10801SOL    HW133302   0.682   6.110   6.205
10801SOL    HW233303   0.757   6.065   6.067
10802SOL     OW33304   1.088   0.813   2.906
10802SOL    HW133305   1.183   0.806   2.875
10802SOL    HW233306   1.085   0.811   3.006
10803SOL     OW33307   2.077   4.796   6.039
10803SOL    HW133308   2.169   4.779   6.004
10803SOL    HW233309   2.032   4.865   5.982
10804SOL     OW33310   5.467   3.094   2.263
10804SOL    HW133311   5.546   3.141   2.303
10804SOL    HW233312   5.398   3.161   2.236
10805SOL     OW33313   4.289   6.567   6.551
10805SOL    HW133314   4.197   6.531   6.563
10805SOL    HW233315   4.309   6.633   6.624
10806SOL     OW33316   3.866   3.985   6.227
10806SOL    HW133317   3.886   4.008   6.323
10806SOL    HW233318   3.951   3.990   6.174
10807SOL     OW33319   1.396   6.816   2.463
10807SOL    HW133320   1.399   6.916   2.467
10807SOL    HW233321   1.400   6.779   2.555
10808SOL     OW33322   0.366   2.725   5.570
10808SOL    HW133323   0.451   2.691   5.530
10808SOL    HW233324   0.305   2.757   5.497
10809SOL     OW33325   3.183   4.885   3.376
10809SOL    HW133326   3.198   4.893   3.475
10809SOL    HW233327   3.271   4.873   3.330
10810SOL     OW33328   1.533   6.965   3.863
10810SOL    HW133329   1.548   6.932   3.956
10810SOL    HW233330   1.597   6.919   3.801
10811SOL     OW33331   4.246   4.220   6.190
10811SOL    HW133332   4.205   4.148   6.134
10811SOL    HW233333   4.179   4.291   6.208
10812SOL     OW33334   0.685   4.003   0.099
10812SOL    HW133335   0.602   3.978   0.149
10812SOL    HW233336   0.716   4.092   0.130
10813SOL     OW33337   1.705   3.909   6.658
10813SOL    HW133338   1.769   3.840   6.624
10813SOL    HW233339   1.697   3.983   6.591
10814SOL     OW33340   1.076   0.177   6.382
10814SOL    HW133341   1.159   0.224   6.353
10814SOL    HW233342   1.047   0.112   6.311
10815SOL     OW33343   4.615   4.407   3.310
10815SOL    HW133344   4.686   4.477   3.313
10815SOL    HW233345   4.658   4.317   3.315
10816SOL     OW33346   3.439   3.464   2.117
10816SOL    HW133347   3.470   3.435   2.207
10816SOL    HW233348   3.494   3.419   2.047
10817SOL     OW33349   4.430   0.520   3.610
10817SOL    HW133350   4.465   0.542   3.701
10817SOL    HW233351   4.429   0.603   3.554
10818SOL     OW33352   4.445   4.587   5.462
10818SOL    HW133353   4.434   4.678   5.503
10818SOL    HW233354   4.523   4.540   5.504
10819SOL     OW33355   6.660   4.924   6.255
10819SOL    HW133356   6.746   4.930   6.306
10819SOL    HW233357   6.668   4.854   6.185
10820SOL     OW33358   0.045   5.209   4.193
10820SOL    HW133359   0.005   5.177   4.108
10820SOL    HW233360   0.142   5.228   4.180
10821SOL     OW33361   4.543   0.487   3.151
10821SOL    HW133362   4.486   0.434   3.214
10821SOL    HW233363   4.621   0.431   3.122
10822SOL     OW33364   6.776   2.602   2.914
10822SOL    HW133365   6.832   2.606   2.831
10822SOL    HW233366   6.694   2.658   2.901
10823SOL     OW33367   1.161   0.465   1.871
10823SOL    HW133368   1.119   0.394   1.814
10823SOL    HW233369   1.116   0.552   1.851
10824SOL     OW33370   6.805   1.196   3.146
10824SOL    HW133371   6.843   1.270   3.200
10824SOL    HW233372   6.784   1.229   3.054
10825SOL     OW33373   2.301   2.009   6.335
10825SOL    HW133374   2.250   2.068   6.398
10825SOL    HW233375   2.259   2.012   6.244
10826SOL     OW33376   0.980   2.880   3.674
10826SOL    HW133377   1.068   2.832   3.685
10826SOL    HW233378   0.935   2.849   3.591
10827SOL     OW33379   0.166   3.156   4.419
10827SOL    HW133380   0.244   3.102   4.389
10827SOL    HW233381   0.120   3.195   4.340
10828SOL     OW33382   1.586   4.234   0.855
10828SOL    HW133383   1.497   4.189   0.856
10828SOL    HW233384   1.631   4.218   0.767
10829SOL     OW33385   4.651   2.725   0.035
10829SOL    HW133386   4.712   2.736   0.113
10829SOL    HW233387   4.557   2.739   0.064
10830SOL     OW33388   5.241   1.870   2.915
10830SOL    HW133389   5.239   1.930   2.995
10830SOL    HW233390   5.198   1.783   2.937
10831SOL     OW33391   2.852   6.281   3.208
10831SOL    HW133392   2.925   6.316   3.267
10831SOL    HW233393   2.876   6.297   3.112
10832SOL     OW33394   1.037   2.940   6.217
10832SOL    HW133395   1.103   2.976   6.283
10832SOL    HW233396   1.074   2.947   6.125
10833SOL     OW33397   0.698   0.822   1.955
10833SOL    HW133398   0.767   0.872   1.903
10833SOL    HW233399   0.741   0.743   1.999
10834SOL     OW33400   0.367   1.705   0.793
10834SOL    HW133401   0.379   1.769   0.717
10834SOL    HW233402   0.359   1.757   0.879
10835SOL     OW33403   5.700   2.663   0.423
10835SOL    HW133404   5.743   2.650   0.512
10835SOL    HW233405   5.624   2.728   0.431
10836SOL     OW33406   6.176   1.280   4.762
10836SOL    HW133407   6.136   1.241   4.678
10836SOL    HW233408   6.275   1.264   4.762
10837SOL     OW33409   6.383   5.502   1.248
10837SOL    HW133410   6.480   5.491   1.228
10837SOL    HW233411   6.369   5.503   1.347
10838SOL     OW33412   6.807   5.688   3.940
10838SOL    HW133413   6.871   5.764   3.937
10838SOL    HW233414   6.737   5.700   3.870
10839SOL     OW33415   4.403   3.052   1.717
10839SOL    HW133416   4.437   3.069   1.625
10839SOL    HW233417   4.478   3.063   1.782
10840SOL     OW33418   2.872   5.773   2.827
10840SOL    HW133419   2.869   5.869   2.801
10840SOL    HW233420   2.891   5.765   2.925
10841SOL     OW33421   6.549   5.127   5.589
10841SOL    HW133422   6.477   5.180   5.632
10841SOL    HW233423   6.622   5.109   5.656
10842SOL     OW33424   4.858   2.374   1.468
10842SOL    HW133425   4.759   2.355   1.468
10842SOL    HW233426   4.905   2.308   1.410
10843SOL     OW33427   0.990   1.514   1.527
10843SOL    HW133428   1.059   1.577   1.492
10843SOL    HW233429   0.909   1.518   1.469
10844SOL     OW33430   0.466   6.540   3.192
10844SOL    HW133431   0.490   6.530   3.289
10844SOL    HW233432   0.367   6.554   3.184
10845SOL     OW33433   3.349   6.669   5.390
10845SOL    HW133434   3.407   6.609   5.445
10845SOL    HW233435   3.404   6.709   5.317
10846SOL     OW33436   5.472   1.024   0.299
10846SOL    HW133437   5.513   0.970   0.372
10846SOL    HW233438   5.496   0.984   0.211
10847SOL     OW33439   3.575   3.155   6.659
10847SOL    HW133440   3.610   3.231   6.713
10847SOL    HW233441   3.640   3.078   6.665
10848SOL     OW33442   2.455   3.893   0.518
10848SOL    HW133443   2.416   3.919   0.606
10848SOL    HW233444   2.440   3.967   0.452
10849SOL     OW33445   2.124   4.637   4.163
10849SOL    HW133446   2.081   4.601   4.246
10849SOL    HW233447   2.091   4.730   4.147
10850SOL     OW33448   2.278   6.440   6.651
10850SOL    HW133449   2.362   6.494   6.656
10850SOL    HW233450   2.297   6.346   6.677
10851SOL     OW33451   1.989   3.291   0.469
10851SOL    HW133452   1.942   3.325   0.550
10851SOL    HW233453   1.982   3.358   0.395
10852SOL     OW33454   0.852   0.044   6.976
10852SOL    HW133455   0.861   0.142   6.955
10852SOL    HW233456   0.792   0.032   0.035
10853SOL     OW33457   1.639   2.705   5.174
10853SOL    HW133458   1.553   2.732   5.217
10853SOL    HW233459   1.706   2.778   5.185
10854SOL     OW33460   4.462   4.814   5.634
10854SOL    HW133461   4.393   4.885   5.614
10854SOL    HW233462   4.424   4.748   5.698
10855SOL     OW33463   3.721   0.410   0.607
10855SOL    HW133464   3.734   0.389   0.704
10855SOL    HW233465   3.716   0.509   0.595
10856SOL     OW33466   5.213   1.118   0.362
10856SOL    HW133467   5.304   1.082   0.381
10856SOL    HW233468   5.154   1.104   0.441
10857SOL     OW33469   7.008   2.324   3.169
10857SOL    HW133470   0.046   2.312   3.250
10857SOL    HW233471   0.043   2.303   3.087
10858SOL     OW33472   0.788   1.563   6.698
10858SOL    HW133473   0.798   1.520   6.608
10858SOL    HW233474   0.765   1.659   6.686
10859SOL     OW33475   1.145   4.255   4.427
10859SOL    HW133476   1.220   4.275   4.365
10859SOL    HW233477   1.163   4.297   4.516
10860SOL     OW33478   0.303   2.384   5.680
10860SOL    HW133479   0.302   2.483   5.694
10860SOL    HW233480   0.210   2.351   5.665
10861SOL     OW33481   3.552   3.833   3.453
10861SOL    HW133482   3.547   3.933   3.453
10861SOL    HW233483   3.539   3.798   3.360
10862SOL     OW33484   2.158   1.242   6.377
10862SOL    HW133485   2.251   1.216   6.403
10862SOL    HW233486   2.160   1.294   6.292
10863SOL     OW33487   3.733   0.846   4.073
10863SOL    HW133488   3.760   0.849   4.170
10863SOL    HW233489   3.804   0.800   4.020
10864SOL     OW33490   1.908   6.434   0.684
10864SOL    HW133491   1.910   6.499   0.760
10864SOL    HW233492   1.813   6.414   0.661
10865SOL     OW33493   0.169   1.496   1.804
10865SOL    HW133494   0.083   1.445   1.798
10865SOL    HW233495   0.224   1.478   1.722
10866SOL     OW33496   5.411   4.252   0.670
10866SOL    HW133497   5.397   4.194   0.750
10866SOL    HW233498   5.418   4.348   0.699
10867SOL     OW33499   3.589   4.040   6.840
10867SOL    HW133500   3.511   4.084   6.797
10867SOL    HW233501   3.673   4.083   6.809
10868SOL     OW33502   4.782   1.854   4.247
10868SOL    HW133503   4.796   1.948   4.278
10868SOL    HW233504   4.866   1.802   4.263
10869NA      NA33505   6.402   2.570   5.367
10870NA      NA33506   4.437   4.574   5.213
10871NA      NA33507   1.990   3.058   2.144
10872NA      NA33508   5.159   3.790   4.901
10873NA      NA33509   4.212   2.369   5.281
10874NA      NA33510   3.471   4.783   1.678
10875NA      NA33511   6.808   4.820   0.396
10876NA      NA33512   3.411   3.653   3.971
10877NA      NA33513   5.218   6.063   0.372
10878NA      NA33514   3.138   6.772   5.344
10879NA      NA33515   5.592   5.391   1.524
10880NA      NA33516   2.289   0.319   4.308
10881NA      NA33517   3.525   5.507   2.755
10882NA      NA33518   3.822   3.707   2.254
   7.01918   7.01918   7.01918
