Generated by trjconv : CNT in water t= 169.00000
33518
    1C        C    1   2.839   2.764   4.746
    1C        C    2   2.895   2.717   4.867
    1C        C    3   2.842   2.772   4.985
    1C        C    4   2.844   2.771   4.259
    1C        C    5   2.896   2.721   4.381
    1C        C    6   2.848   2.774   4.503
    1C        C    7   3.013   2.642   4.624
    1C        C    8   2.893   2.717   4.624
    1C        C    9   3.080   2.613   4.745
    1C        C   10   3.011   2.637   4.866
    1C        C   11   3.180   2.492   4.972
    1C        C   12   3.058   2.560   4.973
    1C        C   13   2.851   2.769   3.771
    1C        C   14   2.900   2.720   3.894
    1C        C   15   2.843   2.765   4.014
    1C        C   16   3.012   2.640   4.138
    1C        C   17   2.896   2.721   4.137
    1C        C   18   3.077   2.609   4.260
    1C        C   19   3.014   2.644   4.381
    1C        C   20   3.207   2.554   4.505
    1C        C   21   3.078   2.610   4.503
    1C        C   22   3.279   2.533   4.625
    1C        C   23   3.209   2.554   4.746
    1C        C   24   3.415   2.491   4.867
    1C        C   25   3.273   2.508   4.865
    1C        C   26   3.492   2.483   4.984
    1C        C   27   2.850   2.768   3.281
    1C        C   28   2.908   2.729   3.404
    1C        C   29   2.857   2.776   3.527
    1C        C   30   3.018   2.638   3.648
    1C        C   31   2.904   2.722   3.649
    1C        C   32   3.077   2.602   3.771
    1C        C   33   3.015   2.638   3.893
    1C        C   34   3.205   2.550   4.016
    1C        C   35   3.073   2.602   4.017
    1C        C   36   3.275   2.538   4.138
    1C        C   37   3.210   2.559   4.261
    1C        C   38   3.415   2.513   4.378
    1C        C   39   3.276   2.536   4.383
    1C        C   40   3.485   2.508   4.500
    1C        C   41   3.417   2.501   4.624
    1C        C   42   3.629   2.488   4.744
    1C        C   43   3.487   2.482   4.744
    1C        C   44   3.704   2.496   4.863
    1C        C   45   3.631   2.482   4.982
    1C        C   46   2.837   2.748   2.792
    1C        C   47   2.895   2.707   2.914
    1C        C   48   2.840   2.754   3.036
    1C        C   49   3.020   2.642   3.162
    1C        C   50   2.900   2.717   3.158
    1C        C   51   3.083   2.607   3.283
    1C        C   52   3.022   2.646   3.404
    1C        C   53   3.208   2.544   3.525
    1C        C   54   3.079   2.602   3.526
    1C        C   55   3.275   2.524   3.648
    1C        C   56   3.206   2.544   3.770
    1C        C   57   3.411   2.505   3.892
    1C        C   58   3.271   2.527   3.894
    1C        C   59   3.484   2.498   4.013
    1C        C   60   3.413   2.507   4.135
    1C        C   61   3.626   2.503   4.259
    1C        C   62   3.485   2.497   4.256
    1C        C   63   3.698   2.511   4.380
    1C        C   64   3.626   2.504   4.501
    1C        C   65   3.835   2.542   4.620
    1C        C   66   3.699   2.502   4.622
    1C        C   67   3.902   2.567   4.741
    1C        C   68   3.839   2.537   4.864
    1C        C   69   4.057   2.585   4.977
    1C        C   70   3.925   2.539   4.975
    1C        C   71   2.826   2.731   2.310
    1C        C   72   2.884   2.689   2.432
    1C        C   73   2.832   2.746   2.551
    1C        C   74   3.007   2.621   2.673
    1C        C   75   2.889   2.698   2.671
    1C        C   76   3.076   2.598   2.794
    1C        C   77   3.014   2.631   2.917
    1C        C   78   3.205   2.542   3.036
    1C        C   79   3.077   2.602   3.040
    1C        C   80   3.272   2.516   3.158
    1C        C   81   3.209   2.543   3.282
    1C        C   82   3.416   2.497   3.402
    1C        C   83   3.277   2.520   3.404
    1C        C   84   3.484   2.491   3.526
    1C        C   85   3.414   2.497   3.648
    1C        C   86   3.625   2.497   3.770
    1C        C   87   3.484   2.495   3.771
    1C        C   88   3.695   2.511   3.892
    1C        C   89   3.625   2.501   4.014
    1C        C   90   3.832   2.550   4.135
    1C        C   91   3.696   2.511   4.136
    1C        C   92   3.900   2.577   4.256
    1C        C   93   3.834   2.551   4.379
    1C        C   94   4.025   2.645   4.499
    1C        C   95   3.901   2.577   4.500
    1C        C   96   4.087   2.677   4.622
    1C        C   97   4.029   2.632   4.743
    1C        C   98   4.196   2.766   4.862
    1C        C   99   4.101   2.659   4.862
    1C        C  100   4.216   2.844   4.976
    1C        C  101   2.835   2.738   2.068
    1C        C  102   2.994   2.594   2.190
    1C        C  103   2.881   2.682   2.188
    1C        C  104   3.064   2.571   2.312
    1C        C  105   3.000   2.609   2.431
    1C        C  106   3.196   2.523   2.553
    1C        C  107   3.066   2.577   2.552
    1C        C  108   3.271   2.512   2.672
    1C        C  109   3.206   2.541   2.794
    1C        C  110   3.411   2.491   2.913
    1C        C  111   3.272   2.513   2.916
    1C        C  112   3.482   2.488   3.036
    1C        C  113   3.411   2.491   3.158
    1C        C  114   3.625   2.500   3.281
    1C        C  115   3.484   2.491   3.279
    1C        C  116   3.696   2.510   3.403
    1C        C  117   3.626   2.496   3.525
    1C        C  118   3.830   2.545   3.647
    1C        C  119   3.695   2.502   3.647
    1C        C  120   3.895   2.574   3.769
    1C        C  121   3.829   2.553   3.892
    1C        C  122   4.023   2.643   4.011
    1C        C  123   3.897   2.579   4.014
    1C        C  124   4.086   2.676   4.134
    1C        C  125   4.027   2.638   4.257
    1C        C  126   4.190   2.778   4.377
    1C        C  127   4.087   2.681   4.377
    1C        C  128   4.245   2.824   4.498
    1C        C  129   4.194   2.769   4.618
    1C        C  130   4.331   2.932   4.739
    1C        C  131   4.249   2.816   4.740
    1C        C  132   4.361   3.001   4.858
    1C        C  133   4.282   2.966   4.969
    1C        C  134   3.169   2.463   2.085
    1C        C  135   3.035   2.503   2.087
    1C        C  136   3.260   2.473   2.192
    1C        C  137   3.196   2.518   2.310
    1C        C  138   3.404   2.478   2.427
    1C        C  139   3.265   2.499   2.432
    1C        C  140   3.479   2.476   2.546
    1C        C  141   3.410   2.486   2.669
    1C        C  142   3.622   2.495   2.790
    1C        C  143   3.481   2.488   2.790
    1C        C  144   3.692   2.503   2.912
    1C        C  145   3.623   2.495   3.035
    1C        C  146   3.829   2.545   3.155
    1C        C  147   3.692   2.509   3.157
    1C        C  148   3.897   2.568   3.277
    1C        C  149   3.832   2.550   3.401
    1C        C  150   4.025   2.629   3.523
    1C        C  151   3.896   2.571   3.525
    1C        C  152   4.084   2.671   3.644
    1C        C  153   4.022   2.637   3.767
    1C        C  154   4.190   2.770   3.886
    1C        C  155   4.080   2.681   3.888
    1C        C  156   4.241   2.817   4.009
    1C        C  157   4.195   2.765   4.132
    1C        C  158   4.337   2.926   4.252
    1C        C  159   4.246   2.818   4.253
    1C        C  160   4.379   2.984   4.374
    1C        C  161   4.334   2.933   4.498
    1C        C  162   4.445   3.115   4.615
    1C        C  163   4.370   2.996   4.619
    1C        C  164   4.475   3.183   4.735
    1C        C  165   4.439   3.118   4.856
    1C        C  166   4.523   3.315   4.968
    1C        C  167   4.487   3.181   4.971
    1C        C  168   3.476   2.438   2.071
    1C        C  169   3.400   2.454   2.188
    1C        C  170   3.618   2.464   2.305
    1C        C  171   3.476   2.461   2.306
    1C        C  172   3.692   2.488   2.423
    1C        C  173   3.621   2.483   2.545
    1C        C  174   3.826   2.543   2.668
    1C        C  175   3.691   2.502   2.666
    1C        C  176   3.896   2.563   2.789
    1C        C  177   3.829   2.539   2.911
    1C        C  178   4.025   2.623   3.031
    1C        C  179   3.895   2.568   3.032
    1C        C  180   4.086   2.662   3.153
    1C        C  181   4.024   2.630   3.276
    1C        C  182   4.195   2.752   3.397
    1C        C  183   4.083   2.665   3.399
    1C        C  184   4.249   2.802   3.517
    1C        C  185   4.193   2.760   3.641
    1C        C  186   4.332   2.922   3.762
    1C        C  187   4.242   2.813   3.762
    1C        C  188   4.374   2.978   3.885
    1C        C  189   4.335   2.923   4.009
    1C        C  190   4.446   3.107   4.126
    1C        C  191   4.374   2.985   4.129
    1C        C  192   4.475   3.172   4.248
    1C        C  193   4.447   3.109   4.371
    1C        C  194   4.515   3.313   4.489
    1C        C  195   4.477   3.177   4.491
    1C        C  196   4.531   3.386   4.609
    1C        C  197   4.518   3.318   4.732
    1C        C  198   4.560   3.534   4.847
    1C        C  199   4.532   3.394   4.852
    1C        C  200   4.583   3.615   4.962
    1C        C  201   3.616   2.425   2.069
    1C        C  202   3.829   2.507   2.182
    1C        C  203   3.692   2.465   2.183
    1C        C  204   3.899   2.537   2.302
    1C        C  205   3.829   2.520   2.424
    1C        C  206   4.019   2.621   2.542
    1C        C  207   3.893   2.557   2.545
    1C        C  208   4.083   2.658   2.663
    1C        C  209   4.022   2.628   2.786
    1C        C  210   4.196   2.748   2.906
    1C        C  211   4.085   2.660   2.909
    1C        C  212   4.245   2.800   3.028
    1C        C  213   4.195   2.752   3.152
    1C        C  214   4.335   2.909   3.272
    1C        C  215   4.248   2.798   3.274
    1C        C  216   4.373   2.972   3.393
    1C        C  217   4.334   2.914   3.516
    1C        C  218   4.439   3.100   3.635
    1C        C  219   4.372   2.976   3.638
    1C        C  220   4.470   3.164   3.757
    1C        C  221   4.443   3.102   3.881
    1C        C  222   4.511   3.305   4.001
    1C        C  223   4.473   3.169   4.002
    1C        C  224   4.525   3.377   4.122
    1C        C  225   4.513   3.308   4.245
    1C        C  226   4.522   3.522   4.364
    1C        C  227   4.523   3.381   4.365
    1C        C  228   4.522   3.597   4.483
    1C        C  229   4.536   3.527   4.605
    1C        C  230   4.509   3.741   4.725
    1C        C  231   4.544   3.603   4.724
    1C        C  232   4.502   3.817   4.844
    1C        C  233   4.548   3.751   4.959
    1C        C  234   4.012   2.615   2.063
    1C        C  235   3.894   2.542   2.063
    1C        C  236   4.083   2.649   2.179
    1C        C  237   4.024   2.603   2.300
    1C        C  238   4.196   2.736   2.420
    1C        C  239   4.082   2.650   2.419
    1C        C  240   4.253   2.784   2.540
    1C        C  241   4.196   2.743   2.663
    1C        C  242   4.340   2.902   2.782
    1C        C  243   4.248   2.794   2.784
    1C        C  244   4.382   2.958   2.904
    1C        C  245   4.335   2.909   3.027
    1C        C  246   4.435   3.095   3.146
    1C        C  247   4.373   2.969   3.150
    1C        C  248   4.457   3.162   3.269
    1C        C  249   4.434   3.099   3.393
    1C        C  250   4.504   3.303   3.513
    1C        C  251   4.462   3.169   3.513
    1C        C  252   4.519   3.371   3.636
    1C        C  253   4.506   3.301   3.758
    1C        C  254   4.528   3.514   3.875
    1C        C  255   4.526   3.372   3.878
    1C        C  256   4.522   3.587   3.996
    1C        C  257   4.533   3.518   4.119
    1C        C  258   4.494   3.730   4.238
    1C        C  259   4.518   3.590   4.240
    1C        C  260   4.475   3.802   4.358
    1C        C  261   4.489   3.734   4.481
    1C        C  262   4.425   3.936   4.603
    1C        C  263   4.474   3.804   4.603
    1C        C  264   4.397   4.004   4.724
    1C        C  265   4.439   3.943   4.844
    1C        C  266   4.322   4.124   4.954
    1C        C  267   4.396   4.007   4.961
    1C        C  268   4.260   2.776   2.060
    1C        C  269   4.201   2.726   2.177
    1C        C  270   4.341   2.889   2.296
    1C        C  271   4.252   2.778   2.298
    1C        C  272   4.380   2.952   2.416
    1C        C  273   4.347   2.889   2.538
    1C        C  274   4.448   3.081   2.660
    1C        C  275   4.382   2.956   2.658
    1C        C  276   4.476   3.149   2.781
    1C        C  277   4.445   3.085   2.903
    1C        C  278   4.505   3.293   3.021
    1C        C  279   4.464   3.157   3.023
    1C        C  280   4.519   3.364   3.143
    1C        C  281   4.499   3.297   3.266
    1C        C  282   4.523   3.508   3.388
    1C        C  283   4.516   3.367   3.387
    1C        C  284   4.521   3.581   3.510
    1C        C  285   4.524   3.512   3.633
    1C        C  286   4.497   3.724   3.750
    1C        C  287   4.525   3.586   3.754
    1C        C  288   4.479   3.793   3.873
    1C        C  289   4.497   3.726   3.996
    1C        C  290   4.422   3.928   4.113
    1C        C  291   4.475   3.798   4.115
    1C        C  292   4.394   3.994   4.236
    1C        C  293   4.427   3.934   4.359
    1C        C  294   4.322   4.121   4.478
    1C        C  295   4.398   4.002   4.480
    1C        C  296   4.278   4.181   4.598
    1C        C  297   4.322   4.125   4.720
    1C        C  298   4.198   4.308   4.838
    1C        C  299   4.283   4.193   4.838
    1C        C  300   4.166   4.398   4.945
    1C        C  301   4.352   2.881   2.062
    1C        C  302   4.475   3.064   2.177
    1C        C  303   4.399   2.943   2.178
    1C        C  304   4.488   3.137   2.298
    1C        C  305   4.448   3.076   2.419
    1C        C  306   4.511   3.284   2.534
    1C        C  307   4.474   3.147   2.539
    1C        C  308   4.521   3.355   2.655
    1C        C  309   4.509   3.286   2.778
    1C        C  310   4.528   3.501   2.899
    1C        C  311   4.520   3.360   2.898
    1C        C  312   4.523   3.573   3.021
    1C        C  313   4.530   3.505   3.144
    1C        C  314   4.492   3.716   3.263
    1C        C  315   4.519   3.577   3.265
    1C        C  316   4.475   3.787   3.384
    1C        C  317   4.494   3.719   3.507
    1C        C  318   4.425   3.922   3.626
    1C        C  319   4.479   3.791   3.627
    1C        C  320   4.389   3.984   3.748
    1C        C  321   4.421   3.921   3.871
    1C        C  322   4.310   4.107   3.990
    1C        C  323   4.389   3.990   3.990
    1C        C  324   4.272   4.165   4.113
    1C        C  325   4.322   4.115   4.236
    1C        C  326   4.181   4.278   4.353
    1C        C  327   4.280   4.178   4.355
    1C        C  328   4.132   4.333   4.473
    1C        C  329   4.187   4.289   4.595
    1C        C  330   4.022   4.429   4.714
    1C        C  331   4.138   4.347   4.715
    1C        C  332   3.967   4.488   4.830
    1C        C  333   4.050   4.476   4.942
    1C        C  334   4.553   3.268   2.063
    1C        C  335   4.533   3.129   2.063
    1C        C  336   4.539   3.350   2.176
    1C        C  337   4.516   3.276   2.294
    1C        C  338   4.523   3.495   2.410
    1C        C  339   4.524   3.353   2.412
    1C        C  340   4.520   3.566   2.532
    1C        C  341   4.524   3.497   2.655
    1C        C  342   4.496   3.708   2.771
    1C        C  343   4.523   3.570   2.776
    1C        C  344   4.477   3.777   2.893
    1C        C  345   4.490   3.710   3.017
    1C        C  346   4.425   3.913   3.136
    1C        C  347   4.470   3.779   3.139
    1C        C  348   4.388   3.978   3.256
    1C        C  349   4.426   3.919   3.379
    1C        C  350   4.316   4.099   3.501
    1C        C  351   4.397   3.983   3.502
    1C        C  352   4.272   4.159   3.621
    1C        C  353   4.314   4.103   3.744
    1C        C  354   4.172   4.263   3.868
    1C        C  355   4.269   4.160   3.866
    1C        C  356   4.117   4.313   3.988
    1C        C  357   4.177   4.269   4.108
    1C        C  358   4.013   4.405   4.229
    1C        C  359   4.125   4.320   4.230
    1C        C  360   3.952   4.445   4.350
    1C        C  361   4.015   4.414   4.472
    1C        C  362   3.829   4.518   4.591
    1C        C  363   3.957   4.458   4.592
    1C        C  364   3.761   4.548   4.712
    1C        C  365   3.838   4.546   4.830
    1C        C  366   3.626   4.595   4.946
    1C        C  367   3.764   4.574   4.946
    1C        C  368   4.511   3.563   2.050
    1C        C  369   4.519   3.490   2.169
    1C        C  370   4.499   3.706   2.283
    1C        C  371   4.514   3.566   2.288
    1C        C  372   4.479   3.773   2.406
    1C        C  373   4.498   3.705   2.528
    1C        C  374   4.420   3.904   2.649
    1C        C  375   4.477   3.776   2.649
    1C        C  376   4.389   3.968   2.771
    1C        C  377   4.427   3.909   2.894
    1C        C  378   4.307   4.088   3.010
    1C        C  379   4.394   3.977   3.014
    1C        C  380   4.263   4.145   3.131
    1C        C  381   4.307   4.093   3.255
    1C        C  382   4.170   4.252   3.378
    1C        C  383   4.268   4.150   3.378
    1C        C  384   4.116   4.301   3.499
    1C        C  385   4.175   4.262   3.621
    1C        C  386   4.005   4.388   3.742
    1C        C  387   4.121   4.307   3.744
    1C        C  388   3.944   4.429   3.862
    1C        C  389   4.000   4.392   3.986
    1C        C  390   3.816   4.492   4.106
    1C        C  391   3.946   4.438   4.109
    1C        C  392   3.748   4.512   4.228
    1C        C  393   3.820   4.498   4.349
    1C        C  394   3.617   4.555   4.475
    1C        C  395   3.757   4.531   4.471
    1C        C  396   3.544   4.565   4.595
    1C        C  397   3.621   4.569   4.713
    1C        C  398   3.409   4.549   4.837
    1C        C  399   3.546   4.580   4.832
    1C        C  400   3.342   4.518   4.957
    1C        C  401   4.506   3.702   2.046
    1C        C  402   4.450   3.914   2.164
    1C        C  403   4.493   3.779   2.162
    1C        C  404   4.404   3.972   2.285
    1C        C  405   4.426   3.904   2.406
    1C        C  406   4.317   4.089   2.525
    1C        C  407   4.391   3.969   2.527
    1C        C  408   4.275   4.148   2.647
    1C        C  409   4.315   4.089   2.769
    1C        C  410   4.171   4.251   2.889
    1C        C  411   4.263   4.144   2.888
    1C        C  412   4.119   4.298   3.011
    1C        C  413   4.168   4.250   3.135
    1C        C  414   3.996   4.373   3.254
    1C        C  415   4.117   4.300   3.256
    1C        C  416   3.938   4.414   3.376
    1C        C  417   4.000   4.381   3.499
    1C        C  418   3.811   4.478   3.618
    1C        C  419   3.940   4.420   3.621
    1C        C  420   3.747   4.508   3.740
    1C        C  421   3.816   4.488   3.862
    1C        C  422   3.611   4.544   3.986
    1C        C  423   3.750   4.518   3.984
    1C        C  424   3.541   4.547   4.109
    1C        C  425   3.610   4.542   4.232
    1C        C  426   3.401   4.555   4.357
    1C        C  427   3.542   4.556   4.355
    1C        C  428   3.329   4.550   4.478
    1C        C  429   3.403   4.558   4.598
    1C        C  430   3.191   4.524   4.723
    1C        C  431   3.331   4.550   4.719
    1C        C  432   3.122   4.499   4.844
    1C        C  433   3.205   4.496   4.957
    1C        C  434   4.380   4.122   2.051
    1C        C  435   4.443   3.996   2.051
    1C        C  436   4.300   4.161   2.162
    1C        C  437   4.333   4.095   2.284
    1C        C  438   4.178   4.247   2.401
    1C        C  439   4.279   4.148   2.403
    1C        C  440   4.117   4.287   2.523
    1C        C  441   4.174   4.246   2.646
    1C        C  442   4.002   4.376   2.765
    1C        C  443   4.120   4.297   2.766
    1C        C  444   3.941   4.412   2.888
    1C        C  445   4.003   4.378   3.010
    1C        C  446   3.807   4.466   3.128
    1C        C  447   3.935   4.407   3.131
    1C        C  448   3.745   4.495   3.251
    1C        C  449   3.811   4.475   3.375
    1C        C  450   3.605   4.533   3.497
    1C        C  451   3.743   4.500   3.496
    1C        C  452   3.540   4.545   3.621
    1C        C  453   3.609   4.539   3.744
    1C        C  454   3.398   4.543   3.865
    1C        C  455   3.539   4.552   3.865
    1C        C  456   3.330   4.536   3.989
    1C        C  457   3.400   4.546   4.111
    1C        C  458   3.194   4.510   4.237
    1C        C  459   3.331   4.542   4.235
    1C        C  460   3.127   4.487   4.359
    1C        C  461   3.193   4.513   4.482
    1C        C  462   2.996   4.431   4.604
    1C        C  463   3.123   4.491   4.603
    1C        C  464   2.932   4.398   4.726
    1C        C  465   2.988   4.448   4.846
    1C        C  466   2.802   4.341   4.961
    1C        C  467   2.905   4.436   4.962
    1C        C  468   4.118   4.280   2.041
    1C        C  469   4.186   4.248   2.160
    1C        C  470   4.007   4.371   2.277
    1C        C  471   4.128   4.297   2.279
    1C        C  472   3.940   4.402   2.398
    1C        C  473   4.000   4.366   2.520
    1C        C  474   3.811   4.461   2.642
    1C        C  475   3.942   4.409   2.642
    1C        C  476   3.744   4.488   2.763
    1C        C  477   3.813   4.470   2.885
    1C        C  478   3.604   4.520   3.006
    1C        C  479   3.743   4.494   3.005
    1C        C  480   3.534   4.531   3.129
    1C        C  481   3.607   4.524   3.250
    1C        C  482   3.397   4.532   3.375
    1C        C  483   3.538   4.534   3.373
    1C        C  484   3.330   4.525   3.499
    1C        C  485   3.399   4.539   3.621
    1C        C  486   3.190   4.497   3.744
    1C        C  487   3.328   4.531   3.743
    1C        C  488   3.129   4.473   3.869
    1C        C  489   3.195   4.496   3.992
    1C        C  490   3.009   4.404   4.115
    1C        C  491   3.129   4.478   4.116
    1C        C  492   2.946   4.374   4.238
    1C        C  493   3.002   4.422   4.359
    1C        C  494   2.830   4.301   4.484
    1C        C  495   2.938   4.392   4.481
    1C        C  496   2.772   4.257   4.605
    1C        C  497   2.818   4.313   4.727
    1C        C  498   2.661   4.170   4.843
    1C        C  499   2.753   4.277   4.847
    1C        C  500   2.593   4.118   4.954
    1C        C  501   4.000   4.353   2.040
    1C        C  502   3.812   4.462   2.153
    1C        C  503   3.940   4.403   2.156
    1C        C  504   3.744   4.480   2.275
    1C        C  505   3.811   4.459   2.398
    1C        C  506   3.605   4.511   2.518
    1C        C  507   3.744   4.482   2.520
    1C        C  508   3.534   4.523   2.640
    1C        C  509   3.606   4.518   2.761
    1C        C  510   3.394   4.526   2.884
    1C        C  511   3.535   4.525   2.883
    1C        C  512   3.323   4.526   3.007
    1C        C  513   3.393   4.534   3.130
    1C        C  514   3.187   4.494   3.253
    1C        C  515   3.324   4.526   3.253
    1C        C  516   3.123   4.469   3.377
    1C        C  517   3.192   4.494   3.498
    1C        C  518   3.003   4.402   3.625
    1C        C  519   3.126   4.472   3.621
    1C        C  520   2.948   4.362   3.749
    1C        C  521   3.006   4.403   3.871
    1C        C  522   2.835   4.281   3.998
    1C        C  523   2.948   4.365   3.993
    1C        C  524   2.788   4.230   4.121
    1C        C  525   2.832   4.291   4.241
    1C        C  526   2.697   4.132   4.364
    1C        C  527   2.780   4.246   4.364
    1C        C  528   2.648   4.077   4.485
    1C        C  529   2.687   4.144   4.603
    1C        C  530   2.589   3.961   4.730
    1C        C  531   2.637   4.095   4.726
    1C        C  532   2.545   3.899   4.850
    1C        C  533   2.525   3.995   4.954
    1C        C  534   3.615   4.558   2.037
    1C        C  535   3.751   4.521   2.042
    1C        C  536   3.537   4.536   2.155
    1C        C  537   3.605   4.511   2.277
    1C        C  538   3.392   4.519   2.395
    1C        C  539   3.533   4.522   2.398
    1C        C  540   3.322   4.514   2.518
    1C        C  541   3.393   4.522   2.640
    1C        C  542   3.186   4.482   2.763
    1C        C  543   3.323   4.515   2.763
    1C        C  544   3.120   4.464   2.887
    1C        C  545   3.187   4.490   3.008
    1C        C  546   2.997   4.401   3.133
    1C        C  547   3.120   4.470   3.131
    1C        C  548   2.939   4.365   3.257
    1C        C  549   2.998   4.403   3.379
    1C        C  550   2.830   4.279   3.505
    1C        C  551   2.941   4.366   3.503
    1C        C  552   2.784   4.229   3.629
    1C        C  553   2.836   4.277   3.752
    1C        C  554   2.702   4.118   3.876
    1C        C  555   2.783   4.234   3.876
    1C        C  556   2.655   4.063   3.998
    1C        C  557   2.698   4.121   4.119
    1C        C  558   2.596   3.941   4.247
    1C        C  559   2.659   4.068   4.244
    1C        C  560   2.569   3.876   4.369
    1C        C  561   2.593   3.947   4.489
    1C        C  562   2.536   3.747   4.616
    1C        C  563   2.570   3.884   4.613
    1C        C  564   2.520   3.679   4.739
    1C        C  565   2.525   3.757   4.858
    1C        C  566   2.534   3.548   4.978
    1C        C  567   2.530   3.687   4.979
    1C        C  568   3.324   4.480   2.036
    1C        C  569   3.397   4.510   2.152
    1C        C  570   3.184   4.476   2.282
    1C        C  571   3.322   4.510   2.273
    1C        C  572   3.114   4.456   2.403
    1C        C  573   3.184   4.485   2.522
    1C        C  574   2.989   4.399   2.647
    1C        C  575   3.114   4.463   2.643
    1C        C  576   2.931   4.358   2.769
    1C        C  577   2.994   4.400   2.888
    1C        C  578   2.826   4.275   3.013
    1C        C  579   2.935   4.365   3.011
    1C        C  580   2.781   4.224   3.137
    1C        C  581   2.830   4.274   3.259
    1C        C  582   2.698   4.113   3.384
    1C        C  583   2.783   4.226   3.383
    1C        C  584   2.663   4.056   3.508
    1C        C  585   2.699   4.116   3.631
    1C        C  586   2.599   3.933   3.757
    1C        C  587   2.661   4.060   3.754
    1C        C  588   2.573   3.868   3.880
    1C        C  589   2.597   3.935   4.002
    1C        C  590   2.532   3.736   4.128
    1C        C  591   2.573   3.871   4.126
    1C        C  592   2.518   3.670   4.252
    1C        C  593   2.533   3.740   4.374
    1C        C  594   2.514   3.531   4.496
    1C        C  595   2.526   3.671   4.498
    1C        C  596   2.516   3.464   4.621
    1C        C  597   2.515   3.537   4.741
    1C        C  598   2.533   3.326   4.865
    1C        C  599   2.526   3.467   4.864
    1C        C  600   2.535   3.244   4.979
    1C        C  601   3.192   4.441   2.041
    1C        C  602   2.984   4.391   2.160
    1C        C  603   3.119   4.439   2.161
    1C        C  604   2.925   4.354   2.283
    1C        C  605   2.988   4.392   2.404
    1C        C  606   2.819   4.267   2.529
    1C        C  607   2.926   4.359   2.526
    1C        C  608   2.767   4.216   2.650
    1C        C  609   2.822   4.268   2.769
    1C        C  610   2.689   4.108   2.893
    1C        C  611   2.774   4.221   2.893
    1C        C  612   2.654   4.051   3.018
    1C        C  613   2.697   4.110   3.138
    1C        C  614   2.592   3.929   3.267
    1C        C  615   2.658   4.054   3.262
    1C        C  616   2.572   3.863   3.390
    1C        C  617   2.601   3.929   3.512
    1C        C  618   2.535   3.730   3.636
    1C        C  619   2.573   3.866   3.635
    1C        C  620   2.518   3.663   3.760
    1C        C  621   2.529   3.734   3.881
    1C        C  622   2.508   3.527   4.009
    1C        C  623   2.516   3.668   4.005
    1C        C  624   2.511   3.456   4.131
    1C        C  625   2.507   3.530   4.252
    1C        C  626   2.535   3.321   4.379
    1C        C  627   2.508   3.460   4.374
    1C        C  628   2.555   3.253   4.501
    1C        C  629   2.535   3.324   4.622
    1C        C  630   2.590   3.119   4.742
    1C        C  631   2.545   3.254   4.744
    1C        C  632   2.617   3.050   4.863
    1C        C  633   2.553   3.105   4.979
    1C        C  634   2.780   4.300   2.052
    1C        C  635   2.891   4.385   2.051
    1C        C  636   2.746   4.227   2.167
    1C        C  637   2.808   4.273   2.285
    1C        C  638   2.679   4.106   2.408
    1C        C  639   2.765   4.218   2.408
    1C        C  640   2.640   4.045   2.530
    1C        C  641   2.683   4.103   2.652
    1C        C  642   2.584   3.917   2.778
    1C        C  643   2.648   4.043   2.775
    1C        C  644   2.559   3.856   2.902
    1C        C  645   2.590   3.925   3.021
    1C        C  646   2.529   3.725   3.148
    1C        C  647   2.568   3.861   3.145
    1C        C  648   2.514   3.656   3.271
    1C        C  649   2.532   3.728   3.391
    1C        C  650   2.515   3.518   3.518
    1C        C  651   2.524   3.659   3.514
    1C        C  652   2.511   3.449   3.641
    1C        C  653   2.509   3.522   3.762
    1C        C  654   2.531   3.316   3.888
    1C        C  655   2.507   3.455   3.887
    1C        C  656   2.556   3.251   4.011
    1C        C  657   2.540   3.318   4.134
    1C        C  658   2.616   3.123   4.259
    1C        C  659   2.558   3.252   4.258
    1C        C  660   2.640   3.057   4.381
    1C        C  661   2.604   3.121   4.502
    1C        C  662   2.702   2.932   4.623
    1C        C  663   2.631   3.054   4.624
    1C        C  664   2.748   2.873   4.743
    1C        C  665   2.703   2.935   4.862
    1C        C  666   2.745   2.871   4.979
    1C        C  667   2.691   4.019   2.056
    1C        C  668   2.680   4.103   2.167
    1C        C  669   2.582   3.913   2.293
    1C        C  670   2.637   4.044   2.289
    1C        C  671   2.557   3.845   2.415
    1C        C  672   2.580   3.917   2.534
    1C        C  673   2.515   3.716   2.660
    1C        C  674   2.557   3.850   2.656
    1C        C  675   2.511   3.647   2.784
    1C        C  676   2.525   3.718   2.905
    1C        C  677   2.497   3.511   3.029
    1C        C  678   2.511   3.651   3.029
    1C        C  679   2.508   3.442   3.152
    1C        C  680   2.509   3.515   3.273
    1C        C  681   2.534   3.307   3.401
    1C        C  682   2.513   3.446   3.397
    1C        C  683   2.551   3.240   3.525
    1C        C  684   2.528   3.309   3.646
    1C        C  685   2.604   3.112   3.771
    1C        C  686   2.548   3.242   3.769
    1C        C  687   2.635   3.051   3.895
    1C        C  688   2.603   3.118   4.016
    1C        C  689   2.713   2.934   4.134
    1C        C  690   2.639   3.054   4.137
    1C        C  691   2.750   2.876   4.257
    1C        C  692   2.712   2.935   4.380
    1C        C  693   2.753   2.878   4.502
    1C        C  694   2.631   3.893   2.059
    1C        C  695   2.532   3.702   2.175
    1C        C  696   2.582   3.834   2.176
    1C        C  697   2.508   3.636   2.298
    1C        C  698   2.515   3.710   2.417
    1C        C  699   2.479   3.503   2.544
    1C        C  700   2.495   3.644   2.540
    1C        C  701   2.498   3.435   2.666
    1C        C  702   2.506   3.506   2.787
    1C        C  703   2.526   3.297   2.911
    1C        C  704   2.500   3.436   2.909
    1C        C  705   2.547   3.233   3.035
    1C        C  706   2.535   3.303   3.157
    1C        C  707   2.601   3.104   3.279
    1C        C  708   2.552   3.236   3.280
    1C        C  709   2.632   3.044   3.403
    1C        C  710   2.601   3.108   3.525
    1C        C  711   2.712   2.931   3.648
    1C        C  712   2.632   3.047   3.648
    1C        C  713   2.757   2.876   3.770
    1C        C  714   2.710   2.932   3.891
    1C        C  715   2.753   2.875   4.012
    1C        C  716   2.452   3.496   2.062
    1C        C  717   2.489   3.631   2.062
    1C        C  718   2.464   3.419   2.182
    1C        C  719   2.479   3.497   2.301
    1C        C  720   2.512   3.291   2.425
    1C        C  721   2.480   3.428   2.424
    1C        C  722   2.542   3.224   2.546
    1C        C  723   2.527   3.296   2.666
    1C        C  724   2.592   3.096   2.793
    1C        C  725   2.541   3.227   2.789
    1C        C  726   2.623   3.032   2.915
    1C        C  727   2.595   3.100   3.036
    1C        C  728   2.708   2.920   3.158
    1C        C  729   2.629   3.037   3.157
    1C        C  730   2.750   2.867   3.282
    1C        C  731   2.708   2.925   3.404
    1C        C  732   2.756   2.874   3.527
    1C        C  733   2.492   3.195   2.073
    1C        C  734   2.483   3.277   2.186
    1C        C  735   2.579   3.083   2.305
    1C        C  736   2.523   3.213   2.307
    1C        C  737   2.617   3.023   2.427
    1C        C  738   2.588   3.091   2.548
    1C        C  739   2.698   2.912   2.671
    1C        C  740   2.620   3.030   2.672
    1C        C  741   2.743   2.853   2.792
    1C        C  742   2.705   2.916   2.913
    1C        C  743   2.751   2.863   3.035
    1C        C  744   2.538   3.064   2.078
    1C        C  745   2.684   2.892   2.189
    1C        C  746   2.597   3.004   2.189
    1C        C  747   2.731   2.837   2.310
    1C        C  748   2.688   2.901   2.428
    1C        C  749   2.737   2.850   2.551
    1C        C  750   2.739   2.839   2.072
    1C        C  751   3.655   2.314   1.979
    1C        O  752   3.723   2.214   2.013
    1C        O  753   3.645   2.325   1.840
    1C        C  754   4.624   3.056   1.972
    1C        O  755   4.600   3.031   1.851
    1C        O  756   4.742   3.003   2.025
    1C        C  757   4.443   4.216   1.955
    1C        O  758   4.535   4.293   1.993
    1C        O  759   4.429   4.217   1.816
    1C        C  760   3.590   4.669   1.943
    1C        O  761   3.550   4.777   1.994
    1C        O  762   3.623   4.666   1.807
    1C        C  763   2.873   4.490   1.949
    1C        O  764   2.871   4.460   1.826
    1C        O  765   2.843   4.626   1.960
    1C        C  766   2.349   3.462   1.962
    1C        O  767   2.381   3.450   1.841
    1C        O  768   2.212   3.479   1.985
    1C        C  769   4.676   3.582   5.072
    1C        O  770   4.635   3.578   5.191
    1C        O  771   4.805   3.637   5.059
    1C        C  772   4.255   4.435   5.058
    1C        O  773   4.236   4.399   5.177
    1C        O  774   4.314   4.561   5.058
    1C        C  775   4.145   2.501   5.061
    1C        O  776   4.240   2.434   5.013
    1C        O  777   4.166   2.528   5.197
    1C        C  778   2.873   4.543   5.059
    1C        O  779   2.768   4.612   5.045
    1C        O  780   2.915   4.547   5.193
    1C        C  781   2.461   3.023   5.061
    1C        O  782   2.339   3.053   5.064
    1C        O  783   2.504   2.948   5.170
    1C        C  784   2.397   4.005   5.028
    1C        O  785   2.298   4.072   4.990
    1C        O  786   2.365   3.933   5.143
    1C        C  787   2.949   2.408   2.013
    1C        O  788   2.902   2.430   1.898
    1C        O  789   2.892   2.298   2.076
    1C        C  790   3.188   2.381   5.071
    1C        O  791   3.159   2.264   5.035
    1C        O  792   3.176   2.403   5.209
    1C        H  793   4.259   3.039   5.044
    1C        H  794   4.184   2.809   5.072
    1C        H  795   4.478   3.132   5.067
    1C        H  796   4.543   3.367   5.059
    1C        H  797   4.567   3.808   5.047
    1C        H  798   4.370   3.945   5.044
    1C        H  799   4.264   4.149   5.040
    1C        H  800   4.047   4.563   5.005
    1C        H  801   3.798   4.528   5.036
    1C        H  802   3.586   4.656   5.025
    1C        H  803   3.392   4.525   5.051
    1C        H  804   3.161   4.498   5.055
    1C        H  805   3.881   2.517   5.070
    1C        H  806   3.676   2.416   5.053
    1C        H  807   3.021   2.578   5.072
    1C        H  808   3.444   2.458   5.076
    1C        H  809   2.867   2.730   5.080
    1C        H  810   2.734   2.925   5.071
    1C        H  811   2.520   3.288   5.075
    1C        H  812   2.589   3.509   5.061
    1C        H  813   2.477   3.732   5.060
    1C        H  814   2.571   4.188   5.032
    1C        H  815   2.772   4.310   5.059
    1C        H  816   2.724   2.886   1.977
    1C        H  817   2.837   2.675   1.982
    1C        H  818   3.207   2.408   2.002
    1C        H  819   3.438   2.480   1.981
    1C        H  820   3.863   2.502   1.969
    1C        H  821   4.052   2.639   1.967
    1C        H  822   4.259   2.714   1.973
    1C        H  823   4.402   2.897   1.968
    1C        H  824   4.593   3.313   1.975
    1C        H  825   4.493   3.506   1.962
    1C        H  826   4.561   3.748   1.967
    1C        H  827   3.817   4.551   1.963
    1C        H  828   3.941   4.344   1.951
    1C        H  829   4.124   4.206   1.964
    1C        H  830   4.495   3.973   1.961
    1C        H  831   2.655   3.825   1.980
    1C        H  832   2.772   4.036   1.987
    1C        H  833   2.717   4.291   1.966
    1C        H  834   3.376   4.438   1.953
    1C        H  835   3.141   4.481   1.956
    1C        H  836   2.517   2.998   1.996
    1C        H  837   2.479   3.234   1.974
    1C        H  838   2.464   3.687   1.974
    2V3OU   H29  839   2.798   3.543   1.699
    2V3OU   C27  840   2.778   3.499   1.800
    2V3OU   H27  841   2.721   3.570   1.865
    2V3OU   H28  842   2.723   3.403   1.786
    2V3OU   O11  843   2.907   3.476   1.858
    2V3OU   C15  844   2.920   3.394   1.968
    2V3OU   C13  845   3.050   3.370   2.017
    2V3OU   C14  846   3.074   3.270   2.112
    2V3OU   C16  847   2.972   3.188   2.159
    2V3OU    H6  848   2.991   3.099   2.221
    2V3OU   C12  849   3.212   3.222   2.137
    2V3OU    O2  850   3.235   3.120   2.207
    2V3OU   C10  851   3.326   3.309   2.107
    2V3OU    C8  852   3.456   3.270   2.138
    2V3OU   O10  853   3.487   3.153   2.200
    2V3OU   H26  854   3.400   3.111   2.210
    2V3OU    C6  855   3.565   3.354   2.097
    2V3OU    C5  856   3.536   3.467   2.021
    2V3OU    C4  857   3.701   3.295   2.110
    2V3OU    H4  858   3.726   3.231   2.200
    2V3OU    H5  859   3.710   3.227   2.020
    2V3OU    C2  860   3.815   3.398   2.102
    2V3OU    O6  861   3.805   3.483   2.217
    2V3OU   H21  862   3.752   3.557   2.184
    2V3OU    C3  863   3.782   3.497   1.990
    2V3OU    H2  864   3.859   3.578   1.980
    2V3OU    H3  865   3.774   3.441   1.893
    2V3OU   C25  866   3.950   3.327   2.095
    2V3OU    O7  867   3.993   3.290   1.985
    2V3OU   C26  868   4.028   3.288   2.219
    2V3OU   H22  869   4.069   3.381   2.268
    2V3OU   H23  870   4.111   3.218   2.192
    2V3OU    O8  871   3.959   3.209   2.313
    2V3OU   H24  872   3.931   3.270   2.384
    2V3OU    C1  873   3.648   3.566   2.007
    2V3OU    H1  874   3.625   3.620   1.910
    2V3OU    O3  875   3.660   3.655   2.118
    2V3OU   C19  876   3.615   3.789   2.100
    2V3OU    H9  877   3.516   3.805   2.048
    2V3OU    O4  878   3.712   3.851   2.019
    2V3OU   C20  879   3.842   3.877   2.072
    2V3OU   H10  880   3.892   3.778   2.092
    2V3OU   C24  881   3.610   3.854   2.239
    2V3OU   H16  882   3.538   3.798   2.304
    2V3OU   H17  883   3.567   3.956   2.221
    2V3OU   C23  884   3.748   3.874   2.302
    2V3OU   H15  885   3.793   3.771   2.318
    2V3OU    N1  886   3.739   3.955   2.422
    2V3OU   H19  887   3.809   3.917   2.482
    2V3OU   H20  888   3.651   3.944   2.469
    2V3OU   C21  889   3.850   3.946   2.209
    2V3OU   H11  890   3.956   3.922   2.242
    2V3OU    O5  891   3.832   4.087   2.204
    2V3OU   H18  892   3.789   4.109   2.288
    2V3OU   C22  893   3.916   3.948   1.960
    2V3OU   H12  894   3.867   4.047   1.940
    2V3OU   H13  895   3.907   3.887   1.867
    2V3OU   H14  896   4.022   3.967   1.990
    2V3OU   C11  897   3.157   3.468   1.994
    2V3OU    O1  898   3.131   3.585   1.960
    2V3OU    C9  899   3.293   3.424   2.030
    2V3OU    C7  900   3.402   3.497   1.983
    2V3OU    O9  901   3.387   3.622   1.926
    2V3OU   H25  902   3.291   3.628   1.914
    2V3OU   C17  903   2.817   3.314   2.024
    2V3OU    H7  904   2.712   3.337   2.007
    2V3OU   C18  905   2.843   3.209   2.111
    2V3OU    H8  906   2.759   3.164   2.166
    3SOL     OW  907   2.659   4.371   1.053
    3SOL    HW1  908   2.710   4.397   1.136
    3SOL    HW2  909   2.568   4.340   1.079
    4SOL     OW  910   6.410   5.509   1.688
    4SOL    HW1  911   6.449   5.440   1.749
    4SOL    HW2  912   6.312   5.494   1.678
    5SOL     OW  913   3.479   1.442   3.339
    5SOL    HW1  914   3.545   1.373   3.366
    5SOL    HW2  915   3.503   1.530   3.380
    6SOL     OW  916   4.513   1.395   1.860
    6SOL    HW1  917   4.462   1.481   1.850
    6SOL    HW2  918   4.611   1.416   1.868
    7SOL     OW  919   6.018   3.176   2.273
    7SOL    HW1  920   6.117   3.177   2.258
    7SOL    HW2  921   5.971   3.183   2.185
    8SOL     OW  922   2.694   6.680   5.699
    8SOL    HW1  923   2.649   6.642   5.618
    8SOL    HW2  924   2.767   6.618   5.728
    9SOL     OW  925   0.547   5.021   5.966
    9SOL    HW1  926   0.455   5.020   5.928
    9SOL    HW2  927   0.567   4.932   6.008
   10SOL     OW  928   1.391   4.803   5.519
   10SOL    HW1  929   1.330   4.791   5.441
   10SOL    HW2  930   1.338   4.801   5.603
   11SOL     OW  931   3.001   0.110   0.009
   11SOL    HW1  932   2.981   0.081   6.938
   11SOL    HW2  933   2.985   0.208   0.018
   12SOL     OW  934   4.284   6.315   3.821
   12SOL    HW1  935   4.351   6.387   3.800
   12SOL    HW2  936   4.310   6.270   3.906
   13SOL     OW  937   3.205   5.597   3.958
   13SOL    HW1  938   3.265   5.675   3.944
   13SOL    HW2  939   3.245   5.535   4.025
   14SOL     OW  940   4.728   5.572   6.673
   14SOL    HW1  941   4.681   5.506   6.614
   14SOL    HW2  942   4.661   5.621   6.728
   15SOL     OW  943   1.091   5.082   0.544
   15SOL    HW1  944   1.142   5.146   0.602
   15SOL    HW2  945   1.102   4.989   0.579
   16SOL     OW  946   5.318   2.854   5.597
   16SOL    HW1  947   5.370   2.859   5.683
   16SOL    HW2  948   5.381   2.836   5.521
   17SOL     OW  949   5.649   6.143   5.223
   17SOL    HW1  950   5.734   6.107   5.184
   17SOL    HW2  951   5.613   6.078   5.289
   18SOL     OW  952   2.997   1.067   6.400
   18SOL    HW1  953   3.061   1.054   6.324
   18SOL    HW2  954   2.948   0.982   6.418
   19SOL     OW  955   0.248   0.188   3.256
   19SOL    HW1  956   0.273   0.091   3.254
   19SOL    HW2  957   0.312   0.240   3.199
   20SOL     OW  958   4.271   1.785   4.132
   20SOL    HW1  959   4.333   1.840   4.075
   20SOL    HW2  960   4.291   1.688   4.120
   21SOL     OW  961   3.319   2.037   2.136
   21SOL    HW1  962   3.291   2.025   2.041
   21SOL    HW2  963   3.418   2.026   2.143
   22SOL     OW  964   2.519   0.003   0.550
   22SOL    HW1  965   2.586   6.953   0.531
   22SOL    HW2  966   2.489   7.018   0.645
   23SOL     OW  967   4.166   6.747   3.233
   23SOL    HW1  968   4.209   6.831   3.201
   23SOL    HW2  969   4.232   6.695   3.288
   24SOL     OW  970   4.957   1.312   3.357
   24SOL    HW1  971   5.032   1.254   3.325
   24SOL    HW2  972   4.870   1.271   3.331
   25SOL     OW  973   3.605   6.651   5.626
   25SOL    HW1  974   3.572   6.730   5.573
   25SOL    HW2  975   3.527   6.607   5.671
   26SOL     OW  976   6.432   1.182   0.390
   26SOL    HW1  977   6.470   1.158   0.301
   26SOL    HW2  978   6.454   1.111   0.457
   27SOL     OW  979   0.453   1.519   1.658
   27SOL    HW1  980   0.380   1.547   1.720
   27SOL    HW2  981   0.471   1.421   1.669
   28SOL     OW  982   3.988   1.286   6.868
   28SOL    HW1  983   3.995   1.187   6.853
   28SOL    HW2  984   3.901   1.319   6.833
   29SOL     OW  985   6.080   2.721   1.857
   29SOL    HW1  986   6.076   2.714   1.956
   29SOL    HW2  987   6.085   2.629   1.818
   30SOL     OW  988   4.196   0.513   5.249
   30SOL    HW1  989   4.181   0.483   5.155
   30SOL    HW2  990   4.217   0.611   5.250
   31SOL     OW  991   0.303   2.076   5.977
   31SOL    HW1  992   0.381   2.095   6.037
   31SOL    HW2  993   0.326   2.003   5.913
   32SOL     OW  994   6.696   1.108   3.001
   32SOL    HW1  995   6.664   1.050   2.926
   32SOL    HW2  996   6.756   1.055   3.060
   33SOL     OW  997   2.591   3.353   0.139
   33SOL    HW1  998   2.667   3.417   0.149
   33SOL    HW2  999   2.628   3.260   0.126
   34SOL     OW 1000   2.020   1.468   3.881
   34SOL    HW1 1001   1.961   1.398   3.840
   34SOL    HW2 1002   1.970   1.515   3.953
   35SOL     OW 1003   3.674   1.766   0.031
   35SOL    HW1 1004   3.632   1.705   0.098
   35SOL    HW2 1005   3.644   1.860   0.047
   36SOL     OW 1006   0.422   1.076   6.596
   36SOL    HW1 1007   0.516   1.104   6.577
   36SOL    HW2 1008   0.377   1.048   6.511
   37SOL     OW 1009   1.658   0.879   0.225
   37SOL    HW1 1010   1.651   0.975   0.250
   37SOL    HW2 1011   1.585   0.827   0.269
   38SOL     OW 1012   0.320   4.654   2.182
   38SOL    HW1 1013   0.248   4.664   2.251
   38SOL    HW2 1014   0.393   4.597   2.220
   39SOL     OW 1015   6.661   4.863   6.708
   39SOL    HW1 1016   6.684   4.766   6.697
   39SOL    HW2 1017   6.633   4.881   6.802
   40SOL     OW 1018   5.876   2.540   1.261
   40SOL    HW1 1019   5.790   2.495   1.238
   40SOL    HW2 1020   5.903   2.515   1.354
   41SOL     OW 1021   0.423   6.342   4.383
   41SOL    HW1 1022   0.369   6.262   4.355
   41SOL    HW2 1023   0.471   6.379   4.304
   42SOL     OW 1024   2.698   5.703   6.129
   42SOL    HW1 1025   2.768   5.702   6.200
   42SOL    HW2 1026   2.610   5.674   6.169
   43SOL     OW 1027   5.629   6.272   5.563
   43SOL    HW1 1028   5.630   6.221   5.649
   43SOL    HW2 1029   5.545   6.326   5.557
   44SOL     OW 1030   5.682   2.800   6.083
   44SOL    HW1 1031   5.669   2.759   6.173
   44SOL    HW2 1032   5.711   2.730   6.018
   45SOL     OW 1033   3.310   6.840   3.534
   45SOL    HW1 1034   3.222   6.853   3.489
   45SOL    HW2 1035   3.314   6.749   3.575
   46SOL     OW 1036   1.262   3.414   4.292
   46SOL    HW1 1037   1.346   3.461   4.265
   46SOL    HW2 1038   1.248   3.424   4.391
   47SOL     OW 1039   5.197   4.418   2.442
   47SOL    HW1 1040   5.245   4.339   2.403
   47SOL    HW2 1041   5.157   4.392   2.530
   48SOL     OW 1042   0.215   2.936   5.790
   48SOL    HW1 1043   0.220   2.876   5.870
   48SOL    HW2 1044   0.127   2.983   5.788
   49SOL     OW 1045   4.315   4.010   1.657
   49SOL    HW1 1046   4.338   4.055   1.571
   49SOL    HW2 1047   4.318   4.076   1.732
   50SOL     OW 1048   6.327   2.743   5.921
   50SOL    HW1 1049   6.403   2.808   5.914
   50SOL    HW2 1050   6.297   2.718   5.829
   51SOL     OW 1051   3.075   6.294   2.699
   51SOL    HW1 1052   3.020   6.283   2.616
   51SOL    HW2 1053   3.025   6.254   2.777
   52SOL     OW 1054   5.117   2.856   3.330
   52SOL    HW1 1055   5.049   2.911   3.378
   52SOL    HW2 1056   5.089   2.843   3.235
   53SOL     OW 1057   4.208   0.412   4.728
   53SOL    HW1 1058   4.266   0.493   4.742
   53SOL    HW2 1059   4.188   0.403   4.630
   54SOL     OW 1060   3.873   4.982   0.641
   54SOL    HW1 1061   3.853   4.892   0.602
   54SOL    HW2 1062   3.807   5.049   0.606
   55SOL     OW 1063   3.374   1.329   6.265
   55SOL    HW1 1064   3.467   1.365   6.280
   55SOL    HW2 1065   3.353   1.330   6.167
   56SOL     OW 1066   0.841   0.394   1.592
   56SOL    HW1 1067   0.863   0.399   1.495
   56SOL    HW2 1068   0.767   0.459   1.613
   57SOL     OW 1069   5.439   0.606   0.808
   57SOL    HW1 1070   5.455   0.679   0.742
   57SOL    HW2 1071   5.504   0.531   0.791
   58SOL     OW 1072   6.454   6.610   5.175
   58SOL    HW1 1073   6.522   6.613   5.101
   58SOL    HW2 1074   6.466   6.689   5.235
   59SOL     OW 1075   1.771   1.510   6.208
   59SOL    HW1 1076   1.861   1.548   6.233
   59SOL    HW2 1077   1.762   1.418   6.246
   60SOL     OW 1078   5.995   1.320   6.227
   60SOL    HW1 1079   5.912   1.365   6.261
   60SOL    HW2 1080   5.972   1.228   6.197
   61SOL     OW 1081   5.095   2.019   4.644
   61SOL    HW1 1082   5.035   2.077   4.699
   61SOL    HW2 1083   5.068   1.923   4.657
   62SOL     OW 1084   0.204   0.602   3.398
   62SOL    HW1 1085   0.231   0.520   3.448
   62SOL    HW2 1086   0.277   0.627   3.334
   63SOL     OW 1087   6.645   1.321   4.041
   63SOL    HW1 1088   6.608   1.229   4.047
   63SOL    HW2 1089   6.575   1.387   4.071
   64SOL     OW 1090   0.317   3.808   6.650
   64SOL    HW1 1091   0.363   3.893   6.623
   64SOL    HW2 1092   0.360   3.731   6.604
   65SOL     OW 1093   6.802   4.605   5.411
   65SOL    HW1 1094   6.851   4.521   5.431
   65SOL    HW2 1095   6.797   4.662   5.493
   66SOL     OW 1096   3.799   0.615   6.831
   66SOL    HW1 1097   3.783   0.698   6.778
   66SOL    HW2 1098   3.809   0.538   6.769
   67SOL     OW 1099   5.293   4.348   5.490
   67SOL    HW1 1100   5.291   4.448   5.488
   67SOL    HW2 1101   5.347   4.314   5.413
   68SOL     OW 1102   5.892   0.726   6.641
   68SOL    HW1 1103   5.973   0.752   6.693
   68SOL    HW2 1104   5.840   0.808   6.617
   69SOL     OW 1105   1.057   3.359   6.649
   69SOL    HW1 1106   1.117   3.434   6.679
   69SOL    HW2 1107   1.093   3.320   6.565
   70SOL     OW 1108   6.168   4.658   3.460
   70SOL    HW1 1109   6.103   4.690   3.529
   70SOL    HW2 1110   6.261   4.668   3.495
   71SOL     OW 1111   4.485   1.836   2.758
   71SOL    HW1 1112   4.566   1.782   2.781
   71SOL    HW2 1113   4.410   1.775   2.733
   72SOL     OW 1114   3.106   5.915   4.915
   72SOL    HW1 1115   3.194   5.868   4.919
   72SOL    HW2 1116   3.054   5.883   4.836
   73SOL     OW 1117   3.601   1.427   0.871
   73SOL    HW1 1118   3.513   1.395   0.836
   73SOL    HW2 1119   3.599   1.427   0.971
   74SOL     OW 1120   4.984   6.236   6.046
   74SOL    HW1 1121   5.047   6.165   6.077
   74SOL    HW2 1122   4.913   6.250   6.115
   75SOL     OW 1123   4.001   0.127   6.729
   75SOL    HW1 1124   3.936   0.101   6.801
   75SOL    HW2 1125   4.009   0.052   6.663
   76SOL     OW 1126   2.350   2.507   1.480
   76SOL    HW1 1127   2.409   2.439   1.437
   76SOL    HW2 1128   2.386   2.598   1.461
   77SOL     OW 1129   5.392   6.273   4.318
   77SOL    HW1 1130   5.474   6.215   4.321
   77SOL    HW2 1131   5.313   6.220   4.350
   78SOL     OW 1132   5.845   1.073   5.744
   78SOL    HW1 1133   5.917   1.106   5.683
   78SOL    HW2 1134   5.884   1.053   5.834
   79SOL     OW 1135   3.514   6.792   0.716
   79SOL    HW1 1136   3.555   6.728   0.651
   79SOL    HW2 1137   3.508   6.883   0.675
   80SOL     OW 1138   5.729   1.682   4.426
   80SOL    HW1 1139   5.723   1.774   4.386
   80SOL    HW2 1140   5.697   1.615   4.359
   81SOL     OW 1141   2.050   0.131   3.044
   81SOL    HW1 1142   1.978   0.194   3.016
   81SOL    HW2 1143   2.139   0.166   3.016
   82SOL     OW 1144   6.602   5.597   0.446
   82SOL    HW1 1145   6.521   5.580   0.503
   82SOL    HW2 1146   6.644   5.683   0.474
   83SOL     OW 1147   6.829   0.577   0.602
   83SOL    HW1 1148   6.911   0.539   0.644
   83SOL    HW2 1149   6.773   0.503   0.564
   84SOL     OW 1150   5.290   3.321   3.791
   84SOL    HW1 1151   5.316   3.417   3.778
   84SOL    HW2 1152   5.249   3.286   3.707
   85SOL     OW 1153   1.758   1.971   5.119
   85SOL    HW1 1154   1.714   2.017   5.042
   85SOL    HW2 1155   1.736   2.019   5.204
   86SOL     OW 1156   0.563   0.810   5.688
   86SOL    HW1 1157   0.549   0.850   5.779
   86SOL    HW2 1158   0.541   0.713   5.690
   87SOL     OW 1159   4.905   3.710   0.698
   87SOL    HW1 1160   4.824   3.719   0.756
   87SOL    HW2 1161   4.876   3.689   0.604
   88SOL     OW 1162   4.027   1.556   6.307
   88SOL    HW1 1163   4.100   1.542   6.374
   88SOL    HW2 1164   4.038   1.645   6.263
   89SOL     OW 1165   0.806   2.537   5.926
   89SOL    HW1 1166   0.899   2.569   5.948
   89SOL    HW2 1167   0.783   2.459   5.984
   90SOL     OW 1168   4.275   6.604   3.436
   90SOL    HW1 1169   4.310   6.638   3.523
   90SOL    HW2 1170   4.177   6.590   3.442
   91SOL     OW 1171   4.747   4.137   4.647
   91SOL    HW1 1172   4.648   4.128   4.643
   91SOL    HW2 1173   4.784   4.145   4.554
   92SOL     OW 1174   2.775   3.970   0.776
   92SOL    HW1 1175   2.716   3.921   0.840
   92SOL    HW2 1176   2.848   3.910   0.743
   93SOL     OW 1177   2.459   3.885   6.493
   93SOL    HW1 1178   2.453   3.915   6.588
   93SOL    HW2 1179   2.372   3.845   6.465
   94SOL     OW 1180   2.792   6.345   6.175
   94SOL    HW1 1181   2.864   6.277   6.161
   94SOL    HW2 1182   2.703   6.302   6.168
   95SOL     OW 1183   0.907   0.876   2.974
   95SOL    HW1 1184   0.964   0.951   2.940
   95SOL    HW2 1185   0.822   0.913   3.011
   96SOL     OW 1186   3.720   7.009   5.279
   96SOL    HW1 1187   3.751   0.081   5.270
   96SOL    HW2 1188   3.668   6.983   5.197
   97SOL     OW 1189   1.247   3.251   6.172
   97SOL    HW1 1190   1.203   3.237   6.083
   97SOL    HW2 1191   1.303   3.171   6.194
   98SOL     OW 1192   6.335   4.101   0.567
   98SOL    HW1 1193   6.255   4.158   0.585
   98SOL    HW2 1194   6.323   4.053   0.481
   99SOL     OW 1195   4.485   3.879   1.233
   99SOL    HW1 1196   4.578   3.872   1.196
   99SOL    HW2 1197   4.487   3.925   1.321
  100SOL     OW 1198   0.303   0.379   5.705
  100SOL    HW1 1199   0.223   0.325   5.733
  100SOL    HW2 1200   0.353   0.331   5.633
  101SOL     OW 1201   1.275   5.847   2.665
  101SOL    HW1 1202   1.340   5.846   2.589
  101SOL    HW2 1203   1.320   5.881   2.748
  102SOL     OW 1204   4.235   0.659   2.270
  102SOL    HW1 1205   4.322   0.650   2.318
  102SOL    HW2 1206   4.205   0.569   2.239
  103SOL     OW 1207   3.213   0.876   2.555
  103SOL    HW1 1208   3.275   0.913   2.624
  103SOL    HW2 1209   3.138   0.940   2.539
  104SOL     OW 1210   0.123   5.342   2.568
  104SOL    HW1 1211   0.181   5.261   2.577
  104SOL    HW2 1212   0.027   5.316   2.577
  105SOL     OW 1213   6.707   2.614   6.259
  105SOL    HW1 1214   6.803   2.637   6.273
  105SOL    HW2 1215   6.699   2.518   6.232
  106SOL     OW 1216   3.638   6.203   4.706
  106SOL    HW1 1217   3.704   6.189   4.779
  106SOL    HW2 1218   3.574   6.126   4.704
  107SOL     OW 1219   1.444   1.312   1.952
  107SOL    HW1 1220   1.541   1.308   1.928
  107SOL    HW2 1221   1.388   1.301   1.870
  108SOL     OW 1222   3.965   5.336   5.547
  108SOL    HW1 1223   4.024   5.417   5.552
  108SOL    HW2 1224   4.019   5.257   5.518
  109SOL     OW 1225   0.812   1.012   1.355
  109SOL    HW1 1226   0.792   1.109   1.369
  109SOL    HW2 1227   0.826   0.995   1.257
  110SOL     OW 1228   3.977   6.205   5.207
  110SOL    HW1 1229   4.076   6.216   5.202
  110SOL    HW2 1230   3.937   6.279   5.260
  111SOL     OW 1231   3.305   0.759   5.082
  111SOL    HW1 1232   3.345   0.850   5.068
  111SOL    HW2 1233   3.377   0.695   5.110
  112SOL     OW 1234   5.730   6.326   6.444
  112SOL    HW1 1235   5.745   6.411   6.494
  112SOL    HW2 1236   5.742   6.343   6.346
  113SOL     OW 1237   6.242   4.759   3.207
  113SOL    HW1 1238   6.213   4.703   3.284
  113SOL    HW2 1239   6.291   4.840   3.241
  114SOL     OW 1240   1.113   0.222   1.509
  114SOL    HW1 1241   1.070   0.169   1.582
  114SOL    HW2 1242   1.046   0.286   1.472
  115SOL     OW 1243   3.889   1.642   3.456
  115SOL    HW1 1244   3.928   1.729   3.485
  115SOL    HW2 1245   3.938   1.567   3.499
  116SOL     OW 1246   6.286   5.249   1.953
  116SOL    HW1 1247   6.283   5.174   2.019
  116SOL    HW2 1248   6.380   5.262   1.921
  117SOL     OW 1249   1.332   1.119   6.694
  117SOL    HW1 1250   1.393   1.157   6.625
  117SOL    HW2 1251   1.286   1.038   6.658
  118SOL     OW 1252   1.481   1.334   3.081
  118SOL    HW1 1253   1.533   1.335   2.996
  118SOL    HW2 1254   1.534   1.288   3.152
  119SOL     OW 1255   1.058   1.639   6.303
  119SOL    HW1 1256   1.094   1.638   6.396
  119SOL    HW2 1257   1.104   1.569   6.249
  120SOL     OW 1258   6.226   6.579   0.448
  120SOL    HW1 1259   6.212   6.658   0.508
  120SOL    HW2 1260   6.184   6.597   0.359
  121SOL     OW 1261   2.298   3.761   6.292
  121SOL    HW1 1262   2.378   3.773   6.233
  121SOL    HW2 1263   2.222   3.814   6.256
  122SOL     OW 1264   1.684   4.636   6.739
  122SOL    HW1 1265   1.762   4.603   6.792
  122SOL    HW2 1266   1.707   4.725   6.697
  123SOL     OW 1267   0.095   1.629   1.645
  123SOL    HW1 1268   0.169   1.610   1.708
  123SOL    HW2 1269   0.051   1.716   1.670
  124SOL     OW 1270   5.371   3.153   0.674
  124SOL    HW1 1271   5.357   3.054   0.672
  124SOL    HW2 1272   5.336   3.189   0.761
  125SOL     OW 1273   2.499   1.688   2.195
  125SOL    HW1 1274   2.582   1.636   2.179
  125SOL    HW2 1275   2.509   1.742   2.279
  126SOL     OW 1276   2.581   3.868   1.250
  126SOL    HW1 1277   2.613   3.800   1.316
  126SOL    HW2 1278   2.598   3.960   1.285
  127SOL     OW 1279   0.361   5.606   5.983
  127SOL    HW1 1280   0.328   5.675   6.048
  127SOL    HW2 1281   0.392   5.652   5.900
  128SOL     OW 1282   4.757   2.370   1.582
  128SOL    HW1 1283   4.764   2.320   1.668
  128SOL    HW2 1284   4.811   2.324   1.512
  129SOL     OW 1285   3.315   3.037   5.880
  129SOL    HW1 1286   3.361   3.084   5.804
  129SOL    HW2 1287   3.336   3.083   5.966
  130SOL     OW 1288   0.425   1.042   4.183
  130SOL    HW1 1289   0.489   0.987   4.236
  130SOL    HW2 1290   0.443   1.139   4.198
  131SOL     OW 1291   5.218   1.767   3.138
  131SOL    HW1 1292   5.210   1.700   3.212
  131SOL    HW2 1293   5.185   1.727   3.053
  132SOL     OW 1294   2.504   2.711   0.565
  132SOL    HW1 1295   2.416   2.735   0.606
  132SOL    HW2 1296   2.501   2.617   0.531
  133SOL     OW 1297   4.999   6.944   3.973
  133SOL    HW1 1298   5.008   6.929   4.071
  133SOL    HW2 1299   5.090   6.942   3.931
  134SOL     OW 1300   5.959   1.506   2.539
  134SOL    HW1 1301   5.965   1.580   2.471
  134SOL    HW2 1302   5.950   1.418   2.492
  135SOL     OW 1303   5.691   3.706   2.729
  135SOL    HW1 1304   5.644   3.725   2.643
  135SOL    HW2 1305   5.627   3.666   2.794
  136SOL     OW 1306   3.102   3.804   6.495
  136SOL    HW1 1307   3.120   3.874   6.426
  136SOL    HW2 1308   3.168   3.813   6.570
  137SOL     OW 1309   5.374   1.540   4.742
  137SOL    HW1 1310   5.296   1.478   4.736
  137SOL    HW2 1311   5.404   1.546   4.837
  138SOL     OW 1312   0.437   4.604   3.364
  138SOL    HW1 1313   0.476   4.571   3.450
  138SOL    HW2 1314   0.373   4.536   3.328
  139SOL     OW 1315   2.776   6.756   4.885
  139SOL    HW1 1316   2.823   6.784   4.801
  139SOL    HW2 1317   2.794   6.823   4.957
  140SOL     OW 1318   0.410   5.377   3.415
  140SOL    HW1 1319   0.485   5.379   3.482
  140SOL    HW2 1320   0.425   5.300   3.352
  141SOL     OW 1321   6.328   3.295   4.841
  141SOL    HW1 1322   6.420   3.263   4.859
  141SOL    HW2 1323   6.262   3.232   4.882
  142SOL     OW 1324   2.022   4.157   0.498
  142SOL    HW1 1325   1.995   4.135   0.591
  142SOL    HW2 1326   1.945   4.141   0.436
  143SOL     OW 1327   5.611   4.399   1.698
  143SOL    HW1 1328   5.581   4.380   1.792
  143SOL    HW2 1329   5.619   4.497   1.685
  144SOL     OW 1330   1.514   6.416   6.895
  144SOL    HW1 1331   1.470   6.505   6.902
  144SOL    HW2 1332   1.549   6.403   6.802
  145SOL     OW 1333   0.392   5.083   0.171
  145SOL    HW1 1334   0.347   5.135   0.099
  145SOL    HW2 1335   0.479   5.126   0.195
  146SOL     OW 1336   5.064   0.574   6.373
  146SOL    HW1 1337   5.149   0.560   6.422
  146SOL    HW2 1338   5.073   0.540   6.279
  147SOL     OW 1339   5.817   3.756   6.769
  147SOL    HW1 1340   5.872   3.812   6.707
  147SOL    HW2 1341   5.769   3.815   6.834
  148SOL     OW 1342   0.070   5.256   6.530
  148SOL    HW1 1343   0.168   5.266   6.548
  148SOL    HW2 1344   0.018   5.317   6.591
  149SOL     OW 1345   3.044   2.124   4.558
  149SOL    HW1 1346   2.997   2.048   4.513
  149SOL    HW2 1347   3.015   2.130   4.654
  150SOL     OW 1348   5.882   5.694   6.338
  150SOL    HW1 1349   5.819   5.666   6.265
  150SOL    HW2 1350   5.946   5.761   6.303
  151SOL     OW 1351   3.503   2.507   1.112
  151SOL    HW1 1352   3.422   2.553   1.147
  151SOL    HW2 1353   3.507   2.414   1.148
  152SOL     OW 1354   1.419   1.377   3.388
  152SOL    HW1 1355   1.333   1.416   3.420
  152SOL    HW2 1356   1.485   1.451   3.373
  153SOL     OW 1357   3.035   0.450   1.674
  153SOL    HW1 1358   2.989   0.523   1.724
  153SOL    HW2 1359   3.040   0.473   1.577
  154SOL     OW 1360   0.536   2.206   2.933
  154SOL    HW1 1361   0.437   2.193   2.922
  154SOL    HW2 1362   0.561   2.186   3.028
  155SOL     OW 1363   6.575   1.594   3.581
  155SOL    HW1 1364   6.505   1.649   3.626
  155SOL    HW2 1365   6.546   1.575   3.487
  156SOL     OW 1366   0.014   2.010   0.231
  156SOL    HW1 1367   6.990   2.098   0.222
  156SOL    HW2 1368   0.075   2.013   0.310
  157SOL     OW 1369   6.289   3.329   1.716
  157SOL    HW1 1370   6.255   3.238   1.741
  157SOL    HW2 1371   6.325   3.374   1.798
  158SOL     OW 1372   2.682   5.791   1.885
  158SOL    HW1 1373   2.631   5.714   1.924
  158SOL    HW2 1374   2.627   5.874   1.895
  159SOL     OW 1375   4.517   4.554   1.928
  159SOL    HW1 1376   4.420   4.558   1.908
  159SOL    HW2 1377   4.544   4.460   1.947
  160SOL     OW 1378   6.273   5.667   0.069
  160SOL    HW1 1379   6.351   5.725   0.093
  160SOL    HW2 1380   6.293   5.618   7.006
  161SOL     OW 1381   2.263   5.561   4.699
  161SOL    HW1 1382   2.286   5.571   4.602
  161SOL    HW2 1383   2.164   5.564   4.710
  162SOL     OW 1384   3.961   6.845   6.909
  162SOL    HW1 1385   3.899   6.922   6.895
  162SOL    HW2 1386   4.035   6.849   6.841
  163SOL     OW 1387   5.182   5.860   0.842
  163SOL    HW1 1388   5.099   5.902   0.805
  163SOL    HW2 1389   5.201   5.775   0.793
  164SOL     OW 1390   6.578   5.014   0.622
  164SOL    HW1 1391   6.670   5.012   0.583
  164SOL    HW2 1392   6.541   4.921   0.625
  165SOL     OW 1393   5.466   2.755   1.547
  165SOL    HW1 1394   5.418   2.842   1.536
  165SOL    HW2 1395   5.467   2.728   1.643
  166SOL     OW 1396   6.925   5.379   3.856
  166SOL    HW1 1397   7.010   5.430   3.843
  166SOL    HW2 1398   6.934   5.288   3.816
  167SOL     OW 1399   5.581   2.632   6.926
  167SOL    HW1 1400   5.642   2.677   6.992
  167SOL    HW2 1401   5.486   2.654   6.950
  168SOL     OW 1402   2.042   3.513   1.479
  168SOL    HW1 1403   2.070   3.477   1.390
  168SOL    HW2 1404   2.069   3.449   1.551
  169SOL     OW 1405   4.103   0.611   1.827
  169SOL    HW1 1406   4.155   0.686   1.868
  169SOL    HW2 1407   4.085   0.631   1.730
  170SOL     OW 1408   0.556   0.994   3.593
  170SOL    HW1 1409   0.600   1.040   3.516
  170SOL    HW2 1410   0.464   1.032   3.605
  171SOL     OW 1411   3.853   4.710   0.570
  171SOL    HW1 1412   3.926   4.680   0.631
  171SOL    HW2 1413   3.845   4.647   0.493
  172SOL     OW 1414   6.282   1.693   4.315
  172SOL    HW1 1415   6.236   1.764   4.262
  172SOL    HW2 1416   6.378   1.687   4.287
  173SOL     OW 1417   6.775   2.358   4.383
  173SOL    HW1 1418   6.792   2.286   4.315
  173SOL    HW2 1419   6.676   2.374   4.390
  174SOL     OW 1420   3.543   5.513   4.325
  174SOL    HW1 1421   3.571   5.494   4.231
  174SOL    HW2 1422   3.596   5.456   4.388
  175SOL     OW 1423   2.394   6.867   2.378
  175SOL    HW1 1424   2.326   6.826   2.317
  175SOL    HW2 1425   2.480   6.878   2.328
  176SOL     OW 1426   0.988   4.340   1.331
  176SOL    HW1 1427   0.941   4.407   1.388
  176SOL    HW2 1428   1.051   4.388   1.270
  177SOL     OW 1429   5.551   3.104   2.850
  177SOL    HW1 1430   5.614   3.039   2.807
  177SOL    HW2 1431   5.476   3.124   2.788
  178SOL     OW 1432   2.971   2.683   6.332
  178SOL    HW1 1433   3.033   2.632   6.392
  178SOL    HW2 1434   3.008   2.685   6.240
  179SOL     OW 1435   2.693   1.638   6.121
  179SOL    HW1 1436   2.665   1.650   6.216
  179SOL    HW2 1437   2.793   1.629   6.117
  180SOL     OW 1438   1.661   0.199   6.452
  180SOL    HW1 1439   1.712   0.252   6.519
  180SOL    HW2 1440   1.693   0.104   6.454
  181SOL     OW 1441   3.298   1.986   5.919
  181SOL    HW1 1442   3.239   1.932   5.980
  181SOL    HW2 1443   3.337   1.926   5.849
  182SOL     OW 1444   3.582   1.812   4.112
  182SOL    HW1 1445   3.669   1.780   4.151
  182SOL    HW2 1446   3.569   1.770   4.023
  183SOL     OW 1447   3.451   2.147   3.500
  183SOL    HW1 1448   3.366   2.118   3.455
  183SOL    HW2 1449   3.527   2.091   3.468
  184SOL     OW 1450   1.727   6.150   4.086
  184SOL    HW1 1451   1.652   6.090   4.113
  184SOL    HW2 1452   1.771   6.188   4.167
  185SOL     OW 1453   0.621   2.057   6.494
  185SOL    HW1 1454   0.608   1.958   6.494
  185SOL    HW2 1455   0.627   2.090   6.589
  186SOL     OW 1456   6.038   1.187   3.960
  186SOL    HW1 1457   6.028   1.100   3.911
  186SOL    HW2 1458   5.990   1.259   3.910
  187SOL     OW 1459   4.493   0.580   2.987
  187SOL    HW1 1460   4.501   0.503   3.050
  187SOL    HW2 1461   4.439   0.553   2.907
  188SOL     OW 1462   6.923   1.813   2.205
  188SOL    HW1 1463   6.857   1.888   2.210
  188SOL    HW2 1464   6.992   1.826   2.276
  189SOL     OW 1465   2.056   5.248   1.822
  189SOL    HW1 1466   1.960   5.274   1.818
  189SOL    HW2 1467   2.069   5.178   1.892
  190SOL     OW 1468   4.137   1.210   4.175
  190SOL    HW1 1469   4.167   1.176   4.086
  190SOL    HW2 1470   4.052   1.261   4.165
  191SOL     OW 1471   5.458   5.801   6.504
  191SOL    HW1 1472   5.528   5.827   6.438
  191SOL    HW2 1473   5.444   5.702   6.501
  192SOL     OW 1474   0.176   5.867   1.924
  192SOL    HW1 1475   0.270   5.848   1.898
  192SOL    HW2 1476   0.135   5.785   1.965
  193SOL     OW 1477   4.530   2.593   5.684
  193SOL    HW1 1478   4.593   2.592   5.607
  193SOL    HW2 1479   4.581   2.595   5.770
  194SOL     OW 1480   3.705   0.715   2.604
  194SOL    HW1 1481   3.672   0.737   2.696
  194SOL    HW2 1482   3.644   0.648   2.562
  195SOL     OW 1483   1.711   6.826   4.763
  195SOL    HW1 1484   1.628   6.773   4.743
  195SOL    HW2 1485   1.743   6.805   4.855
  196SOL     OW 1486   2.664   1.345   6.486
  196SOL    HW1 1487   2.589   1.288   6.519
  196SOL    HW2 1488   2.746   1.325   6.539
  197SOL     OW 1489   2.046   0.583   0.693
  197SOL    HW1 1490   1.952   0.573   0.726
  197SOL    HW2 1491   2.064   0.513   0.624
  198SOL     OW 1492   4.973   1.127   2.901
  198SOL    HW1 1493   5.033   1.118   2.822
  198SOL    HW2 1494   4.883   1.091   2.878
  199SOL     OW 1495   1.156   2.063   4.097
  199SOL    HW1 1496   1.222   2.040   4.169
  199SOL    HW2 1497   1.187   2.023   4.011
  200SOL     OW 1498   1.224   3.429   0.626
  200SOL    HW1 1499   1.192   3.347   0.674
  200SOL    HW2 1500   1.162   3.505   0.643
  201SOL     OW 1501   0.355   6.296   5.661
  201SOL    HW1 1502   0.299   6.349   5.725
  201SOL    HW2 1503   0.402   6.358   5.599
  202SOL     OW 1504   3.383   1.785   6.231
  202SOL    HW1 1505   3.431   1.734   6.302
  202SOL    HW2 1506   3.291   1.809   6.262
  203SOL     OW 1507   6.310   1.943   5.266
  203SOL    HW1 1508   6.239   1.873   5.264
  203SOL    HW2 1509   6.325   1.979   5.173
  204SOL     OW 1510   0.887   6.832   4.351
  204SOL    HW1 1511   0.821   6.852   4.279
  204SOL    HW2 1512   0.979   6.830   4.313
  205SOL     OW 1513   1.280   2.497   2.880
  205SOL    HW1 1514   1.332   2.518   2.963
  205SOL    HW2 1515   1.200   2.557   2.875
  206SOL     OW 1516   0.490   3.530   1.200
  206SOL    HW1 1517   0.432   3.531   1.282
  206SOL    HW2 1518   0.576   3.576   1.221
  207SOL     OW 1519   5.673   1.262   4.017
  207SOL    HW1 1520   5.643   1.168   4.032
  207SOL    HW2 1521   5.728   1.293   4.095
  208SOL     OW 1522   0.225   4.199   5.664
  208SOL    HW1 1523   0.231   4.208   5.763
  208SOL    HW2 1524   0.198   4.106   5.640
  209SOL     OW 1525   6.873   4.950   3.366
  209SOL    HW1 1526   6.866   4.899   3.280
  209SOL    HW2 1527   6.932   5.029   3.354
  210SOL     OW 1528   4.460   2.078   0.377
  210SOL    HW1 1529   4.536   2.124   0.330
  210SOL    HW2 1530   4.375   2.098   0.329
  211SOL     OW 1531   1.111   6.412   2.033
  211SOL    HW1 1532   1.124   6.481   1.962
  211SOL    HW2 1533   1.026   6.432   2.083
  212SOL     OW 1534   1.255   3.375   2.542
  212SOL    HW1 1535   1.278   3.287   2.499
  212SOL    HW2 1536   1.264   3.366   2.641
  213SOL     OW 1537   2.529   6.366   0.766
  213SOL    HW1 1538   2.468   6.292   0.795
  213SOL    HW2 1539   2.596   6.330   0.701
  214SOL     OW 1540   3.402   5.645   3.017
  214SOL    HW1 1541   3.369   5.649   3.111
  214SOL    HW2 1542   3.331   5.604   2.959
  215SOL     OW 1543   3.022   3.878   0.889
  215SOL    HW1 1544   3.062   3.822   0.816
  215SOL    HW2 1545   3.095   3.916   0.945
  216SOL     OW 1546   0.606   6.122   3.245
  216SOL    HW1 1547   0.551   6.163   3.172
  216SOL    HW2 1548   0.677   6.065   3.204
  217SOL     OW 1549   1.446   2.291   4.924
  217SOL    HW1 1550   1.453   2.270   4.827
  217SOL    HW2 1551   1.354   2.325   4.945
  218SOL     OW 1552   0.974   2.405   4.676
  218SOL    HW1 1553   1.034   2.484   4.691
  218SOL    HW2 1554   0.962   2.390   4.578
  219SOL     OW 1555   3.810   6.879   0.445
  219SOL    HW1 1556   3.805   6.941   0.524
  219SOL    HW2 1557   3.904   6.847   0.434
  220SOL     OW 1558   2.807   0.277   1.661
  220SOL    HW1 1559   2.898   0.318   1.668
  220SOL    HW2 1560   2.774   0.254   1.752
  221SOL     OW 1561   5.790   4.287   1.057
  221SOL    HW1 1562   5.874   4.304   1.005
  221SOL    HW2 1563   5.803   4.208   1.117
  222SOL     OW 1564   1.574   4.608   5.417
  222SOL    HW1 1565   1.673   4.615   5.410
  222SOL    HW2 1566   1.535   4.698   5.438
  223SOL     OW 1567   6.954   3.185   6.144
  223SOL    HW1 1568   6.982   3.097   6.182
  223SOL    HW2 1569   0.005   3.252   6.156
  224SOL     OW 1570   2.943   1.547   6.083
  224SOL    HW1 1571   3.001   1.614   6.130
  224SOL    HW2 1572   2.979   1.531   5.991
  225SOL     OW 1573   4.397   4.375   6.662
  225SOL    HW1 1574   4.341   4.293   6.652
  225SOL    HW2 1575   4.456   4.386   6.582
  226SOL     OW 1576   0.268   1.618   6.043
  226SOL    HW1 1577   0.316   1.609   5.956
  226SOL    HW2 1578   0.228   1.710   6.050
  227SOL     OW 1579   1.083   4.111   2.198
  227SOL    HW1 1580   1.109   4.202   2.168
  227SOL    HW2 1581   1.141   4.043   2.154
  228SOL     OW 1582   2.043   0.277   2.629
  228SOL    HW1 1583   1.952   0.296   2.594
  228SOL    HW2 1584   2.077   0.191   2.592
  229SOL     OW 1585   5.539   5.432   6.253
  229SOL    HW1 1586   5.461   5.373   6.234
  229SOL    HW2 1587   5.621   5.376   6.268
  230SOL     OW 1588   4.456   5.767   4.177
  230SOL    HW1 1589   4.379   5.795   4.119
  230SOL    HW2 1590   4.540   5.809   4.144
  231SOL     OW 1591   5.987   1.152   6.454
  231SOL    HW1 1592   5.970   1.241   6.412
  231SOL    HW2 1593   6.086   1.139   6.466
  232SOL     OW 1594   6.947   3.568   6.919
  232SOL    HW1 1595   6.875   3.504   6.893
  232SOL    HW2 1596   0.013   3.522   6.917
  233SOL     OW 1597   3.686   1.136   2.875
  233SOL    HW1 1598   3.642   1.142   2.785
  233SOL    HW2 1599   3.760   1.069   2.872
  234SOL     OW 1600   5.210   0.822   6.849
  234SOL    HW1 1601   5.279   0.866   6.792
  234SOL    HW2 1602   5.250   0.743   6.895
  235SOL     OW 1603   4.833   2.909   2.253
  235SOL    HW1 1604   4.845   2.812   2.232
  235SOL    HW2 1605   4.796   2.956   2.173
  236SOL     OW 1606   5.191   3.283   6.870
  236SOL    HW1 1607   5.108   3.239   6.834
  236SOL    HW2 1608   5.262   3.214   6.882
  237SOL     OW 1609   0.007   4.300   2.313
  237SOL    HW1 1610   7.012   4.285   2.216
  237SOL    HW2 1611   0.095   4.347   2.325
  238SOL     OW 1612   6.157   1.616   0.499
  238SOL    HW1 1613   6.175   1.712   0.481
  238SOL    HW2 1614   6.158   1.564   0.413
  239SOL     OW 1615   0.961   4.091   0.066
  239SOL    HW1 1616   1.045   4.111   0.118
  239SOL    HW2 1617   0.966   4.136   6.999
  240SOL     OW 1618   0.752   3.107   3.641
  240SOL    HW1 1619   0.741   3.121   3.542
  240SOL    HW2 1620   0.796   3.188   3.681
  241SOL     OW 1621   2.938   2.239   4.819
  241SOL    HW1 1622   2.892   2.296   4.750
  241SOL    HW2 1623   2.965   2.296   4.896
  242SOL     OW 1624   3.352   3.846   4.077
  242SOL    HW1 1625   3.280   3.810   4.136
  242SOL    HW2 1626   3.321   3.931   4.034
  243SOL     OW 1627   4.656   1.070   0.243
  243SOL    HW1 1628   4.560   1.061   0.271
  243SOL    HW2 1629   4.713   1.018   0.306
  244SOL     OW 1630   6.217   3.780   5.421
  244SOL    HW1 1631   6.244   3.820   5.509
  244SOL    HW2 1632   6.297   3.779   5.361
  245SOL     OW 1633   4.557   1.913   4.378
  245SOL    HW1 1634   4.601   1.938   4.292
  245SOL    HW2 1635   4.625   1.916   4.452
  246SOL     OW 1636   4.511   2.197   3.221
  246SOL    HW1 1637   4.529   2.099   3.210
  246SOL    HW2 1638   4.457   2.212   3.303
  247SOL     OW 1639   2.639   2.082   0.897
  247SOL    HW1 1640   2.677   2.059   0.807
  247SOL    HW2 1641   2.709   2.124   0.954
  248SOL     OW 1642   3.460   1.456   3.057
  248SOL    HW1 1643   3.475   1.457   3.156
  248SOL    HW2 1644   3.394   1.526   3.032
  249SOL     OW 1645   5.602   6.893   5.153
  249SOL    HW1 1646   5.599   6.902   5.253
  249SOL    HW2 1647   5.626   6.799   5.129
  250SOL     OW 1648   4.529   3.395   0.307
  250SOL    HW1 1649   4.448   3.376   0.362
  250SOL    HW2 1650   4.553   3.313   0.255
  251SOL     OW 1651   4.393   3.530   5.257
  251SOL    HW1 1652   4.334   3.591   5.204
  251SOL    HW2 1653   4.486   3.532   5.219
  252SOL     OW 1654   0.046   6.234   4.850
  252SOL    HW1 1655   0.146   6.235   4.847
  252SOL    HW2 1656   0.012   6.325   4.875
  253SOL     OW 1657   3.326   5.410   6.272
  253SOL    HW1 1658   3.384   5.337   6.238
  253SOL    HW2 1659   3.301   5.471   6.197
  254SOL     OW 1660   6.581   2.590   4.018
  254SOL    HW1 1661   6.620   2.565   4.107
  254SOL    HW2 1662   6.529   2.513   3.982
  255SOL     OW 1663   2.448   5.162   5.207
  255SOL    HW1 1664   2.399   5.103   5.271
  255SOL    HW2 1665   2.543   5.172   5.237
  256SOL     OW 1666   5.700   4.220   6.213
  256SOL    HW1 1667   5.772   4.279   6.177
  256SOL    HW2 1668   5.615   4.238   6.164
  257SOL     OW 1669   4.993   0.677   3.357
  257SOL    HW1 1670   4.935   0.753   3.328
  257SOL    HW2 1671   4.937   0.598   3.380
  258SOL     OW 1672   2.200   4.453   5.249
  258SOL    HW1 1673   2.197   4.361   5.210
  258SOL    HW2 1674   2.122   4.506   5.217
  259SOL     OW 1675   6.336   1.107   2.841
  259SOL    HW1 1676   6.328   1.175   2.914
  259SOL    HW2 1677   6.407   1.135   2.777
  260SOL     OW 1678   4.164   6.398   2.785
  260SOL    HW1 1679   4.196   6.381   2.878
  260SOL    HW2 1680   4.064   6.399   2.784
  261SOL     OW 1681   6.173   3.484   0.645
  261SOL    HW1 1682   6.187   3.391   0.611
  261SOL    HW2 1683   6.085   3.518   0.612
  262SOL     OW 1684   1.348   3.780   6.813
  262SOL    HW1 1685   1.281   3.852   6.792
  262SOL    HW2 1686   1.372   3.785   6.910
  263SOL     OW 1687   2.051   0.315   5.089
  263SOL    HW1 1688   1.997   0.322   5.005
  263SOL    HW2 1689   2.035   0.226   5.131
  264SOL     OW 1690   6.090   2.794   6.692
  264SOL    HW1 1691   6.024   2.722   6.672
  264SOL    HW2 1692   6.077   2.870   6.628
  265SOL     OW 1693   5.402   6.721   2.600
  265SOL    HW1 1694   5.454   6.807   2.597
  265SOL    HW2 1695   5.449   6.656   2.660
  266SOL     OW 1696   3.934   2.750   5.764
  266SOL    HW1 1697   3.913   2.727   5.669
  266SOL    HW2 1698   4.017   2.807   5.766
  267SOL     OW 1699   0.381   1.877   5.812
  267SOL    HW1 1700   0.365   1.792   5.762
  267SOL    HW2 1701   0.466   1.871   5.863
  268SOL     OW 1702   3.201   1.055   6.231
  268SOL    HW1 1703   3.161   1.131   6.180
  268SOL    HW2 1704   3.207   0.974   6.172
  269SOL     OW 1705   1.515   3.771   1.085
  269SOL    HW1 1706   1.551   3.690   1.039
  269SOL    HW2 1707   1.493   3.748   1.180
  270SOL     OW 1708   1.242   5.948   0.428
  270SOL    HW1 1709   1.341   5.959   0.420
  270SOL    HW2 1710   1.215   5.859   0.392
  271SOL     OW 1711   6.891   1.099   6.336
  271SOL    HW1 1712   6.906   1.136   6.244
  271SOL    HW2 1713   6.940   1.012   6.345
  272SOL     OW 1714   3.892   5.892   4.138
  272SOL    HW1 1715   3.899   5.989   4.158
  272SOL    HW2 1716   3.835   5.847   4.207
  273SOL     OW 1717   2.368   4.676   4.343
  273SOL    HW1 1718   2.387   4.643   4.250
  273SOL    HW2 1719   2.430   4.632   4.408
  274SOL     OW 1720   4.108   1.673   3.127
  274SOL    HW1 1721   4.101   1.689   3.028
  274SOL    HW2 1722   4.022   1.634   3.161
  275SOL     OW 1723   6.695   5.480   3.773
  275SOL    HW1 1724   6.661   5.394   3.733
  275SOL    HW2 1725   6.784   5.464   3.815
  276SOL     OW 1726   0.204   6.589   2.420
  276SOL    HW1 1727   0.167   6.529   2.349
  276SOL    HW2 1728   0.227   6.536   2.501
  277SOL     OW 1729   1.061   3.789   0.462
  277SOL    HW1 1730   1.019   3.719   0.520
  277SOL    HW2 1731   0.992   3.828   0.401
  278SOL     OW 1732   0.332   4.428   1.369
  278SOL    HW1 1733   0.343   4.407   1.272
  278SOL    HW2 1734   0.325   4.527   1.381
  279SOL     OW 1735   5.977   2.791   4.439
  279SOL    HW1 1736   5.991   2.867   4.375
  279SOL    HW2 1737   5.966   2.827   4.531
  280SOL     OW 1738   2.604   5.612   3.019
  280SOL    HW1 1739   2.616   5.587   2.923
  280SOL    HW2 1740   2.649   5.699   3.037
  281SOL     OW 1741   2.598   4.452   1.794
  281SOL    HW1 1742   2.606   4.529   1.731
  281SOL    HW2 1743   2.688   4.413   1.811
  282SOL     OW 1744   3.354   1.430   5.451
  282SOL    HW1 1745   3.451   1.407   5.446
  282SOL    HW2 1746   3.313   1.421   5.360
  283SOL     OW 1747   5.772   2.830   6.538
  283SOL    HW1 1748   5.851   2.831   6.476
  283SOL    HW2 1749   5.770   2.915   6.591
  284SOL     OW 1750   1.119   3.788   3.537
  284SOL    HW1 1751   1.121   3.712   3.472
  284SOL    HW2 1752   1.173   3.765   3.617
  285SOL     OW 1753   5.728   5.142   4.219
  285SOL    HW1 1754   5.827   5.149   4.228
  285SOL    HW2 1755   5.704   5.050   4.186
  286SOL     OW 1756   3.292   4.914   6.732
  286SOL    HW1 1757   3.364   4.919   6.662
  286SOL    HW2 1758   3.329   4.875   6.816
  287SOL     OW 1759   1.086   3.125   1.115
  287SOL    HW1 1760   0.990   3.143   1.092
  287SOL    HW2 1761   1.113   3.183   1.192
  288SOL     OW 1762   3.331   1.584   6.833
  288SOL    HW1 1763   3.368   1.676   6.845
  288SOL    HW2 1764   3.246   1.589   6.781
  289SOL     OW 1765   2.324   4.399   6.028
  289SOL    HW1 1766   2.415   4.358   6.030
  289SOL    HW2 1767   2.289   4.400   5.935
  290SOL     OW 1768   6.621   1.991   4.726
  290SOL    HW1 1769   6.578   1.975   4.815
  290SOL    HW2 1770   6.720   1.990   4.736
  291SOL     OW 1771   1.263   2.082   4.660
  291SOL    HW1 1772   1.336   2.149   4.668
  291SOL    HW2 1773   1.214   2.097   4.574
  292SOL     OW 1774   1.771   2.003   3.235
  292SOL    HW1 1775   1.854   2.058   3.244
  292SOL    HW2 1776   1.713   2.042   3.164
  293SOL     OW 1777   4.149   6.152   3.205
  293SOL    HW1 1778   4.095   6.098   3.141
  293SOL    HW2 1779   4.229   6.100   3.234
  294SOL     OW 1780   0.338   6.116   6.654
  294SOL    HW1 1781   0.410   6.105   6.722
  294SOL    HW2 1782   0.249   6.118   6.700
  295SOL     OW 1783   3.716   0.932   3.689
  295SOL    HW1 1784   3.670   0.955   3.775
  295SOL    HW2 1785   3.662   0.965   3.612
  296SOL     OW 1786   3.785   1.836   2.920
  296SOL    HW1 1787   3.722   1.870   2.851
  296SOL    HW2 1788   3.802   1.739   2.904
  297SOL     OW 1789   2.620   4.608   3.931
  297SOL    HW1 1790   2.588   4.552   4.008
  297SOL    HW2 1791   2.718   4.594   3.918
  298SOL     OW 1792   4.093   5.769   2.252
  298SOL    HW1 1793   4.047   5.819   2.325
  298SOL    HW2 1794   4.025   5.737   2.186
  299SOL     OW 1795   5.519   3.419   6.260
  299SOL    HW1 1796   5.479   3.354   6.326
  299SOL    HW2 1797   5.456   3.431   6.184
  300SOL     OW 1798   6.171   0.990   2.461
  300SOL    HW1 1799   6.129   0.985   2.371
  300SOL    HW2 1800   6.171   0.899   2.503
  301SOL     OW 1801   4.981   3.551   1.188
  301SOL    HW1 1802   4.962   3.504   1.274
  301SOL    HW2 1803   4.999   3.648   1.206
  302SOL     OW 1804   1.225   0.226   2.806
  302SOL    HW1 1805   1.245   0.319   2.837
  302SOL    HW2 1806   1.143   0.227   2.749
  303SOL     OW 1807   6.122   0.684   2.328
  303SOL    HW1 1808   6.112   0.712   2.423
  303SOL    HW2 1809   6.219   0.676   2.306
  304SOL     OW 1810   2.148   0.179   3.344
  304SOL    HW1 1811   2.241   0.205   3.317
  304SOL    HW2 1812   2.110   0.116   3.276
  305SOL     OW 1813   0.241   3.478   6.995
  305SOL    HW1 1814   0.226   3.382   7.015
  305SOL    HW2 1815   0.323   3.488   6.938
  306SOL     OW 1816   1.311   0.878   3.653
  306SOL    HW1 1817   1.248   0.831   3.591
  306SOL    HW2 1818   1.363   0.812   3.705
  307SOL     OW 1819   4.751   6.548   1.100
  307SOL    HW1 1820   4.666   6.591   1.069
  307SOL    HW2 1821   4.803   6.614   1.155
  308SOL     OW 1822   6.832   3.820   4.720
  308SOL    HW1 1823   6.792   3.874   4.795
  308SOL    HW2 1824   6.843   3.878   4.639
  309SOL     OW 1825   3.843   4.210   5.804
  309SOL    HW1 1826   3.933   4.201   5.846
  309SOL    HW2 1827   3.777   4.151   5.852
  310SOL     OW 1828   6.312   6.509   6.020
  310SOL    HW1 1829   6.390   6.457   5.985
  310SOL    HW2 1830   6.344   6.584   6.078
  311SOL     OW 1831   6.559   5.058   1.684
  311SOL    HW1 1832   6.488   4.992   1.656
  311SOL    HW2 1833   6.627   5.066   1.611
  312SOL     OW 1834   4.888   2.186   6.005
  312SOL    HW1 1835   4.894   2.138   5.917
  312SOL    HW2 1836   4.860   2.121   6.076
  313SOL     OW 1837   2.889   4.201   1.748
  313SOL    HW1 1838   2.902   4.240   1.657
  313SOL    HW2 1839   2.884   4.275   1.815
  314SOL     OW 1840   3.530   5.475   0.350
  314SOL    HW1 1841   3.431   5.489   0.348
  314SOL    HW2 1842   3.576   5.558   0.317
  315SOL     OW 1843   0.884   2.403   3.365
  315SOL    HW1 1844   0.913   2.332   3.300
  315SOL    HW2 1845   0.879   2.491   3.318
  316SOL     OW 1846   2.049   2.153   4.404
  316SOL    HW1 1847   2.035   2.252   4.408
  316SOL    HW2 1848   2.147   2.134   4.404
  317SOL     OW 1849   0.820   1.463   0.255
  317SOL    HW1 1850   0.836   1.364   0.249
  317SOL    HW2 1851   0.731   1.480   0.296
  318SOL     OW 1852   0.993   4.877   0.892
  318SOL    HW1 1853   1.082   4.832   0.903
  318SOL    HW2 1854   0.947   4.840   0.811
  319SOL     OW 1855   0.379   0.301   2.188
  319SOL    HW1 1856   0.444   0.275   2.260
  319SOL    HW2 1857   0.328   0.382   2.217
  320SOL     OW 1858   5.527   2.122   6.814
  320SOL    HW1 1859   5.568   2.213   6.810
  320SOL    HW2 1860   5.502   2.093   6.722
  321SOL     OW 1861   2.565   1.218   2.428
  321SOL    HW1 1862   2.598   1.302   2.385
  321SOL    HW2 1863   2.512   1.242   2.510
  322SOL     OW 1864   2.947   3.362   4.371
  322SOL    HW1 1865   2.893   3.442   4.396
  322SOL    HW2 1866   3.043   3.380   4.393
  323SOL     OW 1867   0.919   3.937   6.850
  323SOL    HW1 1868   0.942   3.929   6.946
  323SOL    HW2 1869   0.819   3.933   6.839
  324SOL     OW 1870   1.771   3.134   3.941
  324SOL    HW1 1871   1.674   3.145   3.915
  324SOL    HW2 1872   1.800   3.041   3.920
  325SOL     OW 1873   1.919   3.192   1.293
  325SOL    HW1 1874   1.959   3.127   1.228
  325SOL    HW2 1875   1.856   3.253   1.245
  326SOL     OW 1876   1.623   5.977   6.946
  326SOL    HW1 1877   1.657   5.886   6.923
  326SOL    HW2 1878   1.701   6.038   6.962
  327SOL     OW 1879   0.639   5.310   3.740
  327SOL    HW1 1880   0.557   5.280   3.789
  327SOL    HW2 1881   0.709   5.337   3.806
  328SOL     OW 1882   3.459   5.139   2.908
  328SOL    HW1 1883   3.454   5.062   2.972
  328SOL    HW2 1884   3.455   5.106   2.814
  329SOL     OW 1885   3.218   4.085   3.730
  329SOL    HW1 1886   3.241   4.086   3.633
  329SOL    HW2 1887   3.221   3.990   3.763
  330SOL     OW 1888   3.335   5.992   1.947
  330SOL    HW1 1889   3.393   6.059   1.994
  330SOL    HW2 1890   3.327   6.017   1.851
  331SOL     OW 1891   4.773   5.152   6.512
  331SOL    HW1 1892   4.773   5.127   6.415
  331SOL    HW2 1893   4.868   5.154   6.545
  332SOL     OW 1894   3.786   2.171   4.156
  332SOL    HW1 1895   3.693   2.141   4.178
  332SOL    HW2 1896   3.850   2.126   4.219
  333SOL     OW 1897   3.618   0.251   0.234
  333SOL    HW1 1898   3.691   0.199   0.188
  333SOL    HW2 1899   3.633   0.248   0.333
  334SOL     OW 1900   2.740   6.577   1.154
  334SOL    HW1 1901   2.789   6.619   1.230
  334SOL    HW2 1902   2.654   6.539   1.187
  335SOL     OW 1903   3.091   6.165   3.879
  335SOL    HW1 1904   3.094   6.137   3.783
  335SOL    HW2 1905   3.007   6.216   3.896
  336SOL     OW 1906   2.107   0.708   3.723
  336SOL    HW1 1907   2.150   0.715   3.633
  336SOL    HW2 1908   2.138   0.783   3.781
  337SOL     OW 1909   0.025   3.730   1.243
  337SOL    HW1 1910   0.105   3.715   1.185
  337SOL    HW2 1911   6.969   3.682   1.204
  338SOL     OW 1912   2.864   3.030   1.469
  338SOL    HW1 1913   2.824   3.007   1.558
  338SOL    HW2 1914   2.963   3.040   1.479
  339SOL     OW 1915   4.040   0.035   3.778
  339SOL    HW1 1916   4.048   0.131   3.751
  339SOL    HW2 1917   4.079   6.999   3.707
  340SOL     OW 1918   5.265   4.027   4.936
  340SOL    HW1 1919   5.229   4.031   4.843
  340SOL    HW2 1920   5.312   4.113   4.958
  341SOL     OW 1921   6.217   6.738   3.979
  341SOL    HW1 1922   6.275   6.817   3.961
  341SOL    HW2 1923   6.175   6.748   4.069
  342SOL     OW 1924   5.857   4.252   0.347
  342SOL    HW1 1925   5.763   4.222   0.335
  342SOL    HW2 1926   5.859   4.329   0.411
  343SOL     OW 1927   3.291   5.745   1.638
  343SOL    HW1 1928   3.226   5.809   1.596
  343SOL    HW2 1929   3.252   5.707   1.721
  344SOL     OW 1930   2.456   5.403   1.365
  344SOL    HW1 1931   2.553   5.382   1.348
  344SOL    HW2 1932   2.432   5.375   1.458
  345SOL     OW 1933   0.178   0.638   6.009
  345SOL    HW1 1934   0.217   0.615   6.099
  345SOL    HW2 1935   0.114   0.568   5.982
  346SOL     OW 1936   1.950   6.883   2.116
  346SOL    HW1 1937   1.895   6.953   2.161
  346SOL    HW2 1938   1.891   6.807   2.087
  347SOL     OW 1939   5.023   0.284   6.395
  347SOL    HW1 1940   5.092   0.313   6.461
  347SOL    HW2 1941   4.963   0.361   6.373
  348SOL     OW 1942   4.272   4.897   1.732
  348SOL    HW1 1943   4.256   4.804   1.765
  348SOL    HW2 1944   4.298   4.894   1.636
  349SOL     OW 1945   0.120   4.640   2.399
  349SOL    HW1 1946   0.040   4.615   2.344
  349SOL    HW2 1947   0.090   4.681   2.485
  350SOL     OW 1948   3.584   3.937   1.753
  350SOL    HW1 1949   3.610   3.875   1.828
  350SOL    HW2 1950   3.510   3.997   1.784
  351SOL     OW 1951   2.746   2.393   0.762
  351SOL    HW1 1952   2.794   2.478   0.743
  351SOL    HW2 1953   2.656   2.412   0.801
  352SOL     OW 1954   3.822   0.044   4.881
  352SOL    HW1 1955   3.776   0.133   4.885
  352SOL    HW2 1956   3.865   0.034   4.791
  353SOL     OW 1957   2.424   0.270   0.709
  353SOL    HW1 1958   2.337   0.226   0.684
  353SOL    HW2 1959   2.407   0.366   0.731
  354SOL     OW 1960   3.995   2.582   0.610
  354SOL    HW1 1961   3.923   2.647   0.638
  354SOL    HW2 1962   3.952   2.496   0.581
  355SOL     OW 1963   6.469   3.151   2.714
  355SOL    HW1 1964   6.471   3.063   2.761
  355SOL    HW2 1965   6.558   3.169   2.672
  356SOL     OW 1966   4.267   5.691   4.816
  356SOL    HW1 1967   4.226   5.768   4.767
  356SOL    HW2 1968   4.212   5.670   4.897
  357SOL     OW 1969   6.918   6.631   5.120
  357SOL    HW1 1970   6.878   6.574   5.192
  357SOL    HW2 1971   6.963   6.710   5.161
  358SOL     OW 1972   6.289   0.231   1.335
  358SOL    HW1 1973   6.260   0.189   1.249
  358SOL    HW2 1974   6.298   0.160   1.406
  359SOL     OW 1975   1.546   2.833   2.253
  359SOL    HW1 1976   1.644   2.822   2.235
  359SOL    HW2 1977   1.534   2.896   2.330
  360SOL     OW 1978   2.938   6.215   6.505
  360SOL    HW1 1979   2.937   6.312   6.530
  360SOL    HW2 1980   2.923   6.206   6.407
  361SOL     OW 1981   5.748   5.718   3.040
  361SOL    HW1 1982   5.755   5.618   3.039
  361SOL    HW2 1983   5.804   5.757   2.967
  362SOL     OW 1984   3.300   4.058   0.442
  362SOL    HW1 1985   3.334   3.983   0.386
  362SOL    HW2 1986   3.262   4.129   0.383
  363SOL     OW 1987   3.601   5.272   3.868
  363SOL    HW1 1988   3.507   5.245   3.851
  363SOL    HW2 1989   3.655   5.259   3.784
  364SOL     OW 1990   0.348   5.567   5.153
  364SOL    HW1 1991   0.297   5.507   5.092
  364SOL    HW2 1992   0.397   5.511   5.220
  365SOL     OW 1993   4.395   6.643   2.992
  365SOL    HW1 1994   4.346   6.559   3.015
  365SOL    HW2 1995   4.349   6.721   3.035
  366SOL     OW 1996   5.304   1.180   0.233
  366SOL    HW1 1997   5.368   1.107   0.254
  366SOL    HW2 1998   5.354   1.263   0.209
  367SOL     OW 1999   5.027   2.918   0.718
  367SOL    HW1 2000   4.946   2.926   0.661
  367SOL    HW2 2001   5.012   2.966   0.804
  368SOL     OW 2002   1.243   4.604   4.865
  368SOL    HW1 2003   1.276   4.523   4.912
  368SOL    HW2 2004   1.190   4.660   4.928
  369SOL     OW 2005   6.409   4.668   2.138
  369SOL    HW1 2006   6.408   4.572   2.164
  369SOL    HW2 2007   6.449   4.722   2.212
  370SOL     OW 2008   2.660   1.108   5.053
  370SOL    HW1 2009   2.591   1.172   5.022
  370SOL    HW2 2010   2.749   1.132   5.013
  371SOL     OW 2011   2.045   3.866   6.538
  371SOL    HW1 2012   2.088   3.956   6.533
  371SOL    HW2 2013   2.115   3.796   6.553
  372SOL     OW 2014   6.942   0.269   5.147
  372SOL    HW1 2015   6.964   0.226   5.059
  372SOL    HW2 2016   0.002   0.279   5.201
  373SOL     OW 2017   0.143   6.853   5.971
  373SOL    HW1 2018   0.240   6.840   5.955
  373SOL    HW2 2019   0.129   6.899   6.059
  374SOL     OW 2020   4.275   0.036   2.029
  374SOL    HW1 2021   4.177   0.019   2.018
  374SOL    HW2 2022   4.289   0.122   2.079
  375SOL     OW 2023   6.814   4.736   3.790
  375SOL    HW1 2024   6.885   4.782   3.844
  375SOL    HW2 2025   6.855   4.661   3.739
  376SOL     OW 2026   1.633   3.169   3.592
  376SOL    HW1 2027   1.617   3.195   3.687
  376SOL    HW2 2028   1.554   3.118   3.558
  377SOL     OW 2029   5.751   2.949   2.713
  377SOL    HW1 2030   5.803   2.966   2.629
  377SOL    HW2 2031   5.800   2.884   2.770
  378SOL     OW 2032   3.979   3.236   5.620
  378SOL    HW1 2033   4.026   3.157   5.579
  378SOL    HW2 2034   4.012   3.320   5.576
  379SOL     OW 2035   5.553   3.266   1.287
  379SOL    HW1 2036   5.535   3.182   1.339
  379SOL    HW2 2037   5.587   3.241   1.196
  380SOL     OW 2038   2.210   1.781   1.584
  380SOL    HW1 2039   2.120   1.801   1.623
  380SOL    HW2 2040   2.210   1.688   1.547
  381SOL     OW 2041   2.260   4.674   1.662
  381SOL    HW1 2042   2.306   4.742   1.605
  381SOL    HW2 2043   2.179   4.640   1.614
  382SOL     OW 2044   3.777   5.973   0.217
  382SOL    HW1 2045   3.760   5.954   0.120
  382SOL    HW2 2046   3.832   5.899   0.256
  383SOL     OW 2047   6.354   2.771   6.609
  383SOL    HW1 2048   6.254   2.768   6.612
  383SOL    HW2 2049   6.390   2.762   6.701
  384SOL     OW 2050   1.100   4.710   5.069
  384SOL    HW1 2051   1.171   4.757   5.121
  384SOL    HW2 2052   1.012   4.722   5.114
  385SOL     OW 2053   5.075   6.469   0.003
  385SOL    HW1 2054   5.121   6.514   0.080
  385SOL    HW2 2055   4.988   6.430   0.035
  386SOL     OW 2056   4.274   6.961   5.679
  386SOL    HW1 2057   4.288   6.975   5.581
  386SOL    HW2 2058   4.236   6.870   5.696
  387SOL     OW 2059   0.395   6.972   4.188
  387SOL    HW1 2060   0.390   7.000   4.284
  387SOL    HW2 2061   0.342   6.888   4.176
  388SOL     OW 2062   6.793   2.186   5.461
  388SOL    HW1 2063   6.703   2.152   5.486
  388SOL    HW2 2064   6.858   2.167   5.534
  389SOL     OW 2065   4.246   4.348   1.677
  389SOL    HW1 2066   4.167   4.288   1.683
  389SOL    HW2 2067   4.315   4.318   1.744
  390SOL     OW 2068   3.411   1.030   0.608
  390SOL    HW1 2069   3.493   1.000   0.656
  390SOL    HW2 2070   3.333   0.973   0.636
  391SOL     OW 2071   2.833   4.096   5.574
  391SOL    HW1 2072   2.779   4.021   5.536
  391SOL    HW2 2073   2.794   4.183   5.546
  392SOL     OW 2074   1.761   3.519   2.335
  392SOL    HW1 2075   1.778   3.532   2.237
  392SOL    HW2 2076   1.845   3.486   2.379
  393SOL     OW 2077   0.546   4.379   0.907
  393SOL    HW1 2078   0.526   4.438   0.829
  393SOL    HW2 2079   0.632   4.407   0.949
  394SOL     OW 2080   0.005   3.323   0.188
  394SOL    HW1 2081   0.048   3.270   0.261
  394SOL    HW2 2082   0.067   3.329   0.110
  395SOL     OW 2083   5.424   4.211   2.305
  395SOL    HW1 2084   5.436   4.221   2.404
  395SOL    HW2 2085   5.347   4.149   2.287
  396SOL     OW 2086   2.680   2.180   1.914
  396SOL    HW1 2087   2.633   2.217   1.834
  396SOL    HW2 2088   2.762   2.235   1.932
  397SOL     OW 2089   4.548   1.168   5.578
  397SOL    HW1 2090   4.621   1.184   5.511
  397SOL    HW2 2091   4.568   1.219   5.662
  398SOL     OW 2092   1.019   6.981   4.582
  398SOL    HW1 2093   1.015   0.008   4.495
  398SOL    HW2 2094   0.980   6.890   4.569
  399SOL     OW 2095   5.841   6.025   3.956
  399SOL    HW1 2096   5.768   6.011   4.022
  399SOL    HW2 2097   5.827   5.966   3.877
  400SOL     OW 2098   6.548   0.238   4.825
  400SOL    HW1 2099   6.563   0.151   4.871
  400SOL    HW2 2100   6.636   0.277   4.797
  401SOL     OW 2101   6.565   0.680   5.859
  401SOL    HW1 2102   6.566   0.661   5.957
  401SOL    HW2 2103   6.591   0.775   5.843
  402SOL     OW 2104   6.215   0.413   2.565
  402SOL    HW1 2105   6.309   0.446   2.558
  402SOL    HW2 2106   6.176   0.440   2.653
  403SOL     OW 2107   2.653   0.264   5.678
  403SOL    HW1 2108   2.600   0.267   5.763
  403SOL    HW2 2109   2.671   0.169   5.653
  404SOL     OW 2110   3.879   6.644   5.663
  404SOL    HW1 2111   3.935   6.701   5.602
  404SOL    HW2 2112   3.785   6.643   5.630
  405SOL     OW 2113   1.535   3.871   3.585
  405SOL    HW1 2114   1.629   3.861   3.552
  405SOL    HW2 2115   1.515   3.967   3.602
  406SOL     OW 2116   0.789   5.405   5.132
  406SOL    HW1 2117   0.776   5.424   5.229
  406SOL    HW2 2118   0.714   5.348   5.099
  407SOL     OW 2119   1.764   3.436   3.618
  407SOL    HW1 2120   1.810   3.480   3.541
  407SOL    HW2 2121   1.709   3.360   3.585
  408SOL     OW 2122   3.657   1.880   2.683
  408SOL    HW1 2123   3.648   1.880   2.583
  408SOL    HW2 2124   3.568   1.861   2.725
  409SOL     OW 2125   0.763   3.646   2.038
  409SOL    HW1 2126   0.855   3.657   2.001
  409SOL    HW2 2127   0.698   3.695   1.979
  410SOL     OW 2128   1.613   2.512   1.391
  410SOL    HW1 2129   1.625   2.497   1.489
  410SOL    HW2 2130   1.701   2.497   1.344
  411SOL     OW 2131   0.058   2.009   1.979
  411SOL    HW1 2132   0.130   2.045   1.919
  411SOL    HW2 2133   0.092   1.928   2.027
  412SOL     OW 2134   2.752   4.658   2.898
  412SOL    HW1 2135   2.747   4.662   2.798
  412SOL    HW2 2136   2.838   4.699   2.929
  413SOL     OW 2137   3.461   5.011   2.673
  413SOL    HW1 2138   3.386   4.966   2.625
  413SOL    HW2 2139   3.503   5.079   2.613
  414SOL     OW 2140   2.748   6.977   3.900
  414SOL    HW1 2141   2.677   6.928   3.950
  414SOL    HW2 2142   2.827   6.992   3.960
  415SOL     OW 2143   6.674   1.340   0.177
  415SOL    HW1 2144   6.594   1.393   0.204
  415SOL    HW2 2145   6.737   1.399   0.126
  416SOL     OW 2146   5.173   3.820   5.112
  416SOL    HW1 2147   5.145   3.741   5.057
  416SOL    HW2 2148   5.179   3.901   5.053
  417SOL     OW 2149   2.642   2.178   6.848
  417SOL    HW1 2150   2.644   2.263   6.901
  417SOL    HW2 2151   2.669   2.102   6.908
  418SOL     OW 2152   3.515   6.880   4.254
  418SOL    HW1 2153   3.533   6.813   4.325
  418SOL    HW2 2154   3.425   6.863   4.214
  419SOL     OW 2155   0.550   6.797   1.724
  419SOL    HW1 2156   0.563   6.872   1.788
  419SOL    HW2 2157   0.459   6.758   1.736
  420SOL     OW 2158   5.631   0.804   6.784
  420SOL    HW1 2159   5.639   0.705   6.778
  420SOL    HW2 2160   5.719   0.846   6.764
  421SOL     OW 2161   4.997   4.259   4.705
  421SOL    HW1 2162   5.065   4.186   4.709
  421SOL    HW2 2163   4.909   4.220   4.677
  422SOL     OW 2164   4.954   2.200   1.475
  422SOL    HW1 2165   4.950   2.101   1.485
  422SOL    HW2 2166   4.960   2.243   1.565
  423SOL     OW 2167   3.086   1.057   5.895
  423SOL    HW1 2168   3.010   1.040   5.833
  423SOL    HW2 2169   3.126   0.970   5.924
  424SOL     OW 2170   1.375   4.798   2.981
  424SOL    HW1 2171   1.423   4.711   2.970
  424SOL    HW2 2172   1.333   4.802   3.071
  425SOL     OW 2173   4.638   0.741   4.842
  425SOL    HW1 2174   4.712   0.684   4.878
  425SOL    HW2 2175   4.574   0.763   4.916
  426SOL     OW 2176   2.798   2.126   5.025
  426SOL    HW1 2177   2.791   2.033   5.060
  426SOL    HW2 2178   2.871   2.131   4.957
  427SOL     OW 2179   4.557   1.544   3.629
  427SOL    HW1 2180   4.503   1.585   3.703
  427SOL    HW2 2181   4.652   1.576   3.635
  428SOL     OW 2182   2.983   1.134   4.989
  428SOL    HW1 2183   2.967   1.041   4.956
  428SOL    HW2 2184   3.032   1.131   5.076
  429SOL     OW 2185   1.198   6.232   3.805
  429SOL    HW1 2186   1.275   6.221   3.868
  429SOL    HW2 2187   1.229   6.213   3.711
  430SOL     OW 2188   1.410   7.011   3.991
  430SOL    HW1 2189   1.414   0.071   3.936
  430SOL    HW2 2190   1.501   6.990   4.027
  431SOL     OW 2191   2.822   2.202   1.094
  431SOL    HW1 2192   2.775   2.152   1.166
  431SOL    HW2 2193   2.907   2.241   1.131
  432SOL     OW 2194   4.612   1.775   1.747
  432SOL    HW1 2195   4.605   1.863   1.701
  432SOL    HW2 2196   4.685   1.778   1.816
  433SOL     OW 2197   2.929   6.486   6.559
  433SOL    HW1 2198   2.849   6.494   6.500
  433SOL    HW2 2199   3.005   6.538   6.520
  434SOL     OW 2200   3.918   6.600   3.731
  434SOL    HW1 2201   3.823   6.586   3.758
  434SOL    HW2 2202   3.978   6.583   3.810
  435SOL     OW 2203   3.736   1.682   6.076
  435SOL    HW1 2204   3.835   1.680   6.069
  435SOL    HW2 2205   3.709   1.710   6.168
  436SOL     OW 2206   3.772   6.212   3.514
  436SOL    HW1 2207   3.872   6.212   3.514
  436SOL    HW2 2208   3.739   6.131   3.465
  437SOL     OW 2209   0.121   0.276   4.301
  437SOL    HW1 2210   0.140   0.374   4.306
  437SOL    HW2 2211   0.056   0.258   4.227
  438SOL     OW 2212   0.943   5.169   2.913
  438SOL    HW1 2213   1.031   5.141   2.950
  438SOL    HW2 2214   0.950   5.262   2.876
  439SOL     OW 2215   6.154   0.480   2.836
  439SOL    HW1 2216   6.198   0.562   2.873
  439SOL    HW2 2217   6.161   0.406   2.903
  440SOL     OW 2218   4.136   0.308   0.141
  440SOL    HW1 2219   4.168   0.389   0.189
  440SOL    HW2 2220   4.135   0.230   0.204
  441SOL     OW 2221   6.715   4.138   2.593
  441SOL    HW1 2222   6.720   4.145   2.494
  441SOL    HW2 2223   6.683   4.224   2.632
  442SOL     OW 2224   5.293   3.583   5.533
  442SOL    HW1 2225   5.293   3.559   5.436
  442SOL    HW2 2226   5.271   3.680   5.544
  443SOL     OW 2227   5.092   4.256   3.360
  443SOL    HW1 2228   5.112   4.162   3.330
  443SOL    HW2 2229   5.162   4.286   3.425
  444SOL     OW 2230   3.927   1.349   1.276
  444SOL    HW1 2231   3.915   1.250   1.291
  444SOL    HW2 2232   3.951   1.365   1.180
  445SOL     OW 2233   2.117   5.550   3.055
  445SOL    HW1 2234   2.123   5.568   3.153
  445SOL    HW2 2235   2.200   5.504   3.024
  446SOL     OW 2236   5.730   5.960   2.749
  446SOL    HW1 2237   5.811   5.927   2.798
  446SOL    HW2 2238   5.760   6.006   2.665
  447SOL     OW 2239   6.132   3.964   6.774
  447SOL    HW1 2240   6.186   4.047   6.766
  447SOL    HW2 2241   6.115   3.927   6.683
  448SOL     OW 2242   3.023   1.090   2.525
  448SOL    HW1 2243   3.014   1.179   2.571
  448SOL    HW2 2244   2.956   1.083   2.451
  449SOL     OW 2245   1.722   2.466   4.108
  449SOL    HW1 2246   1.674   2.448   4.023
  449SOL    HW2 2247   1.711   2.563   4.133
  450SOL     OW 2248   1.095   4.429   2.751
  450SOL    HW1 2249   1.076   4.520   2.713
  450SOL    HW2 2250   1.153   4.438   2.832
  451SOL     OW 2251   0.781   1.943   3.449
  451SOL    HW1 2252   0.745   2.011   3.385
  451SOL    HW2 2253   0.831   1.873   3.398
  452SOL     OW 2254   3.762   6.569   3.352
  452SOL    HW1 2255   3.819   6.559   3.271
  452SOL    HW2 2256   3.722   6.481   3.377
  453SOL     OW 2257   4.119   6.559   0.138
  453SOL    HW1 2258   4.134   6.461   0.139
  453SOL    HW2 2259   4.183   6.602   0.074
  454SOL     OW 2260   0.063   4.645   6.459
  454SOL    HW1 2261   0.104   4.727   6.419
  454SOL    HW2 2262   0.135   4.585   6.493
  455SOL     OW 2263   6.725   4.556   5.847
  455SOL    HW1 2264   6.733   4.622   5.922
  455SOL    HW2 2265   6.754   4.598   5.762
  456SOL     OW 2266   2.205   0.877   3.038
  456SOL    HW1 2267   2.180   0.915   3.126
  456SOL    HW2 2268   2.224   0.951   2.973
  457SOL     OW 2269   2.362   5.927   6.122
  457SOL    HW1 2270   2.301   5.952   6.197
  457SOL    HW2 2271   2.455   5.957   6.144
  458SOL     OW 2272   2.175   1.224   3.024
  458SOL    HW1 2273   2.171   1.201   3.121
  458SOL    HW2 2274   2.095   1.278   2.999
  459SOL     OW 2275   2.361   6.838   4.928
  459SOL    HW1 2276   2.285   6.900   4.908
  459SOL    HW2 2277   2.446   6.877   4.892
  460SOL     OW 2278   1.508   1.763   5.198
  460SOL    HW1 2279   1.562   1.716   5.266
  460SOL    HW2 2280   1.515   1.715   5.110
  461SOL     OW 2281   0.585   4.906   5.508
  461SOL    HW1 2282   0.660   4.968   5.530
  461SOL    HW2 2283   0.558   4.855   5.590
  462SOL     OW 2284   3.644   3.372   4.388
  462SOL    HW1 2285   3.638   3.308   4.464
  462SOL    HW2 2286   3.561   3.365   4.332
  463SOL     OW 2287   6.054   6.609   2.193
  463SOL    HW1 2288   6.040   6.571   2.101
  463SOL    HW2 2289   6.129   6.561   2.238
  464SOL     OW 2290   3.541   6.248   6.093
  464SOL    HW1 2291   3.557   6.343   6.066
  464SOL    HW2 2292   3.626   6.210   6.132
  465SOL     OW 2293   1.052   2.218   0.810
  465SOL    HW1 2294   1.112   2.183   0.738
  465SOL    HW2 2295   0.957   2.195   0.789
  466SOL     OW 2296   3.250   6.344   4.885
  466SOL    HW1 2297   3.331   6.391   4.851
  466SOL    HW2 2298   3.276   6.281   4.959
  467SOL     OW 2299   6.485   1.296   2.707
  467SOL    HW1 2300   6.435   1.328   2.627
  467SOL    HW2 2301   6.480   1.365   2.779
  468SOL     OW 2302   3.826   0.424   6.645
  468SOL    HW1 2303   3.753   0.427   6.577
  468SOL    HW2 2304   3.904   0.373   6.609
  469SOL     OW 2305   2.606   4.293   5.967
  469SOL    HW1 2306   2.626   4.354   5.890
  469SOL    HW2 2307   2.674   4.220   5.969
  470SOL     OW 2308   2.527   5.266   3.253
  470SOL    HW1 2309   2.595   5.340   3.249
  470SOL    HW2 2310   2.550   5.203   3.328
  471SOL     OW 2311   2.833   2.343   4.005
  471SOL    HW1 2312   2.928   2.324   3.978
  471SOL    HW2 2313   2.779   2.366   3.924
  472SOL     OW 2314   6.382   4.550   5.849
  472SOL    HW1 2315   6.432   4.484   5.793
  472SOL    HW2 2316   6.284   4.537   5.836
  473SOL     OW 2317   0.082   2.407   2.830
  473SOL    HW1 2318   7.012   2.408   2.869
  473SOL    HW2 2319   0.077   2.435   2.734
  474SOL     OW 2320   6.522   6.284   4.364
  474SOL    HW1 2321   6.464   6.365   4.362
  474SOL    HW2 2322   6.501   6.226   4.285
  475SOL     OW 2323   6.233   1.448   0.244
  475SOL    HW1 2324   6.333   1.453   0.237
  475SOL    HW2 2325   6.198   1.388   0.173
  476SOL     OW 2326   0.713   3.943   1.922
  476SOL    HW1 2327   0.782   4.016   1.922
  476SOL    HW2 2328   0.623   3.983   1.908
  477SOL     OW 2329   1.800   5.201   3.336
  477SOL    HW1 2330   1.836   5.111   3.360
  477SOL    HW2 2331   1.849   5.236   3.256
  478SOL     OW 2332   4.385   5.458   3.124
  478SOL    HW1 2333   4.313   5.525   3.138
  478SOL    HW2 2334   4.475   5.502   3.129
  479SOL     OW 2335   4.135   3.527   3.519
  479SOL    HW1 2336   4.113   3.430   3.511
  479SOL    HW2 2337   4.119   3.557   3.613
  480SOL     OW 2338   1.284   6.966   2.621
  480SOL    HW1 2339   1.252   0.037   2.638
  480SOL    HW2 2340   1.380   6.958   2.649
  481SOL     OW 2341   0.819   6.342   0.669
  481SOL    HW1 2342   0.787   6.301   0.584
  481SOL    HW2 2343   0.888   6.412   0.649
  482SOL     OW 2344   5.338   4.605   2.304
  482SOL    HW1 2345   5.275   4.530   2.324
  482SOL    HW2 2346   5.427   4.587   2.346
  483SOL     OW 2347   5.821   2.650   3.655
  483SOL    HW1 2348   5.787   2.708   3.729
  483SOL    HW2 2349   5.920   2.640   3.663
  484SOL     OW 2350   2.297   4.263   4.093
  484SOL    HW1 2351   2.213   4.310   4.066
  484SOL    HW2 2352   2.276   4.168   4.115
  485SOL     OW 2353   5.323   3.390   2.822
  485SOL    HW1 2354   5.344   3.315   2.758
  485SOL    HW2 2355   5.403   3.408   2.879
  486SOL     OW 2356   6.362   6.320   5.649
  486SOL    HW1 2357   6.329   6.263   5.725
  486SOL    HW2 2358   6.285   6.343   5.589
  487SOL     OW 2359   0.363   6.085   4.316
  487SOL    HW1 2360   0.388   5.996   4.278
  487SOL    HW2 2361   0.280   6.077   4.370
  488SOL     OW 2362   1.735   6.511   3.444
  488SOL    HW1 2363   1.682   6.466   3.371
  488SOL    HW2 2364   1.747   6.607   3.421
  489SOL     OW 2365   0.164   5.691   4.792
  489SOL    HW1 2366   0.161   5.592   4.799
  489SOL    HW2 2367   0.174   5.731   4.883
  490SOL     OW 2368   1.701   4.555   5.783
  490SOL    HW1 2369   1.659   4.475   5.739
  490SOL    HW2 2370   1.669   4.560   5.878
  491SOL     OW 2371   0.300   2.421   0.815
  491SOL    HW1 2372   0.297   2.393   0.719
  491SOL    HW2 2373   0.388   2.463   0.836
  492SOL     OW 2374   1.773   1.459   5.678
  492SOL    HW1 2375   1.767   1.373   5.628
  492SOL    HW2 2376   1.825   1.446   5.762
  493SOL     OW 2377   2.210   6.362   4.524
  493SOL    HW1 2378   2.248   6.270   4.533
  493SOL    HW2 2379   2.234   6.416   4.605
  494SOL     OW 2380   2.335   0.172   5.094
  494SOL    HW1 2381   2.265   0.138   5.032
  494SOL    HW2 2382   2.361   0.265   5.068
  495SOL     OW 2383   4.243   6.206   5.225
  495SOL    HW1 2384   4.264   6.111   5.248
  495SOL    HW2 2385   4.269   6.265   5.302
  496SOL     OW 2386   5.650   2.363   2.790
  496SOL    HW1 2387   5.644   2.449   2.839
  496SOL    HW2 2388   5.635   2.287   2.854
  497SOL     OW 2389   3.263   1.258   6.607
  497SOL    HW1 2390   3.267   1.278   6.704
  497SOL    HW2 2391   3.183   1.303   6.567
  498SOL     OW 2392   0.678   5.531   2.140
  498SOL    HW1 2393   0.590   5.485   2.150
  498SOL    HW2 2394   0.700   5.540   2.043
  499SOL     OW 2395   3.856   5.489   0.061
  499SOL    HW1 2396   3.897   5.403   0.033
  499SOL    HW2 2397   3.780   5.511   7.022
  500SOL     OW 2398   5.786   1.988   6.865
  500SOL    HW1 2399   5.695   2.010   6.829
  500SOL    HW2 2400   5.778   1.952   6.958
  501SOL     OW 2401   1.046   6.687   2.975
  501SOL    HW1 2402   1.066   6.736   2.890
  501SOL    HW2 2403   1.074   6.592   2.966
  502SOL     OW 2404   1.923   4.766   6.509
  502SOL    HW1 2405   1.942   4.709   6.429
  502SOL    HW2 2406   2.006   4.773   6.565
  503SOL     OW 2407   3.597   5.089   6.938
  503SOL    HW1 2408   3.564   5.102   0.009
  503SOL    HW2 2409   3.580   4.995   6.910
  504SOL     OW 2410   6.230   5.952   2.038
  504SOL    HW1 2411   6.305   5.955   1.971
  504SOL    HW2 2412   6.166   5.880   2.012
  505SOL     OW 2413   5.258   6.714   5.562
  505SOL    HW1 2414   5.204   6.639   5.601
  505SOL    HW2 2415   5.201   6.795   5.554
  506SOL     OW 2416   2.994   5.906   2.882
  506SOL    HW1 2417   2.948   5.873   2.964
  506SOL    HW2 2418   3.055   5.981   2.907
  507SOL     OW 2419   3.815   1.245   1.591
  507SOL    HW1 2420   3.860   1.333   1.578
  507SOL    HW2 2421   3.862   1.174   1.539
  508SOL     OW 2422   0.789   4.496   4.820
  508SOL    HW1 2423   0.696   4.490   4.782
  508SOL    HW2 2424   0.829   4.585   4.798
  509SOL     OW 2425   4.244   0.691   6.095
  509SOL    HW1 2426   4.192   0.766   6.055
  509SOL    HW2 2427   4.303   0.726   6.168
  510SOL     OW 2428   6.128   4.426   6.271
  510SOL    HW1 2429   6.122   4.519   6.306
  510SOL    HW2 2430   6.224   4.400   6.261
  511SOL     OW 2431   1.450   1.580   0.418
  511SOL    HW1 2432   1.401   1.536   0.342
  511SOL    HW2 2433   1.443   1.679   0.410
  512SOL     OW 2434   5.888   1.957   0.119
  512SOL    HW1 2435   5.847   1.881   0.169
  512SOL    HW2 2436   5.831   2.039   0.131
  513SOL     OW 2437   5.844   0.408   2.730
  513SOL    HW1 2438   5.819   0.356   2.648
  513SOL    HW2 2439   5.924   0.465   2.710
  514SOL     OW 2440   0.020   6.992   4.149
  514SOL    HW1 2441   0.049   6.921   4.085
  514SOL    HW2 2442   6.955   6.967   4.190
  515SOL     OW 2443   3.392   6.866   6.703
  515SOL    HW1 2444   3.409   6.849   6.607
  515SOL    HW2 2445   3.393   6.965   6.720
  516SOL     OW 2446   2.832   4.853   1.469
  516SOL    HW1 2447   2.853   4.784   1.401
  516SOL    HW2 2448   2.891   4.841   1.549
  517SOL     OW 2449   2.585   5.138   2.345
  517SOL    HW1 2450   2.623   5.068   2.405
  517SOL    HW2 2451   2.615   5.228   2.376
  518SOL     OW 2452   2.015   2.819   3.583
  518SOL    HW1 2453   1.952   2.897   3.586
  518SOL    HW2 2454   1.965   2.735   3.605
  519SOL     OW 2455   0.162   6.310   3.607
  519SOL    HW1 2456   0.079   6.272   3.646
  519SOL    HW2 2457   0.170   6.283   3.511
  520SOL     OW 2458   0.997   2.630   0.130
  520SOL    HW1 2459   0.996   2.638   0.030
  520SOL    HW2 2460   1.092   2.630   0.163
  521SOL     OW 2461   4.821   4.983   5.029
  521SOL    HW1 2462   4.920   4.996   5.038
  521SOL    HW2 2463   4.803   4.906   4.968
  522SOL     OW 2464   4.572   3.548   1.181
  522SOL    HW1 2465   4.515   3.624   1.213
  522SOL    HW2 2466   4.657   3.584   1.144
  523SOL     OW 2467   0.047   6.316   1.874
  523SOL    HW1 2468   0.010   6.348   1.961
  523SOL    HW2 2469   7.000   6.264   1.825
  524SOL     OW 2470   0.229   2.643   2.389
  524SOL    HW1 2471   0.306   2.706   2.397
  524SOL    HW2 2472   0.158   2.684   2.331
  525SOL     OW 2473   1.065   3.354   6.939
  525SOL    HW1 2474   1.051   3.385   6.845
  525SOL    HW2 2475   1.153   3.307   6.946
  526SOL     OW 2476   3.216   0.042   5.048
  526SOL    HW1 2477   3.134   0.098   5.061
  526SOL    HW2 2478   3.279   0.089   4.987
  527SOL     OW 2479   1.536   2.285   6.582
  527SOL    HW1 2480   1.480   2.355   6.539
  527SOL    HW2 2481   1.539   2.300   6.681
  528SOL     OW 2482   0.010   3.211   4.226
  528SOL    HW1 2483   0.044   3.304   4.214
  528SOL    HW2 2484   0.010   3.187   4.323
  529SOL     OW 2485   2.316   6.759   5.640
  529SOL    HW1 2486   2.388   6.820   5.672
  529SOL    HW2 2487   2.251   6.743   5.714
  530SOL     OW 2488   3.481   3.277   1.711
  530SOL    HW1 2489   3.515   3.367   1.684
  530SOL    HW2 2490   3.506   3.259   1.806
  531SOL     OW 2491   2.643   0.676   2.091
  531SOL    HW1 2492   2.592   0.644   2.171
  531SOL    HW2 2493   2.742   0.670   2.110
  532SOL     OW 2494   2.935   2.643   0.149
  532SOL    HW1 2495   2.851   2.608   0.190
  532SOL    HW2 2496   2.953   2.736   0.183
  533SOL     OW 2497   3.846   0.263   3.739
  533SOL    HW1 2498   3.789   0.275   3.820
  533SOL    HW2 2499   3.939   0.296   3.758
  534SOL     OW 2500   1.013   5.590   0.947
  534SOL    HW1 2501   1.052   5.631   0.865
  534SOL    HW2 2502   0.915   5.612   0.951
  535SOL     OW 2503   5.397   4.235   3.318
  535SOL    HW1 2504   5.481   4.217   3.268
  535SOL    HW2 2505   5.351   4.315   3.280
  536SOL     OW 2506   6.582   6.341   3.220
  536SOL    HW1 2507   6.595   6.387   3.308
  536SOL    HW2 2508   6.538   6.252   3.236
  537SOL     OW 2509   3.259   0.140   3.969
  537SOL    HW1 2510   3.256   0.102   4.062
  537SOL    HW2 2511   3.255   0.240   3.974
  538SOL     OW 2512   2.739   4.884   5.720
  538SOL    HW1 2513   2.810   4.842   5.776
  538SOL    HW2 2514   2.649   4.864   5.758
  539SOL     OW 2515   0.988   5.700   0.356
  539SOL    HW1 2516   0.961   5.751   0.275
  539SOL    HW2 2517   1.039   5.618   0.329
  540SOL     OW 2518   1.420   0.360   3.561
  540SOL    HW1 2519   1.437   0.435   3.626
  540SOL    HW2 2520   1.488   0.364   3.488
  541SOL     OW 2521   4.125   6.634   4.328
  541SOL    HW1 2522   4.150   6.649   4.232
  541SOL    HW2 2523   4.205   6.602   4.379
  542SOL     OW 2524   3.414   6.050   6.335
  542SOL    HW1 2525   3.405   6.150   6.334
  542SOL    HW2 2526   3.432   6.017   6.243
  543SOL     OW 2527   5.960   2.964   4.240
  543SOL    HW1 2528   5.861   2.973   4.250
  543SOL    HW2 2529   5.987   2.993   4.148
  544SOL     OW 2530   6.981   5.074   0.046
  544SOL    HW1 2531   6.899   5.113   0.005
  544SOL    HW2 2532   6.975   5.082   0.146
  545SOL     OW 2533   5.206   1.331   1.072
  545SOL    HW1 2534   5.168   1.418   1.042
  545SOL    HW2 2535   5.227   1.274   0.993
  546SOL     OW 2536   0.346   4.208   2.290
  546SOL    HW1 2537   0.348   4.146   2.369
  546SOL    HW2 2538   0.439   4.229   2.262
  547SOL     OW 2539   3.299   1.540   0.109
  547SOL    HW1 2540   3.300   1.574   0.014
  547SOL    HW2 2541   3.242   1.601   0.165
  548SOL     OW 2542   3.677   3.206   0.312
  548SOL    HW1 2543   3.694   3.295   0.357
  548SOL    HW2 2544   3.637   3.221   0.222
  549SOL     OW 2545   5.551   2.597   0.572
  549SOL    HW1 2546   5.618   2.668   0.549
  549SOL    HW2 2547   5.461   2.626   0.541
  550SOL     OW 2548   0.235   4.433   3.230
  550SOL    HW1 2549   0.236   4.521   3.184
  550SOL    HW2 2550   0.274   4.363   3.170
  551SOL     OW 2551   0.080   1.169   0.286
  551SOL    HW1 2552   0.087   1.072   0.308
  551SOL    HW2 2553   0.152   1.220   0.334
  552SOL     OW 2554   5.370   5.458   5.997
  552SOL    HW1 2555   5.383   5.510   6.082
  552SOL    HW2 2556   5.445   5.478   5.934
  553SOL     OW 2557   3.381   1.020   5.071
  553SOL    HW1 2558   3.309   1.076   5.112
  553SOL    HW2 2559   3.400   1.052   4.978
  554SOL     OW 2560   5.530   5.792   0.734
  554SOL    HW1 2561   5.514   5.882   0.694
  554SOL    HW2 2562   5.444   5.758   0.773
  555SOL     OW 2563   2.845   5.555   5.384
  555SOL    HW1 2564   2.798   5.627   5.331
  555SOL    HW2 2565   2.782   5.480   5.402
  556SOL     OW 2566   4.900   1.811   3.921
  556SOL    HW1 2567   4.963   1.880   3.958
  556SOL    HW2 2568   4.946   1.759   3.849
  557SOL     OW 2569   0.234   4.827   5.562
  557SOL    HW1 2570   0.210   4.730   5.568
  557SOL    HW2 2571   0.190   4.868   5.483
  558SOL     OW 2572   3.895   3.530   2.906
  558SOL    HW1 2573   3.836   3.466   2.955
  558SOL    HW2 2574   3.989   3.520   2.938
  559SOL     OW 2575   6.254   6.196   5.863
  559SOL    HW1 2576   6.177   6.132   5.853
  559SOL    HW2 2577   6.332   6.148   5.902
  560SOL     OW 2578   6.864   2.753   3.454
  560SOL    HW1 2579   6.963   2.754   3.469
  560SOL    HW2 2580   6.818   2.805   3.525
  561SOL     OW 2581   0.171   3.387   6.458
  561SOL    HW1 2582   0.157   3.376   6.360
  561SOL    HW2 2583   0.163   3.484   6.482
  562SOL     OW 2584   4.806   6.538   5.751
  562SOL    HW1 2585   4.866   6.559   5.828
  562SOL    HW2 2586   4.834   6.591   5.671
  563SOL     OW 2587   1.690   1.565   4.411
  563SOL    HW1 2588   1.631   1.520   4.344
  563SOL    HW2 2589   1.672   1.527   4.502
  564SOL     OW 2590   0.451   1.369   6.002
  564SOL    HW1 2591   0.536   1.416   5.979
  564SOL    HW2 2592   0.393   1.429   6.058
  565SOL     OW 2593   3.672   3.149   3.881
  565SOL    HW1 2594   3.648   3.104   3.967
  565SOL    HW2 2595   3.589   3.161   3.826
  566SOL     OW 2596   2.971   5.303   3.097
  566SOL    HW1 2597   2.882   5.343   3.117
  566SOL    HW2 2598   3.043   5.371   3.113
  567SOL     OW 2599   2.482   2.505   0.379
  567SOL    HW1 2600   2.395   2.545   0.350
  567SOL    HW2 2601   2.472   2.406   0.388
  568SOL     OW 2602   5.464   6.833   0.804
  568SOL    HW1 2603   5.456   6.772   0.725
  568SOL    HW2 2604   5.556   6.873   0.806
  569SOL     OW 2605   0.399   2.198   6.991
  569SOL    HW1 2606   0.338   2.121   6.971
  569SOL    HW2 2607   0.427   2.194   0.064
  570SOL     OW 2608   2.594   0.539   5.992
  570SOL    HW1 2609   2.671   0.475   5.995
  570SOL    HW2 2610   2.610   0.607   5.921
  571SOL     OW 2611   2.495   4.811   3.143
  571SOL    HW1 2612   2.566   4.861   3.092
  571SOL    HW2 2613   2.523   4.716   3.155
  572SOL     OW 2614   1.600   5.971   4.413
  572SOL    HW1 2615   1.549   5.992   4.329
  572SOL    HW2 2616   1.645   6.054   4.446
  573SOL     OW 2617   6.377   2.056   6.032
  573SOL    HW1 2618   6.470   2.022   6.048
  573SOL    HW2 2619   6.330   1.995   5.969
  574SOL     OW 2620   2.832   1.316   4.865
  574SOL    HW1 2621   2.871   1.329   4.773
  574SOL    HW2 2622   2.887   1.248   4.914
  575SOL     OW 2623   3.460   2.931   0.721
  575SOL    HW1 2624   3.548   2.887   0.702
  575SOL    HW2 2625   3.446   2.937   0.819
  576SOL     OW 2626   2.294   2.835   3.069
  576SOL    HW1 2627   2.339   2.747   3.087
  576SOL    HW2 2628   2.274   2.881   3.155
  577SOL     OW 2629   0.784   0.763   2.269
  577SOL    HW1 2630   0.841   0.744   2.189
  577SOL    HW2 2631   0.751   0.677   2.307
  578SOL     OW 2632   1.516   5.336   0.121
  578SOL    HW1 2633   1.598   5.319   0.068
  578SOL    HW2 2634   1.480   5.427   0.100
  579SOL     OW 2635   2.649   4.928   2.502
  579SOL    HW1 2636   2.728   4.937   2.563
  579SOL    HW2 2637   2.629   4.831   2.488
  580SOL     OW 2638   4.613   5.324   5.157
  580SOL    HW1 2639   4.652   5.237   5.188
  580SOL    HW2 2640   4.601   5.322   5.058
  581SOL     OW 2641   0.871   2.700   3.696
  581SOL    HW1 2642   0.931   2.776   3.672
  581SOL    HW2 2643   0.879   2.680   3.794
  582SOL     OW 2644   5.167   5.375   2.999
  582SOL    HW1 2645   5.255   5.414   3.028
  582SOL    HW2 2646   5.183   5.284   2.961
  583SOL     OW 2647   3.099   5.079   5.656
  583SOL    HW1 2648   3.157   5.158   5.677
  583SOL    HW2 2649   3.075   5.079   5.560
  584SOL     OW 2650   3.359   0.141   6.131
  584SOL    HW1 2651   3.393   0.180   6.217
  584SOL    HW2 2652   3.436   0.123   6.070
  585SOL     OW 2653   3.530   0.010   1.577
  585SOL    HW1 2654   3.566   7.004   1.487
  585SOL    HW2 2655   3.435   0.040   1.567
  586SOL     OW 2656   4.237   0.327   1.504
  586SOL    HW1 2657   4.320   0.372   1.471
  586SOL    HW2 2658   4.253   0.290   1.595
  587SOL     OW 2659   5.572   1.731   1.765
  587SOL    HW1 2660   5.604   1.799   1.699
  587SOL    HW2 2661   5.579   1.769   1.857
  588SOL     OW 2662   1.748   5.495   0.769
  588SOL    HW1 2663   1.773   5.412   0.720
  588SOL    HW2 2664   1.771   5.486   0.865
  589SOL     OW 2665   3.501   6.042   1.469
  589SOL    HW1 2666   3.434   6.018   1.399
  589SOL    HW2 2667   3.569   5.969   1.476
  590SOL     OW 2668   5.914   1.659   0.953
  590SOL    HW1 2669   5.873   1.746   0.927
  590SOL    HW2 2670   5.952   1.613   0.872
  591SOL     OW 2671   4.493   6.237   4.273
  591SOL    HW1 2672   4.415   6.186   4.308
  591SOL    HW2 2673   4.578   6.193   4.303
  592SOL     OW 2674   5.045   0.925   3.814
  592SOL    HW1 2675   5.141   0.945   3.794
  592SOL    HW2 2676   5.025   0.952   3.908
  593SOL     OW 2677   3.958   2.198   4.796
  593SOL    HW1 2678   3.921   2.153   4.878
  593SOL    HW2 2679   3.977   2.294   4.817
  594SOL     OW 2680   5.800   2.003   1.312
  594SOL    HW1 2681   5.746   1.980   1.393
  594SOL    HW2 2682   5.769   1.947   1.234
  595SOL     OW 2683   5.180   6.690   3.101
  595SOL    HW1 2684   5.215   6.636   3.177
  595SOL    HW2 2685   5.116   6.759   3.136
  596SOL     OW 2686   6.912   4.549   3.618
  596SOL    HW1 2687   6.887   4.486   3.545
  596SOL    HW2 2688   6.965   4.625   3.580
  597SOL     OW 2689   3.275   6.884   5.878
  597SOL    HW1 2690   3.367   6.855   5.853
  597SOL    HW2 2691   3.264   6.880   5.977
  598SOL     OW 2692   2.925   3.742   4.738
  598SOL    HW1 2693   2.951   3.803   4.813
  598SOL    HW2 2694   2.910   3.650   4.773
  599SOL     OW 2695   1.723   5.943   2.092
  599SOL    HW1 2696   1.764   5.988   2.013
  599SOL    HW2 2697   1.651   6.002   2.130
  600SOL     OW 2698   0.151   3.941   5.515
  600SOL    HW1 2699   0.244   3.904   5.515
  600SOL    HW2 2700   0.096   3.893   5.447
  601SOL     OW 2701   1.511   0.729   4.932
  601SOL    HW1 2702   1.496   0.724   5.030
  601SOL    HW2 2703   1.591   0.787   4.914
  602SOL     OW 2704   3.021   6.895   5.286
  602SOL    HW1 2705   2.985   6.885   5.379
  602SOL    HW2 2706   3.121   6.890   5.288
  603SOL     OW 2707   1.434   1.278   5.531
  603SOL    HW1 2708   1.382   1.351   5.487
  603SOL    HW2 2709   1.529   1.307   5.544
  604SOL     OW 2710   6.966   2.406   1.811
  604SOL    HW1 2711   0.037   2.398   1.846
  604SOL    HW2 2712   6.958   2.489   1.756
  605SOL     OW 2713   0.379   4.571   2.553
  605SOL    HW1 2714   0.370   4.476   2.583
  605SOL    HW2 2715   0.295   4.600   2.507
  606SOL     OW 2716   4.433   6.826   5.265
  606SOL    HW1 2717   4.391   6.739   5.290
  606SOL    HW2 2718   4.517   6.808   5.212
  607SOL     OW 2719   1.152   5.374   5.973
  607SOL    HW1 2720   1.217   5.366   6.048
  607SOL    HW2 2721   1.149   5.469   5.942
  608SOL     OW 2722   4.051   6.903   6.588
  608SOL    HW1 2723   4.139   6.940   6.616
  608SOL    HW2 2724   4.049   6.891   6.489
  609SOL     OW 2725   3.932   2.387   1.662
  609SOL    HW1 2726   4.017   2.384   1.714
  609SOL    HW2 2727   3.854   2.390   1.726
  610SOL     OW 2728   4.710   2.193   0.274
  610SOL    HW1 2729   4.741   2.193   0.179
  610SOL    HW2 2730   4.682   2.286   0.300
  611SOL     OW 2731   4.081   7.019   2.448
  611SOL    HW1 2732   4.130   0.024   2.530
  611SOL    HW2 2733   3.988   6.991   2.471
  612SOL     OW 2734   3.151   4.804   5.550
  612SOL    HW1 2735   3.138   4.774   5.455
  612SOL    HW2 2736   3.115   4.897   5.561
  613SOL     OW 2737   5.540   5.268   5.035
  613SOL    HW1 2738   5.554   5.365   5.058
  613SOL    HW2 2739   5.600   5.212   5.092
  614SOL     OW 2740   5.021   5.305   5.246
  614SOL    HW1 2741   4.983   5.328   5.156
  614SOL    HW2 2742   4.955   5.329   5.317
  615SOL     OW 2743   0.014   4.534   0.693
  615SOL    HW1 2744   0.009   4.472   0.614
  615SOL    HW2 2745   0.020   4.481   0.777
  616SOL     OW 2746   6.692   2.893   3.298
  616SOL    HW1 2747   6.684   2.961   3.370
  616SOL    HW2 2748   6.741   2.813   3.333
  617SOL     OW 2749   2.055   5.539   5.901
  617SOL    HW1 2750   1.965   5.497   5.920
  617SOL    HW2 2751   2.082   5.595   5.979
  618SOL     OW 2752   1.693   1.662   1.838
  618SOL    HW1 2753   1.741   1.578   1.814
  618SOL    HW2 2754   1.595   1.650   1.818
  619SOL     OW 2755   1.814   1.777   6.884
  619SOL    HW1 2756   1.766   1.698   6.847
  619SOL    HW2 2757   1.793   1.858   6.828
  620SOL     OW 2758   4.961   2.177   0.541
  620SOL    HW1 2759   5.032   2.111   0.566
  620SOL    HW2 2760   4.943   2.238   0.618
  621SOL     OW 2761   6.309   5.078   6.873
  621SOL    HW1 2762   6.253   5.036   6.944
  621SOL    HW2 2763   6.321   5.175   6.893
  622SOL     OW 2764   1.855   1.090   0.131
  622SOL    HW1 2765   1.935   1.031   0.146
  622SOL    HW2 2766   1.878   1.184   0.158
  623SOL     OW 2767   0.533   5.700   5.782
  623SOL    HW1 2768   0.576   5.661   5.701
  623SOL    HW2 2769   0.588   5.777   5.816
  624SOL     OW 2770   0.774   2.502   2.575
  624SOL    HW1 2771   0.713   2.556   2.633
  624SOL    HW2 2772   0.790   2.413   2.618
  625SOL     OW 2773   3.131   1.702   1.877
  625SOL    HW1 2774   3.062   1.644   1.835
  625SOL    HW2 2775   3.091   1.791   1.900
  626SOL     OW 2776   2.155   5.829   3.407
  626SOL    HW1 2777   2.093   5.850   3.331
  626SOL    HW2 2778   2.128   5.741   3.447
  627SOL     OW 2779   5.236   0.686   0.480
  627SOL    HW1 2780   5.230   0.782   0.506
  627SOL    HW2 2781   5.149   0.641   0.500
  628SOL     OW 2782   4.967   5.198   4.836
  628SOL    HW1 2783   5.000   5.262   4.767
  628SOL    HW2 2784   5.044   5.169   4.894
  629SOL     OW 2785   0.718   0.666   1.259
  629SOL    HW1 2786   0.709   0.642   1.162
  629SOL    HW2 2787   0.640   0.630   1.309
  630SOL     OW 2788   4.997   2.060   2.101
  630SOL    HW1 2789   5.016   2.046   2.198
  630SOL    HW2 2790   5.068   2.017   2.046
  631SOL     OW 2791   3.229   0.802   5.483
  631SOL    HW1 2792   3.326   0.779   5.474
  631SOL    HW2 2793   3.179   0.767   5.404
  632SOL     OW 2794   2.463   1.077   0.392
  632SOL    HW1 2795   2.525   1.087   0.315
  632SOL    HW2 2796   2.371   1.108   0.366
  633SOL     OW 2797   3.247   5.093   0.503
  633SOL    HW1 2798   3.226   5.128   0.595
  633SOL    HW2 2799   3.237   4.994   0.502
  634SOL     OW 2800   4.067   5.049   1.530
  634SOL    HW1 2801   4.110   5.126   1.578
  634SOL    HW2 2802   4.020   4.992   1.596
  635SOL     OW 2803   3.539   6.976   3.379
  635SOL    HW1 2804   3.605   7.017   3.442
  635SOL    HW2 2805   3.451   6.964   3.425
  636SOL     OW 2806   4.969   5.315   6.125
  636SOL    HW1 2807   4.875   5.346   6.111
  636SOL    HW2 2808   4.969   5.239   6.191
  637SOL     OW 2809   5.145   4.835   1.960
  637SOL    HW1 2810   5.045   4.826   1.962
  637SOL    HW2 2811   5.181   4.791   1.877
  638SOL     OW 2812   5.194   1.272   2.232
  638SOL    HW1 2813   5.098   1.246   2.224
  638SOL    HW2 2814   5.237   1.217   2.304
  639SOL     OW 2815   4.661   4.752   1.835
  639SOL    HW1 2816   4.602   4.805   1.774
  639SOL    HW2 2817   4.622   4.661   1.848
  640SOL     OW 2818   2.230   4.035   5.886
  640SOL    HW1 2819   2.297   4.076   5.824
  640SOL    HW2 2820   2.145   4.016   5.836
  641SOL     OW 2821   0.777   5.049   4.534
  641SOL    HW1 2822   0.872   5.069   4.557
  641SOL    HW2 2823   0.763   4.950   4.533
  642SOL     OW 2824   0.353   4.510   4.940
  642SOL    HW1 2825   0.335   4.490   5.036
  642SOL    HW2 2826   0.272   4.552   4.898
  643SOL     OW 2827   6.176   6.173   4.688
  643SOL    HW1 2828   6.270   6.201   4.707
  643SOL    HW2 2829   6.176   6.079   4.654
  644SOL     OW 2830   0.717   5.926   3.057
  644SOL    HW1 2831   0.640   5.863   3.052
  644SOL    HW2 2832   0.801   5.875   3.078
  645SOL     OW 2833   4.489   2.338   4.533
  645SOL    HW1 2834   4.495   2.404   4.458
  645SOL    HW2 2835   4.407   2.356   4.587
  646SOL     OW 2836   1.743   1.520   3.605
  646SOL    HW1 2837   1.703   1.439   3.563
  646SOL    HW2 2838   1.836   1.533   3.571
  647SOL     OW 2839   6.048   2.760   6.970
  647SOL    HW1 2840   5.953   2.731   6.982
  647SOL    HW2 2841   6.061   2.792   6.876
  648SOL     OW 2842   5.967   3.950   2.590
  648SOL    HW1 2843   5.933   3.970   2.682
  648SOL    HW2 2844   6.001   3.855   2.587
  649SOL     OW 2845   3.866   4.169   0.614
  649SOL    HW1 2846   3.889   4.072   0.606
  649SOL    HW2 2847   3.947   4.224   0.597
  650SOL     OW 2848   4.900   4.580   0.473
  650SOL    HW1 2849   4.999   4.562   0.478
  650SOL    HW2 2850   4.883   4.677   0.491
  651SOL     OW 2851   0.755   6.573   0.889
  651SOL    HW1 2852   0.699   6.491   0.897
  651SOL    HW2 2853   0.758   6.620   0.978
  652SOL     OW 2854   4.689   6.794   3.112
  652SOL    HW1 2855   4.688   6.762   3.206
  652SOL    HW2 2856   4.773   6.763   3.067
  653SOL     OW 2857   3.309   5.328   4.585
  653SOL    HW1 2858   3.363   5.346   4.667
  653SOL    HW2 2859   3.251   5.407   4.566
  654SOL     OW 2860   7.011   5.310   6.077
  654SOL    HW1 2861   6.919   5.351   6.082
  654SOL    HW2 2862   7.005   5.220   6.034
  655SOL     OW 2863   0.526   0.227   1.865
  655SOL    HW1 2864   0.612   0.203   1.821
  655SOL    HW2 2865   0.473   0.287   1.805
  656SOL     OW 2866   2.336   5.966   2.275
  656SOL    HW1 2867   2.254   6.014   2.306
  656SOL    HW2 2868   2.392   5.941   2.354
  657SOL     OW 2869   2.725   1.764   1.076
  657SOL    HW1 2870   2.716   1.863   1.065
  657SOL    HW2 2871   2.765   1.725   0.993
  658SOL     OW 2872   3.247   3.780   6.758
  658SOL    HW1 2873   3.179   3.749   6.824
  658SOL    HW2 2874   3.306   3.849   6.801
  659SOL     OW 2875   2.707   6.490   6.391
  659SOL    HW1 2876   2.729   6.443   6.306
  659SOL    HW2 2877   2.635   6.558   6.374
  660SOL     OW 2878   3.743   5.880   2.022
  660SOL    HW1 2879   3.672   5.831   2.074
  660SOL    HW2 2880   3.815   5.816   1.996
  661SOL     OW 2881   4.623   6.043   3.399
  661SOL    HW1 2882   4.671   6.007   3.319
  661SOL    HW2 2883   4.690   6.076   3.466
  662SOL     OW 2884   3.365   1.366   5.153
  662SOL    HW1 2885   3.275   1.323   5.161
  662SOL    HW2 2886   3.402   1.350   5.062
  663SOL     OW 2887   1.864   4.285   4.617
  663SOL    HW1 2888   1.796   4.348   4.654
  663SOL    HW2 2889   1.855   4.196   4.663
  664SOL     OW 2890   0.479   6.324   6.162
  664SOL    HW1 2891   0.462   6.393   6.232
  664SOL    HW2 2892   0.392   6.284   6.133
  665SOL     OW 2893   3.729   5.263   3.604
  665SOL    HW1 2894   3.693   5.297   3.516
  665SOL    HW2 2895   3.825   5.291   3.613
  666SOL     OW 2896   4.210   0.784   2.027
  666SOL    HW1 2897   4.285   0.830   1.979
  666SOL    HW2 2898   4.241   0.757   2.118
  667SOL     OW 2899   0.869   5.031   1.804
  667SOL    HW1 2900   0.957   5.060   1.768
  667SOL    HW2 2901   0.870   5.036   1.904
  668SOL     OW 2902   5.816   5.277   6.115
  668SOL    HW1 2903   5.786   5.251   6.207
  668SOL    HW2 2904   5.915   5.267   6.108
  669SOL     OW 2905   5.778   1.211   3.224
  669SOL    HW1 2906   5.822   1.122   3.231
  669SOL    HW2 2907   5.682   1.204   3.253
  670SOL     OW 2908   2.276   1.728   2.862
  670SOL    HW1 2909   2.305   1.711   2.768
  670SOL    HW2 2910   2.353   1.711   2.924
  671SOL     OW 2911   2.650   6.382   1.545
  671SOL    HW1 2912   2.720   6.376   1.617
  671SOL    HW2 2913   2.562   6.353   1.582
  672SOL     OW 2914   0.125   5.169   1.963
  672SOL    HW1 2915   0.027   5.178   1.977
  672SOL    HW2 2916   0.169   5.148   2.050
  673SOL     OW 2917   5.075   0.018   1.008
  673SOL    HW1 2918   5.137   7.010   0.936
  673SOL    HW2 2919   5.118   0.006   1.097
  674SOL     OW 2920   0.048   2.054   4.978
  674SOL    HW1 2921   7.022   2.140   4.995
  674SOL    HW2 2922   7.004   1.979   4.973
  675SOL     OW 2923   6.343   2.567   2.066
  675SOL    HW1 2924   6.372   2.660   2.047
  675SOL    HW2 2925   6.407   2.525   2.131
  676SOL     OW 2926   2.411   4.755   4.797
  676SOL    HW1 2927   2.418   4.810   4.880
  676SOL    HW2 2928   2.318   4.719   4.788
  677SOL     OW 2929   5.068   0.715   1.639
  677SOL    HW1 2930   5.161   0.751   1.634
  677SOL    HW2 2931   5.020   0.737   1.553
  678SOL     OW 2932   2.726   4.670   5.373
  678SOL    HW1 2933   2.639   4.669   5.324
  678SOL    HW2 2934   2.788   4.603   5.333
  679SOL     OW 2935   5.373   2.250   4.950
  679SOL    HW1 2936   5.297   2.286   4.895
  679SOL    HW2 2937   5.449   2.226   4.890
  680SOL     OW 2938   5.155   6.437   4.496
  680SOL    HW1 2939   5.215   6.446   4.576
  680SOL    HW2 2940   5.176   6.509   4.431
  681SOL     OW 2941   4.708   5.745   2.581
  681SOL    HW1 2942   4.612   5.746   2.550
  681SOL    HW2 2943   4.768   5.756   2.502
  682SOL     OW 2944   6.920   1.497   1.854
  682SOL    HW1 2945   6.959   1.519   1.764
  682SOL    HW2 2946   6.894   1.581   1.901
  683SOL     OW 2947   4.252   3.024   1.315
  683SOL    HW1 2948   4.160   3.062   1.307
  683SOL    HW2 2949   4.317   3.098   1.335
  684SOL     OW 2950   6.056   0.397   6.875
  684SOL    HW1 2951   6.152   0.384   6.898
  684SOL    HW2 2952   5.999   0.370   6.953
  685SOL     OW 2953   2.932   1.244   3.416
  685SOL    HW1 2954   2.969   1.234   3.508
  685SOL    HW2 2955   2.908   1.340   3.400
  686SOL     OW 2956   4.445   1.214   3.931
  686SOL    HW1 2957   4.479   1.132   3.976
  686SOL    HW2 2958   4.520   1.280   3.920
  687SOL     OW 2959   1.128   1.558   4.794
  687SOL    HW1 2960   1.198   1.531   4.860
  687SOL    HW2 2961   1.131   1.657   4.781
  688SOL     OW 2962   0.237   0.838   5.853
  688SOL    HW1 2963   0.332   0.853   5.882
  688SOL    HW2 2964   0.199   0.760   5.902
  689SOL     OW 2965   1.301   4.483   5.767
  689SOL    HW1 2966   1.256   4.416   5.827
  689SOL    HW2 2967   1.372   4.437   5.714
  690SOL     OW 2968   6.544   3.589   3.211
  690SOL    HW1 2969   6.544   3.684   3.179
  690SOL    HW2 2970   6.622   3.541   3.172
  691SOL     OW 2971   4.055   1.744   0.651
  691SOL    HW1 2972   3.998   1.662   0.652
  691SOL    HW2 2973   4.144   1.722   0.609
  692SOL     OW 2974   3.289   1.651   5.004
  692SOL    HW1 2975   3.335   1.708   5.072
  692SOL    HW2 2976   3.353   1.627   4.931
  693SOL     OW 2977   4.736   6.573   3.865
  693SOL    HW1 2978   4.754   6.632   3.945
  693SOL    HW2 2979   4.816   6.517   3.847
  694SOL     OW 2980   3.993   6.018   4.465
  694SOL    HW1 2981   3.973   6.111   4.495
  694SOL    HW2 2982   3.907   5.971   4.444
  695SOL     OW 2983   3.330   5.631   4.733
  695SOL    HW1 2984   3.344   5.637   4.635
  695SOL    HW2 2985   3.394   5.564   4.772
  696SOL     OW 2986   4.946   4.066   3.541
  696SOL    HW1 2987   4.987   4.145   3.496
  696SOL    HW2 2988   4.854   4.090   3.573
  697SOL     OW 2989   1.214   3.756   1.670
  697SOL    HW1 2990   1.123   3.783   1.639
  697SOL    HW2 2991   1.233   3.797   1.759
  698SOL     OW 2992   4.585   6.410   1.878
  698SOL    HW1 2993   4.544   6.424   1.787
  698SOL    HW2 2994   4.678   6.446   1.878
  699SOL     OW 2995   2.133   3.391   6.659
  699SOL    HW1 2996   2.183   3.384   6.746
  699SOL    HW2 2997   2.167   3.321   6.596
  700SOL     OW 2998   3.311   0.147   2.214
  700SOL    HW1 2999   3.347   0.087   2.285
  700SOL    HW2 3000   3.368   0.140   2.132
  701SOL     OW 3001   5.979   4.618   1.076
  701SOL    HW1 3002   5.931   4.612   1.164
  701SOL    HW2 3003   6.045   4.694   1.079
  702SOL     OW 3004   2.518   0.130   4.216
  702SOL    HW1 3005   2.564   0.123   4.304
  702SOL    HW2 3006   2.424   0.160   4.229
  703SOL     OW 3007   3.162   3.400   5.768
  703SOL    HW1 3008   3.118   3.362   5.687
  703SOL    HW2 3009   3.099   3.460   5.816
  704SOL     OW 3010   1.841   2.793   6.107
  704SOL    HW1 3011   1.802   2.709   6.070
  704SOL    HW2 3012   1.938   2.799   6.083
  705SOL     OW 3013   6.974   6.210   3.744
  705SOL    HW1 3014   6.875   6.210   3.726
  705SOL    HW2 3015   6.989   6.226   3.842
  706SOL     OW 3016   4.289   1.478   5.389
  706SOL    HW1 3017   4.313   1.538   5.312
  706SOL    HW2 3018   4.271   1.386   5.354
  707SOL     OW 3019   4.154   5.592   3.318
  707SOL    HW1 3020   4.104   5.573   3.234
  707SOL    HW2 3021   4.090   5.608   3.393
  708SOL     OW 3022   2.474   1.613   3.725
  708SOL    HW1 3023   2.420   1.617   3.641
  708SOL    HW2 3024   2.570   1.596   3.702
  709SOL     OW 3025   1.821   6.645   1.468
  709SOL    HW1 3026   1.756   6.677   1.398
  709SOL    HW2 3027   1.902   6.607   1.423
  710SOL     OW 3028   5.058   2.485   1.934
  710SOL    HW1 3029   4.968   2.446   1.953
  710SOL    HW2 3030   5.075   2.562   1.996
  711SOL     OW 3031   6.690   3.030   6.259
  711SOL    HW1 3032   6.767   3.052   6.319
  711SOL    HW2 3033   6.721   3.030   6.163
  712SOL     OW 3034   4.933   2.781   0.998
  712SOL    HW1 3035   4.910   2.758   0.904
  712SOL    HW2 3036   4.911   2.878   1.014
  713SOL     OW 3037   4.316   2.714   5.300
  713SOL    HW1 3038   4.308   2.706   5.399
  713SOL    HW2 3039   4.263   2.641   5.256
  714SOL     OW 3040   6.169   5.224   3.813
  714SOL    HW1 3041   6.176   5.313   3.858
  714SOL    HW2 3042   6.212   5.229   3.723
  715SOL     OW 3043   6.627   4.893   5.334
  715SOL    HW1 3044   6.583   4.919   5.420
  715SOL    HW2 3045   6.557   4.866   5.268
  716SOL     OW 3046   1.932   0.746   3.055
  716SOL    HW1 3047   1.943   0.769   3.152
  716SOL    HW2 3048   2.013   0.776   3.005
  717SOL     OW 3049   5.769   4.770   4.424
  717SOL    HW1 3050   5.769   4.702   4.497
  717SOL    HW2 3051   5.860   4.809   4.415
  718SOL     OW 3052   4.719   2.800   4.632
  718SOL    HW1 3053   4.760   2.889   4.650
  718SOL    HW2 3054   4.671   2.768   4.713
  719SOL     OW 3055   6.539   0.319   2.280
  719SOL    HW1 3056   6.589   0.234   2.266
  719SOL    HW2 3057   6.569   0.361   2.365
  720SOL     OW 3058   2.610   0.444   5.471
  720SOL    HW1 3059   2.513   0.469   5.468
  720SOL    HW2 3060   2.626   0.380   5.546
  721SOL     OW 3061   0.664   1.566   2.113
  721SOL    HW1 3062   0.687   1.651   2.065
  721SOL    HW2 3063   0.725   1.493   2.083
  722SOL     OW 3064   3.726   0.844   6.453
  722SOL    HW1 3065   3.641   0.896   6.438
  722SOL    HW2 3066   3.766   0.872   6.540
  723SOL     OW 3067   1.976   6.070   3.468
  723SOL    HW1 3068   1.968   6.015   3.386
  723SOL    HW2 3069   1.994   6.166   3.443
  724SOL     OW 3070   6.626   0.905   3.341
  724SOL    HW1 3071   6.580   0.993   3.325
  724SOL    HW2 3072   6.635   0.890   3.439
  725SOL     OW 3073   1.815   4.672   2.168
  725SOL    HW1 3074   1.765   4.591   2.137
  725SOL    HW2 3075   1.803   4.746   2.101
  726SOL     OW 3076   2.481   5.123   0.869
  726SOL    HW1 3077   2.529   5.102   0.784
  726SOL    HW2 3078   2.533   5.087   0.946
  727SOL     OW 3079   4.621   5.405   6.065
  727SOL    HW1 3080   4.527   5.370   6.061
  727SOL    HW2 3081   4.633   5.478   5.998
  728SOL     OW 3082   0.281   3.251   4.488
  728SOL    HW1 3083   0.284   3.351   4.500
  728SOL    HW2 3084   0.200   3.215   4.534
  729SOL     OW 3085   0.580   3.000   1.100
  729SOL    HW1 3086   0.533   2.963   1.180
  729SOL    HW2 3087   0.569   3.099   1.098
  730SOL     OW 3088   5.437   0.523   2.729
  730SOL    HW1 3089   5.381   0.443   2.749
  730SOL    HW2 3090   5.513   0.529   2.794
  731SOL     OW 3091   5.006   4.573   6.481
  731SOL    HW1 3092   5.005   4.613   6.390
  731SOL    HW2 3093   5.014   4.473   6.474
  732SOL     OW 3094   5.551   2.062   2.202
  732SOL    HW1 3095   5.465   2.042   2.249
  732SOL    HW2 3096   5.583   2.153   2.229
  733SOL     OW 3097   5.759   0.257   4.421
  733SOL    HW1 3098   5.673   0.224   4.459
  733SOL    HW2 3099   5.785   0.343   4.465
  734SOL     OW 3100   6.419   4.445   2.352
  734SOL    HW1 3101   6.327   4.466   2.384
  734SOL    HW2 3102   6.423   4.352   2.317
  735SOL     OW 3103   5.709   0.446   1.743
  735SOL    HW1 3104   5.750   0.474   1.830
  735SOL    HW2 3105   5.610   0.438   1.754
  736SOL     OW 3106   1.328   1.156   4.328
  736SOL    HW1 3107   1.228   1.159   4.320
  736SOL    HW2 3108   1.366   1.101   4.253
  737SOL     OW 3109   5.906   1.835   5.434
  737SOL    HW1 3110   5.969   1.769   5.392
  737SOL    HW2 3111   5.815   1.823   5.394
  738SOL     OW 3112   2.904   3.997   1.273
  738SOL    HW1 3113   2.874   4.016   1.180
  738SOL    HW2 3114   2.942   3.904   1.278
  739SOL     OW 3115   3.466   0.310   5.150
  739SOL    HW1 3116   3.450   0.253   5.069
  739SOL    HW2 3117   3.383   0.314   5.205
  740SOL     OW 3118   5.866   2.176   2.837
  740SOL    HW1 3119   5.863   2.148   2.933
  740SOL    HW2 3120   5.809   2.258   2.825
  741SOL     OW 3121   1.832   1.049   4.456
  741SOL    HW1 3122   1.929   1.035   4.436
  741SOL    HW2 3123   1.783   0.963   4.446
  742SOL     OW 3124   2.195   5.921   1.521
  742SOL    HW1 3125   2.125   5.890   1.457
  742SOL    HW2 3126   2.253   5.844   1.548
  743SOL     OW 3127   0.514   6.336   3.580
  743SOL    HW1 3128   0.532   6.391   3.499
  743SOL    HW2 3129   0.455   6.388   3.642
  744SOL     OW 3130   6.481   0.982   0.568
  744SOL    HW1 3131   6.571   0.959   0.604
  744SOL    HW2 3132   6.413   0.917   0.602
  745SOL     OW 3133   2.216   6.033   5.054
  745SOL    HW1 3134   2.274   5.967   5.004
  745SOL    HW2 3135   2.271   6.080   5.123
  746SOL     OW 3136   5.854   3.845   5.309
  746SOL    HW1 3137   5.755   3.847   5.323
  746SOL    HW2 3138   5.886   3.750   5.315
  747SOL     OW 3139   5.306   5.599   3.901
  747SOL    HW1 3140   5.325   5.573   3.996
  747SOL    HW2 3141   5.223   5.552   3.870
  748SOL     OW 3142   5.355   4.944   2.639
  748SOL    HW1 3143   5.376   5.034   2.677
  748SOL    HW2 3144   5.423   4.921   2.569
  749SOL     OW 3145   5.165   3.476   3.332
  749SOL    HW1 3146   5.188   3.383   3.303
  749SOL    HW2 3147   5.065   3.485   3.337
  750SOL     OW 3148   3.175   0.954   1.370
  750SOL    HW1 3149   3.235   1.016   1.420
  750SOL    HW2 3150   3.105   0.918   1.432
  751SOL     OW 3151   5.172   2.458   0.916
  751SOL    HW1 3152   5.213   2.438   0.827
  751SOL    HW2 3153   5.196   2.550   0.945
  752SOL     OW 3154   3.394   2.158   6.139
  752SOL    HW1 3155   3.408   2.078   6.082
  752SOL    HW2 3156   3.446   2.235   6.103
  753SOL     OW 3157   2.978   3.428   5.280
  753SOL    HW1 3158   2.913   3.500   5.303
  753SOL    HW2 3159   3.016   3.445   5.189
  754SOL     OW 3160   5.510   1.155   6.930
  754SOL    HW1 3161   5.587   1.139   6.991
  754SOL    HW2 3162   5.426   1.126   6.974
  755SOL     OW 3163   2.990   4.313   5.320
  755SOL    HW1 3164   3.049   4.318   5.401
  755SOL    HW2 3165   2.999   4.398   5.268
  756SOL     OW 3166   3.152   5.116   6.824
  756SOL    HW1 3167   3.218   5.042   6.812
  756SOL    HW2 3168   3.194   5.189   6.878
  757SOL     OW 3169   1.885   0.113   2.349
  757SOL    HW1 3170   1.922   0.193   2.397
  757SOL    HW2 3171   1.839   0.143   2.265
  758SOL     OW 3172   3.770   1.231   3.891
  758SOL    HW1 3173   3.789   1.304   3.957
  758SOL    HW2 3174   3.837   1.234   3.817
  759SOL     OW 3175   0.415   2.108   3.193
  759SOL    HW1 3176   0.391   2.168   3.269
  759SOL    HW2 3177   0.338   2.103   3.129
  760SOL     OW 3178   6.431   6.718   3.495
  760SOL    HW1 3179   6.487   6.730   3.413
  760SOL    HW2 3180   6.478   6.657   3.558
  761SOL     OW 3181   5.673   4.135   5.605
  761SOL    HW1 3182   5.590   4.176   5.568
  761SOL    HW2 3183   5.694   4.177   5.694
  762SOL     OW 3184   2.844   6.274   5.638
  762SOL    HW1 3185   2.879   6.353   5.690
  762SOL    HW2 3186   2.873   6.281   5.543
  763SOL     OW 3187   5.510   0.487   6.454
  763SOL    HW1 3188   5.481   0.555   6.521
  763SOL    HW2 3189   5.485   0.396   6.486
  764SOL     OW 3190   5.821   1.300   5.413
  764SOL    HW1 3191   5.828   1.200   5.406
  764SOL    HW2 3192   5.910   1.337   5.441
  765SOL     OW 3193   1.274   6.744   0.873
  765SOL    HW1 3194   1.201   6.679   0.857
  765SOL    HW2 3195   1.262   6.787   0.962
  766SOL     OW 3196   2.427   2.269   5.253
  766SOL    HW1 3197   2.476   2.332   5.193
  766SOL    HW2 3198   2.345   2.314   5.288
  767SOL     OW 3199   6.812   6.710   3.401
  767SOL    HW1 3200   6.892   6.672   3.353
  767SOL    HW2 3201   6.830   6.712   3.499
  768SOL     OW 3202   2.166   6.238   2.943
  768SOL    HW1 3203   2.156   6.336   2.924
  768SOL    HW2 3204   2.254   6.206   2.909
  769SOL     OW 3205   3.734   1.742   5.153
  769SOL    HW1 3206   3.772   1.748   5.245
  769SOL    HW2 3207   3.682   1.657   5.143
  770SOL     OW 3208   1.484   4.487   4.359
  770SOL    HW1 3209   1.578   4.506   4.332
  770SOL    HW2 3210   1.443   4.569   4.398
  771SOL     OW 3211   0.935   5.585   3.321
  771SOL    HW1 3212   1.030   5.570   3.347
  771SOL    HW2 3213   0.892   5.649   3.384
  772SOL     OW 3214   5.801   4.921   6.997
  772SOL    HW1 3215   5.798   4.914   0.075
  772SOL    HW2 3216   5.710   4.902   6.960
  773SOL     OW 3217   1.259   3.852   2.948
  773SOL    HW1 3218   1.185   3.806   2.899
  773SOL    HW2 3219   1.337   3.865   2.887
  774SOL     OW 3220   1.788   1.786   3.447
  774SOL    HW1 3221   1.864   1.725   3.425
  774SOL    HW2 3222   1.769   1.845   3.369
  775SOL     OW 3223   2.100   3.249   4.168
  775SOL    HW1 3224   2.144   3.172   4.124
  775SOL    HW2 3225   2.002   3.232   4.175
  776SOL     OW 3226   0.473   0.035   6.168
  776SOL    HW1 3227   0.506   0.096   6.240
  776SOL    HW2 3228   0.424   0.088   6.099
  777SOL     OW 3229   1.460   3.384   0.429
  777SOL    HW1 3230   1.379   3.366   0.372
  777SOL    HW2 3231   1.447   3.343   0.519
  778SOL     OW 3232   3.037   0.167   1.872
  778SOL    HW1 3233   2.961   0.230   1.890
  778SOL    HW2 3234   3.114   0.219   1.835
  779SOL     OW 3235   0.284   2.459   1.664
  779SOL    HW1 3236   0.378   2.494   1.669
  779SOL    HW2 3237   0.226   2.527   1.619
  780SOL     OW 3238   1.546   2.503   4.458
  780SOL    HW1 3239   1.634   2.549   4.463
  780SOL    HW2 3240   1.535   2.458   4.369
  781SOL     OW 3241   6.854   4.715   0.196
  781SOL    HW1 3242   6.914   4.789   0.226
  781SOL    HW2 3243   6.883   4.683   0.105
  782SOL     OW 3244   1.976   4.189   5.647
  782SOL    HW1 3245   2.049   4.256   5.666
  782SOL    HW2 3246   1.996   4.142   5.562
  783SOL     OW 3247   5.585   5.441   6.713
  783SOL    HW1 3248   5.578   5.501   6.793
  783SOL    HW2 3249   5.616   5.350   6.743
  784SOL     OW 3250   2.559   6.036   1.887
  784SOL    HW1 3251   2.597   6.116   1.934
  784SOL    HW2 3252   2.474   6.009   1.931
  785SOL     OW 3253   0.646   7.014   3.778
  785SOL    HW1 3254   0.722   0.034   3.828
  785SOL    HW2 3255   0.636   0.036   3.689
  786SOL     OW 3256   5.846   0.454   3.351
  786SOL    HW1 3257   5.769   0.411   3.397
  786SOL    HW2 3258   5.813   0.511   3.275
  787SOL     OW 3259   2.597   0.849   0.455
  787SOL    HW1 3260   2.543   0.933   0.443
  787SOL    HW2 3261   2.550   0.789   0.519
  788SOL     OW 3262   3.503   3.080   1.507
  788SOL    HW1 3263   3.560   3.015   1.557
  788SOL    HW2 3264   3.529   3.173   1.531
  789SOL     OW 3265   4.434   5.597   1.823
  789SOL    HW1 3266   4.526   5.612   1.857
  789SOL    HW2 3267   4.368   5.618   1.895
  790SOL     OW 3268   1.026   2.216   1.639
  790SOL    HW1 3269   1.063   2.306   1.662
  790SOL    HW2 3270   1.004   2.213   1.541
  791SOL     OW 3271   3.019   5.659   5.619
  791SOL    HW1 3272   2.974   5.744   5.648
  791SOL    HW2 3273   2.985   5.633   5.529
  792SOL     OW 3274   0.516   1.573   1.009
  792SOL    HW1 3275   0.546   1.654   1.058
  792SOL    HW2 3276   0.416   1.571   1.006
  793SOL     OW 3277   4.685   5.815   4.531
  793SOL    HW1 3278   4.648   5.782   4.618
  793SOL    HW2 3279   4.730   5.903   4.545
  794SOL     OW 3280   3.216   3.496   4.290
  794SOL    HW1 3281   3.286   3.462   4.352
  794SOL    HW2 3282   3.221   3.445   4.204
  795SOL     OW 3283   3.709   0.629   5.562
  795SOL    HW1 3284   3.745   0.722   5.573
  795SOL    HW2 3285   3.683   0.593   5.651
  796SOL     OW 3286   1.708   2.650   6.515
  796SOL    HW1 3287   1.738   2.745   6.523
  796SOL    HW2 3288   1.727   2.603   6.601
  797SOL     OW 3289   4.145   0.172   1.248
  797SOL    HW1 3290   4.229   0.223   1.268
  797SOL    HW2 3291   4.069   0.236   1.235
  798SOL     OW 3292   2.543   6.457   1.310
  798SOL    HW1 3293   2.584   6.407   1.386
  798SOL    HW2 3294   2.491   6.535   1.345
  799SOL     OW 3295   0.262   2.432   6.505
  799SOL    HW1 3296   0.273   2.380   6.420
  799SOL    HW2 3297   0.266   2.530   6.485
  800SOL     OW 3298   6.193   1.303   1.764
  800SOL    HW1 3299   6.157   1.255   1.844
  800SOL    HW2 3300   6.292   1.291   1.760
  801SOL     OW 3301   2.182   5.224   5.632
  801SOL    HW1 3302   2.183   5.125   5.644
  801SOL    HW2 3303   2.218   5.268   5.715
  802SOL     OW 3304   4.964   2.559   6.362
  802SOL    HW1 3305   4.906   2.545   6.442
  802SOL    HW2 3306   4.919   2.622   6.299
  803SOL     OW 3307   2.884   0.092   5.810
  803SOL    HW1 3308   2.838   0.054   5.730
  803SOL    HW2 3309   2.850   0.046   5.892
  804SOL     OW 3310   5.901   0.161   1.424
  804SOL    HW1 3311   5.930   0.204   1.510
  804SOL    HW2 3312   5.898   0.061   1.437
  805SOL     OW 3313   2.094   0.442   3.835
  805SOL    HW1 3314   2.169   0.432   3.900
  805SOL    HW2 3315   2.094   0.536   3.799
  806SOL     OW 3316   0.363   0.179   5.989
  806SOL    HW1 3317   0.267   0.164   6.014
  806SOL    HW2 3318   0.384   0.277   5.998
  807SOL     OW 3319   0.721   6.666   4.544
  807SOL    HW1 3320   0.643   6.728   4.537
  807SOL    HW2 3321   0.799   6.705   4.497
  808SOL     OW 3322   5.836   3.031   0.510
  808SOL    HW1 3323   5.774   3.106   0.489
  808SOL    HW2 3324   5.904   3.061   0.577
  809SOL     OW 3325   0.277   5.480   6.768
  809SOL    HW1 3326   0.278   5.431   6.681
  809SOL    HW2 3327   0.334   5.431   6.835
  810SOL     OW 3328   2.668   3.184   0.697
  810SOL    HW1 3329   2.638   3.092   0.726
  810SOL    HW2 3330   2.588   3.238   0.673
  811SOL     OW 3331   5.361   5.140   4.488
  811SOL    HW1 3332   5.408   5.194   4.417
  811SOL    HW2 3333   5.350   5.196   4.570
  812SOL     OW 3334   0.494   2.183   2.219
  812SOL    HW1 3335   0.582   2.144   2.192
  812SOL    HW2 3336   0.496   2.282   2.207
  813SOL     OW 3337   2.287   0.629   4.151
  813SOL    HW1 3338   2.373   0.640   4.202
  813SOL    HW2 3339   2.281   0.536   4.116
  814SOL     OW 3340   6.596   5.943   2.716
  814SOL    HW1 3341   6.612   5.989   2.803
  814SOL    HW2 3342   6.498   5.927   2.704
  815SOL     OW 3343   4.712   2.784   3.295
  815SOL    HW1 3344   4.760   2.756   3.212
  815SOL    HW2 3345   4.650   2.710   3.323
  816SOL     OW 3346   5.200   4.034   0.301
  816SOL    HW1 3347   5.250   4.048   0.386
  816SOL    HW2 3348   5.259   4.057   0.223
  817SOL     OW 3349   1.221   5.591   0.721
  817SOL    HW1 3350   1.247   5.581   0.625
  817SOL    HW2 3351   1.265   5.520   0.775
  818SOL     OW 3352   5.508   2.821   3.332
  818SOL    HW1 3353   5.586   2.767   3.363
  818SOL    HW2 3354   5.531   2.868   3.247
  819SOL     OW 3355   5.970   2.793   1.190
  819SOL    HW1 3356   5.895   2.859   1.184
  819SOL    HW2 3357   5.932   2.701   1.194
  820SOL     OW 3358   2.629   1.935   4.524
  820SOL    HW1 3359   2.635   2.030   4.493
  820SOL    HW2 3360   2.588   1.932   4.615
  821SOL     OW 3361   5.733   4.592   4.637
  821SOL    HW1 3362   5.796   4.615   4.711
  821SOL    HW2 3363   5.645   4.566   4.675
  822SOL     OW 3364   0.557   4.314   3.189
  822SOL    HW1 3365   0.511   4.312   3.278
  822SOL    HW2 3366   0.598   4.225   3.170
  823SOL     OW 3367   0.655   3.752   6.034
  823SOL    HW1 3368   0.703   3.747   5.946
  823SOL    HW2 3369   0.674   3.840   6.078
  824SOL     OW 3370   5.417   1.386   5.183
  824SOL    HW1 3371   5.459   1.373   5.273
  824SOL    HW2 3372   5.338   1.326   5.173
  825SOL     OW 3373   6.152   6.355   0.787
  825SOL    HW1 3374   6.157   6.265   0.745
  825SOL    HW2 3375   6.213   6.358   0.866
  826SOL     OW 3376   3.921   2.033   6.068
  826SOL    HW1 3377   3.964   2.115   6.030
  826SOL    HW2 3378   3.837   2.059   6.116
  827SOL     OW 3379   3.338   4.166   4.848
  827SOL    HW1 3380   3.315   4.069   4.854
  827SOL    HW2 3381   3.276   4.212   4.784
  828SOL     OW 3382   6.421   5.396   4.368
  828SOL    HW1 3383   6.499   5.446   4.328
  828SOL    HW2 3384   6.336   5.433   4.333
  829SOL     OW 3385   3.406   2.881   2.266
  829SOL    HW1 3386   3.494   2.906   2.226
  829SOL    HW2 3387   3.334   2.898   2.199
  830SOL     OW 3388   6.158   4.696   6.692
  830SOL    HW1 3389   6.225   4.739   6.632
  830SOL    HW2 3390   6.107   4.766   6.742
  831SOL     OW 3391   5.633   6.491   1.437
  831SOL    HW1 3392   5.555   6.539   1.478
  831SOL    HW2 3393   5.602   6.436   1.360
  832SOL     OW 3394   3.906   1.413   4.447
  832SOL    HW1 3395   3.841   1.400   4.373
  832SOL    HW2 3396   3.952   1.327   4.468
  833SOL     OW 3397   1.137   3.856   6.431
  833SOL    HW1 3398   1.192   3.934   6.462
  833SOL    HW2 3399   1.171   3.825   6.343
  834SOL     OW 3400   4.582   3.592   6.723
  834SOL    HW1 3401   4.580   3.690   6.742
  834SOL    HW2 3402   4.515   3.570   6.652
  835SOL     OW 3403   1.894   0.719   4.970
  835SOL    HW1 3404   1.855   0.811   4.977
  835SOL    HW2 3405   1.924   0.689   5.060
  836SOL     OW 3406   3.439   1.856   5.659
  836SOL    HW1 3407   3.455   1.939   5.607
  836SOL    HW2 3408   3.366   1.802   5.616
  837SOL     OW 3409   1.757   0.722   1.458
  837SOL    HW1 3410   1.746   0.701   1.555
  837SOL    HW2 3411   1.794   0.815   1.448
  838SOL     OW 3412   2.060   5.395   4.210
  838SOL    HW1 3413   2.062   5.295   4.199
  838SOL    HW2 3414   2.144   5.434   4.171
  839SOL     OW 3415   2.107   1.125   1.404
  839SOL    HW1 3416   2.078   1.060   1.334
  839SOL    HW2 3417   2.042   1.200   1.410
  840SOL     OW 3418   6.100   6.089   0.254
  840SOL    HW1 3419   6.044   6.147   0.195
  840SOL    HW2 3420   6.106   5.997   0.216
  841SOL     OW 3421   4.603   5.726   5.561
  841SOL    HW1 3422   4.642   5.659   5.498
  841SOL    HW2 3423   4.674   5.791   5.588
  842SOL     OW 3424   3.291   0.002   6.957
  842SOL    HW1 3425   3.235   6.985   0.008
  842SOL    HW2 3426   3.382   6.983   6.959
  843SOL     OW 3427   2.220   2.021   1.738
  843SOL    HW1 3428   2.160   2.044   1.661
  843SOL    HW2 3429   2.287   1.953   1.709
  844SOL     OW 3430   0.493   6.240   1.208
  844SOL    HW1 3431   0.464   6.196   1.123
  844SOL    HW2 3432   0.506   6.170   1.278
  845SOL     OW 3433   4.186   2.076   3.088
  845SOL    HW1 3434   4.093   2.064   3.055
  845SOL    HW2 3435   4.235   2.138   3.026
  846SOL     OW 3436   3.034   1.442   5.859
  846SOL    HW1 3437   3.102   1.515   5.850
  846SOL    HW2 3438   3.000   1.416   5.768
  847SOL     OW 3439   2.313   3.012   1.601
  847SOL    HW1 3440   2.349   3.105   1.610
  847SOL    HW2 3441   2.284   2.979   1.691
  848SOL     OW 3442   6.054   6.579   5.935
  848SOL    HW1 3443   6.140   6.529   5.939
  848SOL    HW2 3444   6.047   6.642   6.012
  849SOL     OW 3445   5.842   3.757   0.174
  849SOL    HW1 3446   5.795   3.693   0.113
  849SOL    HW2 3447   5.933   3.721   0.195
  850SOL     OW 3448   6.784   0.383   4.796
  850SOL    HW1 3449   6.883   0.370   4.797
  850SOL    HW2 3450   6.760   0.458   4.858
  851SOL     OW 3451   6.618   3.115   6.926
  851SOL    HW1 3452   6.528   3.072   6.930
  851SOL    HW2 3453   6.660   3.112   7.017
  852SOL     OW 3454   0.103   4.765   0.812
  852SOL    HW1 3455   0.072   4.700   0.743
  852SOL    HW2 3456   0.187   4.732   0.853
  853SOL     OW 3457   2.355   4.009   6.773
  853SOL    HW1 3458   2.291   4.070   6.819
  853SOL    HW2 3459   2.434   3.993   6.833
  854SOL     OW 3460   6.022   6.490   6.543
  854SOL    HW1 3461   5.972   6.516   6.625
  854SOL    HW2 3462   5.982   6.537   6.464
  855SOL     OW 3463   6.688   0.686   0.227
  855SOL    HW1 3464   6.776   0.711   0.267
  855SOL    HW2 3465   6.614   0.733   0.276
  856SOL     OW 3466   1.858   6.865   6.215
  856SOL    HW1 3467   1.868   6.767   6.231
  856SOL    HW2 3468   1.798   6.881   6.136
  857SOL     OW 3469   6.960   4.471   3.102
  857SOL    HW1 3470   6.886   4.510   3.048
  857SOL    HW2 3471   6.930   4.382   3.139
  858SOL     OW 3472   2.801   4.082   1.032
  858SOL    HW1 3473   2.808   4.010   0.963
  858SOL    HW2 3474   2.771   4.167   0.989
  859SOL     OW 3475   4.792   6.055   5.339
  859SOL    HW1 3476   4.843   5.992   5.398
  859SOL    HW2 3477   4.825   6.048   5.245
  860SOL     OW 3478   5.577   3.377   6.626
  860SOL    HW1 3479   5.646   3.340   6.563
  860SOL    HW2 3480   5.522   3.446   6.579
  861SOL     OW 3481   1.669   5.397   2.795
  861SOL    HW1 3482   1.578   5.439   2.794
  861SOL    HW2 3483   1.735   5.463   2.832
  862SOL     OW 3484   1.800   4.804   3.836
  862SOL    HW1 3485   1.849   4.858   3.766
  862SOL    HW2 3486   1.708   4.783   3.803
  863SOL     OW 3487   6.117   0.706   5.870
  863SOL    HW1 3488   6.192   0.720   5.805
  863SOL    HW2 3489   6.109   0.608   5.890
  864SOL     OW 3490   4.666   0.289   5.401
  864SOL    HW1 3491   4.610   0.348   5.342
  864SOL    HW2 3492   4.728   0.235   5.344
  865SOL     OW 3493   2.063   6.856   5.193
  865SOL    HW1 3494   2.032   6.950   5.177
  865SOL    HW2 3495   2.111   6.852   5.281
  866SOL     OW 3496   3.133   6.515   0.916
  866SOL    HW1 3497   3.190   6.595   0.935
  866SOL    HW2 3498   3.146   6.487   0.821
  867SOL     OW 3499   5.803   2.739   0.498
  867SOL    HW1 3500   5.831   2.830   0.531
  867SOL    HW2 3501   5.869   2.671   0.529
  868SOL     OW 3502   0.162   2.368   2.456
  868SOL    HW1 3503   0.077   2.404   2.494
  868SOL    HW2 3504   0.216   2.444   2.419
  869SOL     OW 3505   0.067   3.703   4.135
  869SOL    HW1 3506   0.082   3.628   4.200
  869SOL    HW2 3507   0.118   3.684   4.051
  870SOL     OW 3508   3.711   4.856   1.339
  870SOL    HW1 3509   3.779   4.800   1.386
  870SOL    HW2 3510   3.619   4.820   1.357
  871SOL     OW 3511   5.072   2.013   3.966
  871SOL    HW1 3512   5.054   2.061   4.052
  871SOL    HW2 3513   5.053   2.073   3.889
  872SOL     OW 3514   0.181   2.023   4.757
  872SOL    HW1 3515   0.124   2.047   4.835
  872SOL    HW2 3516   0.217   1.931   4.769
  873SOL     OW 3517   4.627   6.364   5.611
  873SOL    HW1 3518   4.637   6.374   5.512
  873SOL    HW2 3519   4.669   6.442   5.657
  874SOL     OW 3520   6.289   4.190   6.734
  874SOL    HW1 3521   6.227   4.264   6.706
  874SOL    HW2 3522   6.384   4.221   6.726
  875SOL     OW 3523   5.496   5.682   1.194
  875SOL    HW1 3524   5.544   5.635   1.119
  875SOL    HW2 3525   5.413   5.631   1.217
  876SOL     OW 3526   0.517   5.239   1.831
  876SOL    HW1 3527   0.423   5.259   1.804
  876SOL    HW2 3528   0.567   5.198   1.755
  877SOL     OW 3529   2.475   4.191   6.324
  877SOL    HW1 3530   2.483   4.116   6.389
  877SOL    HW2 3531   2.443   4.156   6.236
  878SOL     OW 3532   4.556   6.895   4.217
  878SOL    HW1 3533   4.465   6.885   4.259
  878SOL    HW2 3534   4.545   6.914   4.120
  879SOL     OW 3535   3.857   0.564   1.634
  879SOL    HW1 3536   3.826   0.516   1.716
  879SOL    HW2 3537   3.855   0.663   1.651
  880SOL     OW 3538   3.503   4.132   3.753
  880SOL    HW1 3539   3.533   4.110   3.846
  880SOL    HW2 3540   3.405   4.116   3.745
  881SOL     OW 3541   4.829   3.186   4.834
  881SOL    HW1 3542   4.747   3.183   4.890
  881SOL    HW2 3543   4.878   3.272   4.851
  882SOL     OW 3544   0.937   3.093   4.397
  882SOL    HW1 3545   0.892   3.017   4.350
  882SOL    HW2 3546   0.873   3.169   4.407
  883SOL     OW 3547   3.447   0.944   2.224
  883SOL    HW1 3548   3.363   0.994   2.249
  883SOL    HW2 3549   3.423   0.853   2.191
  884SOL     OW 3550   5.350   3.496   6.068
  884SOL    HW1 3551   5.343   3.504   5.969
  884SOL    HW2 3552   5.346   3.587   6.109
  885SOL     OW 3553   3.611   1.097   4.873
  885SOL    HW1 3554   3.672   1.099   4.952
  885SOL    HW2 3555   3.656   1.051   4.797
  886SOL     OW 3556   3.481   0.262   0.879
  886SOL    HW1 3557   3.502   0.345   0.828
  886SOL    HW2 3558   3.524   0.184   0.835
  887SOL     OW 3559   3.807   6.643   4.065
  887SOL    HW1 3560   3.766   6.732   4.044
  887SOL    HW2 3561   3.741   6.587   4.114
  888SOL     OW 3562   0.218   6.216   3.210
  888SOL    HW1 3563   0.155   6.143   3.237
  888SOL    HW2 3564   0.175   6.305   3.229
  889SOL     OW 3565   0.387   3.730   0.858
  889SOL    HW1 3566   0.453   3.805   0.854
  889SOL    HW2 3567   0.356   3.717   0.952
  890SOL     OW 3568   1.432   5.427   3.467
  890SOL    HW1 3569   1.473   5.349   3.420
  890SOL    HW2 3570   1.336   5.435   3.440
  891SOL     OW 3571   5.294   5.700   0.512
  891SOL    HW1 3572   5.315   5.693   0.610
  891SOL    HW2 3573   5.378   5.688   0.459
  892SOL     OW 3574   2.233   3.725   5.222
  892SOL    HW1 3575   2.276   3.801   5.175
  892SOL    HW2 3576   2.192   3.662   5.155
  893SOL     OW 3577   1.888   6.680   2.608
  893SOL    HW1 3578   1.897   6.776   2.582
  893SOL    HW2 3579   1.800   6.645   2.574
  894SOL     OW 3580   1.103   3.310   1.820
  894SOL    HW1 3581   1.175   3.269   1.876
  894SOL    HW2 3582   1.020   3.255   1.827
  895SOL     OW 3583   0.371   4.621   4.028
  895SOL    HW1 3584   0.324   4.708   4.036
  895SOL    HW2 3585   0.304   4.548   4.012
  896SOL     OW 3586   5.681   4.688   0.428
  896SOL    HW1 3587   5.620   4.766   0.441
  896SOL    HW2 3588   5.632   4.603   0.446
  897SOL     OW 3589   4.691   1.385   6.886
  897SOL    HW1 3590   4.596   1.390   6.854
  897SOL    HW2 3591   4.747   1.338   6.818
  898SOL     OW 3592   3.178   5.862   2.519
  898SOL    HW1 3593   3.229   5.783   2.552
  898SOL    HW2 3594   3.197   5.941   2.577
  899SOL     OW 3595   0.084   6.514   6.479
  899SOL    HW1 3596   0.109   6.430   6.431
  899SOL    HW2 3597   0.057   6.493   6.573
  900SOL     OW 3598   5.618   6.559   0.310
  900SOL    HW1 3599   5.565   6.643   0.305
  900SOL    HW2 3600   5.572   6.493   0.369
  901SOL     OW 3601   2.257   0.560   3.336
  901SOL    HW1 3602   2.259   0.601   3.244
  901SOL    HW2 3603   2.171   0.584   3.381
  902SOL     OW 3604   0.280   2.428   0.530
  902SOL    HW1 3605   0.279   2.528   0.535
  902SOL    HW2 3606   0.263   2.399   0.436
  903SOL     OW 3607   6.729   2.553   6.635
  903SOL    HW1 3608   6.688   2.591   6.718
  903SOL    HW2 3609   6.658   2.545   6.565
  904SOL     OW 3610   2.718   2.247   2.839
  904SOL    HW1 3611   2.633   2.280   2.796
  904SOL    HW2 3612   2.792   2.250   2.772
  905SOL     OW 3613   4.867   1.730   6.662
  905SOL    HW1 3614   4.964   1.707   6.665
  905SOL    HW2 3615   4.844   1.790   6.738
  906SOL     OW 3616   0.111   2.328   5.932
  906SOL    HW1 3617   0.182   2.259   5.916
  906SOL    HW2 3618   0.152   2.411   5.969
  907SOL     OW 3619   5.301   3.809   0.627
  907SOL    HW1 3620   5.259   3.773   0.543
  907SOL    HW2 3621   5.334   3.732   0.682
  908SOL     OW 3622   2.675   4.641   2.363
  908SOL    HW1 3623   2.653   4.545   2.344
  908SOL    HW2 3624   2.657   4.695   2.281
  909SOL     OW 3625   4.392   5.399   0.914
  909SOL    HW1 3626   4.368   5.494   0.931
  909SOL    HW2 3627   4.492   5.392   0.903
  910SOL     OW 3628   2.919   2.438   1.466
  910SOL    HW1 3629   2.843   2.503   1.466
  910SOL    HW2 3630   2.885   2.346   1.489
  911SOL     OW 3631   1.126   6.014   6.341
  911SOL    HW1 3632   1.206   5.963   6.372
  911SOL    HW2 3633   1.118   6.007   6.242
  912SOL     OW 3634   5.898   2.029   3.071
  912SOL    HW1 3635   5.892   1.950   3.010
  912SOL    HW2 3636   5.812   2.039   3.121
  913SOL     OW 3637   4.363   6.915   3.065
  913SOL    HW1 3638   4.334   7.008   3.040
  913SOL    HW2 3639   4.463   6.908   3.056
  914SOL     OW 3640   2.025   0.005   6.543
  914SOL    HW1 3641   1.997   0.033   6.635
  914SOL    HW2 3642   2.077   6.942   6.548
  915SOL     OW 3643   5.978   4.292   6.474
  915SOL    HW1 3644   6.023   4.336   6.397
  915SOL    HW2 3645   5.986   4.351   6.555
  916SOL     OW 3646   1.488   2.223   2.136
  916SOL    HW1 3647   1.575   2.246   2.181
  916SOL    HW2 3648   1.488   2.127   2.111
  917SOL     OW 3649   0.340   6.187   0.634
  917SOL    HW1 3650   0.430   6.230   0.626
  917SOL    HW2 3651   0.338   6.102   0.581
  918SOL     OW 3652   2.946   0.168   0.471
  918SOL    HW1 3653   2.873   0.178   0.539
  918SOL    HW2 3654   3.000   0.252   0.468
  919SOL     OW 3655   5.671   1.433   3.476
  919SOL    HW1 3656   5.727   1.357   3.443
  919SOL    HW2 3657   5.615   1.403   3.553
  920SOL     OW 3658   2.633   4.160   1.627
  920SOL    HW1 3659   2.695   4.182   1.702
  920SOL    HW2 3660   2.538   4.171   1.657
  921SOL     OW 3661   5.147   6.173   4.440
  921SOL    HW1 3662   5.159   6.271   4.459
  921SOL    HW2 3663   5.067   6.160   4.383
  922SOL     OW 3664   3.908   4.061   4.376
  922SOL    HW1 3665   3.970   4.129   4.414
  922SOL    HW2 3666   3.834   4.043   4.440
  923SOL     OW 3667   2.588   2.939   6.545
  923SOL    HW1 3668   2.590   2.959   6.643
  923SOL    HW2 3669   2.587   3.024   6.493
  924SOL     OW 3670   6.114   3.911   1.953
  924SOL    HW1 3671   6.057   3.828   1.954
  924SOL    HW2 3672   6.055   3.992   1.954
  925SOL     OW 3673   6.776   2.688   0.044
  925SOL    HW1 3674   6.876   2.681   0.055
  925SOL    HW2 3675   6.732   2.687   0.134
  926SOL     OW 3676   6.971   1.226   0.881
  926SOL    HW1 3677   6.901   1.274   0.934
  926SOL    HW2 3678   6.927   1.161   0.819
  927SOL     OW 3679   5.747   3.509   3.900
  927SOL    HW1 3680   5.769   3.533   3.805
  927SOL    HW2 3681   5.832   3.504   3.953
  928SOL     OW 3682   3.101   6.018   0.802
  928SOL    HW1 3683   3.108   5.942   0.737
  928SOL    HW2 3684   3.008   6.022   0.839
  929SOL     OW 3685   6.793   0.698   7.003
  929SOL    HW1 3686   6.808   0.602   6.977
  929SOL    HW2 3687   6.736   0.702   0.062
  930SOL     OW 3688   4.241   5.505   6.491
  930SOL    HW1 3689   4.275   5.595   6.519
  930SOL    HW2 3690   4.178   5.515   6.415
  931SOL     OW 3691   6.496   2.366   4.403
  931SOL    HW1 3692   6.491   2.317   4.491
  931SOL    HW2 3693   6.447   2.452   4.411
  932SOL     OW 3694   2.615   1.799   3.390
  932SOL    HW1 3695   2.645   1.862   3.462
  932SOL    HW2 3696   2.530   1.754   3.418
  933SOL     OW 3697   1.242   4.903   2.500
  933SOL    HW1 3698   1.270   4.841   2.574
  933SOL    HW2 3699   1.145   4.889   2.480
  934SOL     OW 3700   2.446   6.091   5.712
  934SOL    HW1 3701   2.363   6.080   5.768
  934SOL    HW2 3702   2.468   6.004   5.668
  935SOL     OW 3703   5.114   3.966   3.835
  935SOL    HW1 3704   5.057   3.926   3.763
  935SOL    HW2 3705   5.171   3.894   3.876
  936SOL     OW 3706   1.450   0.190   6.273
  936SOL    HW1 3707   1.530   0.211   6.330
  936SOL    HW2 3708   1.367   0.196   6.328
  937SOL     OW 3709   4.808   1.819   5.455
  937SOL    HW1 3710   4.891   1.847   5.407
  937SOL    HW2 3711   4.757   1.754   5.398
  938SOL     OW 3712   6.635   5.554   4.233
  938SOL    HW1 3713   6.569   5.628   4.218
  938SOL    HW2 3714   6.725   5.592   4.254
  939SOL     OW 3715   0.528   6.833   4.442
  939SOL    HW1 3716   0.591   6.814   4.367
  939SOL    HW2 3717   0.467   6.756   4.455
  940SOL     OW 3718   1.079   4.218   0.451
  940SOL    HW1 3719   1.157   4.224   0.388
  940SOL    HW2 3720   1.007   4.280   0.420
  941SOL     OW 3721   5.066   0.272   6.896
  941SOL    HW1 3722   4.967   0.275   6.913
  941SOL    HW2 3723   5.106   0.196   6.947
  942SOL     OW 3724   6.530   6.260   1.226
  942SOL    HW1 3725   6.572   6.265   1.317
  942SOL    HW2 3726   6.537   6.350   1.182
  943SOL     OW 3727   2.377   4.875   2.640
  943SOL    HW1 3728   2.448   4.899   2.574
  943SOL    HW2 3729   2.316   4.806   2.599
  944SOL     OW 3730   0.407   5.033   4.376
  944SOL    HW1 3731   0.496   5.078   4.386
  944SOL    HW2 3732   0.334   5.098   4.397
  945SOL     OW 3733   0.785   5.072   5.578
  945SOL    HW1 3734   0.750   5.153   5.624
  945SOL    HW2 3735   0.882   5.062   5.597
  946SOL     OW 3736   4.775   4.755   4.304
  946SOL    HW1 3737   4.788   4.672   4.358
  946SOL    HW2 3738   4.835   4.827   4.338
  947SOL     OW 3739   3.693   3.492   3.389
  947SOL    HW1 3740   3.654   3.467   3.477
  947SOL    HW2 3741   3.765   3.561   3.403
  948SOL     OW 3742   5.129   0.841   2.450
  948SOL    HW1 3743   5.058   0.832   2.520
  948SOL    HW2 3744   5.216   0.805   2.485
  949SOL     OW 3745   3.106   6.554   0.053
  949SOL    HW1 3746   3.103   6.639   0.001
  949SOL    HW2 3747   3.086   6.476   7.016
  950SOL     OW 3748   5.885   5.734   2.206
  950SOL    HW1 3749   5.930   5.724   2.295
  950SOL    HW2 3750   5.954   5.733   2.133
  951SOL     OW 3751   1.150   6.592   3.384
  951SOL    HW1 3752   1.126   6.608   3.479
  951SOL    HW2 3753   1.227   6.528   3.379
  952SOL     OW 3754   4.344   2.074   2.680
  952SOL    HW1 3755   4.386   1.998   2.729
  952SOL    HW2 3756   4.401   2.156   2.689
  953SOL     OW 3757   6.082   5.864   5.039
  953SOL    HW1 3758   6.116   5.813   4.960
  953SOL    HW2 3759   6.012   5.929   5.009
  954SOL     OW 3760   4.345   6.109   2.368
  954SOL    HW1 3761   4.345   6.188   2.306
  954SOL    HW2 3762   4.279   6.124   2.442
  955SOL     OW 3763   1.775   4.238   7.010
  955SOL    HW1 3764   1.802   4.258   0.082
  955SOL    HW2 3765   1.836   4.285   6.947
  956SOL     OW 3766   0.385   0.990   0.954
  956SOL    HW1 3767   0.409   1.087   0.943
  956SOL    HW2 3768   0.436   0.936   0.887
  957SOL     OW 3769   6.212   1.464   2.101
  957SOL    HW1 3770   6.268   1.469   2.018
  957SOL    HW2 3771   6.268   1.491   2.180
  958SOL     OW 3772   5.237   6.161   2.251
  958SOL    HW1 3773   5.220   6.243   2.197
  958SOL    HW2 3774   5.157   6.101   2.247
  959SOL     OW 3775   3.620   6.668   4.691
  959SOL    HW1 3776   3.623   6.656   4.592
  959SOL    HW2 3777   3.712   6.689   4.724
  960SOL     OW 3778   0.914   0.709   0.938
  960SOL    HW1 3779   0.890   0.623   0.892
  960SOL    HW2 3780   1.007   0.735   0.911
  961SOL     OW 3781   3.373   6.551   3.332
  961SOL    HW1 3782   3.382   6.602   3.247
  961SOL    HW2 3783   3.435   6.472   3.331
  962SOL     OW 3784   5.825   0.386   5.153
  962SOL    HW1 3785   5.786   0.335   5.077
  962SOL    HW2 3786   5.863   0.323   5.221
  963SOL     OW 3787   4.569   1.315   1.427
  963SOL    HW1 3788   4.494   1.374   1.398
  963SOL    HW2 3789   4.603   1.264   1.348
  964SOL     OW 3790   4.656   4.758   5.309
  964SOL    HW1 3791   4.593   4.696   5.264
  964SOL    HW2 3792   4.614   4.849   5.316
  965SOL     OW 3793   6.410   2.317   2.515
  965SOL    HW1 3794   6.487   2.274   2.562
  965SOL    HW2 3795   6.324   2.287   2.558
  966SOL     OW 3796   4.837   2.396   3.440
  966SOL    HW1 3797   4.882   2.481   3.411
  966SOL    HW2 3798   4.861   2.376   3.535
  967SOL     OW 3799   3.442   4.708   6.519
  967SOL    HW1 3800   3.459   4.806   6.509
  967SOL    HW2 3801   3.530   4.661   6.531
  968SOL     OW 3802   3.385   0.399   1.210
  968SOL    HW1 3803   3.363   0.455   1.130
  968SOL    HW2 3804   3.382   0.302   1.185
  969SOL     OW 3805   2.801   5.143   5.696
  969SOL    HW1 3806   2.888   5.183   5.725
  969SOL    HW2 3807   2.805   5.044   5.706
  970SOL     OW 3808   6.034   1.510   5.798
  970SOL    HW1 3809   5.978   1.443   5.845
  970SOL    HW2 3810   6.084   1.566   5.865
  971SOL     OW 3811   6.789   3.665   2.515
  971SOL    HW1 3812   6.887   3.677   2.499
  971SOL    HW2 3813   6.769   3.682   2.612
  972SOL     OW 3814   6.757   2.494   1.060
  972SOL    HW1 3815   6.849   2.485   1.099
  972SOL    HW2 3816   6.702   2.556   1.116
  973SOL     OW 3817   0.340   4.075   6.219
  973SOL    HW1 3818   0.322   3.978   6.232
  973SOL    HW2 3819   0.291   4.128   6.289
  974SOL     OW 3820   0.677   4.742   2.664
  974SOL    HW1 3821   0.577   4.740   2.667
  974SOL    HW2 3822   0.712   4.799   2.739
  975SOL     OW 3823   2.701   6.753   0.916
  975SOL    HW1 3824   2.782   6.799   0.878
  975SOL    HW2 3825   2.730   6.677   0.973
  976SOL     OW 3826   5.854   3.627   1.877
  976SOL    HW1 3827   5.905   3.652   1.959
  976SOL    HW2 3828   5.800   3.704   1.845
  977SOL     OW 3829   0.849   1.386   2.014
  977SOL    HW1 3830   0.865   1.362   1.918
  977SOL    HW2 3831   0.882   1.312   2.072
  978SOL     OW 3832   5.609   2.075   0.894
  978SOL    HW1 3833   5.579   2.085   0.988
  978SOL    HW2 3834   5.532   2.093   0.832
  979SOL     OW 3835   6.743   2.967   6.717
  979SOL    HW1 3836   6.714   2.883   6.761
  979SOL    HW2 3837   6.732   3.044   6.780
  980SOL     OW 3838   3.954   0.984   4.829
  980SOL    HW1 3839   4.016   0.959   4.904
  980SOL    HW2 3840   3.965   1.080   4.807
  981SOL     OW 3841   0.174   0.322   5.230
  981SOL    HW1 3842   0.269   0.291   5.229
  981SOL    HW2 3843   0.166   0.400   5.292
  982SOL     OW 3844   0.506   1.721   5.431
  982SOL    HW1 3845   0.500   1.625   5.458
  982SOL    HW2 3846   0.418   1.766   5.449
  983SOL     OW 3847   6.628   2.995   3.008
  983SOL    HW1 3848   6.535   3.002   3.044
  983SOL    HW2 3849   6.684   2.942   3.072
  984SOL     OW 3850   1.593   2.102   3.047
  984SOL    HW1 3851   1.500   2.071   3.029
  984SOL    HW2 3852   1.631   2.142   2.963
  985SOL     OW 3853   5.946   3.808   4.926
  985SOL    HW1 3854   5.913   3.738   4.990
  985SOL    HW2 3855   5.913   3.787   4.834
  986SOL     OW 3856   4.783   4.422   1.473
  986SOL    HW1 3857   4.880   4.416   1.499
  986SOL    HW2 3858   4.727   4.385   1.547
  987SOL     OW 3859   5.612   6.411   3.466
  987SOL    HW1 3860   5.616   6.503   3.427
  987SOL    HW2 3861   5.528   6.401   3.520
  988SOL     OW 3862   3.294   3.692   2.218
  988SOL    HW1 3863   3.201   3.719   2.193
  988SOL    HW2 3864   3.356   3.710   2.142
  989SOL     OW 3865   6.695   2.257   0.524
  989SOL    HW1 3866   6.694   2.200   0.442
  989SOL    HW2 3867   6.764   2.328   0.514
  990SOL     OW 3868   3.240   0.112   2.864
  990SOL    HW1 3869   3.331   0.095   2.900
  990SOL    HW2 3870   3.191   0.175   2.925
  991SOL     OW 3871   6.418   4.344   3.304
  991SOL    HW1 3872   6.335   4.294   3.331
  991SOL    HW2 3873   6.452   4.397   3.382
  992SOL     OW 3874   0.687   2.909   1.438
  992SOL    HW1 3875   0.704   2.909   1.537
  992SOL    HW2 3876   0.718   2.996   1.399
  993SOL     OW 3877   0.976   4.039   1.030
  993SOL    HW1 3878   1.036   4.005   0.958
  993SOL    HW2 3879   0.923   3.963   1.068
  994SOL     OW 3880   3.860   5.854   0.979
  994SOL    HW1 3881   3.804   5.931   0.947
  994SOL    HW2 3882   3.807   5.798   1.042
  995SOL     OW 3883   4.333   3.614   5.527
  995SOL    HW1 3884   4.370   3.590   5.437
  995SOL    HW2 3885   4.394   3.580   5.598
  996SOL     OW 3886   4.229   5.551   5.068
  996SOL    HW1 3887   4.271   5.608   5.138
  996SOL    HW2 3888   4.133   5.578   5.057
  997SOL     OW 3889   1.379   6.843   3.338
  997SOL    HW1 3890   1.293   6.801   3.367
  997SOL    HW2 3891   1.379   6.940   3.363
  998SOL     OW 3892   6.206   0.451   5.913
  998SOL    HW1 3893   6.125   0.393   5.915
  998SOL    HW2 3894   6.285   0.398   5.883
  999SOL     OW 3895   4.619   3.647   1.714
  999SOL    HW1 3896   4.540   3.680   1.663
  999SOL    HW2 3897   4.690   3.717   1.715
 1000SOL     OW 3898   4.360   1.479   1.364
 1000SOL    HW1 3899   4.371   1.560   1.305
 1000SOL    HW2 3900   4.309   1.504   1.446
 1001SOL     OW 3901   2.667   6.274   1.998
 1001SOL    HW1 3902   2.613   6.337   1.943
 1001SOL    HW2 3903   2.670   6.305   2.092
 1002SOL     OW 3904   5.526   2.023   1.695
 1002SOL    HW1 3905   5.604   1.992   1.641
 1002SOL    HW2 3906   5.559   2.058   1.783
 1003SOL     OW 3907   1.660   6.024   2.863
 1003SOL    HW1 3908   1.680   6.037   2.766
 1003SOL    HW2 3909   1.746   6.017   2.914
 1004SOL     OW 3910   6.280   1.628   2.597
 1004SOL    HW1 3911   6.370   1.662   2.625
 1004SOL    HW2 3912   6.290   1.538   2.555
 1005SOL     OW 3913   1.537   4.162   3.633
 1005SOL    HW1 3914   1.528   4.262   3.633
 1005SOL    HW2 3915   1.629   4.137   3.603
 1006SOL     OW 3916   2.288   3.476   0.457
 1006SOL    HW1 3917   2.201   3.521   0.475
 1006SOL    HW2 3918   2.297   3.458   0.359
 1007SOL     OW 3919   4.644   1.362   6.430
 1007SOL    HW1 3920   4.556   1.342   6.386
 1007SOL    HW2 3921   4.628   1.425   6.507
 1008SOL     OW 3922   0.390   3.825   5.486
 1008SOL    HW1 3923   0.379   3.846   5.389
 1008SOL    HW2 3924   0.413   3.728   5.496
 1009SOL     OW 3925   5.897   5.015   5.459
 1009SOL    HW1 3926   5.955   4.934   5.449
 1009SOL    HW2 3927   5.926   5.085   5.394
 1010SOL     OW 3928   2.533   2.266   1.684
 1010SOL    HW1 3929   2.587   2.343   1.717
 1010SOL    HW2 3930   2.526   2.270   1.584
 1011SOL     OW 3931   0.432   5.400   2.933
 1011SOL    HW1 3932   0.346   5.408   2.983
 1011SOL    HW2 3933   0.488   5.328   2.974
 1012SOL     OW 3934   6.821   6.807   2.621
 1012SOL    HW1 3935   6.842   6.886   2.563
 1012SOL    HW2 3936   6.749   6.832   2.686
 1013SOL     OW 3937   6.667   1.113   6.012
 1013SOL    HW1 3938   6.732   1.188   6.016
 1013SOL    HW2 3939   6.623   1.102   6.101
 1014SOL     OW 3940   0.911   4.311   4.649
 1014SOL    HW1 3941   1.009   4.294   4.663
 1014SOL    HW2 3942   0.877   4.370   4.722
 1015SOL     OW 3943   3.170   0.410   6.416
 1015SOL    HW1 3944   3.182   0.310   6.418
 1015SOL    HW2 3945   3.176   0.446   6.509
 1016SOL     OW 3946   4.740   4.309   1.222
 1016SOL    HW1 3947   4.714   4.212   1.226
 1016SOL    HW2 3948   4.772   4.339   1.312
 1017SOL     OW 3949   3.114   1.261   1.933
 1017SOL    HW1 3950   3.194   1.215   1.894
 1017SOL    HW2 3951   3.085   1.335   1.873
 1018SOL     OW 3952   6.979   4.362   3.829
 1018SOL    HW1 3953   0.019   4.291   3.796
 1018SOL    HW2 3954   6.968   4.433   3.760
 1019SOL     OW 3955   6.730   5.269   0.374
 1019SOL    HW1 3956   6.707   5.253   0.470
 1019SOL    HW2 3957   6.707   5.363   0.349
 1020SOL     OW 3958   6.597   0.822   1.132
 1020SOL    HW1 3959   6.562   0.910   1.164
 1020SOL    HW2 3960   6.529   0.751   1.149
 1021SOL     OW 3961   6.392   5.620   2.450
 1021SOL    HW1 3962   6.335   5.696   2.418
 1021SOL    HW2 3963   6.368   5.600   2.546
 1022SOL     OW 3964   2.989   5.997   6.016
 1022SOL    HW1 3965   2.927   5.929   5.976
 1022SOL    HW2 3966   3.010   6.067   5.948
 1023SOL     OW 3967   7.002   0.871   2.473
 1023SOL    HW1 3968   0.003   0.965   2.497
 1023SOL    HW2 3969   0.039   0.840   2.399
 1024SOL     OW 3970   0.866   1.212   4.458
 1024SOL    HW1 3971   0.915   1.272   4.522
 1024SOL    HW2 3972   0.802   1.155   4.508
 1025SOL     OW 3973   4.561   3.302   0.639
 1025SOL    HW1 3974   4.482   3.290   0.699
 1025SOL    HW2 3975   4.554   3.390   0.592
 1026SOL     OW 3976   3.067   2.449   1.684
 1026SOL    HW1 3977   3.003   2.436   1.759
 1026SOL    HW2 3978   3.015   2.461   1.599
 1027SOL     OW 3979   1.715   6.235   1.718
 1027SOL    HW1 3980   1.788   6.302   1.730
 1027SOL    HW2 3981   1.668   6.252   1.631
 1028SOL     OW 3982   1.477   6.428   3.085
 1028SOL    HW1 3983   1.444   6.373   3.008
 1028SOL    HW2 3984   1.430   6.517   3.084
 1029SOL     OW 3985   1.111   1.930   6.130
 1029SOL    HW1 3986   1.162   1.847   6.154
 1029SOL    HW2 3987   1.173   2.009   6.132
 1030SOL     OW 3988   3.278   3.341   1.537
 1030SOL    HW1 3989   3.283   3.288   1.452
 1030SOL    HW2 3990   3.339   3.301   1.605
 1031SOL     OW 3991   3.769   3.237   1.517
 1031SOL    HW1 3992   3.789   3.166   1.585
 1031SOL    HW2 3993   3.854   3.272   1.479
 1032SOL     OW 3994   2.404   0.952   5.129
 1032SOL    HW1 3995   2.331   1.013   5.096
 1032SOL    HW2 3996   2.492   0.998   5.118
 1033SOL     OW 3997   1.806   6.069   2.475
 1033SOL    HW1 3998   1.858   6.092   2.392
 1033SOL    HW2 3999   1.842   6.120   2.552
 1034SOL     OW 4000   2.143   6.349   4.073
 1034SOL    HW1 4001   2.139   6.404   4.157
 1034SOL    HW2 4002   2.124   6.407   3.994
 1035SOL     OW 4003   0.512   2.147   6.098
 1035SOL    HW1 4004   0.516   2.206   6.179
 1035SOL    HW2 4005   0.604   2.116   6.074
 1036SOL     OW 4006   5.295   1.194   1.685
 1036SOL    HW1 4007   5.249   1.161   1.767
 1036SOL    HW2 4008   5.229   1.204   1.611
 1037SOL     OW 4009   1.286   1.816   2.590
 1037SOL    HW1 4010   1.329   1.741   2.540
 1037SOL    HW2 4011   1.243   1.879   2.526
 1038SOL     OW 4012   1.859   1.525   6.519
 1038SOL    HW1 4013   1.945   1.475   6.508
 1038SOL    HW2 4014   1.834   1.568   6.431
 1039SOL     OW 4015   3.121   3.093   3.705
 1039SOL    HW1 4016   3.127   3.009   3.651
 1039SOL    HW2 4017   3.036   3.140   3.683
 1040SOL     OW 4018   5.198   0.962   3.373
 1040SOL    HW1 4019   5.158   0.969   3.282
 1040SOL    HW2 4020   5.252   1.044   3.392
 1041SOL     OW 4021   6.676   6.869   3.713
 1041SOL    HW1 4022   6.742   6.888   3.786
 1041SOL    HW2 4023   6.683   6.940   3.643
 1042SOL     OW 4024   4.642   5.033   2.820
 1042SOL    HW1 4025   4.691   4.947   2.835
 1042SOL    HW2 4026   4.678   5.104   2.880
 1043SOL     OW 4027   3.864   2.039   3.225
 1043SOL    HW1 4028   3.765   2.056   3.222
 1043SOL    HW2 4029   3.905   2.064   3.137
 1044SOL     OW 4030   6.111   5.929   1.282
 1044SOL    HW1 4031   6.161   5.866   1.342
 1044SOL    HW2 4032   6.013   5.919   1.298
 1045SOL     OW 4033   2.862   6.863   3.237
 1045SOL    HW1 4034   2.931   6.809   3.285
 1045SOL    HW2 4035   2.785   6.879   3.298
 1046SOL     OW 4036   2.686   1.456   1.074
 1046SOL    HW1 4037   2.630   1.377   1.046
 1046SOL    HW2 4038   2.772   1.455   1.022
 1047SOL     OW 4039   3.259   6.879   4.142
 1047SOL    HW1 4040   3.287   6.832   4.058
 1047SOL    HW2 4041   3.184   6.828   4.185
 1048SOL     OW 4042   3.002   5.316   2.687
 1048SOL    HW1 4043   2.942   5.244   2.722
 1048SOL    HW2 4044   3.097   5.285   2.689
 1049SOL     OW 4045   4.793   6.938   3.813
 1049SOL    HW1 4046   4.859   6.965   3.883
 1049SOL    HW2 4047   4.700   6.959   3.844
 1050SOL     OW 4048   3.999   5.311   3.042
 1050SOL    HW1 4049   3.915   5.316   3.097
 1050SOL    HW2 4050   4.058   5.389   3.062
 1051SOL     OW 4051   0.023   5.899   0.206
 1051SOL    HW1 4052   0.114   5.862   0.186
 1051SOL    HW2 4053   6.998   5.838   0.269
 1052SOL     OW 4054   4.451   0.903   5.559
 1052SOL    HW1 4055   4.494   0.871   5.643
 1052SOL    HW2 4056   4.462   1.002   5.551
 1053SOL     OW 4057   6.159   3.884   2.299
 1053SOL    HW1 4058   6.088   3.955   2.292
 1053SOL    HW2 4059   6.170   3.858   2.395
 1054SOL     OW 4060   2.979   3.471   0.911
 1054SOL    HW1 4061   2.941   3.386   0.948
 1054SOL    HW2 4062   2.962   3.546   0.976
 1055SOL     OW 4063   5.188   5.860   6.369
 1055SOL    HW1 4064   5.096   5.882   6.337
 1055SOL    HW2 4065   5.195   5.878   6.467
 1056SOL     OW 4066   1.394   3.759   0.089
 1056SOL    HW1 4067   1.335   3.698   0.142
 1056SOL    HW2 4068   1.484   3.718   0.078
 1057SOL     OW 4069   3.739   1.990   1.876
 1057SOL    HW1 4070   3.784   2.006   1.788
 1057SOL    HW2 4071   3.710   2.077   1.914
 1058SOL     OW 4072   4.312   2.327   2.930
 1058SOL    HW1 4073   4.252   2.286   2.861
 1058SOL    HW2 4074   4.407   2.319   2.900
 1059SOL     OW 4075   2.494   6.744   2.076
 1059SOL    HW1 4076   2.586   6.782   2.090
 1059SOL    HW2 4077   2.501   6.644   2.066
 1060SOL     OW 4078   7.003   5.018   4.093
 1060SOL    HW1 4079   7.014   5.040   4.189
 1060SOL    HW2 4080   6.913   5.048   4.062
 1061SOL     OW 4081   6.565   4.078   6.966
 1061SOL    HW1 4082   6.578   4.075   6.866
 1061SOL    HW2 4083   6.571   3.985   7.003
 1062SOL     OW 4084   4.256   6.697   5.671
 1062SOL    HW1 4085   4.161   6.679   5.646
 1062SOL    HW2 4086   4.310   6.614   5.660
 1063SOL     OW 4087   0.237   0.212   6.372
 1063SOL    HW1 4088   0.317   0.269   6.391
 1063SOL    HW2 4089   0.156   0.269   6.362
 1064SOL     OW 4090   0.414   4.060   1.745
 1064SOL    HW1 4091   0.460   4.143   1.714
 1064SOL    HW2 4092   0.355   4.082   1.823
 1065SOL     OW 4093   3.356   0.927   3.871
 1065SOL    HW1 4094   3.446   0.967   3.888
 1065SOL    HW2 4095   3.291   1.000   3.850
 1066SOL     OW 4096   4.851   6.783   2.146
 1066SOL    HW1 4097   4.829   6.814   2.239
 1066SOL    HW2 4098   4.767   6.762   2.097
 1067SOL     OW 4099   2.760   1.160   6.971
 1067SOL    HW1 4100   2.717   1.250   6.967
 1067SOL    HW2 4101   2.847   1.162   6.921
 1068SOL     OW 4102   5.741   3.723   1.208
 1068SOL    HW1 4103   5.776   3.742   1.116
 1068SOL    HW2 4104   5.818   3.705   1.270
 1069SOL     OW 4105   5.749   5.096   0.982
 1069SOL    HW1 4106   5.737   5.130   1.076
 1069SOL    HW2 4107   5.742   4.996   0.982
 1070SOL     OW 4108   2.177   0.016   2.605
 1070SOL    HW1 4109   2.256   0.049   2.555
 1070SOL    HW2 4110   2.203   6.961   2.662
 1071SOL     OW 4111   0.605   1.973   4.605
 1071SOL    HW1 4112   0.654   1.973   4.692
 1071SOL    HW2 4113   0.543   2.051   4.602
 1072SOL     OW 4114   1.860   0.991   1.526
 1072SOL    HW1 4115   1.932   0.929   1.556
 1072SOL    HW2 4116   1.861   1.074   1.581
 1073SOL     OW 4117   6.121   1.975   3.262
 1073SOL    HW1 4118   6.194   1.940   3.203
 1073SOL    HW2 4119   6.034   1.973   3.212
 1074SOL     OW 4120   2.850   5.202   1.667
 1074SOL    HW1 4121   2.893   5.112   1.673
 1074SOL    HW2 4122   2.818   5.218   1.573
 1075SOL     OW 4123   6.331   1.314   4.422
 1075SOL    HW1 4124   6.304   1.337   4.329
 1075SOL    HW2 4125   6.257   1.263   4.467
 1076SOL     OW 4126   1.771   3.711   5.228
 1076SOL    HW1 4127   1.678   3.675   5.238
 1076SOL    HW2 4128   1.788   3.778   5.300
 1077SOL     OW 4129   0.065   6.795   0.123
 1077SOL    HW1 4130   7.020   6.824   0.055
 1077SOL    HW2 4131   0.156   6.795   0.082
 1078SOL     OW 4132   6.667   0.092   2.817
 1078SOL    HW1 4133   6.609   0.059   2.892
 1078SOL    HW2 4134   6.756   0.119   2.853
 1079SOL     OW 4135   1.316   5.557   2.134
 1079SOL    HW1 4136   1.251   5.519   2.068
 1079SOL    HW2 4137   1.374   5.485   2.169
 1080SOL     OW 4138   2.324   5.669   5.159
 1080SOL    HW1 4139   2.336   5.604   5.085
 1080SOL    HW2 4140   2.398   5.736   5.157
 1081SOL     OW 4141   0.461   5.801   3.999
 1081SOL    HW1 4142   0.436   5.801   4.095
 1081SOL    HW2 4143   0.448   5.893   3.961
 1082SOL     OW 4144   6.085   1.557   6.101
 1082SOL    HW1 4145   6.050   1.491   6.168
 1082SOL    HW2 4146   6.012   1.619   6.074
 1083SOL     OW 4147   4.593   4.240   0.432
 1083SOL    HW1 4148   4.655   4.279   0.364
 1083SOL    HW2 4149   4.641   4.230   0.519
 1084SOL     OW 4150   6.535   0.016   6.707
 1084SOL    HW1 4151   6.633   0.036   6.705
 1084SOL    HW2 4152   6.495   0.054   6.790
 1085SOL     OW 4153   2.084   3.561   3.940
 1085SOL    HW1 4154   1.989   3.592   3.943
 1085SOL    HW2 4155   2.141   3.627   3.988
 1086SOL     OW 4156   6.486   4.756   6.326
 1086SOL    HW1 4157   6.481   4.690   6.251
 1086SOL    HW2 4158   6.564   4.817   6.312
 1087SOL     OW 4159   1.520   1.757   5.575
 1087SOL    HW1 4160   1.428   1.759   5.535
 1087SOL    HW2 4161   1.513   1.755   5.674
 1088SOL     OW 4162   0.179   5.283   3.101
 1088SOL    HW1 4163   0.266   5.235   3.100
 1088SOL    HW2 4164   0.163   5.324   3.191
 1089SOL     OW 4165   0.750   5.535   4.840
 1089SOL    HW1 4166   0.772   5.506   4.933
 1089SOL    HW2 4167   0.822   5.595   4.806
 1090SOL     OW 4168   5.496   1.862   3.450
 1090SOL    HW1 4169   5.575   1.805   3.428
 1090SOL    HW2 4170   5.448   1.885   3.366
 1091SOL     OW 4171   1.900   3.251   3.304
 1091SOL    HW1 4172   1.992   3.251   3.265
 1091SOL    HW2 4173   1.883   3.340   3.348
 1092SOL     OW 4174   0.859   4.774   0.686
 1092SOL    HW1 4175   0.821   4.829   0.612
 1092SOL    HW2 4176   0.784   4.740   0.743
 1093SOL     OW 4177   3.140   0.119   1.302
 1093SOL    HW1 4178   3.186   0.196   1.345
 1093SOL    HW2 4179   3.135   0.043   1.367
 1094SOL     OW 4180   0.743   6.695   2.797
 1094SOL    HW1 4181   0.779   6.726   2.709
 1094SOL    HW2 4182   0.802   6.624   2.834
 1095SOL     OW 4183   0.648   2.832   6.363
 1095SOL    HW1 4184   0.611   2.923   6.343
 1095SOL    HW2 4185   0.685   2.792   6.279
 1096SOL     OW 4186   2.849   5.166   0.686
 1096SOL    HW1 4187   2.764   5.116   0.667
 1096SOL    HW2 4188   2.872   5.157   0.782
 1097SOL     OW 4189   2.091   5.584   3.482
 1097SOL    HW1 4190   2.137   5.544   3.403
 1097SOL    HW2 4191   2.009   5.532   3.504
 1098SOL     OW 4192   5.888   4.131   6.987
 1098SOL    HW1 4193   5.925   4.219   7.017
 1098SOL    HW2 4194   5.949   4.057   7.017
 1099SOL     OW 4195   4.633   0.966   6.418
 1099SOL    HW1 4196   4.601   0.898   6.484
 1099SOL    HW2 4197   4.733   0.967   6.417
 1100SOL     OW 4198   3.405   1.301   3.997
 1100SOL    HW1 4199   3.396   1.243   4.078
 1100SOL    HW2 4200   3.431   1.393   4.023
 1101SOL     OW 4201   5.806   3.302   5.367
 1101SOL    HW1 4202   5.727   3.361   5.387
 1101SOL    HW2 4203   5.884   3.331   5.423
 1102SOL     OW 4204   2.312   0.762   4.491
 1102SOL    HW1 4205   2.341   0.850   4.529
 1102SOL    HW2 4206   2.293   0.699   4.565
 1103SOL     OW 4207   3.039   1.722   6.993
 1103SOL    HW1 4208   2.970   1.783   6.953
 1103SOL    HW2 4209   3.019   1.628   6.966
 1104SOL     OW 4210   1.280   4.222   3.502
 1104SOL    HW1 4211   1.367   4.192   3.541
 1104SOL    HW2 4212   1.207   4.162   3.536
 1105SOL     OW 4213   4.988   2.512   4.471
 1105SOL    HW1 4214   5.023   2.484   4.381
 1105SOL    HW2 4215   5.064   2.520   4.535
 1106SOL     OW 4216   0.327   1.292   0.350
 1106SOL    HW1 4217   0.319   1.261   0.445
 1106SOL    HW2 4218   0.411   1.254   0.311
 1107SOL     OW 4219   1.249   0.634   6.921
 1107SOL    HW1 4220   1.334   0.650   6.870
 1107SOL    HW2 4221   1.202   0.554   6.883
 1108SOL     OW 4222   3.667   6.390   4.517
 1108SOL    HW1 4223   3.755   6.381   4.470
 1108SOL    HW2 4224   3.663   6.323   4.591
 1109SOL     OW 4225   6.033   2.104   3.905
 1109SOL    HW1 4226   6.000   2.196   3.885
 1109SOL    HW2 4227   6.034   2.089   4.004
 1110SOL     OW 4228   3.260   0.801   3.226
 1110SOL    HW1 4229   3.229   0.753   3.144
 1110SOL    HW2 4230   3.357   0.782   3.242
 1111SOL     OW 4231   4.848   4.209   6.288
 1111SOL    HW1 4232   4.906   4.181   6.211
 1111SOL    HW2 4233   4.792   4.287   6.260
 1112SOL     OW 4234   6.452   6.999   3.502
 1112SOL    HW1 4235   6.475   6.905   3.477
 1112SOL    HW2 4236   6.482   7.016   3.596
 1113SOL     OW 4237   6.222   3.859   1.690
 1113SOL    HW1 4238   6.196   3.862   1.787
 1113SOL    HW2 4239   6.142   3.879   1.634
 1114SOL     OW 4240   3.929   2.401   5.807
 1114SOL    HW1 4241   3.973   2.352   5.882
 1114SOL    HW2 4242   3.841   2.437   5.838
 1115SOL     OW 4243   3.954   4.430   5.640
 1115SOL    HW1 4244   3.888   4.374   5.691
 1115SOL    HW2 4245   4.035   4.375   5.620
 1116SOL     OW 4246   5.226   0.678   0.201
 1116SOL    HW1 4247   5.211   0.687   0.300
 1116SOL    HW2 4248   5.168   0.605   0.165
 1117SOL     OW 4249   0.720   2.460   1.529
 1117SOL    HW1 4250   0.650   2.402   1.488
 1117SOL    HW2 4251   0.804   2.406   1.542
 1118SOL     OW 4252   2.195   5.818   0.148
 1118SOL    HW1 4253   2.104   5.813   0.190
 1118SOL    HW2 4254   2.197   5.758   0.068
 1119SOL     OW 4255   4.383   4.544   2.419
 1119SOL    HW1 4256   4.306   4.567   2.360
 1119SOL    HW2 4257   4.460   4.514   2.363
 1120SOL     OW 4258   6.333   5.895   1.105
 1120SOL    HW1 4259   6.254   5.930   1.156
 1120SOL    HW2 4260   6.417   5.933   1.144
 1121SOL     OW 4261   0.810   4.789   4.543
 1121SOL    HW1 4262   0.858   4.774   4.630
 1121SOL    HW2 4263   0.771   4.703   4.511
 1122SOL     OW 4264   6.404   2.822   1.929
 1122SOL    HW1 4265   6.495   2.850   1.901
 1122SOL    HW2 4266   6.336   2.865   1.869
 1123SOL     OW 4267   4.573   2.117   3.772
 1123SOL    HW1 4268   4.653   2.110   3.832
 1123SOL    HW2 4269   4.594   2.076   3.683
 1124SOL     OW 4270   1.182   3.523   5.218
 1124SOL    HW1 4271   1.205   3.449   5.154
 1124SOL    HW2 4272   1.232   3.509   5.304
 1125SOL     OW 4273   1.499   2.847   4.632
 1125SOL    HW1 4274   1.458   2.781   4.695
 1125SOL    HW2 4275   1.582   2.884   4.672
 1126SOL     OW 4276   3.946   6.013   5.425
 1126SOL    HW1 4277   3.995   6.065   5.356
 1126SOL    HW2 4278   4.004   5.939   5.460
 1127SOL     OW 4279   5.636   6.650   4.434
 1127SOL    HW1 4280   5.731   6.646   4.403
 1127SOL    HW2 4281   5.600   6.743   4.422
 1128SOL     OW 4282   5.647   1.362   4.793
 1128SOL    HW1 4283   5.641   1.462   4.794
 1128SOL    HW2 4284   5.659   1.329   4.887
 1129SOL     OW 4285   1.833   6.794   0.471
 1129SOL    HW1 4286   1.791   6.854   0.403
 1129SOL    HW2 4287   1.903   6.845   0.522
 1130SOL     OW 4288   1.785   5.234   1.617
 1130SOL    HW1 4289   1.737   5.153   1.584
 1130SOL    HW2 4290   1.722   5.293   1.667
 1131SOL     OW 4291   1.529   0.122   5.018
 1131SOL    HW1 4292   1.506   0.025   5.018
 1131SOL    HW2 4293   1.525   0.157   4.925
 1132SOL     OW 4294   4.980   0.387   2.677
 1132SOL    HW1 4295   5.056   0.437   2.634
 1132SOL    HW2 4296   4.900   0.446   2.681
 1133SOL     OW 4297   1.226   0.234   6.416
 1133SOL    HW1 4298   1.200   0.222   6.511
 1133SOL    HW2 4299   1.209   0.328   6.387
 1134SOL     OW 4300   5.355   6.810   1.809
 1134SOL    HW1 4301   5.360   6.722   1.762
 1134SOL    HW2 4302   5.379   6.797   1.906
 1135SOL     OW 4303   2.628   6.319   3.726
 1135SOL    HW1 4304   2.699   6.385   3.703
 1135SOL    HW2 4305   2.644   6.234   3.676
 1136SOL     OW 4306   3.542   5.587   3.578
 1136SOL    HW1 4307   3.532   5.536   3.663
 1136SOL    HW2 4308   3.586   5.675   3.596
 1137SOL     OW 4309   1.048   6.241   6.505
 1137SOL    HW1 4310   1.062   6.156   6.454
 1137SOL    HW2 4311   0.958   6.278   6.484
 1138SOL     OW 4312   1.778   2.554   5.282
 1138SOL    HW1 4313   1.845   2.617   5.240
 1138SOL    HW2 4314   1.735   2.600   5.360
 1139SOL     OW 4315   2.371   4.743   3.936
 1139SOL    HW1 4316   2.467   4.716   3.936
 1139SOL    HW2 4317   2.360   4.826   3.991
 1140SOL     OW 4318   2.012   0.680   2.155
 1140SOL    HW1 4319   1.998   0.631   2.069
 1140SOL    HW2 4320   1.928   0.727   2.181
 1141SOL     OW 4321   6.225   5.154   6.347
 1141SOL    HW1 4322   6.321   5.145   6.374
 1141SOL    HW2 4323   6.188   5.239   6.384
 1142SOL     OW 4324   2.559   0.108   3.452
 1142SOL    HW1 4325   2.592   0.192   3.409
 1142SOL    HW2 4326   2.527   0.045   3.382
 1143SOL     OW 4327   1.369   2.620   2.366
 1143SOL    HW1 4328   1.414   2.676   2.297
 1143SOL    HW2 4329   1.400   2.525   2.356
 1144SOL     OW 4330   5.354   4.384   2.801
 1144SOL    HW1 4331   5.313   4.293   2.807
 1144SOL    HW2 4332   5.451   4.375   2.776
 1145SOL     OW 4333   0.930   2.571   0.616
 1145SOL    HW1 4334   0.843   2.609   0.647
 1145SOL    HW2 4335   0.913   2.495   0.554
 1146SOL     OW 4336   0.728   2.023   1.295
 1146SOL    HW1 4337   0.722   2.050   1.199
 1146SOL    HW2 4338   0.640   2.038   1.340
 1147SOL     OW 4339   3.015   6.144   0.452
 1147SOL    HW1 4340   2.965   6.201   0.517
 1147SOL    HW2 4341   3.022   6.192   0.364
 1148SOL     OW 4342   3.932   6.331   2.038
 1148SOL    HW1 4343   3.870   6.320   1.961
 1148SOL    HW2 4344   3.933   6.248   2.093
 1149SOL     OW 4345   6.088   2.999   1.470
 1149SOL    HW1 4346   6.164   3.060   1.447
 1149SOL    HW2 4347   6.123   2.906   1.483
 1150SOL     OW 4348   1.203   4.008   6.840
 1150SOL    HW1 4349   1.183   4.104   6.859
 1150SOL    HW2 4350   1.118   3.958   6.827
 1151SOL     OW 4351   5.969   5.207   4.232
 1151SOL    HW1 4352   6.049   5.189   4.176
 1151SOL    HW2 4353   5.988   5.179   4.327
 1152SOL     OW 4354   4.317   6.666   6.983
 1152SOL    HW1 4355   4.275   6.695   6.897
 1152SOL    HW2 4356   4.388   6.731   7.010
 1153SOL     OW 4357   6.863   7.018   0.937
 1153SOL    HW1 4358   6.889   6.960   0.860
 1153SOL    HW2 4359   6.765   0.015   0.932
 1154SOL     OW 4360   0.608   3.746   1.747
 1154SOL    HW1 4361   0.657   3.735   1.660
 1154SOL    HW2 4362   0.649   3.822   1.798
 1155SOL     OW 4363   2.286   6.460   5.203
 1155SOL    HW1 4364   2.385   6.468   5.187
 1155SOL    HW2 4365   2.237   6.481   5.119
 1156SOL     OW 4366   4.288   1.679   5.170
 1156SOL    HW1 4367   4.225   1.657   5.096
 1156SOL    HW2 4368   4.317   1.774   5.162
 1157SOL     OW 4369   5.149   1.518   5.360
 1157SOL    HW1 4370   5.132   1.422   5.336
 1157SOL    HW2 4371   5.090   1.577   5.305
 1158SOL     OW 4372   5.892   6.179   4.395
 1158SOL    HW1 4373   5.881   6.081   4.413
 1158SOL    HW2 4374   5.944   6.191   4.311
 1159SOL     OW 4375   5.983   6.799   3.172
 1159SOL    HW1 4376   5.917   6.830   3.240
 1159SOL    HW2 4377   6.061   6.862   3.170
 1160SOL     OW 4378   4.033   6.030   1.135
 1160SOL    HW1 4379   3.957   6.060   1.192
 1160SOL    HW2 4380   4.004   5.953   1.078
 1161SOL     OW 4381   0.095   5.500   5.921
 1161SOL    HW1 4382   0.052   5.423   5.969
 1161SOL    HW2 4383   0.188   5.513   5.956
 1162SOL     OW 4384   2.281   2.558   5.883
 1162SOL    HW1 4385   2.193   2.591   5.914
 1162SOL    HW2 4386   2.269   2.506   5.798
 1163SOL     OW 4387   5.993   4.741   1.423
 1163SOL    HW1 4388   6.049   4.807   1.373
 1163SOL    HW2 4389   6.025   4.735   1.518
 1164SOL     OW 4390   5.569   2.501   4.786
 1164SOL    HW1 4391   5.564   2.521   4.884
 1164SOL    HW2 4392   5.571   2.402   4.773
 1165SOL     OW 4393   4.480   6.463   3.299
 1165SOL    HW1 4394   4.400   6.521   3.312
 1165SOL    HW2 4395   4.483   6.393   3.370
 1166SOL     OW 4396   1.842   6.526   6.920
 1166SOL    HW1 4397   1.822   6.623   6.930
 1166SOL    HW2 4398   1.870   6.487   7.008
 1167SOL     OW 4399   5.095   4.133   1.553
 1167SOL    HW1 4400   5.175   4.193   1.561
 1167SOL    HW2 4401   5.026   4.161   1.619
 1168SOL     OW 4402   6.224   2.137   1.931
 1168SOL    HW1 4403   6.305   2.141   1.873
 1168SOL    HW2 4404   6.251   2.157   2.026
 1169SOL     OW 4405   5.743   1.632   5.357
 1169SOL    HW1 4406   5.699   1.544   5.375
 1169SOL    HW2 4407   5.742   1.651   5.259
 1170SOL     OW 4408   4.579   0.290   2.820
 1170SOL    HW1 4409   4.508   0.341   2.772
 1170SOL    HW2 4410   4.609   0.213   2.764
 1171SOL     OW 4411   2.579   0.190   0.336
 1171SOL    HW1 4412   2.608   0.147   0.422
 1171SOL    HW2 4413   2.532   0.122   0.280
 1172SOL     OW 4414   5.489   4.137   1.343
 1172SOL    HW1 4415   5.395   4.153   1.314
 1172SOL    HW2 4416   5.496   4.147   1.442
 1173SOL     OW 4417   2.125   1.508   1.481
 1173SOL    HW1 4418   2.139   1.477   1.387
 1173SOL    HW2 4419   2.169   1.444   1.544
 1174SOL     OW 4420   3.399   4.080   1.907
 1174SOL    HW1 4421   3.478   4.120   1.953
 1174SOL    HW2 4422   3.328   4.058   1.974
 1175SOL     OW 4423   4.648   3.413   5.655
 1175SOL    HW1 4424   4.676   3.467   5.575
 1175SOL    HW2 4425   4.692   3.323   5.651
 1176SOL     OW 4426   4.554   3.596   6.311
 1176SOL    HW1 4427   4.649   3.596   6.281
 1176SOL    HW2 4428   4.493   3.599   6.231
 1177SOL     OW 4429   6.827   3.792   5.019
 1177SOL    HW1 4430   6.882   3.875   5.012
 1177SOL    HW2 4431   6.794   3.782   5.112
 1178SOL     OW 4432   2.941   2.950   0.494
 1178SOL    HW1 4433   2.931   3.041   0.534
 1178SOL    HW2 4434   2.881   2.886   0.542
 1179SOL     OW 4435   2.172   5.666   0.483
 1179SOL    HW1 4436   2.130   5.633   0.568
 1179SOL    HW2 4437   2.269   5.682   0.499
 1180SOL     OW 4438   2.629   6.007   3.256
 1180SOL    HW1 4439   2.570   6.088   3.251
 1180SOL    HW2 4440   2.719   6.029   3.220
 1181SOL     OW 4441   0.615   5.296   5.648
 1181SOL    HW1 4442   0.566   5.312   5.734
 1181SOL    HW2 4443   0.566   5.227   5.594
 1182SOL     OW 4444   3.946   5.712   3.555
 1182SOL    HW1 4445   4.004   5.688   3.632
 1182SOL    HW2 4446   3.857   5.744   3.588
 1183SOL     OW 4447   2.252   4.212   0.351
 1183SOL    HW1 4448   2.205   4.229   0.264
 1183SOL    HW2 4449   2.185   4.181   0.419
 1184SOL     OW 4450   0.303   0.334   4.845
 1184SOL    HW1 4451   0.251   0.393   4.906
 1184SOL    HW2 4452   0.326   0.384   4.762
 1185SOL     OW 4453   0.536   0.945   0.052
 1185SOL    HW1 4454   0.587   0.927   6.990
 1185SOL    HW2 4455   0.438   0.934   0.035
 1186SOL     OW 4456   5.170   5.675   5.511
 1186SOL    HW1 4457   5.165   5.575   5.521
 1186SOL    HW2 4458   5.200   5.698   5.418
 1187SOL     OW 4459   6.362   6.849   6.780
 1187SOL    HW1 4460   6.438   6.909   6.755
 1187SOL    HW2 4461   6.388   6.796   6.861
 1188SOL     OW 4462   3.331   6.206   5.116
 1188SOL    HW1 4463   3.240   6.233   5.147
 1188SOL    HW2 4464   3.364   6.130   5.173
 1189SOL     OW 4465   6.513   2.463   2.952
 1189SOL    HW1 4466   6.535   2.380   2.900
 1189SOL    HW2 4467   6.475   2.532   2.891
 1190SOL     OW 4468   2.637   5.722   4.052
 1190SOL    HW1 4469   2.682   5.774   3.980
 1190SOL    HW2 4470   2.541   5.749   4.058
 1191SOL     OW 4471   4.703   5.250   3.530
 1191SOL    HW1 4472   4.748   5.192   3.599
 1191SOL    HW2 4473   4.610   5.217   3.514
 1192SOL     OW 4474   3.754   5.432   3.171
 1192SOL    HW1 4475   3.663   5.415   3.134
 1192SOL    HW2 4476   3.778   5.528   3.157
 1193SOL     OW 4477   6.369   3.560   4.744
 1193SOL    HW1 4478   6.343   3.641   4.798
 1193SOL    HW2 4479   6.338   3.478   4.791
 1194SOL     OW 4480   5.357   6.961   1.598
 1194SOL    HW1 4481   5.366   6.905   1.680
 1194SOL    HW2 4482   5.435   0.001   1.590
 1195SOL     OW 4483   6.468   4.656   1.684
 1195SOL    HW1 4484   6.563   4.683   1.699
 1195SOL    HW2 4485   6.459   4.610   1.596
 1196SOL     OW 4486   6.799   5.839   3.076
 1196SOL    HW1 4487   6.863   5.768   3.046
 1196SOL    HW2 4488   6.810   5.920   3.019
 1197SOL     OW 4489   4.116   0.770   5.397
 1197SOL    HW1 4490   4.133   0.686   5.448
 1197SOL    HW2 4491   4.018   0.792   5.401
 1198SOL     OW 4492   1.284   3.027   1.745
 1198SOL    HW1 4493   1.244   3.042   1.836
 1198SOL    HW2 4494   1.369   2.976   1.754
 1199SOL     OW 4495   4.565   4.755   2.146
 1199SOL    HW1 4496   4.540   4.683   2.080
 1199SOL    HW2 4497   4.630   4.717   2.212
 1200SOL     OW 4498   3.327   3.531   3.540
 1200SOL    HW1 4499   3.370   3.545   3.629
 1200SOL    HW2 4500   3.371   3.453   3.495
 1201SOL     OW 4501   1.204   0.842   4.492
 1201SOL    HW1 4502   1.269   0.803   4.427
 1201SOL    HW2 4503   1.247   0.850   4.582
 1202SOL     OW 4504   0.795   5.862   6.043
 1202SOL    HW1 4505   0.778   5.764   6.058
 1202SOL    HW2 4506   0.740   5.893   5.965
 1203SOL     OW 4507   5.876   6.489   0.070
 1203SOL    HW1 4508   5.878   6.397   0.033
 1203SOL    HW2 4509   5.798   6.499   0.131
 1204SOL     OW 4510   3.049   6.590   1.362
 1204SOL    HW1 4511   3.145   6.588   1.391
 1204SOL    HW2 4512   3.024   6.501   1.323
 1205SOL     OW 4513   5.334   3.761   1.343
 1205SOL    HW1 4514   5.303   3.741   1.437
 1205SOL    HW2 4515   5.380   3.680   1.306
 1206SOL     OW 4516   3.099   2.837   5.182
 1206SOL    HW1 4517   3.076   2.911   5.120
 1206SOL    HW2 4518   3.023   2.822   5.246
 1207SOL     OW 4519   2.073   6.406   1.488
 1207SOL    HW1 4520   2.019   6.403   1.571
 1207SOL    HW2 4521   2.157   6.353   1.500
 1208SOL     OW 4522   3.310   3.551   0.647
 1208SOL    HW1 4523   3.316   3.594   0.557
 1208SOL    HW2 4524   3.219   3.567   0.686
 1209SOL     OW 4525   4.244   0.845   4.825
 1209SOL    HW1 4526   4.226   0.876   4.918
 1209SOL    HW2 4527   4.228   0.921   4.761
 1210SOL     OW 4528   2.647   0.338   3.300
 1210SOL    HW1 4529   2.550   0.330   3.279
 1210SOL    HW2 4530   2.694   0.382   3.224
 1211SOL     OW 4531   1.380   3.503   1.653
 1211SOL    HW1 4532   1.480   3.514   1.656
 1211SOL    HW2 4533   1.338   3.593   1.642
 1212SOL     OW 4534   6.207   0.533   6.658
 1212SOL    HW1 4535   6.179   0.474   6.582
 1212SOL    HW2 4536   6.218   0.477   6.741
 1213SOL     OW 4537   6.431   2.284   0.631
 1213SOL    HW1 4538   6.453   2.290   0.728
 1213SOL    HW2 4539   6.514   2.265   0.579
 1214SOL     OW 4540   0.404   3.063   0.293
 1214SOL    HW1 4541   0.443   2.973   0.276
 1214SOL    HW2 4542   0.400   3.115   0.207
 1215SOL     OW 4543   1.328   3.815   3.779
 1215SOL    HW1 4544   1.370   3.831   3.869
 1215SOL    HW2 4545   1.394   3.837   3.708
 1216SOL     OW 4546   4.968   0.809   1.384
 1216SOL    HW1 4547   4.984   0.906   1.365
 1216SOL    HW2 4548   4.904   0.772   1.316
 1217SOL     OW 4549   1.480   4.663   0.858
 1217SOL    HW1 4550   1.544   4.713   0.915
 1217SOL    HW2 4551   1.525   4.583   0.819
 1218SOL     OW 4552   2.000   4.457   4.206
 1218SOL    HW1 4553   2.043   4.423   4.289
 1218SOL    HW2 4554   2.065   4.515   4.156
 1219SOL     OW 4555   5.799   5.247   1.954
 1219SOL    HW1 4556   5.775   5.183   1.881
 1219SOL    HW2 4557   5.876   5.303   1.926
 1220SOL     OW 4558   0.709   4.669   3.103
 1220SOL    HW1 4559   0.741   4.608   3.176
 1220SOL    HW2 4560   0.724   4.764   3.130
 1221SOL     OW 4561   5.249   3.733   5.897
 1221SOL    HW1 4562   5.212   3.809   5.844
 1221SOL    HW2 4563   5.349   3.730   5.886
 1222SOL     OW 4564   6.459   6.941   6.457
 1222SOL    HW1 4565   6.501   7.007   6.395
 1222SOL    HW2 4566   6.471   6.972   6.551
 1223SOL     OW 4567   3.852   0.577   0.873
 1223SOL    HW1 4568   3.849   0.617   0.965
 1223SOL    HW2 4569   3.921   0.505   0.870
 1224SOL     OW 4570   2.585   6.293   0.265
 1224SOL    HW1 4571   2.506   6.281   0.205
 1224SOL    HW2 4572   2.592   6.390   0.291
 1225SOL     OW 4573   3.457   3.872   6.355
 1225SOL    HW1 4574   3.476   3.942   6.287
 1225SOL    HW2 4575   3.385   3.811   6.322
 1226SOL     OW 4576   2.328   5.411   1.053
 1226SOL    HW1 4577   2.323   5.511   1.052
 1226SOL    HW2 4578   2.373   5.380   1.136
 1227SOL     OW 4579   6.850   4.025   0.048
 1227SOL    HW1 4580   6.926   3.976   0.090
 1227SOL    HW2 4581   6.766   4.007   0.099
 1228SOL     OW 4582   4.276   2.827   6.898
 1228SOL    HW1 4583   4.184   2.844   6.863
 1228SOL    HW2 4584   4.283   2.731   6.928
 1229SOL     OW 4585   3.368   4.694   6.089
 1229SOL    HW1 4586   3.429   4.658   6.018
 1229SOL    HW2 4587   3.415   4.765   6.141
 1230SOL     OW 4588   4.493   0.232   3.609
 1230SOL    HW1 4589   4.498   0.330   3.628
 1230SOL    HW2 4590   4.423   0.214   3.540
 1231SOL     OW 4591   1.221   3.908   4.245
 1231SOL    HW1 4592   1.258   3.839   4.183
 1231SOL    HW2 4593   1.237   3.879   4.340
 1232SOL     OW 4594   0.906   1.936   5.946
 1232SOL    HW1 4595   0.968   1.938   6.024
 1232SOL    HW2 4596   0.926   2.013   5.885
 1233SOL     OW 4597   1.467   3.165   4.330
 1233SOL    HW1 4598   1.548   3.223   4.321
 1233SOL    HW2 4599   1.390   3.219   4.365
 1234SOL     OW 4600   6.452   4.190   4.862
 1234SOL    HW1 4601   6.403   4.202   4.775
 1234SOL    HW2 4602   6.457   4.279   4.909
 1235SOL     OW 4603   6.886   6.043   2.695
 1235SOL    HW1 4604   6.801   5.994   2.678
 1235SOL    HW2 4605   6.884   6.131   2.647
 1236SOL     OW 4606   5.398   1.414   6.934
 1236SOL    HW1 4607   5.314   1.391   6.984
 1236SOL    HW2 4608   5.459   1.335   6.934
 1237SOL     OW 4609   2.670   5.220   6.582
 1237SOL    HW1 4610   2.598   5.218   6.652
 1237SOL    HW2 4611   2.684   5.128   6.547
 1238SOL     OW 4612   2.187   0.835   0.614
 1238SOL    HW1 4613   2.162   0.884   0.531
 1238SOL    HW2 4614   2.122   0.761   0.631
 1239SOL     OW 4615   6.879   6.659   6.418
 1239SOL    HW1 4616   6.972   6.624   6.429
 1239SOL    HW2 4617   6.882   6.753   6.385
 1240SOL     OW 4618   5.677   5.894   2.056
 1240SOL    HW1 4619   5.702   5.836   2.133
 1240SOL    HW2 4620   5.716   5.986   2.070
 1241SOL     OW 4621   6.480   3.795   4.198
 1241SOL    HW1 4622   6.407   3.737   4.232
 1241SOL    HW2 4623   6.508   3.765   4.107
 1242SOL     OW 4624   1.503   3.416   1.015
 1242SOL    HW1 4625   1.485   3.318   1.021
 1242SOL    HW2 4626   1.487   3.448   0.922
 1243SOL     OW 4627   1.087   6.480   5.254
 1243SOL    HW1 4628   1.082   6.555   5.187
 1243SOL    HW2 4629   1.183   6.459   5.273
 1244SOL     OW 4630   0.276   5.739   3.384
 1244SOL    HW1 4631   0.348   5.752   3.317
 1244SOL    HW2 4632   0.305   5.777   3.472
 1245SOL     OW 4633   4.300   3.938   6.336
 1245SOL    HW1 4634   4.303   3.865   6.404
 1245SOL    HW2 4635   4.392   3.956   6.302
 1246SOL     OW 4636   2.136   6.134   2.363
 1246SOL    HW1 4637   2.097   6.165   2.276
 1246SOL    HW2 4638   2.173   6.212   2.413
 1247SOL     OW 4639   2.538   0.254   6.710
 1247SOL    HW1 4640   2.531   0.317   6.632
 1247SOL    HW2 4641   2.558   0.306   6.793
 1248SOL     OW 4642   2.328   6.764   4.136
 1248SOL    HW1 4643   2.384   6.685   4.162
 1248SOL    HW2 4644   2.293   6.750   4.043
 1249SOL     OW 4645   5.795   2.586   2.128
 1249SOL    HW1 4646   5.878   2.639   2.142
 1249SOL    HW2 4647   5.814   2.509   2.067
 1250SOL     OW 4648   0.115   4.655   4.892
 1250SOL    HW1 4649   0.098   4.722   4.820
 1250SOL    HW2 4650   0.040   4.658   4.958
 1251SOL     OW 4651   3.076   0.187   4.446
 1251SOL    HW1 4652   3.124   0.211   4.530
 1251SOL    HW2 4653   3.142   0.165   4.374
 1252SOL     OW 4654   3.409   3.617   6.042
 1252SOL    HW1 4655   3.467   3.556   6.096
 1252SOL    HW2 4656   3.467   3.682   5.992
 1253SOL     OW 4657   3.964   5.668   2.052
 1253SOL    HW1 4658   3.974   5.685   1.954
 1253SOL    HW2 4659   3.906   5.587   2.065
 1254SOL     OW 4660   6.307   3.243   2.531
 1254SOL    HW1 4661   6.380   3.223   2.596
 1254SOL    HW2 4662   6.334   3.214   2.440
 1255SOL     OW 4663   6.867   1.393   4.776
 1255SOL    HW1 4664   6.917   1.416   4.693
 1255SOL    HW2 4665   6.920   1.421   4.857
 1256SOL     OW 4666   6.923   0.115   2.918
 1256SOL    HW1 4667   7.014   0.106   2.877
 1256SOL    HW2 4668   6.929   0.167   3.003
 1257SOL     OW 4669   0.013   7.006   3.794
 1257SOL    HW1 4670   0.086   6.998   3.727
 1257SOL    HW2 4671   6.982   0.067   3.776
 1258SOL     OW 4672   0.237   4.954   3.519
 1258SOL    HW1 4673   0.261   4.938   3.423
 1258SOL    HW2 4674   0.315   4.995   3.566
 1259SOL     OW 4675   3.900   1.983   4.340
 1259SOL    HW1 4676   3.993   1.956   4.365
 1259SOL    HW2 4677   3.858   1.912   4.285
 1260SOL     OW 4678   0.971   1.880   0.030
 1260SOL    HW1 4679   0.951   1.883   0.128
 1260SOL    HW2 4680   0.935   1.795   7.014
 1261SOL     OW 4681   0.279   5.730   6.637
 1261SOL    HW1 4682   0.205   5.706   6.574
 1261SOL    HW2 4683   0.299   5.653   6.697
 1262SOL     OW 4684   5.434   5.172   2.348
 1262SOL    HW1 4685   5.509   5.200   2.287
 1262SOL    HW2 4686   5.363   5.127   2.295
 1263SOL     OW 4687   0.401   1.139   2.804
 1263SOL    HW1 4688   0.442   1.226   2.777
 1263SOL    HW2 4689   0.304   1.139   2.782
 1264SOL     OW 4690   0.964   3.509   6.224
 1264SOL    HW1 4691   1.062   3.513   6.244
 1264SOL    HW2 4692   0.951   3.508   6.124
 1265SOL     OW 4693   6.627   5.489   4.716
 1265SOL    HW1 4694   6.610   5.540   4.632
 1265SOL    HW2 4695   6.707   5.526   4.762
 1266SOL     OW 4696   0.441   0.416   4.598
 1266SOL    HW1 4697   0.427   0.445   4.503
 1266SOL    HW2 4698   0.491   0.330   4.599
 1267SOL     OW 4699   5.090   0.881   1.959
 1267SOL    HW1 4700   5.181   0.843   1.973
 1267SOL    HW2 4701   5.051   0.844   1.875
 1268SOL     OW 4702   3.724   2.657   5.902
 1268SOL    HW1 4703   3.797   2.696   5.846
 1268SOL    HW2 4704   3.635   2.689   5.869
 1269SOL     OW 4705   5.411   2.703   4.124
 1269SOL    HW1 4706   5.424   2.654   4.038
 1269SOL    HW2 4707   5.315   2.726   4.136
 1270SOL     OW 4708   1.973   4.983   2.237
 1270SOL    HW1 4709   1.981   4.973   2.336
 1270SOL    HW2 4710   2.051   4.940   2.193
 1271SOL     OW 4711   2.237   0.756   1.198
 1271SOL    HW1 4712   2.169   0.828   1.208
 1271SOL    HW2 4713   2.285   0.768   1.111
 1272SOL     OW 4714   6.605   4.109   6.365
 1272SOL    HW1 4715   6.537   4.048   6.404
 1272SOL    HW2 4716   6.676   4.055   6.320
 1273SOL     OW 4717   1.642   3.806   4.787
 1273SOL    HW1 4718   1.633   3.709   4.806
 1273SOL    HW2 4719   1.639   3.822   4.688
 1274SOL     OW 4720   0.278   4.683   1.394
 1274SOL    HW1 4721   0.197   4.740   1.384
 1274SOL    HW2 4722   0.348   4.733   1.444
 1275SOL     OW 4723   2.872   0.093   3.426
 1275SOL    HW1 4724   2.787   0.104   3.374
 1275SOL    HW2 4725   2.859   0.023   3.496
 1276SOL     OW 4726   5.470   4.578   4.689
 1276SOL    HW1 4727   5.445   4.502   4.630
 1276SOL    HW2 4728   5.387   4.628   4.716
 1277SOL     OW 4729   1.170   5.246   6.992
 1277SOL    HW1 4730   1.202   5.290   0.054
 1277SOL    HW2 4731   1.091   5.187   7.013
 1278SOL     OW 4732   0.972   6.854   3.656
 1278SOL    HW1 4733   0.906   6.839   3.582
 1278SOL    HW2 4734   1.022   6.769   3.673
 1279SOL     OW 4735   2.197   3.690   5.863
 1279SOL    HW1 4736   2.153   3.687   5.953
 1279SOL    HW2 4737   2.136   3.736   5.798
 1280SOL     OW 4738   3.325   0.373   3.799
 1280SOL    HW1 4739   3.377   0.331   3.725
 1280SOL    HW2 4740   3.387   0.422   3.860
 1281SOL     OW 4741   2.783   5.957   4.178
 1281SOL    HW1 4742   2.714   6.016   4.138
 1281SOL    HW2 4743   2.738   5.878   4.221
 1282SOL     OW 4744   0.064   2.703   0.371
 1282SOL    HW1 4745   7.016   2.729   0.437
 1282SOL    HW2 4746   0.091   2.783   0.318
 1283SOL     OW 4747   6.509   4.244   5.445
 1283SOL    HW1 4748   6.436   4.311   5.460
 1283SOL    HW2 4749   6.490   4.162   5.499
 1284SOL     OW 4750   3.986   0.814   1.355
 1284SOL    HW1 4751   4.056   0.785   1.291
 1284SOL    HW2 4752   4.009   0.783   1.447
 1285SOL     OW 4753   3.826   1.451   5.388
 1285SOL    HW1 4754   3.851   1.546   5.373
 1285SOL    HW2 4755   3.736   1.434   5.347
 1286SOL     OW 4756   4.937   3.058   0.930
 1286SOL    HW1 4757   4.871   3.120   0.888
 1286SOL    HW2 4758   4.992   3.109   0.997
 1287SOL     OW 4759   5.372   4.898   5.299
 1287SOL    HW1 4760   5.451   4.939   5.343
 1287SOL    HW2 4761   5.338   4.958   5.227
 1288SOL     OW 4762   4.610   4.486   5.964
 1288SOL    HW1 4763   4.570   4.395   5.963
 1288SOL    HW2 4764   4.556   4.546   6.023
 1289SOL     OW 4765   6.614   0.751   1.780
 1289SOL    HW1 4766   6.537   0.693   1.756
 1289SOL    HW2 4767   6.679   0.699   1.836
 1290SOL     OW 4768   1.244   0.441   0.413
 1290SOL    HW1 4769   1.246   0.489   0.325
 1290SOL    HW2 4770   1.236   0.508   0.487
 1291SOL     OW 4771   6.439   4.862   4.546
 1291SOL    HW1 4772   6.426   4.959   4.567
 1291SOL    HW2 4773   6.411   4.844   4.452
 1292SOL     OW 4774   0.127   5.613   2.446
 1292SOL    HW1 4775   0.203   5.590   2.385
 1292SOL    HW2 4776   0.095   5.530   2.493
 1293SOL     OW 4777   2.438   1.870   0.131
 1293SOL    HW1 4778   2.495   1.924   0.193
 1293SOL    HW2 4779   2.374   1.930   0.083
 1294SOL     OW 4780   1.800   4.022   6.416
 1294SOL    HW1 4781   1.884   3.967   6.427
 1294SOL    HW2 4782   1.785   4.040   6.319
 1295SOL     OW 4783   0.063   4.055   1.239
 1295SOL    HW1 4784   0.031   3.972   1.283
 1295SOL    HW2 4785   0.110   4.113   1.306
 1296SOL     OW 4786   5.026   0.144   5.424
 1296SOL    HW1 4787   4.965   0.090   5.482
 1296SOL    HW2 4788   5.075   0.083   5.362
 1297SOL     OW 4789   1.064   6.537   1.781
 1297SOL    HW1 4790   1.126   6.505   1.710
 1297SOL    HW2 4791   0.975   6.492   1.770
 1298SOL     OW 4792   5.010   6.306   3.221
 1298SOL    HW1 4793   4.951   6.280   3.145
 1298SOL    HW2 4794   5.097   6.339   3.186
 1299SOL     OW 4795   2.197   3.060   4.001
 1299SOL    HW1 4796   2.215   3.131   3.933
 1299SOL    HW2 4797   2.259   2.983   3.986
 1300SOL     OW 4798   2.113   3.860   1.246
 1300SOL    HW1 4799   2.046   3.811   1.302
 1300SOL    HW2 4800   2.176   3.795   1.205
 1301SOL     OW 4801   0.761   0.151   1.761
 1301SOL    HW1 4802   0.830   0.095   1.806
 1301SOL    HW2 4803   0.806   0.222   1.708
 1302SOL     OW 4804   5.635   0.453   5.574
 1302SOL    HW1 4805   5.700   0.378   5.587
 1302SOL    HW2 4806   5.608   0.488   5.664
 1303SOL     OW 4807   3.883   0.255   1.740
 1303SOL    HW1 4808   3.940   0.272   1.660
 1303SOL    HW2 4809   3.850   0.342   1.777
 1304SOL     OW 4810   1.053   1.375   1.228
 1304SOL    HW1 4811   1.083   1.329   1.312
 1304SOL    HW2 4812   1.127   1.434   1.195
 1305SOL     OW 4813   5.420   4.297   6.107
 1305SOL    HW1 4814   5.391   4.357   6.182
 1305SOL    HW2 4815   5.444   4.353   6.028
 1306SOL     OW 4816   0.595   5.949   4.652
 1306SOL    HW1 4817   0.671   5.964   4.716
 1306SOL    HW2 4818   0.553   6.037   4.629
 1307SOL     OW 4819   1.962   3.308   3.756
 1307SOL    HW1 4820   1.882   3.353   3.716
 1307SOL    HW2 4821   1.932   3.235   3.817
 1308SOL     OW 4822   6.732   6.427   6.264
 1308SOL    HW1 4823   6.816   6.477   6.285
 1308SOL    HW2 4824   6.675   6.482   6.203
 1309SOL     OW 4825   5.122   4.791   5.858
 1309SOL    HW1 4826   5.129   4.728   5.780
 1309SOL    HW2 4827   5.166   4.750   5.938
 1310SOL     OW 4828   0.571   4.131   4.053
 1310SOL    HW1 4829   0.642   4.105   4.119
 1310SOL    HW2 4830   0.599   4.214   4.005
 1311SOL     OW 4831   6.352   5.670   6.275
 1311SOL    HW1 4832   6.289   5.647   6.348
 1311SOL    HW2 4833   6.333   5.763   6.243
 1312SOL     OW 4834   1.600   0.911   6.159
 1312SOL    HW1 4835   1.604   1.010   6.145
 1312SOL    HW2 4836   1.688   0.879   6.194
 1313SOL     OW 4837   6.447   5.538   2.889
 1313SOL    HW1 4838   6.535   5.582   2.872
 1313SOL    HW2 4839   6.395   5.534   2.804
 1314SOL     OW 4840   2.904   1.916   4.501
 1314SOL    HW1 4841   2.927   1.879   4.412
 1314SOL    HW2 4842   2.805   1.922   4.511
 1315SOL     OW 4843   6.745   0.535   3.725
 1315SOL    HW1 4844   6.840   0.519   3.701
 1315SOL    HW2 4845   6.693   0.450   3.715
 1316SOL     OW 4846   3.729   0.279   5.225
 1316SOL    HW1 4847   3.773   0.310   5.140
 1316SOL    HW2 4848   3.630   0.274   5.211
 1317SOL     OW 4849   2.281   4.575   5.487
 1317SOL    HW1 4850   2.326   4.652   5.441
 1317SOL    HW2 4851   2.267   4.501   5.422
 1318SOL     OW 4852   1.874   2.977   6.937
 1318SOL    HW1 4853   1.856   3.005   0.009
 1318SOL    HW2 4854   1.925   2.892   6.937
 1319SOL     OW 4855   0.088   6.078   6.818
 1319SOL    HW1 4856   0.004   6.071   6.764
 1319SOL    HW2 4857   0.077   6.149   6.888
 1320SOL     OW 4858   3.314   3.011   6.478
 1320SOL    HW1 4859   3.341   2.922   6.441
 1320SOL    HW2 4860   3.214   3.015   6.485
 1321SOL     OW 4861   4.877   2.388   6.702
 1321SOL    HW1 4862   4.961   2.347   6.666
 1321SOL    HW2 4863   4.798   2.332   6.674
 1322SOL     OW 4864   3.426   1.352   4.562
 1322SOL    HW1 4865   3.360   1.353   4.488
 1322SOL    HW2 4866   3.497   1.421   4.545
 1323SOL     OW 4867   3.440   6.507   1.008
 1323SOL    HW1 4868   3.429   6.476   0.913
 1323SOL    HW2 4869   3.405   6.438   1.070
 1324SOL     OW 4870   1.216   3.611   0.254
 1324SOL    HW1 4871   1.121   3.595   0.227
 1324SOL    HW2 4872   1.218   3.645   0.348
 1325SOL     OW 4873   3.915   6.440   5.316
 1325SOL    HW1 4874   3.819   6.468   5.322
 1325SOL    HW2 4875   3.960   6.493   5.245
 1326SOL     OW 4876   4.651   4.327   5.172
 1326SOL    HW1 4877   4.629   4.372   5.086
 1326SOL    HW2 4878   4.655   4.228   5.158
 1327SOL     OW 4879   0.321   6.731   0.757
 1327SOL    HW1 4880   0.243   6.747   0.817
 1327SOL    HW2 4881   0.405   6.762   0.802
 1328SOL     OW 4882   1.439   3.083   5.958
 1328SOL    HW1 4883   1.478   3.130   5.879
 1328SOL    HW2 4884   1.370   3.018   5.927
 1329SOL     OW 4885   6.876   1.590   2.824
 1329SOL    HW1 4886   6.846   1.553   2.912
 1329SOL    HW2 4887   6.906   1.515   2.765
 1330SOL     OW 4888   0.320   2.017   0.867
 1330SOL    HW1 4889   0.367   2.058   0.789
 1330SOL    HW2 4890   0.228   2.054   0.874
 1331SOL     OW 4891   4.693   2.577   2.475
 1331SOL    HW1 4892   4.706   2.675   2.490
 1331SOL    HW2 4893   4.652   2.561   2.385
 1332SOL     OW 4894   2.258   6.820   0.256
 1332SOL    HW1 4895   2.327   6.755   0.225
 1332SOL    HW2 4896   2.236   6.802   0.352
 1333SOL     OW 4897   3.091   4.044   2.684
 1333SOL    HW1 4898   3.129   4.043   2.777
 1333SOL    HW2 4899   3.152   3.993   2.624
 1334SOL     OW 4900   0.068   2.072   3.405
 1334SOL    HW1 4901   0.155   2.028   3.428
 1334SOL    HW2 4902   0.079   2.171   3.407
 1335SOL     OW 4903   1.695   2.448   2.429
 1335SOL    HW1 4904   1.727   2.355   2.411
 1335SOL    HW2 4905   1.595   2.451   2.425
 1336SOL     OW 4906   4.042   1.741   5.648
 1336SOL    HW1 4907   3.946   1.767   5.657
 1336SOL    HW2 4908   4.060   1.659   5.702
 1337SOL     OW 4909   6.752   1.294   2.551
 1337SOL    HW1 4910   6.721   1.335   2.637
 1337SOL    HW2 4911   6.741   1.195   2.556
 1338SOL     OW 4912   5.961   4.254   4.337
 1338SOL    HW1 4913   5.899   4.280   4.410
 1338SOL    HW2 4914   5.909   4.211   4.263
 1339SOL     OW 4915   0.089   0.170   0.137
 1339SOL    HW1 4916   0.004   0.178   0.189
 1339SOL    HW2 4917   0.156   0.235   0.173
 1340SOL     OW 4918   5.444   1.912   2.535
 1340SOL    HW1 4919   5.413   1.922   2.630
 1340SOL    HW2 4920   5.395   1.977   2.477
 1341SOL     OW 4921   4.088   6.461   0.500
 1341SOL    HW1 4922   4.164   6.415   0.453
 1341SOL    HW2 4923   4.123   6.542   0.547
 1342SOL     OW 4924   2.997   5.321   6.680
 1342SOL    HW1 4925   3.037   5.234   6.708
 1342SOL    HW2 4926   2.937   5.355   6.753
 1343SOL     OW 4927   5.927   5.479   3.050
 1343SOL    HW1 4928   5.873   5.404   3.010
 1343SOL    HW2 4929   5.957   5.453   3.142
 1344SOL     OW 4930   0.893   6.483   4.230
 1344SOL    HW1 4931   0.859   6.427   4.154
 1344SOL    HW2 4932   0.838   6.467   4.311
 1345SOL     OW 4933   1.008   4.697   2.010
 1345SOL    HW1 4934   0.921   4.741   2.033
 1345SOL    HW2 4935   0.989   4.603   1.978
 1346SOL     OW 4936   1.911   5.399   6.173
 1346SOL    HW1 4937   1.906   5.314   6.226
 1346SOL    HW2 4938   1.819   5.438   6.165
 1347SOL     OW 4939   2.263   0.138   6.373
 1347SOL    HW1 4940   2.183   0.198   6.375
 1347SOL    HW2 4941   2.284   0.107   6.465
 1348SOL     OW 4942   0.167   6.192   5.457
 1348SOL    HW1 4943   0.207   6.194   5.548
 1348SOL    HW2 4944   0.117   6.278   5.440
 1349SOL     OW 4945   5.666   2.542   3.985
 1349SOL    HW1 4946   5.694   2.476   4.054
 1349SOL    HW2 4947   5.609   2.498   3.916
 1350SOL     OW 4948   4.285   4.648   0.188
 1350SOL    HW1 4949   4.209   4.666   0.250
 1350SOL    HW2 4950   4.329   4.561   0.214
 1351SOL     OW 4951   5.959   2.365   3.541
 1351SOL    HW1 4952   6.057   2.385   3.545
 1351SOL    HW2 4953   5.913   2.439   3.492
 1352SOL     OW 4954   6.787   6.526   2.647
 1352SOL    HW1 4955   6.787   6.623   2.620
 1352SOL    HW2 4956   6.705   6.507   2.702
 1353SOL     OW 4957   0.853   1.895   0.264
 1353SOL    HW1 4958   0.799   1.821   0.305
 1353SOL    HW2 4959   0.890   1.953   0.336
 1354SOL     OW 4960   6.847   3.483   2.287
 1354SOL    HW1 4961   6.761   3.489   2.337
 1354SOL    HW2 4962   6.911   3.423   2.336
 1355SOL     OW 4963   6.275   3.519   4.478
 1355SOL    HW1 4964   6.233   3.431   4.500
 1355SOL    HW2 4965   6.323   3.555   4.558
 1356SOL     OW 4966   3.674   2.876   2.210
 1356SOL    HW1 4967   3.716   2.850   2.297
 1356SOL    HW2 4968   3.746   2.898   2.144
 1357SOL     OW 4969   6.480   4.049   5.920
 1357SOL    HW1 4970   6.528   4.134   5.896
 1357SOL    HW2 4971   6.546   3.976   5.933
 1358SOL     OW 4972   5.677   0.210   0.230
 1358SOL    HW1 4973   5.611   0.281   0.255
 1358SOL    HW2 4974   5.769   0.248   0.233
 1359SOL     OW 4975   6.345   4.753   1.888
 1359SOL    HW1 4976   6.394   4.707   1.814
 1359SOL    HW2 4977   6.375   4.716   1.976
 1360SOL     OW 4978   3.421   3.458   6.988
 1360SOL    HW1 4979   3.443   3.547   6.948
 1360SOL    HW2 4980   3.325   3.435   6.969
 1361SOL     OW 4981   6.857   4.385   4.990
 1361SOL    HW1 4982   6.832   4.321   5.064
 1361SOL    HW2 4983   6.875   4.475   5.029
 1362SOL     OW 4984   3.982   3.670   2.558
 1362SOL    HW1 4985   3.974   3.768   2.577
 1362SOL    HW2 4986   3.891   3.633   2.538
 1363SOL     OW 4987   0.176   5.123   4.625
 1363SOL    HW1 4988   0.120   5.204   4.646
 1363SOL    HW2 4989   0.272   5.147   4.634
 1364SOL     OW 4990   4.553   4.119   0.046
 1364SOL    HW1 4991   4.650   4.125   0.023
 1364SOL    HW2 4992   4.542   4.069   0.132
 1365SOL     OW 4993   0.470   4.339   6.557
 1365SOL    HW1 4994   0.527   4.382   6.627
 1365SOL    HW2 4995   0.494   4.374   6.467
 1366SOL     OW 4996   1.960   6.619   5.593
 1366SOL    HW1 4997   2.007   6.654   5.674
 1366SOL    HW2 4998   2.027   6.578   5.531
 1367SOL     OW 4999   1.903   1.645   2.561
 1367SOL    HW1 5000   1.899   1.716   2.631
 1367SOL    HW2 5001   1.811   1.617   2.535
 1368SOL     OW 5002   5.697   6.689   4.836
 1368SOL    HW1 5003   5.633   6.620   4.802
 1368SOL    HW2 5004   5.708   6.679   4.935
 1369SOL     OW 5005   1.263   6.168   3.091
 1369SOL    HW1 5006   1.186   6.106   3.073
 1369SOL    HW2 5007   1.231   6.247   3.143
 1370SOL     OW 5008   3.550   1.120   1.633
 1370SOL    HW1 5009   3.648   1.138   1.622
 1370SOL    HW2 5010   3.533   1.023   1.620
 1371SOL     OW 5011   4.500   1.102   4.872
 1371SOL    HW1 5012   4.459   1.010   4.874
 1371SOL    HW2 5013   4.436   1.165   4.829
 1372SOL     OW 5014   1.950   2.493   0.859
 1372SOL    HW1 5015   2.036   2.531   0.891
 1372SOL    HW2 5016   1.962   2.396   0.837
 1373SOL     OW 5017   0.069   4.939   0.590
 1373SOL    HW1 5018   0.054   4.892   0.677
 1373SOL    HW2 5019   0.085   5.036   0.607
 1374SOL     OW 5020   4.563   2.095   1.382
 1374SOL    HW1 5021   4.627   2.118   1.308
 1374SOL    HW2 5022   4.522   2.179   1.418
 1375SOL     OW 5023   0.305   5.014   5.814
 1375SOL    HW1 5024   0.309   5.114   5.810
 1375SOL    HW2 5025   0.297   4.977   5.722
 1376SOL     OW 5026   4.590   2.605   3.982
 1376SOL    HW1 5027   4.525   2.555   4.040
 1376SOL    HW2 5028   4.553   2.611   3.889
 1377SOL     OW 5029   0.488   4.493   5.228
 1377SOL    HW1 5030   0.473   4.480   5.326
 1377SOL    HW2 5031   0.569   4.442   5.200
 1378SOL     OW 5032   1.098   2.332   6.388
 1378SOL    HW1 5033   1.097   2.234   6.367
 1378SOL    HW2 5034   1.006   2.369   6.376
 1379SOL     OW 5035   3.134   5.833   3.337
 1379SOL    HW1 5036   3.035   5.843   3.346
 1379SOL    HW2 5037   3.173   5.920   3.307
 1380SOL     OW 5038   6.514   6.870   2.291
 1380SOL    HW1 5039   6.423   6.908   2.279
 1380SOL    HW2 5040   6.520   6.781   2.246
 1381SOL     OW 5041   5.907   3.371   0.105
 1381SOL    HW1 5042   5.885   3.406   0.196
 1381SOL    HW2 5043   5.898   3.444   0.038
 1382SOL     OW 5044   6.279   5.447   5.990
 1382SOL    HW1 5045   6.339   5.496   6.053
 1382SOL    HW2 5046   6.330   5.422   5.907
 1383SOL     OW 5047   0.307   0.586   0.228
 1383SOL    HW1 5048   0.366   0.599   0.308
 1383SOL    HW2 5049   0.278   0.491   0.223
 1384SOL     OW 5050   3.648   1.238   3.415
 1384SOL    HW1 5051   3.616   1.159   3.362
 1384SOL    HW2 5052   3.746   1.228   3.431
 1385SOL     OW 5053   6.343   3.014   3.047
 1385SOL    HW1 5054   6.288   2.990   2.968
 1385SOL    HW2 5055   6.284   3.024   3.127
 1386SOL     OW 5056   2.168   3.206   4.431
 1386SOL    HW1 5057   2.164   3.226   4.333
 1386SOL    HW2 5058   2.193   3.110   4.444
 1387SOL     OW 5059   3.469   0.434   4.551
 1387SOL    HW1 5060   3.525   0.501   4.600
 1387SOL    HW2 5061   3.386   0.478   4.516
 1388SOL     OW 5062   6.560   0.860   4.267
 1388SOL    HW1 5063   6.580   0.765   4.241
 1388SOL    HW2 5064   6.642   0.916   4.254
 1389SOL     OW 5065   5.840   6.825   4.329
 1389SOL    HW1 5066   5.896   6.853   4.407
 1389SOL    HW2 5067   5.828   6.902   4.267
 1390SOL     OW 5068   4.378   1.630   1.799
 1390SOL    HW1 5069   4.459   1.682   1.770
 1390SOL    HW2 5070   4.298   1.661   1.747
 1391SOL     OW 5071   6.784   0.465   4.534
 1391SOL    HW1 5072   6.778   0.453   4.633
 1391SOL    HW2 5073   6.806   0.378   4.491
 1392SOL     OW 5074   4.342   5.771   6.790
 1392SOL    HW1 5075   4.441   5.756   6.800
 1392SOL    HW2 5076   4.317   5.858   6.831
 1393SOL     OW 5077   6.525   1.648   6.475
 1393SOL    HW1 5078   6.506   1.684   6.384
 1393SOL    HW2 5079   6.598   1.579   6.468
 1394SOL     OW 5080   4.101   6.891   3.519
 1394SOL    HW1 5081   4.102   6.883   3.419
 1394SOL    HW2 5082   4.038   6.823   3.557
 1395SOL     OW 5083   1.179   5.307   2.737
 1395SOL    HW1 5084   1.153   5.402   2.750
 1395SOL    HW2 5085   1.273   5.293   2.768
 1396SOL     OW 5086   2.600   1.101   4.679
 1396SOL    HW1 5087   2.514   1.063   4.645
 1396SOL    HW2 5088   2.666   1.107   4.605
 1397SOL     OW 5089   0.405   5.264   4.613
 1397SOL    HW1 5090   0.480   5.269   4.679
 1397SOL    HW2 5091   0.423   5.326   4.536
 1398SOL     OW 5092   0.831   1.785   0.846
 1398SOL    HW1 5093   0.890   1.850   0.894
 1398SOL    HW2 5094   0.794   1.719   0.911
 1399SOL     OW 5095   3.561   0.515   0.785
 1399SOL    HW1 5096   3.643   0.476   0.828
 1399SOL    HW2 5097   3.585   0.597   0.734
 1400SOL     OW 5098   6.168   0.703   4.379
 1400SOL    HW1 5099   6.084   0.648   4.370
 1400SOL    HW2 5100   6.179   0.730   4.475
 1401SOL     OW 5101   5.308   0.677   3.467
 1401SOL    HW1 5102   5.376   0.664   3.395
 1401SOL    HW2 5103   5.225   0.717   3.429
 1402SOL     OW 5104   6.024   3.542   1.700
 1402SOL    HW1 5105   5.967   3.574   1.776
 1402SOL    HW2 5106   6.021   3.442   1.697
 1403SOL     OW 5107   3.554   2.682   6.936
 1403SOL    HW1 5108   3.505   2.763   6.967
 1403SOL    HW2 5109   3.652   2.693   6.953
 1404SOL     OW 5110   4.137   0.126   0.900
 1404SOL    HW1 5111   4.169   0.179   0.979
 1404SOL    HW2 5112   4.215   0.102   0.842
 1405SOL     OW 5113   2.127   3.372   1.251
 1405SOL    HW1 5114   2.078   3.288   1.272
 1405SOL    HW2 5115   2.217   3.351   1.214
 1406SOL     OW 5116   2.921   3.084   0.829
 1406SOL    HW1 5117   2.850   3.112   0.764
 1406SOL    HW2 5118   2.897   3.116   0.921
 1407SOL     OW 5119   0.489   3.176   1.563
 1407SOL    HW1 5120   0.578   3.192   1.520
 1407SOL    HW2 5121   0.452   3.262   1.597
 1408SOL     OW 5122   5.851   6.007   6.563
 1408SOL    HW1 5123   5.784   6.020   6.490
 1408SOL    HW2 5124   5.902   5.922   6.548
 1409SOL     OW 5125   6.965   0.881   5.785
 1409SOL    HW1 5126   6.926   0.958   5.734
 1409SOL    HW2 5127   0.042   0.885   5.779
 1410SOL     OW 5128   2.983   2.746   5.731
 1410SOL    HW1 5129   2.980   2.649   5.708
 1410SOL    HW2 5130   2.935   2.761   5.818
 1411SOL     OW 5131   3.906   5.749   0.300
 1411SOL    HW1 5132   3.973   5.780   0.367
 1411SOL    HW2 5133   3.900   5.649   0.303
 1412SOL     OW 5134   1.557   2.415   0.717
 1412SOL    HW1 5135   1.530   2.384   0.808
 1412SOL    HW2 5136   1.625   2.352   0.679
 1413SOL     OW 5137   1.892   1.536   5.440
 1413SOL    HW1 5138   1.874   1.535   5.539
 1413SOL    HW2 5139   1.962   1.468   5.418
 1414SOL     OW 5140   1.173   3.542   2.210
 1414SOL    HW1 5141   1.231   3.571   2.285
 1414SOL    HW2 5142   1.132   3.453   2.232
 1415SOL     OW 5143   2.682   1.924   3.659
 1415SOL    HW1 5144   2.717   1.830   3.667
 1415SOL    HW2 5145   2.591   1.929   3.701
 1416SOL     OW 5146   4.293   0.278   6.090
 1416SOL    HW1 5147   4.215   0.341   6.093
 1416SOL    HW2 5148   4.285   0.220   6.009
 1417SOL     OW 5149   3.628   2.791   6.138
 1417SOL    HW1 5150   3.533   2.779   6.110
 1417SOL    HW2 5151   3.689   2.741   6.076
 1418SOL     OW 5152   3.796   3.823   0.192
 1418SOL    HW1 5153   3.811   3.912   0.150
 1418SOL    HW2 5154   3.780   3.836   0.290
 1419SOL     OW 5155   1.976   4.867   3.601
 1419SOL    HW1 5156   2.003   4.771   3.602
 1419SOL    HW2 5157   1.951   4.894   3.508
 1420SOL     OW 5158   3.518   5.384   3.064
 1420SOL    HW1 5159   3.491   5.301   3.014
 1420SOL    HW2 5160   3.436   5.433   3.093
 1421SOL     OW 5161   1.190   5.630   5.898
 1421SOL    HW1 5162   1.142   5.633   5.810
 1421SOL    HW2 5163   1.211   5.724   5.926
 1422SOL     OW 5164   2.756   3.308   5.893
 1422SOL    HW1 5165   2.705   3.229   5.858
 1422SOL    HW2 5166   2.751   3.383   5.827
 1423SOL     OW 5167   4.897   1.008   4.631
 1423SOL    HW1 5168   4.812   0.967   4.598
 1423SOL    HW2 5169   4.875   1.085   4.690
 1424SOL     OW 5170   5.379   3.254   6.438
 1424SOL    HW1 5171   5.424   3.197   6.507
 1424SOL    HW2 5172   5.291   3.286   6.473
 1425SOL     OW 5173   4.070   6.554   3.956
 1425SOL    HW1 5174   3.999   6.581   4.021
 1425SOL    HW2 5175   4.086   6.456   3.963
 1426SOL     OW 5176   2.719   1.953   6.974
 1426SOL    HW1 5177   2.728   1.925   0.047
 1426SOL    HW2 5178   2.810   1.958   6.933
 1427SOL     OW 5179   1.203   1.329   3.043
 1427SOL    HW1 5180   1.298   1.326   3.074
 1427SOL    HW2 5181   1.199   1.373   2.954
 1428SOL     OW 5182   6.627   3.409   3.807
 1428SOL    HW1 5183   6.571   3.459   3.741
 1428SOL    HW2 5184   6.647   3.469   3.885
 1429SOL     OW 5185   6.416   1.393   0.567
 1429SOL    HW1 5186   6.447   1.487   0.553
 1429SOL    HW2 5187   6.453   1.335   0.495
 1430SOL     OW 5188   2.169   3.256   3.224
 1430SOL    HW1 5189   2.195   3.162   3.201
 1430SOL    HW2 5190   2.167   3.266   3.323
 1431SOL     OW 5191   2.411   1.515   5.948
 1431SOL    HW1 5192   2.349   1.516   6.027
 1431SOL    HW2 5193   2.456   1.604   5.940
 1432SOL     OW 5194   2.868   1.248   1.391
 1432SOL    HW1 5195   2.906   1.229   1.300
 1432SOL    HW2 5196   2.821   1.337   1.389
 1433SOL     OW 5197   2.979   0.587   4.232
 1433SOL    HW1 5198   2.949   0.682   4.226
 1433SOL    HW2 5199   2.935   0.534   4.160
 1434SOL     OW 5200   6.750   3.262   0.145
 1434SOL    HW1 5201   6.849   3.275   0.153
 1434SOL    HW2 5202   6.705   3.351   0.142
 1435SOL     OW 5203   0.704   0.038   5.249
 1435SOL    HW1 5204   0.620   0.090   5.265
 1435SOL    HW2 5205   0.681   6.966   5.228
 1436SOL     OW 5206   5.808   1.883   0.864
 1436SOL    HW1 5207   5.775   1.859   0.773
 1436SOL    HW2 5208   5.744   1.946   0.907
 1437SOL     OW 5209   4.378   1.046   6.340
 1437SOL    HW1 5210   4.326   0.964   6.365
 1437SOL    HW2 5211   4.474   1.034   6.365
 1438SOL     OW 5212   2.475   1.116   1.537
 1438SOL    HW1 5213   2.485   1.072   1.626
 1438SOL    HW2 5214   2.460   1.214   1.549
 1439SOL     OW 5215   6.701   5.117   6.966
 1439SOL    HW1 5216   6.748   5.139   6.880
 1439SOL    HW2 5217   6.640   5.039   6.952
 1440SOL     OW 5218   3.024   3.305   3.318
 1440SOL    HW1 5219   3.004   3.402   3.308
 1440SOL    HW2 5220   3.095   3.279   3.252
 1441SOL     OW 5221   0.273   2.348   4.044
 1441SOL    HW1 5222   0.221   2.391   3.971
 1441SOL    HW2 5223   0.250   2.390   4.132
 1442SOL     OW 5224   4.847   4.332   0.381
 1442SOL    HW1 5225   4.903   4.328   0.298
 1442SOL    HW2 5226   4.887   4.398   0.445
 1443SOL     OW 5227   1.032   1.430   3.607
 1443SOL    HW1 5228   0.960   1.491   3.639
 1443SOL    HW2 5229   1.092   1.479   3.545
 1444SOL     OW 5230   4.118   0.614   3.693
 1444SOL    HW1 5231   4.171   0.593   3.612
 1444SOL    HW2 5232   4.132   0.710   3.719
 1445SOL     OW 5233   6.699   2.219   2.058
 1445SOL    HW1 5234   6.615   2.270   2.079
 1445SOL    HW2 5235   6.710   2.213   1.959
 1446SOL     OW 5236   3.666   2.171   1.624
 1446SOL    HW1 5237   3.640   2.213   1.711
 1446SOL    HW2 5238   3.583   2.151   1.571
 1447SOL     OW 5239   6.618   1.320   4.691
 1447SOL    HW1 5240   6.704   1.356   4.728
 1447SOL    HW2 5241   6.571   1.268   4.762
 1448SOL     OW 5242   5.413   1.083   6.205
 1448SOL    HW1 5243   5.409   1.008   6.139
 1448SOL    HW2 5244   5.321   1.117   6.224
 1449SOL     OW 5245   5.182   5.548   1.018
 1449SOL    HW1 5246   5.129   5.615   1.069
 1449SOL    HW2 5247   5.235   5.491   1.082
 1450SOL     OW 5248   5.514   2.905   3.040
 1450SOL    HW1 5249   5.536   2.979   2.977
 1450SOL    HW2 5250   5.573   2.826   3.021
 1451SOL     OW 5251   1.422   6.364   2.809
 1451SOL    HW1 5252   1.332   6.321   2.799
 1451SOL    HW2 5253   1.418   6.457   2.773
 1452SOL     OW 5254   5.028   0.622   5.327
 1452SOL    HW1 5255   4.946   0.584   5.285
 1452SOL    HW2 5256   5.058   0.703   5.275
 1453SOL     OW 5257   4.988   4.334   4.987
 1453SOL    HW1 5258   5.076   4.351   5.033
 1453SOL    HW2 5259   5.005   4.312   4.891
 1454SOL     OW 5260   4.909   3.078   1.844
 1454SOL    HW1 5261   4.922   3.007   1.775
 1454SOL    HW2 5262   4.840   3.049   1.910
 1455SOL     OW 5263   1.074   1.372   1.844
 1455SOL    HW1 5264   1.016   1.300   1.806
 1455SOL    HW2 5265   1.102   1.348   1.937
 1456SOL     OW 5266   6.868   6.389   4.259
 1456SOL    HW1 5267   6.896   6.400   4.354
 1456SOL    HW2 5268   6.815   6.469   4.229
 1457SOL     OW 5269   1.840   0.390   3.729
 1457SOL    HW1 5270   1.938   0.371   3.738
 1457SOL    HW2 5271   1.794   0.309   3.693
 1458SOL     OW 5272   5.717   6.053   6.323
 1458SOL    HW1 5273   5.621   6.055   6.295
 1458SOL    HW2 5274   5.749   6.146   6.339
 1459SOL     OW 5275   3.385   5.715   6.655
 1459SOL    HW1 5276   3.425   5.731   6.564
 1459SOL    HW2 5277   3.294   5.756   6.659
 1460SOL     OW 5278   1.646   0.327   6.891
 1460SOL    HW1 5279   1.663   0.392   6.964
 1460SOL    HW2 5280   1.713   0.252   6.896
 1461SOL     OW 5281   5.564   4.571   2.474
 1461SOL    HW1 5282   5.555   4.519   2.559
 1461SOL    HW2 5283   5.646   4.542   2.425
 1462SOL     OW 5284   5.767   0.557   0.191
 1462SOL    HW1 5285   5.671   0.534   0.204
 1462SOL    HW2 5286   5.776   0.655   0.174
 1463SOL     OW 5287   1.099   0.986   5.323
 1463SOL    HW1 5288   1.079   0.889   5.309
 1463SOL    HW2 5289   1.061   1.039   5.247
 1464SOL     OW 5290   0.118   6.469   0.987
 1464SOL    HW1 5291   0.150   6.482   0.893
 1464SOL    HW2 5292   0.196   6.454   1.048
 1465SOL     OW 5293   0.447   0.187   5.012
 1465SOL    HW1 5294   0.512   0.131   4.960
 1465SOL    HW2 5295   0.387   0.235   4.950
 1466SOL     OW 5296   6.071   5.281   3.485
 1466SOL    HW1 5297   6.016   5.228   3.420
 1466SOL    HW2 5298   6.146   5.224   3.519
 1467SOL     OW 5299   0.885   1.077   4.008
 1467SOL    HW1 5300   0.864   1.174   4.019
 1467SOL    HW2 5301   0.943   1.065   3.927
 1468SOL     OW 5302   5.084   5.924   3.629
 1468SOL    HW1 5303   5.145   5.887   3.698
 1468SOL    HW2 5304   5.086   5.865   3.548
 1469SOL     OW 5305   0.839   1.158   2.205
 1469SOL    HW1 5306   0.893   1.076   2.187
 1469SOL    HW2 5307   0.835   1.175   2.304
 1470SOL     OW 5308   1.273   1.413   2.789
 1470SOL    HW1 5309   1.275   1.410   2.689
 1470SOL    HW2 5310   1.351   1.362   2.826
 1471SOL     OW 5311   0.453   0.145   6.989
 1471SOL    HW1 5312   0.416   0.231   6.956
 1471SOL    HW2 5313   0.552   0.153   7.000
 1472SOL     OW 5314   5.047   0.489   6.108
 1472SOL    HW1 5315   5.012   0.543   6.031
 1472SOL    HW2 5316   5.138   0.454   6.086
 1473SOL     OW 5317   6.337   4.472   2.834
 1473SOL    HW1 5318   6.357   4.504   2.927
 1473SOL    HW2 5319   6.273   4.535   2.790
 1474SOL     OW 5320   5.807   5.509   4.430
 1474SOL    HW1 5321   5.867   5.453   4.488
 1474SOL    HW2 5322   5.780   5.456   4.350
 1475SOL     OW 5323   6.772   0.849   2.277
 1475SOL    HW1 5324   6.725   0.789   2.342
 1475SOL    HW2 5325   6.868   0.859   2.304
 1476SOL     OW 5326   0.194   2.102   2.264
 1476SOL    HW1 5327   0.135   2.173   2.304
 1476SOL    HW2 5328   0.284   2.141   2.244
 1477SOL     OW 5329   2.872   6.540   5.184
 1477SOL    HW1 5330   2.882   6.522   5.282
 1477SOL    HW2 5331   2.960   6.568   5.146
 1478SOL     OW 5332   5.794   4.813   0.976
 1478SOL    HW1 5333   5.843   4.739   1.023
 1478SOL    HW2 5334   5.770   4.784   0.883
 1479SOL     OW 5335   1.933   4.396   0.207
 1479SOL    HW1 5336   1.982   4.402   0.294
 1479SOL    HW2 5337   1.873   4.475   0.197
 1480SOL     OW 5338   2.601   1.565   0.569
 1480SOL    HW1 5339   2.531   1.595   0.504
 1480SOL    HW2 5340   2.621   1.639   0.633
 1481SOL     OW 5341   5.713   2.581   5.906
 1481SOL    HW1 5342   5.768   2.571   5.989
 1481SOL    HW2 5343   5.760   2.537   5.830
 1482SOL     OW 5344   5.845   0.816   0.129
 1482SOL    HW1 5345   5.802   0.901   0.101
 1482SOL    HW2 5346   5.944   0.830   0.138
 1483SOL     OW 5347   5.993   2.531   0.537
 1483SOL    HW1 5348   6.061   2.592   0.494
 1483SOL    HW2 5349   6.038   2.447   0.565
 1484SOL     OW 5350   6.748   5.292   2.836
 1484SOL    HW1 5351   6.776   5.273   2.742
 1484SOL    HW2 5352   6.826   5.327   2.888
 1485SOL     OW 5353   5.172   2.340   3.969
 1485SOL    HW1 5354   5.244   2.286   4.013
 1485SOL    HW2 5355   5.190   2.345   3.871
 1486SOL     OW 5356   4.818   2.149   2.779
 1486SOL    HW1 5357   4.785   2.240   2.752
 1486SOL    HW2 5358   4.770   2.079   2.726
 1487SOL     OW 5359   6.053   1.415   5.535
 1487SOL    HW1 5360   6.104   1.331   5.550
 1487SOL    HW2 5361   6.039   1.462   5.623
 1488SOL     OW 5362   4.348   1.201   3.162
 1488SOL    HW1 5363   4.325   1.284   3.113
 1488SOL    HW2 5364   4.324   1.121   3.107
 1489SOL     OW 5365   3.610   4.969   5.022
 1489SOL    HW1 5366   3.526   4.933   5.062
 1489SOL    HW2 5367   3.606   4.961   4.922
 1490SOL     OW 5368   1.205   2.310   0.419
 1490SOL    HW1 5369   1.264   2.390   0.412
 1490SOL    HW2 5370   1.140   2.308   0.343
 1491SOL     OW 5371   0.093   3.094   3.663
 1491SOL    HW1 5372   7.019   3.070   3.657
 1491SOL    HW2 5373   0.120   3.101   3.759
 1492SOL     OW 5374   5.041   1.439   1.659
 1492SOL    HW1 5375   4.955   1.436   1.608
 1492SOL    HW2 5376   5.050   1.528   1.704
 1493SOL     OW 5377   4.762   0.131   5.201
 1493SOL    HW1 5378   4.830   0.068   5.165
 1493SOL    HW2 5379   4.681   0.130   5.142
 1494SOL     OW 5380   4.106   2.419   5.586
 1494SOL    HW1 5381   4.068   2.384   5.501
 1494SOL    HW2 5382   4.031   2.438   5.650
 1495SOL     OW 5383   0.684   3.156   2.316
 1495SOL    HW1 5384   0.741   3.234   2.342
 1495SOL    HW2 5385   0.598   3.189   2.276
 1496SOL     OW 5386   0.073   0.315   2.345
 1496SOL    HW1 5387   0.064   0.234   2.287
 1496SOL    HW2 5388   0.108   0.289   2.434
 1497SOL     OW 5389   6.275   4.952   4.280
 1497SOL    HW1 5390   6.247   5.043   4.249
 1497SOL    HW2 5391   6.323   4.905   4.206
 1498SOL     OW 5392   1.686   4.884   6.614
 1498SOL    HW1 5393   1.629   4.950   6.565
 1498SOL    HW2 5394   1.770   4.868   6.563
 1499SOL     OW 5395   1.281   4.088   5.161
 1499SOL    HW1 5396   1.265   4.153   5.235
 1499SOL    HW2 5397   1.249   3.997   5.189
 1500SOL     OW 5398   5.041   6.444   0.337
 1500SOL    HW1 5399   4.947   6.424   0.311
 1500SOL    HW2 5400   5.055   6.422   0.433
 1501SOL     OW 5401   4.074   0.343   6.579
 1501SOL    HW1 5402   4.047   0.268   6.640
 1501SOL    HW2 5403   4.172   0.359   6.587
 1502SOL     OW 5404   6.231   6.826   0.159
 1502SOL    HW1 5405   6.303   6.797   0.096
 1502SOL    HW2 5406   6.178   6.746   0.187
 1503SOL     OW 5407   3.294   3.014   6.849
 1503SOL    HW1 5408   3.344   3.034   6.934
 1503SOL    HW2 5409   3.247   2.927   6.858
 1504SOL     OW 5410   3.457   6.831   4.825
 1504SOL    HW1 5411   3.490   6.759   4.764
 1504SOL    HW2 5412   3.383   6.881   4.780
 1505SOL     OW 5413   5.684   6.576   5.770
 1505SOL    HW1 5414   5.590   6.578   5.804
 1505SOL    HW2 5415   5.737   6.649   5.813
 1506SOL     OW 5416   0.955   5.628   3.969
 1506SOL    HW1 5417   0.870   5.667   4.005
 1506SOL    HW2 5418   1.032   5.664   4.021
 1507SOL     OW 5419   1.780   1.320   5.239
 1507SOL    HW1 5420   1.862   1.282   5.195
 1507SOL    HW2 5421   1.804   1.408   5.282
 1508SOL     OW 5422   4.379   6.966   0.512
 1508SOL    HW1 5423   4.308   6.952   0.443
 1508SOL    HW2 5424   4.373   6.894   0.581
 1509SOL     OW 5425   4.415   3.039   7.014
 1509SOL    HW1 5426   4.363   2.963   6.975
 1509SOL    HW2 5427   4.392   3.123   6.966
 1510SOL     OW 5428   0.070   1.848   4.212
 1510SOL    HW1 5429   0.142   1.868   4.146
 1510SOL    HW2 5430   0.074   1.915   4.286
 1511SOL     OW 5431   2.691   2.264   0.547
 1511SOL    HW1 5432   2.714   2.312   0.632
 1511SOL    HW2 5433   2.769   2.270   0.484
 1512SOL     OW 5434   0.026   1.048   1.567
 1512SOL    HW1 5435   0.121   1.061   1.592
 1512SOL    HW2 5436   0.018   1.049   1.467
 1513SOL     OW 5437   3.511   0.060   3.912
 1513SOL    HW1 5438   3.422   0.103   3.929
 1513SOL    HW2 5439   3.502   7.017   3.837
 1514SOL     OW 5440   5.893   1.412   4.568
 1514SOL    HW1 5441   5.941   1.495   4.540
 1514SOL    HW2 5442   5.812   1.437   4.621
 1515SOL     OW 5443   0.250   4.654   5.235
 1515SOL    HW1 5444   0.244   4.751   5.209
 1515SOL    HW2 5445   0.342   4.621   5.217
 1516SOL     OW 5446   0.304   1.097   0.606
 1516SOL    HW1 5447   0.403   1.094   0.617
 1516SOL    HW2 5448   0.268   1.181   0.646
 1517SOL     OW 5449   4.785   5.944   3.207
 1517SOL    HW1 5450   4.859   6.001   3.245
 1517SOL    HW2 5451   4.758   5.980   3.118
 1518SOL     OW 5452   6.527   4.255   1.084
 1518SOL    HW1 5453   6.435   4.289   1.066
 1518SOL    HW2 5454   6.551   4.273   1.179
 1519SOL     OW 5455   6.011   4.384   0.965
 1519SOL    HW1 5456   5.977   4.372   0.872
 1519SOL    HW2 5457   5.977   4.471   1.002
 1520SOL     OW 5458   2.110   3.603   2.734
 1520SOL    HW1 5459   2.114   3.505   2.713
 1520SOL    HW2 5460   2.120   3.616   2.833
 1521SOL     OW 5461   1.935   3.073   6.681
 1521SOL    HW1 5462   1.894   3.070   6.772
 1521SOL    HW2 5463   2.034   3.062   6.689
 1522SOL     OW 5464   5.556   1.995   6.583
 1522SOL    HW1 5465   5.479   1.935   6.560
 1522SOL    HW2 5466   5.634   1.940   6.611
 1523SOL     OW 5467   6.228   2.839   1.269
 1523SOL    HW1 5468   6.273   2.761   1.227
 1523SOL    HW2 5469   6.128   2.828   1.264
 1524SOL     OW 5470   0.339   1.131   1.523
 1524SOL    HW1 5471   0.268   1.200   1.528
 1524SOL    HW2 5472   0.361   1.113   1.427
 1525SOL     OW 5473   4.041   1.780   6.093
 1525SOL    HW1 5474   4.099   1.791   6.012
 1525SOL    HW2 5475   3.976   1.856   6.098
 1526SOL     OW 5476   6.904   1.955   1.435
 1526SOL    HW1 5477   6.984   1.923   1.384
 1526SOL    HW2 5478   6.901   1.909   1.524
 1527SOL     OW 5479   3.507   2.001   5.185
 1527SOL    HW1 5480   3.453   1.919   5.206
 1527SOL    HW2 5481   3.484   2.032   5.093
 1528SOL     OW 5482   4.459   6.972   3.452
 1528SOL    HW1 5483   4.493   6.879   3.442
 1528SOL    HW2 5484   4.452   6.996   3.549
 1529SOL     OW 5485   3.661   0.212   6.156
 1529SOL    HW1 5486   3.635   0.140   6.092
 1529SOL    HW2 5487   3.760   0.211   6.169
 1530SOL     OW 5488   2.880   6.585   2.106
 1530SOL    HW1 5489   2.808   6.585   2.175
 1530SOL    HW2 5490   2.922   6.494   2.101
 1531SOL     OW 5491   6.573   0.110   4.228
 1531SOL    HW1 5492   6.602   0.205   4.215
 1531SOL    HW2 5493   6.585   0.084   4.323
 1532SOL     OW 5494   3.433   2.228   5.345
 1532SOL    HW1 5495   3.475   2.299   5.289
 1532SOL    HW2 5496   3.440   2.140   5.299
 1533SOL     OW 5497   6.034   3.221   6.930
 1533SOL    HW1 5498   6.075   3.297   6.879
 1533SOL    HW2 5499   5.988   3.257   7.011
 1534SOL     OW 5500   0.739   5.883   0.855
 1534SOL    HW1 5501   0.646   5.898   0.889
 1534SOL    HW2 5502   0.789   5.969   0.854
 1535SOL     OW 5503   4.791   4.216   4.125
 1535SOL    HW1 5504   4.767   4.119   4.131
 1535SOL    HW2 5505   4.707   4.271   4.116
 1536SOL     OW 5506   2.706   5.810   4.927
 1536SOL    HW1 5507   2.640   5.765   4.866
 1536SOL    HW2 5508   2.799   5.781   4.902
 1537SOL     OW 5509   1.746   5.194   4.614
 1537SOL    HW1 5510   1.725   5.117   4.553
 1537SOL    HW2 5511   1.679   5.266   4.600
 1538SOL     OW 5512   2.446   5.009   0.241
 1538SOL    HW1 5513   2.473   5.096   0.281
 1538SOL    HW2 5514   2.354   4.986   0.271
 1539SOL     OW 5515   3.659   5.061   1.520
 1539SOL    HW1 5516   3.673   4.998   1.444
 1539SOL    HW2 5517   3.607   5.016   1.592
 1540SOL     OW 5518   0.792   0.229   5.026
 1540SOL    HW1 5519   0.782   0.146   5.080
 1540SOL    HW2 5520   0.839   0.208   4.940
 1541SOL     OW 5521   4.676   2.903   1.120
 1541SOL    HW1 5522   4.678   3.003   1.119
 1541SOL    HW2 5523   4.671   2.871   1.215
 1542SOL     OW 5524   0.352   6.250   1.529
 1542SOL    HW1 5525   0.424   6.188   1.498
 1542SOL    HW2 5526   0.343   6.244   1.628
 1543SOL     OW 5527   3.443   3.634   3.765
 1543SOL    HW1 5528   3.433   3.658   3.862
 1543SOL    HW2 5529   3.520   3.684   3.726
 1544SOL     OW 5530   3.372   4.002   2.488
 1544SOL    HW1 5531   3.425   3.917   2.488
 1544SOL    HW2 5532   3.410   4.065   2.555
 1545SOL     OW 5533   6.360   0.568   4.585
 1545SOL    HW1 5534   6.449   0.579   4.541
 1545SOL    HW2 5535   6.372   0.529   4.676
 1546SOL     OW 5536   6.470   6.069   5.949
 1546SOL    HW1 5537   6.554   6.034   5.908
 1546SOL    HW2 5538   6.490   6.153   6.000
 1547SOL     OW 5539   2.909   5.144   2.883
 1547SOL    HW1 5540   2.955   5.200   2.953
 1547SOL    HW2 5541   2.815   5.126   2.911
 1548SOL     OW 5542   4.569   4.489   4.952
 1548SOL    HW1 5543   4.584   4.498   4.854
 1548SOL    HW2 5544   4.481   4.529   4.977
 1549SOL     OW 5545   6.443   2.485   1.414
 1549SOL    HW1 5546   6.483   2.497   1.505
 1549SOL    HW2 5547   6.469   2.396   1.377
 1550SOL     OW 5548   1.737   6.218   4.505
 1550SOL    HW1 5549   1.754   6.260   4.416
 1550SOL    HW2 5550   1.822   6.179   4.540
 1551SOL     OW 5551   1.723   3.272   0.793
 1551SOL    HW1 5552   1.667   3.193   0.767
 1551SOL    HW2 5553   1.795   3.242   0.856
 1552SOL     OW 5554   1.303   0.847   1.085
 1552SOL    HW1 5555   1.233   0.851   1.014
 1552SOL    HW2 5556   1.260   0.819   1.172
 1553SOL     OW 5557   5.801   1.672   6.950
 1553SOL    HW1 5558   5.760   1.668   6.859
 1553SOL    HW2 5559   5.881   1.731   6.948
 1554SOL     OW 5560   4.100   1.717   2.331
 1554SOL    HW1 5561   4.106   1.786   2.403
 1554SOL    HW2 5562   4.088   1.762   2.243
 1555SOL     OW 5563   3.680   1.477   5.133
 1555SOL    HW1 5564   3.641   1.387   5.152
 1555SOL    HW2 5565   3.670   1.499   5.036
 1556SOL     OW 5566   3.810   0.273   0.758
 1556SOL    HW1 5567   3.788   0.181   0.789
 1556SOL    HW2 5568   3.863   0.320   0.829
 1557SOL     OW 5569   1.581   2.057   1.298
 1557SOL    HW1 5570   1.522   1.977   1.286
 1557SOL    HW2 5571   1.569   2.094   1.390
 1558SOL     OW 5572   6.190   3.341   5.390
 1558SOL    HW1 5573   6.115   3.330   5.455
 1558SOL    HW2 5574   6.174   3.422   5.334
 1559SOL     OW 5575   1.527   4.455   2.812
 1559SOL    HW1 5576   1.569   4.545   2.798
 1559SOL    HW2 5577   1.532   4.403   2.727
 1560SOL     OW 5578   3.899   1.708   1.383
 1560SOL    HW1 5579   3.967   1.730   1.313
 1560SOL    HW2 5580   3.809   1.700   1.341
 1561SOL     OW 5581   5.402   6.135   1.855
 1561SOL    HW1 5582   5.308   6.107   1.873
 1561SOL    HW2 5583   5.411   6.234   1.872
 1562SOL     OW 5584   3.079   7.004   2.139
 1562SOL    HW1 5585   3.041   0.004   2.050
 1562SOL    HW2 5586   3.152   0.046   2.161
 1563SOL     OW 5587   3.520   2.053   4.480
 1563SOL    HW1 5588   3.608   2.079   4.519
 1563SOL    HW2 5589   3.518   2.076   4.383
 1564SOL     OW 5590   0.856   2.035   2.441
 1564SOL    HW1 5591   0.945   1.993   2.422
 1564SOL    HW2 5592   0.819   2.075   2.357
 1565SOL     OW 5593   3.743   0.079   3.519
 1565SOL    HW1 5594   3.790   0.147   3.575
 1565SOL    HW2 5595   3.748   0.106   3.423
 1566SOL     OW 5596   4.637   4.303   3.010
 1566SOL    HW1 5597   4.678   4.276   3.097
 1566SOL    HW2 5598   4.600   4.222   2.964
 1567SOL     OW 5599   5.311   5.676   5.276
 1567SOL    HW1 5600   5.297   5.581   5.248
 1567SOL    HW2 5601   5.407   5.701   5.262
 1568SOL     OW 5602   2.114   6.447   2.652
 1568SOL    HW1 5603   2.210   6.436   2.625
 1568SOL    HW2 5604   2.103   6.535   2.699
 1569SOL     OW 5605   2.693   0.016   3.087
 1569SOL    HW1 5606   2.756   6.987   3.146
 1569SOL    HW2 5607   2.740   0.097   3.051
 1570SOL     OW 5608   3.358   0.086   0.334
 1570SOL    HW1 5609   3.341   7.010   0.328
 1570SOL    HW2 5610   3.437   0.110   0.277
 1571SOL     OW 5611   1.289   2.655   3.779
 1571SOL    HW1 5612   1.337   2.676   3.864
 1571SOL    HW2 5613   1.305   2.560   3.755
 1572SOL     OW 5614   1.595   5.422   1.699
 1572SOL    HW1 5615   1.615   5.449   1.793
 1572SOL    HW2 5616   1.504   5.455   1.674
 1573SOL     OW 5617   4.428   4.761   1.378
 1573SOL    HW1 5618   4.489   4.683   1.367
 1573SOL    HW2 5619   4.409   4.802   1.289
 1574SOL     OW 5620   6.618   3.167   2.178
 1574SOL    HW1 5621   6.657   3.244   2.128
 1574SOL    HW2 5622   6.629   3.083   2.125
 1575SOL     OW 5623   0.530   0.863   0.766
 1575SOL    HW1 5624   0.498   0.776   0.730
 1575SOL    HW2 5625   0.625   0.878   0.741
 1576SOL     OW 5626   0.546   6.048   1.755
 1576SOL    HW1 5627   0.645   6.035   1.755
 1576SOL    HW2 5628   0.525   6.143   1.733
 1577SOL     OW 5629   4.156   6.988   6.123
 1577SOL    HW1 5630   4.238   6.944   6.087
 1577SOL    HW2 5631   4.183   0.039   6.185
 1578SOL     OW 5632   4.459   0.936   0.385
 1578SOL    HW1 5633   4.514   0.881   0.448
 1578SOL    HW2 5634   4.366   0.945   0.422
 1579SOL     OW 5635   2.284   2.312   1.862
 1579SOL    HW1 5636   2.352   2.316   1.789
 1579SOL    HW2 5637   2.218   2.239   1.842
 1580SOL     OW 5638   3.375   4.026   2.912
 1580SOL    HW1 5639   3.380   4.125   2.901
 1580SOL    HW2 5640   3.467   3.989   2.922
 1581SOL     OW 5641   0.349   4.169   5.937
 1581SOL    HW1 5642   0.393   4.120   6.012
 1581SOL    HW2 5643   0.249   4.158   5.945
 1582SOL     OW 5644   4.575   6.415   5.901
 1582SOL    HW1 5645   4.631   6.498   5.904
 1582SOL    HW2 5646   4.569   6.376   5.992
 1583SOL     OW 5647   1.083   5.833   5.474
 1583SOL    HW1 5648   1.101   5.911   5.414
 1583SOL    HW2 5649   1.014   5.774   5.431
 1584SOL     OW 5650   0.676   5.230   6.527
 1584SOL    HW1 5651   0.762   5.210   6.575
 1584SOL    HW2 5652   0.657   5.328   6.531
 1585SOL     OW 5653   3.746   0.019   3.100
 1585SOL    HW1 5654   3.733   6.948   3.130
 1585SOL    HW2 5655   3.811   0.021   3.023
 1586SOL     OW 5656   2.981   5.649   4.274
 1586SOL    HW1 5657   2.933   5.569   4.238
 1586SOL    HW2 5658   2.920   5.701   4.333
 1587SOL     OW 5659   1.945   5.998   6.110
 1587SOL    HW1 5660   1.867   5.981   6.170
 1587SOL    HW2 5661   2.026   5.954   6.148
 1588SOL     OW 5662   6.348   0.039   2.035
 1588SOL    HW1 5663   6.357   0.136   2.017
 1588SOL    HW2 5664   6.340   0.023   2.134
 1589SOL     OW 5665   6.540   3.977   2.739
 1589SOL    HW1 5666   6.605   4.019   2.676
 1589SOL    HW2 5667   6.566   3.882   2.757
 1590SOL     OW 5668   6.739   1.955   3.693
 1590SOL    HW1 5669   6.740   1.905   3.779
 1590SOL    HW2 5670   6.709   2.049   3.709
 1591SOL     OW 5671   0.446   5.638   1.078
 1591SOL    HW1 5672   0.406   5.610   1.165
 1591SOL    HW2 5673   0.383   5.617   1.003
 1592SOL     OW 5674   1.639   4.335   6.752
 1592SOL    HW1 5675   1.574   4.306   6.822
 1592SOL    HW2 5676   1.666   4.430   6.769
 1593SOL     OW 5677   0.804   7.005   6.736
 1593SOL    HW1 5678   0.903   7.005   6.724
 1593SOL    HW2 5679   0.781   0.020   6.826
 1594SOL     OW 5680   6.955   0.384   1.606
 1594SOL    HW1 5681   6.919   0.301   1.564
 1594SOL    HW2 5682   0.003   0.360   1.673
 1595SOL     OW 5683   1.368   3.491   6.494
 1595SOL    HW1 5684   1.307   3.517   6.569
 1595SOL    HW2 5685   1.391   3.394   6.502
 1596SOL     OW 5686   5.838   4.433   2.186
 1596SOL    HW1 5687   5.894   4.377   2.247
 1596SOL    HW2 5688   5.809   4.516   2.234
 1597SOL     OW 5689   3.544   5.941   1.137
 1597SOL    HW1 5690   3.480   5.945   1.060
 1597SOL    HW2 5691   3.586   5.850   1.141
 1598SOL     OW 5692   1.543   5.784   0.135
 1598SOL    HW1 5693   1.593   5.799   0.050
 1598SOL    HW2 5694   1.481   5.706   0.124
 1599SOL     OW 5695   4.091   5.267   3.870
 1599SOL    HW1 5696   4.181   5.235   3.838
 1599SOL    HW2 5697   4.029   5.189   3.876
 1600SOL     OW 5698   3.031   0.411   2.802
 1600SOL    HW1 5699   3.128   0.410   2.829
 1600SOL    HW2 5700   2.981   0.475   2.860
 1601SOL     OW 5701   6.437   6.918   3.897
 1601SOL    HW1 5702   6.444   7.015   3.874
 1601SOL    HW2 5703   6.494   6.865   3.835
 1602SOL     OW 5704   4.254   5.151   4.209
 1602SOL    HW1 5705   4.203   5.227   4.250
 1602SOL    HW2 5706   4.240   5.068   4.264
 1603SOL     OW 5707   3.080   5.988   4.090
 1603SOL    HW1 5708   3.011   6.026   4.151
 1603SOL    HW2 5709   3.111   6.058   4.027
 1604SOL     OW 5710   3.545   4.895   2.234
 1604SOL    HW1 5711   3.544   4.835   2.154
 1604SOL    HW2 5712   3.632   4.883   2.283
 1605SOL     OW 5713   4.769   5.039   2.171
 1605SOL    HW1 5714   4.824   5.001   2.246
 1605SOL    HW2 5715   4.741   5.132   2.195
 1606SOL     OW 5716   4.395   6.498   4.261
 1606SOL    HW1 5717   4.410   6.399   4.253
 1606SOL    HW2 5718   4.419   6.528   4.353
 1607SOL     OW 5719   4.272   6.790   2.754
 1607SOL    HW1 5720   4.268   6.711   2.693
 1607SOL    HW2 5721   4.242   6.763   2.846
 1608SOL     OW 5722   6.749   0.737   2.936
 1608SOL    HW1 5723   6.691   0.802   2.887
 1608SOL    HW2 5724   6.720   0.732   3.031
 1609SOL     OW 5725   3.215   6.538   0.655
 1609SOL    HW1 5726   3.187   6.504   0.565
 1609SOL    HW2 5727   3.185   6.632   0.667
 1610SOL     OW 5728   3.874   6.546   0.010
 1610SOL    HW1 5729   3.958   6.558   0.064
 1610SOL    HW2 5730   3.887   6.585   6.941
 1611SOL     OW 5731   0.783   4.110   1.620
 1611SOL    HW1 5732   0.791   4.152   1.530
 1611SOL    HW2 5733   0.770   4.012   1.609
 1612SOL     OW 5734   3.098   5.898   1.079
 1612SOL    HW1 5735   3.072   5.887   0.983
 1612SOL    HW2 5736   3.015   5.914   1.134
 1613SOL     OW 5737   0.418   5.593   2.349
 1613SOL    HW1 5738   0.387   5.641   2.267
 1613SOL    HW2 5739   0.448   5.660   2.418
 1614SOL     OW 5740   5.366   2.819   6.745
 1614SOL    HW1 5741   5.345   2.775   6.832
 1614SOL    HW2 5742   5.408   2.752   6.684
 1615SOL     OW 5743   0.359   5.337   6.551
 1615SOL    HW1 5744   0.378   5.242   6.524
 1615SOL    HW2 5745   0.397   5.399   6.482
 1616SOL     OW 5746   3.329   1.086   5.403
 1616SOL    HW1 5747   3.348   0.987   5.398
 1616SOL    HW2 5748   3.382   1.125   5.479
 1617SOL     OW 5749   4.797   6.742   3.619
 1617SOL    HW1 5750   4.807   6.655   3.667
 1617SOL    HW2 5751   4.823   6.817   3.680
 1618SOL     OW 5752   2.567   5.901   2.998
 1618SOL    HW1 5753   2.479   5.863   3.025
 1618SOL    HW2 5754   2.610   5.946   3.076
 1619SOL     OW 5755   0.940   5.134   6.634
 1619SOL    HW1 5756   0.897   5.100   6.718
 1619SOL    HW2 5757   0.973   5.057   6.579
 1620SOL     OW 5758   3.274   5.168   0.774
 1620SOL    HW1 5759   3.306   5.079   0.806
 1620SOL    HW2 5760   3.269   5.232   0.851
 1621SOL     OW 5761   6.067   6.545   1.306
 1621SOL    HW1 5762   6.126   6.583   1.234
 1621SOL    HW2 5763   5.993   6.609   1.326
 1622SOL     OW 5764   1.135   3.851   4.967
 1622SOL    HW1 5765   1.107   3.837   5.062
 1622SOL    HW2 5766   1.226   3.813   4.954
 1623SOL     OW 5767   0.486   2.571   4.937
 1623SOL    HW1 5768   0.516   2.481   4.968
 1623SOL    HW2 5769   0.414   2.561   4.869
 1624SOL     OW 5770   3.987   1.224   0.400
 1624SOL    HW1 5771   3.953   1.269   0.483
 1624SOL    HW2 5772   3.964   1.126   0.404
 1625SOL     OW 5773   2.073   4.657   0.724
 1625SOL    HW1 5774   2.120   4.570   0.708
 1625SOL    HW2 5775   2.004   4.671   0.653
 1626SOL     OW 5776   3.219   2.142   1.211
 1626SOL    HW1 5777   3.180   2.234   1.214
 1626SOL    HW2 5778   3.205   2.097   1.300
 1627SOL     OW 5779   4.739   2.223   4.512
 1627SOL    HW1 5780   4.655   2.274   4.529
 1627SOL    HW2 5781   4.818   2.281   4.531
 1628SOL     OW 5782   4.905   5.919   6.376
 1628SOL    HW1 5783   4.840   5.936   6.302
 1628SOL    HW2 5784   4.927   6.005   6.421
 1629SOL     OW 5785   3.107   1.960   2.947
 1629SOL    HW1 5786   3.023   1.936   2.898
 1629SOL    HW2 5787   3.122   1.896   3.022
 1630SOL     OW 5788   0.169   4.117   0.352
 1630SOL    HW1 5789   0.229   4.156   0.423
 1630SOL    HW2 5790   0.112   4.046   0.393
 1631SOL     OW 5791   0.051   3.367   1.171
 1631SOL    HW1 5792   6.977   3.361   1.147
 1631SOL    HW2 5793   0.095   3.439   1.116
 1632SOL     OW 5794   5.786   4.607   2.761
 1632SOL    HW1 5795   5.742   4.669   2.826
 1632SOL    HW2 5796   5.852   4.658   2.706
 1633SOL     OW 5797   4.900   3.631   4.022
 1633SOL    HW1 5798   4.935   3.550   3.975
 1633SOL    HW2 5799   4.846   3.686   3.958
 1634SOL     OW 5800   4.654   0.844   4.574
 1634SOL    HW1 5801   4.640   0.802   4.664
 1634SOL    HW2 5802   4.633   0.778   4.503
 1635SOL     OW 5803   3.886   4.696   5.591
 1635SOL    HW1 5804   3.914   4.600   5.594
 1635SOL    HW2 5805   3.815   4.712   5.661
 1636SOL     OW 5806   4.648   5.741   1.450
 1636SOL    HW1 5807   4.628   5.815   1.515
 1636SOL    HW2 5808   4.709   5.675   1.492
 1637SOL     OW 5809   0.200   6.852   2.599
 1637SOL    HW1 5810   0.200   6.755   2.573
 1637SOL    HW2 5811   0.246   6.863   2.687
 1638SOL     OW 5812   6.694   3.209   1.839
 1638SOL    HW1 5813   6.670   3.304   1.823
 1638SOL    HW2 5814   6.616   3.150   1.816
 1639SOL     OW 5815   5.900   3.991   2.327
 1639SOL    HW1 5816   5.890   3.966   2.423
 1639SOL    HW2 5817   5.809   4.007   2.288
 1640SOL     OW 5818   6.210   0.194   0.910
 1640SOL    HW1 5819   6.247   0.287   0.918
 1640SOL    HW2 5820   6.216   0.148   0.999
 1641SOL     OW 5821   0.201   2.555   3.283
 1641SOL    HW1 5822   0.281   2.503   3.252
 1641SOL    HW2 5823   0.154   2.594   3.204
 1642SOL     OW 5824   5.565   2.774   5.736
 1642SOL    HW1 5825   5.548   2.731   5.824
 1642SOL    HW2 5826   5.663   2.791   5.726
 1643SOL     OW 5827   3.692   5.198   4.724
 1643SOL    HW1 5828   3.792   5.193   4.718
 1643SOL    HW2 5829   3.659   5.130   4.789
 1644SOL     OW 5830   5.990   3.180   0.690
 1644SOL    HW1 5831   6.045   3.173   0.772
 1644SOL    HW2 5832   6.044   3.221   0.616
 1645SOL     OW 5833   2.897   0.534   6.083
 1645SOL    HW1 5834   2.898   0.601   6.009
 1645SOL    HW2 5835   2.854   0.449   6.050
 1646SOL     OW 5836   0.968   5.819   6.917
 1646SOL    HW1 5837   0.993   5.912   6.889
 1646SOL    HW2 5838   1.051   5.765   6.929
 1647SOL     OW 5839   6.585   2.998   4.130
 1647SOL    HW1 5840   6.557   3.037   4.217
 1647SOL    HW2 5841   6.538   2.911   4.115
 1648SOL     OW 5842   4.955   5.960   0.690
 1648SOL    HW1 5843   4.884   5.981   0.757
 1648SOL    HW2 5844   4.955   6.031   0.619
 1649SOL     OW 5845   3.420   0.296   3.355
 1649SOL    HW1 5846   3.342   0.299   3.292
 1649SOL    HW2 5847   3.478   0.218   3.332
 1650SOL     OW 5848   2.124   4.990   6.323
 1650SOL    HW1 5849   2.115   4.940   6.237
 1650SOL    HW2 5850   2.188   4.943   6.383
 1651SOL     OW 5851   0.603   2.686   3.978
 1651SOL    HW1 5852   0.634   2.593   3.957
 1651SOL    HW2 5853   0.607   2.742   3.895
 1652SOL     OW 5854   1.427   2.767   1.484
 1652SOL    HW1 5855   1.503   2.760   1.420
 1652SOL    HW2 5856   1.462   2.778   1.577
 1653SOL     OW 5857   6.870   5.283   2.551
 1653SOL    HW1 5858   6.899   5.230   2.471
 1653SOL    HW2 5859   6.794   5.343   2.525
 1654SOL     OW 5860   0.456   2.925   1.683
 1654SOL    HW1 5861   0.488   3.001   1.628
 1654SOL    HW2 5862   0.495   2.839   1.648
 1655SOL     OW 5863   6.810   1.097   4.502
 1655SOL    HW1 5864   6.808   1.052   4.591
 1655SOL    HW2 5865   6.877   1.172   4.504
 1656SOL     OW 5866   2.252   5.591   4.428
 1656SOL    HW1 5867   2.235   5.674   4.374
 1656SOL    HW2 5868   2.175   5.528   4.418
 1657SOL     OW 5869   0.018   0.703   5.329
 1657SOL    HW1 5870   6.951   0.662   5.309
 1657SOL    HW2 5871   0.025   0.792   5.283
 1658SOL     OW 5872   6.686   6.897   0.368
 1658SOL    HW1 5873   6.643   6.865   0.453
 1658SOL    HW2 5874   6.642   6.982   0.339
 1659SOL     OW 5875   4.270   0.001   6.679
 1659SOL    HW1 5876   4.239   0.096   6.681
 1659SOL    HW2 5877   4.361   7.018   6.720
 1660SOL     OW 5878   1.400   6.472   2.100
 1660SOL    HW1 5879   1.368   6.378   2.084
 1660SOL    HW2 5880   1.383   6.527   2.019
 1661SOL     OW 5881   2.973   4.792   2.111
 1661SOL    HW1 5882   2.934   4.797   2.203
 1661SOL    HW2 5883   2.925   4.721   2.059
 1662SOL     OW 5884   6.774   1.571   5.647
 1662SOL    HW1 5885   6.799   1.649   5.590
 1662SOL    HW2 5886   6.851   1.548   5.707
 1663SOL     OW 5887   4.616   4.930   1.491
 1663SOL    HW1 5888   4.708   4.897   1.470
 1663SOL    HW2 5889   4.549   4.860   1.468
 1664SOL     OW 5890   0.775   0.199   5.549
 1664SOL    HW1 5891   0.786   0.298   5.557
 1664SOL    HW2 5892   0.832   0.164   5.475
 1665SOL     OW 5893   1.824   3.528   0.744
 1665SOL    HW1 5894   1.740   3.582   0.752
 1665SOL    HW2 5895   1.802   3.431   0.755
 1666SOL     OW 5896   5.355   0.234   6.554
 1666SOL    HW1 5897   5.302   0.160   6.513
 1666SOL    HW2 5898   5.436   0.197   6.598
 1667SOL     OW 5899   0.368   6.556   0.535
 1667SOL    HW1 5900   0.465   6.545   0.513
 1667SOL    HW2 5901   0.356   6.637   0.593
 1668SOL     OW 5902   5.134   4.767   4.077
 1668SOL    HW1 5903   5.068   4.840   4.060
 1668SOL    HW2 5904   5.202   4.798   4.143
 1669SOL     OW 5905   0.426   3.783   5.891
 1669SOL    HW1 5906   0.503   3.786   5.955
 1669SOL    HW2 5907   0.446   3.841   5.812
 1670SOL     OW 5908   1.974   4.630   6.075
 1670SOL    HW1 5909   2.029   4.589   6.002
 1670SOL    HW2 5910   2.012   4.720   6.098
 1671SOL     OW 5911   5.021   1.712   2.444
 1671SOL    HW1 5912   5.112   1.720   2.403
 1671SOL    HW2 5913   4.988   1.618   2.436
 1672SOL     OW 5914   0.748   3.145   0.249
 1672SOL    HW1 5915   0.773   3.049   0.258
 1672SOL    HW2 5916   0.824   3.196   0.209
 1673SOL     OW 5917   2.305   1.691   4.310
 1673SOL    HW1 5918   2.340   1.598   4.324
 1673SOL    HW2 5919   2.208   1.686   4.286
 1674SOL     OW 5920   5.077   3.054   2.265
 1674SOL    HW1 5921   5.008   2.984   2.283
 1674SOL    HW2 5922   5.157   3.012   2.223
 1675SOL     OW 5923   5.661   0.793   1.206
 1675SOL    HW1 5924   5.691   0.884   1.233
 1675SOL    HW2 5925   5.704   0.768   1.119
 1676SOL     OW 5926   1.831   2.406   2.922
 1676SOL    HW1 5927   1.824   2.474   2.994
 1676SOL    HW2 5928   1.922   2.365   2.923
 1677SOL     OW 5929   3.609   3.702   2.876
 1677SOL    HW1 5930   3.627   3.610   2.840
 1677SOL    HW2 5931   3.565   3.695   2.965
 1678SOL     OW 5932   0.546   6.361   0.750
 1678SOL    HW1 5933   0.528   6.437   0.687
 1678SOL    HW2 5934   0.637   6.324   0.732
 1679SOL     OW 5935   1.580   1.550   5.407
 1679SOL    HW1 5936   1.672   1.523   5.436
 1679SOL    HW2 5937   1.545   1.621   5.468
 1680SOL     OW 5938   5.266   2.784   4.545
 1680SOL    HW1 5939   5.311   2.695   4.539
 1680SOL    HW2 5940   5.317   2.851   4.491
 1681SOL     OW 5941   1.609   5.783   3.806
 1681SOL    HW1 5942   1.687   5.820   3.756
 1681SOL    HW2 5943   1.586   5.693   3.769
 1682SOL     OW 5944   3.009   0.134   5.397
 1682SOL    HW1 5945   2.964   0.049   5.372
 1682SOL    HW2 5946   3.106   0.128   5.377
 1683SOL     OW 5947   5.954   5.071   2.681
 1683SOL    HW1 5948   5.962   5.159   2.634
 1683SOL    HW2 5949   5.917   5.086   2.773
 1684SOL     OW 5950   1.749   4.578   1.647
 1684SOL    HW1 5951   1.719   4.486   1.672
 1684SOL    HW2 5952   1.808   4.615   1.719
 1685SOL     OW 5953   1.241   1.574   5.953
 1685SOL    HW1 5954   1.315   1.605   5.893
 1685SOL    HW2 5955   1.153   1.586   5.905
 1686SOL     OW 5956   4.868   5.879   3.853
 1686SOL    HW1 5957   4.873   5.979   3.859
 1686SOL    HW2 5958   4.870   5.852   3.757
 1687SOL     OW 5959   0.053   3.660   2.513
 1687SOL    HW1 5960   0.100   3.727   2.455
 1687SOL    HW2 5961   0.102   3.651   2.600
 1688SOL     OW 5962   2.011   2.397   3.352
 1688SOL    HW1 5963   2.019   2.468   3.283
 1688SOL    HW2 5964   2.100   2.383   3.396
 1689SOL     OW 5965   6.400   1.260   2.258
 1689SOL    HW1 5966   6.466   1.312   2.203
 1689SOL    HW2 5967   6.387   1.170   2.219
 1690SOL     OW 5968   0.565   3.853   4.010
 1690SOL    HW1 5969   0.581   3.808   4.098
 1690SOL    HW2 5970   0.559   3.952   4.023
 1691SOL     OW 5971   4.868   3.205   4.551
 1691SOL    HW1 5972   4.851   3.168   4.642
 1691SOL    HW2 5973   4.814   3.154   4.484
 1692SOL     OW 5974   5.962   5.176   2.198
 1692SOL    HW1 5975   5.921   5.096   2.154
 1692SOL    HW2 5976   6.062   5.166   2.197
 1693SOL     OW 5977   6.937   1.461   5.372
 1693SOL    HW1 5978   0.012   1.478   5.356
 1693SOL    HW2 5979   6.887   1.548   5.367
 1694SOL     OW 5980   6.202   1.089   4.641
 1694SOL    HW1 5981   6.132   1.082   4.569
 1694SOL    HW2 5982   6.293   1.084   4.599
 1695SOL     OW 5983   3.967   0.653   0.006
 1695SOL    HW1 5984   3.922   0.727   0.055
 1695SOL    HW2 5985   3.915   0.630   6.947
 1696SOL     OW 5986   4.198   5.442   0.421
 1696SOL    HW1 5987   4.266   5.491   0.367
 1696SOL    HW2 5988   4.215   5.344   0.415
 1697SOL     OW 5989   6.045   2.345   1.127
 1697SOL    HW1 5990   5.985   2.272   1.096
 1697SOL    HW2 5991   5.990   2.424   1.156
 1698SOL     OW 5992   3.560   1.088   1.999
 1698SOL    HW1 5993   3.644   1.043   1.971
 1698SOL    HW2 5994   3.514   1.034   2.069
 1699SOL     OW 5995   2.927   1.277   6.558
 1699SOL    HW1 5996   2.938   1.271   6.657
 1699SOL    HW2 5997   2.965   1.194   6.515
 1700SOL     OW 5998   5.759   3.584   3.629
 1700SOL    HW1 5999   5.823   3.587   3.553
 1700SOL    HW2 6000   5.666   3.600   3.595
 1701SOL     OW 6001   6.611   4.734   4.747
 1701SOL    HW1 6002   6.666   4.653   4.728
 1701SOL    HW2 6003   6.548   4.750   4.671
 1702SOL     OW 6004   1.980   1.661   6.273
 1702SOL    HW1 6005   1.973   1.760   6.260
 1702SOL    HW2 6006   2.077   1.634   6.274
 1703SOL     OW 6007   3.069   1.258   6.088
 1703SOL    HW1 6008   2.994   1.324   6.084
 1703SOL    HW2 6009   3.075   1.209   6.001
 1704SOL     OW 6010   2.481   1.674   0.345
 1704SOL    HW1 6011   2.457   1.590   0.295
 1704SOL    HW2 6012   2.459   1.754   0.289
 1705SOL     OW 6013   3.746   1.779   2.058
 1705SOL    HW1 6014   3.750   1.862   2.003
 1705SOL    HW2 6015   3.659   1.733   2.043
 1706SOL     OW 6016   4.526   1.976   0.853
 1706SOL    HW1 6017   4.583   1.938   0.779
 1706SOL    HW2 6018   4.450   2.027   0.813
 1707SOL     OW 6019   4.905   1.799   2.693
 1707SOL    HW1 6020   4.942   1.766   2.605
 1707SOL    HW2 6021   4.835   1.868   2.676
 1708SOL     OW 6022   3.068   5.347   2.165
 1708SOL    HW1 6023   2.983   5.301   2.138
 1708SOL    HW2 6024   3.139   5.329   2.098
 1709SOL     OW 6025   4.898   5.691   0.697
 1709SOL    HW1 6026   4.892   5.791   0.690
 1709SOL    HW2 6027   4.959   5.657   0.624
 1710SOL     OW 6028   4.352   5.305   3.327
 1710SOL    HW1 6029   4.321   5.358   3.406
 1710SOL    HW2 6030   4.369   5.366   3.250
 1711SOL     OW 6031   3.612   6.290   5.762
 1711SOL    HW1 6032   3.708   6.261   5.760
 1711SOL    HW2 6033   3.586   6.315   5.855
 1712SOL     OW 6034   0.407   2.149   4.628
 1712SOL    HW1 6035   0.358   2.198   4.556
 1712SOL    HW2 6036   0.341   2.109   4.691
 1713SOL     OW 6037   3.804   0.614   2.968
 1713SOL    HW1 6038   3.893   0.658   2.952
 1713SOL    HW2 6039   3.735   0.657   2.911
 1714SOL     OW 6040   3.889   2.647   0.006
 1714SOL    HW1 6041   3.903   2.612   6.936
 1714SOL    HW2 6042   3.977   2.674   0.045
 1715SOL     OW 6043   1.309   6.229   2.035
 1715SOL    HW1 6044   1.280   6.134   2.034
 1715SOL    HW2 6045   1.229   6.289   2.040
 1716SOL     OW 6046   5.118   0.684   4.203
 1716SOL    HW1 6047   5.141   0.587   4.213
 1716SOL    HW2 6048   5.167   0.738   4.271
 1717SOL     OW 6049   4.417   6.529   5.315
 1717SOL    HW1 6050   4.515   6.509   5.306
 1717SOL    HW2 6051   4.381   6.485   5.397
 1718SOL     OW 6052   2.197   2.172   2.215
 1718SOL    HW1 6053   2.160   2.253   2.168
 1718SOL    HW2 6054   2.274   2.136   2.163
 1719SOL     OW 6055   1.288   4.368   1.014
 1719SOL    HW1 6056   1.340   4.291   1.050
 1719SOL    HW2 6057   1.296   4.446   1.076
 1720SOL     OW 6058   6.852   2.801   5.710
 1720SOL    HW1 6059   6.835   2.862   5.633
 1720SOL    HW2 6060   6.900   2.719   5.677
 1721SOL     OW 6061   1.365   0.936   1.944
 1721SOL    HW1 6062   1.410   0.974   2.025
 1721SOL    HW2 6063   1.325   0.847   1.968
 1722SOL     OW 6064   3.479   2.103   2.749
 1722SOL    HW1 6065   3.550   2.107   2.679
 1722SOL    HW2 6066   3.397   2.148   2.716
 1723SOL     OW 6067   4.963   2.113   6.976
 1723SOL    HW1 6068   4.865   2.124   6.991
 1723SOL    HW2 6069   5.013   2.136   0.038
 1724SOL     OW 6070   6.175   2.470   1.352
 1724SOL    HW1 6071   6.141   2.422   1.271
 1724SOL    HW2 6072   6.275   2.474   1.348
 1725SOL     OW 6073   2.124   4.754   6.709
 1725SOL    HW1 6074   2.167   4.807   6.783
 1725SOL    HW2 6075   2.128   4.656   6.732
 1726SOL     OW 6076   5.529   4.774   3.814
 1726SOL    HW1 6077   5.526   4.743   3.909
 1726SOL    HW2 6078   5.621   4.808   3.793
 1727SOL     OW 6079   2.968   3.564   3.341
 1727SOL    HW1 6080   2.984   3.645   3.284
 1727SOL    HW2 6081   2.972   3.590   3.438
 1728SOL     OW 6082   4.864   3.768   5.714
 1728SOL    HW1 6083   4.766   3.784   5.701
 1728SOL    HW2 6084   4.911   3.774   5.626
 1729SOL     OW 6085   1.947   3.798   1.845
 1729SOL    HW1 6086   1.885   3.760   1.914
 1729SOL    HW2 6087   2.016   3.730   1.822
 1730SOL     OW 6088   2.639   5.186   5.480
 1730SOL    HW1 6089   2.698   5.153   5.553
 1730SOL    HW2 6090   2.560   5.126   5.471
 1731SOL     OW 6091   5.542   4.645   4.068
 1731SOL    HW1 6092   5.601   4.597   4.133
 1731SOL    HW2 6093   5.458   4.593   4.054
 1732SOL     OW 6094   1.872   4.523   6.882
 1732SOL    HW1 6095   1.970   4.517   6.864
 1732SOL    HW2 6096   1.858   4.574   6.967
 1733SOL     OW 6097   2.722   3.868   0.332
 1733SOL    HW1 6098   2.792   3.937   0.348
 1733SOL    HW2 6099   2.642   3.886   0.391
 1734SOL     OW 6100   6.912   3.018   1.370
 1734SOL    HW1 6101   6.997   3.006   1.319
 1734SOL    HW2 6102   6.877   3.111   1.354
 1735SOL     OW 6103   4.573   5.043   6.655
 1735SOL    HW1 6104   4.649   5.061   6.593
 1735SOL    HW2 6105   4.498   5.107   6.635
 1736SOL     OW 6106   4.553   3.399   1.470
 1736SOL    HW1 6107   4.516   3.429   1.382
 1736SOL    HW2 6108   4.637   3.449   1.489
 1737SOL     OW 6109   4.746   1.346   4.519
 1737SOL    HW1 6110   4.724   1.441   4.541
 1737SOL    HW2 6111   4.759   1.294   4.603
 1738SOL     OW 6112   1.444   3.904   4.005
 1738SOL    HW1 6113   1.453   3.891   4.104
 1738SOL    HW2 6114   1.529   3.942   3.968
 1739SOL     OW 6115   5.627   0.162   3.809
 1739SOL    HW1 6116   5.541   0.174   3.858
 1739SOL    HW2 6117   5.614   0.096   3.735
 1740SOL     OW 6118   6.920   1.987   4.693
 1740SOL    HW1 6119   7.013   1.965   4.723
 1740SOL    HW2 6120   6.894   1.928   4.616
 1741SOL     OW 6121   1.560   1.847   4.627
 1741SOL    HW1 6122   1.638   1.846   4.689
 1741SOL    HW2 6123   1.569   1.925   4.564
 1742SOL     OW 6124   6.280   6.121   6.304
 1742SOL    HW1 6125   6.323   6.168   6.382
 1742SOL    HW2 6126   6.222   6.186   6.254
 1743SOL     OW 6127   1.168   1.011   3.162
 1743SOL    HW1 6128   1.099   1.008   3.234
 1743SOL    HW2 6129   1.252   1.051   3.199
 1744SOL     OW 6130   4.933   2.661   3.444
 1744SOL    HW1 6131   4.840   2.682   3.412
 1744SOL    HW2 6132   4.998   2.723   3.400
 1745SOL     OW 6133   6.329   6.412   1.003
 1745SOL    HW1 6134   6.288   6.374   1.085
 1745SOL    HW2 6135   6.429   6.408   1.010
 1746SOL     OW 6136   1.871   3.524   3.389
 1746SOL    HW1 6137   1.825   3.541   3.302
 1746SOL    HW2 6138   1.965   3.558   3.384
 1747SOL     OW 6139   3.239   1.403   2.351
 1747SOL    HW1 6140   3.245   1.482   2.413
 1747SOL    HW2 6141   3.267   1.431   2.260
 1748SOL     OW 6142   6.888   1.697   4.811
 1748SOL    HW1 6143   6.947   1.739   4.879
 1748SOL    HW2 6144   6.792   1.713   4.835
 1749SOL     OW 6145   2.914   5.637   0.851
 1749SOL    HW1 6146   2.970   5.572   0.800
 1749SOL    HW2 6147   2.913   5.610   0.948
 1750SOL     OW 6148   4.334   0.919   5.320
 1750SOL    HW1 6149   4.249   0.866   5.323
 1750SOL    HW2 6150   4.384   0.906   5.406
 1751SOL     OW 6151   6.026   2.787   5.195
 1751SOL    HW1 6152   6.048   2.796   5.292
 1751SOL    HW2 6153   6.020   2.877   5.153
 1752SOL     OW 6154   6.495   1.044   1.276
 1752SOL    HW1 6155   6.509   1.124   1.218
 1752SOL    HW2 6156   6.417   1.059   1.336
 1753SOL     OW 6157   6.551   1.771   1.514
 1753SOL    HW1 6158   6.484   1.742   1.582
 1753SOL    HW2 6159   6.616   1.834   1.556
 1754SOL     OW 6160   3.054   6.219   5.791
 1754SOL    HW1 6161   2.975   6.231   5.730
 1754SOL    HW2 6162   3.114   6.148   5.753
 1755SOL     OW 6163   6.170   0.206   5.205
 1755SOL    HW1 6164   6.163   0.165   5.113
 1755SOL    HW2 6165   6.079   0.207   5.247
 1756SOL     OW 6166   5.773   0.254   6.189
 1756SOL    HW1 6167   5.800   0.292   6.277
 1756SOL    HW2 6168   5.819   0.166   6.175
 1757SOL     OW 6169   2.526   5.656   4.759
 1757SOL    HW1 6170   2.557   5.667   4.664
 1757SOL    HW2 6171   2.466   5.577   4.765
 1758SOL     OW 6172   1.747   6.764   5.067
 1758SOL    HW1 6173   1.744   6.783   5.165
 1758SOL    HW2 6174   1.783   6.672   5.052
 1759SOL     OW 6175   1.272   6.381   0.347
 1759SOL    HW1 6176   1.219   6.337   0.274
 1759SOL    HW2 6177   1.223   6.371   0.434
 1760SOL     OW 6178   6.363   0.602   5.239
 1760SOL    HW1 6179   6.459   0.606   5.266
 1760SOL    HW2 6180   6.311   0.669   5.293
 1761SOL     OW 6181   6.953   2.061   1.111
 1761SOL    HW1 6182   6.952   1.965   1.140
 1761SOL    HW2 6183   6.954   2.120   1.191
 1762SOL     OW 6184   0.446   1.446   5.433
 1762SOL    HW1 6185   0.507   1.371   5.459
 1762SOL    HW2 6186   0.361   1.408   5.396
 1763SOL     OW 6187   1.069   3.616   4.536
 1763SOL    HW1 6188   1.125   3.538   4.563
 1763SOL    HW2 6189   1.015   3.647   4.614
 1764SOL     OW 6190   1.639   4.419   2.177
 1764SOL    HW1 6191   1.608   4.325   2.161
 1764SOL    HW2 6192   1.568   4.482   2.146
 1765SOL     OW 6193   5.571   3.186   1.899
 1765SOL    HW1 6194   5.619   3.115   1.848
 1765SOL    HW2 6195   5.608   3.276   1.874
 1766SOL     OW 6196   4.199   4.732   4.078
 1766SOL    HW1 6197   4.114   4.782   4.093
 1766SOL    HW2 6198   4.261   4.746   4.156
 1767SOL     OW 6199   6.994   5.100   2.314
 1767SOL    HW1 6200   6.941   5.016   2.299
 1767SOL    HW2 6201   6.963   5.171   2.251
 1768SOL     OW 6202   4.533   6.551   2.281
 1768SOL    HW1 6203   4.529   6.582   2.376
 1768SOL    HW2 6204   4.472   6.608   2.225
 1769SOL     OW 6205   5.733   6.994   6.539
 1769SOL    HW1 6206   5.816   0.024   6.556
 1769SOL    HW2 6207   5.660   0.003   6.601
 1770SOL     OW 6208   1.708   4.521   6.050
 1770SOL    HW1 6209   1.808   4.527   6.046
 1770SOL    HW2 6210   1.682   4.446   6.111
 1771SOL     OW 6211   0.953   3.673   6.677
 1771SOL    HW1 6212   1.051   3.667   6.697
 1771SOL    HW2 6213   0.938   3.742   6.606
 1772SOL     OW 6214   2.923   4.888   4.152
 1772SOL    HW1 6215   2.883   4.855   4.238
 1772SOL    HW2 6216   3.020   4.906   4.165
 1773SOL     OW 6217   0.426   0.175   5.269
 1773SOL    HW1 6218   0.375   0.089   5.276
 1773SOL    HW2 6219   0.433   0.202   5.173
 1774SOL     OW 6220   5.813   5.838   1.255
 1774SOL    HW1 6221   5.740   5.821   1.321
 1774SOL    HW2 6222   5.772   5.861   1.166
 1775SOL     OW 6223   1.598   5.604   6.682
 1775SOL    HW1 6224   1.555   5.514   6.679
 1775SOL    HW2 6225   1.570   5.657   6.602
 1776SOL     OW 6226   4.168   1.236   5.553
 1776SOL    HW1 6227   4.230   1.201   5.484
 1776SOL    HW2 6228   4.216   1.305   5.609
 1777SOL     OW 6229   4.417   6.417   0.039
 1777SOL    HW1 6230   4.404   6.513   0.013
 1777SOL    HW2 6231   4.333   6.381   0.078
 1778SOL     OW 6232   6.012   0.943   3.807
 1778SOL    HW1 6233   6.054   0.884   3.738
 1778SOL    HW2 6234   5.913   0.943   3.796
 1779SOL     OW 6235   5.742   6.672   4.104
 1779SOL    HW1 6236   5.790   6.748   4.060
 1779SOL    HW2 6237   5.703   6.703   4.190
 1780SOL     OW 6238   1.883   5.573   5.138
 1780SOL    HW1 6239   1.907   5.535   5.048
 1780SOL    HW2 6240   1.921   5.665   5.146
 1781SOL     OW 6241   4.371   0.411   3.939
 1781SOL    HW1 6242   4.388   0.497   3.986
 1781SOL    HW2 6243   4.448   0.389   3.880
 1782SOL     OW 6244   1.448   1.810   2.815
 1782SOL    HW1 6245   1.426   1.765   2.901
 1782SOL    HW2 6246   1.378   1.789   2.747
 1783SOL     OW 6247   1.693   4.075   5.882
 1783SOL    HW1 6248   1.789   4.056   5.861
 1783SOL    HW2 6249   1.636   4.043   5.806
 1784SOL     OW 6250   2.430   0.788   1.003
 1784SOL    HW1 6251   2.470   0.703   0.968
 1784SOL    HW2 6252   2.503   0.849   1.035
 1785SOL     OW 6253   1.073   6.648   4.674
 1785SOL    HW1 6254   1.123   6.601   4.600
 1785SOL    HW2 6255   1.126   6.727   4.705
 1786SOL     OW 6256   1.524   5.960   0.361
 1786SOL    HW1 6257   1.582   6.041   0.359
 1786SOL    HW2 6258   1.531   5.912   0.273
 1787SOL     OW 6259   1.977   3.506   5.604
 1787SOL    HW1 6260   2.023   3.434   5.656
 1787SOL    HW2 6261   2.009   3.505   5.510
 1788SOL     OW 6262   4.686   4.072   0.650
 1788SOL    HW1 6263   4.711   4.020   0.569
 1788SOL    HW2 6264   4.750   4.147   0.663
 1789SOL     OW 6265   6.546   3.969   1.778
 1789SOL    HW1 6266   6.534   3.927   1.868
 1789SOL    HW2 6267   6.460   4.012   1.750
 1790SOL     OW 6268   2.700   2.336   4.249
 1790SOL    HW1 6269   2.746   2.340   4.160
 1790SOL    HW2 6270   2.640   2.416   4.258
 1791SOL     OW 6271   6.117   0.153   3.824
 1791SOL    HW1 6272   6.142   0.105   3.907
 1791SOL    HW2 6273   6.118   0.089   3.746
 1792SOL     OW 6274   6.502   1.570   5.419
 1792SOL    HW1 6275   6.403   1.581   5.424
 1792SOL    HW2 6276   6.542   1.580   5.510
 1793SOL     OW 6277   0.084   1.193   5.532
 1793SOL    HW1 6278   0.111   1.149   5.619
 1793SOL    HW2 6279   0.016   1.136   5.487
 1794SOL     OW 6280   0.045   0.418   6.365
 1794SOL    HW1 6281   6.989   0.405   6.305
 1794SOL    HW2 6282   0.014   0.454   6.453
 1795SOL     OW 6283   6.028   4.660   0.178
 1795SOL    HW1 6284   6.100   4.677   0.111
 1795SOL    HW2 6285   6.030   4.564   0.205
 1796SOL     OW 6286   1.024   6.978   5.735
 1796SOL    HW1 6287   1.023   0.054   5.753
 1796SOL    HW2 6288   0.936   6.950   5.697
 1797SOL     OW 6289   2.314   6.225   4.796
 1797SOL    HW1 6290   2.313   6.154   4.725
 1797SOL    HW2 6291   2.358   6.190   4.878
 1798SOL     OW 6292   3.161   3.771   5.012
 1798SOL    HW1 6293   3.235   3.803   4.953
 1798SOL    HW2 6294   3.085   3.837   5.009
 1799SOL     OW 6295   3.298   1.026   0.195
 1799SOL    HW1 6296   3.200   1.043   0.181
 1799SOL    HW2 6297   3.349   1.110   0.173
 1800SOL     OW 6298   5.451   3.348   4.413
 1800SOL    HW1 6299   5.421   3.295   4.334
 1800SOL    HW2 6300   5.496   3.286   4.478
 1801SOL     OW 6301   1.077   1.575   2.359
 1801SOL    HW1 6302   1.161   1.627   2.342
 1801SOL    HW2 6303   0.999   1.625   2.321
 1802SOL     OW 6304   6.425   4.682   3.586
 1802SOL    HW1 6305   6.493   4.654   3.518
 1802SOL    HW2 6306   6.467   4.680   3.677
 1803SOL     OW 6307   0.873   6.427   2.825
 1803SOL    HW1 6308   0.953   6.437   2.884
 1803SOL    HW2 6309   0.900   6.443   2.730
 1804SOL     OW 6310   2.558   3.293   6.147
 1804SOL    HW1 6311   2.613   3.273   6.066
 1804SOL    HW2 6312   2.543   3.391   6.153
 1805SOL     OW 6313   0.226   6.238   6.006
 1805SOL    HW1 6314   0.199   6.331   5.982
 1805SOL    HW2 6315   0.165   6.173   5.961
 1806SOL     OW 6316   6.865   2.140   1.819
 1806SOL    HW1 6317   6.917   2.220   1.790
 1806SOL    HW2 6318   6.921   2.083   1.878
 1807SOL     OW 6319   6.401   3.743   1.898
 1807SOL    HW1 6320   6.353   3.741   1.986
 1807SOL    HW2 6321   6.341   3.781   1.828
 1808SOL     OW 6322   5.628   2.009   5.766
 1808SOL    HW1 6323   5.582   2.064   5.836
 1808SOL    HW2 6324   5.584   2.024   5.677
 1809SOL     OW 6325   3.764   2.029   5.275
 1809SOL    HW1 6326   3.670   2.018   5.244
 1809SOL    HW2 6327   3.797   1.942   5.312
 1810SOL     OW 6328   0.678   6.786   4.165
 1810SOL    HW1 6329   0.603   6.829   4.115
 1810SOL    HW2 6330   0.743   6.747   4.101
 1811SOL     OW 6331   4.029   5.605   2.670
 1811SOL    HW1 6332   4.021   5.516   2.715
 1811SOL    HW2 6333   4.066   5.593   2.578
 1812SOL     OW 6334   4.901   7.010   5.606
 1812SOL    HW1 6335   4.808   6.992   5.640
 1812SOL    HW2 6336   4.964   6.943   5.645
 1813SOL     OW 6337   4.487   4.444   2.665
 1813SOL    HW1 6338   4.460   4.468   2.572
 1813SOL    HW2 6339   4.487   4.345   2.676
 1814SOL     OW 6340   0.628   6.570   0.475
 1814SOL    HW1 6341   0.720   6.544   0.446
 1814SOL    HW2 6342   0.616   6.668   0.466
 1815SOL     OW 6343   5.687   6.126   1.820
 1815SOL    HW1 6344   5.717   6.179   1.740
 1815SOL    HW2 6345   5.764   6.075   1.857
 1816SOL     OW 6346   4.118   5.635   5.868
 1816SOL    HW1 6347   4.119   5.559   5.933
 1816SOL    HW2 6348   4.027   5.675   5.864
 1817SOL     OW 6349   1.551   1.605   3.766
 1817SOL    HW1 6350   1.555   1.549   3.849
 1817SOL    HW2 6351   1.631   1.588   3.710
 1818SOL     OW 6352   2.477   6.592   7.003
 1818SOL    HW1 6353   2.531   6.612   6.921
 1818SOL    HW2 6354   2.397   6.537   6.977
 1819SOL     OW 6355   1.958   4.738   3.143
 1819SOL    HW1 6356   2.014   4.744   3.060
 1819SOL    HW2 6357   1.955   4.643   3.174
 1820SOL     OW 6358   3.453   0.606   3.947
 1820SOL    HW1 6359   3.500   0.607   3.859
 1820SOL    HW2 6360   3.412   0.696   3.964
 1821SOL     OW 6361   4.697   1.964   2.624
 1821SOL    HW1 6362   4.665   2.041   2.569
 1821SOL    HW2 6363   4.621   1.929   2.679
 1822SOL     OW 6364   0.474   3.317   2.235
 1822SOL    HW1 6365   0.510   3.308   2.143
 1822SOL    HW2 6366   0.374   3.319   2.232
 1823SOL     OW 6367   3.842   6.369   2.504
 1823SOL    HW1 6368   3.874   6.280   2.472
 1823SOL    HW2 6369   3.820   6.426   2.425
 1824SOL     OW 6370   4.067   3.489   1.081
 1824SOL    HW1 6371   4.094   3.437   1.162
 1824SOL    HW2 6372   4.149   3.514   1.028
 1825SOL     OW 6373   1.981   1.789   5.142
 1825SOL    HW1 6374   1.897   1.842   5.130
 1825SOL    HW2 6375   2.019   1.808   5.232
 1826SOL     OW 6376   3.390   2.269   1.770
 1826SOL    HW1 6377   3.479   2.296   1.805
 1826SOL    HW2 6378   3.358   2.335   1.703
 1827SOL     OW 6379   5.870   4.941   0.616
 1827SOL    HW1 6380   5.849   4.846   0.638
 1827SOL    HW2 6381   5.969   4.955   0.619
 1828SOL     OW 6382   1.601   3.492   5.442
 1828SOL    HW1 6383   1.670   3.440   5.392
 1828SOL    HW2 6384   1.628   3.499   5.538
 1829SOL     OW 6385   2.952   1.138   3.695
 1829SOL    HW1 6386   2.885   1.196   3.742
 1829SOL    HW2 6387   3.036   1.136   3.749
 1830SOL     OW 6388   5.942   6.660   4.584
 1830SOL    HW1 6389   5.869   6.721   4.614
 1830SOL    HW2 6390   5.907   6.567   4.576
 1831SOL     OW 6391   4.626   5.587   2.790
 1831SOL    HW1 6392   4.556   5.649   2.826
 1831SOL    HW2 6393   4.666   5.625   2.707
 1832SOL     OW 6394   2.602   2.942   0.813
 1832SOL    HW1 6395   2.681   2.901   0.858
 1832SOL    HW2 6396   2.526   2.877   0.812
 1833SOL     OW 6397   4.891   0.302   1.312
 1833SOL    HW1 6398   4.874   0.296   1.410
 1833SOL    HW2 6399   4.889   0.210   1.271
 1834SOL     OW 6400   2.493   2.808   6.878
 1834SOL    HW1 6401   2.592   2.821   6.865
 1834SOL    HW2 6402   2.444   2.887   6.843
 1835SOL     OW 6403   0.052   5.065   1.358
 1835SOL    HW1 6404   7.022   5.149   1.371
 1835SOL    HW2 6405   0.142   5.075   1.399
 1836SOL     OW 6406   5.443   2.251   1.544
 1836SOL    HW1 6407   5.387   2.323   1.584
 1836SOL    HW2 6408   5.468   2.185   1.615
 1837SOL     OW 6409   3.051   1.738   6.259
 1837SOL    HW1 6410   3.060   1.657   6.317
 1837SOL    HW2 6411   2.978   1.796   6.294
 1838SOL     OW 6412   5.996   1.014   0.693
 1838SOL    HW1 6413   6.026   1.103   0.659
 1838SOL    HW2 6414   5.938   1.027   0.773
 1839SOL     OW 6415   5.571   1.500   6.689
 1839SOL    HW1 6416   5.532   1.477   6.778
 1839SOL    HW2 6417   5.650   1.442   6.671
 1840SOL     OW 6418   3.992   0.104   3.264
 1840SOL    HW1 6419   4.009   0.133   3.358
 1840SOL    HW2 6420   3.897   0.122   3.240
 1841SOL     OW 6421   2.007   1.576   2.051
 1841SOL    HW1 6422   1.954   1.534   2.124
 1841SOL    HW2 6423   2.090   1.617   2.089
 1842SOL     OW 6424   1.598   5.319   0.402
 1842SOL    HW1 6425   1.560   5.303   0.310
 1842SOL    HW2 6426   1.696   5.300   0.402
 1843SOL     OW 6427   3.263   1.287   4.370
 1843SOL    HW1 6428   3.171   1.323   4.385
 1843SOL    HW2 6429   3.257   1.201   4.319
 1844SOL     OW 6430   5.241   1.245   6.475
 1844SOL    HW1 6431   5.338   1.270   6.478
 1844SOL    HW2 6432   5.186   1.328   6.462
 1845SOL     OW 6433   1.760   1.508   3.182
 1845SOL    HW1 6434   1.769   1.602   3.151
 1845SOL    HW2 6435   1.688   1.502   3.251
 1846SOL     OW 6436   4.493   1.290   2.469
 1846SOL    HW1 6437   4.413   1.245   2.428
 1846SOL    HW2 6438   4.496   1.270   2.567
 1847SOL     OW 6439   2.124   0.053   4.950
 1847SOL    HW1 6440   2.124   0.131   4.887
 1847SOL    HW2 6441   2.031   0.037   4.983
 1848SOL     OW 6442   2.172   5.819   4.248
 1848SOL    HW1 6443   2.088   5.772   4.220
 1848SOL    HW2 6444   2.153   5.916   4.264
 1849SOL     OW 6445   4.642   2.631   1.968
 1849SOL    HW1 6446   4.623   2.606   1.873
 1849SOL    HW2 6447   4.653   2.730   1.975
 1850SOL     OW 6448   5.326   1.773   1.916
 1850SOL    HW1 6449   5.333   1.869   1.943
 1850SOL    HW2 6450   5.378   1.758   1.832
 1851SOL     OW 6451   6.859   3.627   5.635
 1851SOL    HW1 6452   6.873   3.726   5.629
 1851SOL    HW2 6453   6.793   3.599   5.565
 1852SOL     OW 6454   1.532   5.410   2.251
 1852SOL    HW1 6455   1.607   5.348   2.228
 1852SOL    HW2 6456   1.553   5.457   2.337
 1853SOL     OW 6457   0.721   2.570   4.713
 1853SOL    HW1 6458   0.787   2.553   4.787
 1853SOL    HW2 6459   0.637   2.518   4.731
 1854SOL     OW 6460   0.310   6.253   3.844
 1854SOL    HW1 6461   0.324   6.344   3.883
 1854SOL    HW2 6462   0.271   6.262   3.752
 1855SOL     OW 6463   4.756   3.546   5.459
 1855SOL    HW1 6464   4.745   3.550   5.359
 1855SOL    HW2 6465   4.798   3.631   5.491
 1856SOL     OW 6466   3.720   2.687   0.213
 1856SOL    HW1 6467   3.714   2.785   0.232
 1856SOL    HW2 6468   3.788   2.671   0.142
 1857SOL     OW 6469   4.887   0.752   0.432
 1857SOL    HW1 6470   4.919   0.841   0.464
 1857SOL    HW2 6471   4.887   0.752   0.332
 1858SOL     OW 6472   4.222   2.302   4.295
 1858SOL    HW1 6473   4.245   2.204   4.295
 1858SOL    HW2 6474   4.238   2.340   4.204
 1859SOL     OW 6475   5.332   2.226   3.741
 1859SOL    HW1 6476   5.386   2.161   3.795
 1859SOL    HW2 6477   5.285   2.176   3.668
 1860SOL     OW 6478   1.460   1.024   4.529
 1860SOL    HW1 6479   1.396   1.078   4.474
 1860SOL    HW2 6480   1.522   0.975   4.468
 1861SOL     OW 6481   6.228   0.499   3.187
 1861SOL    HW1 6482   6.217   0.424   3.122
 1861SOL    HW2 6483   6.240   0.462   3.279
 1862SOL     OW 6484   2.711   6.107   6.591
 1862SOL    HW1 6485   2.634   6.159   6.553
 1862SOL    HW2 6486   2.794   6.161   6.585
 1863SOL     OW 6487   0.240   2.945   1.507
 1863SOL    HW1 6488   0.297   2.915   1.583
 1863SOL    HW2 6489   0.195   3.031   1.531
 1864SOL     OW 6490   3.576   5.855   3.037
 1864SOL    HW1 6491   3.514   5.909   3.095
 1864SOL    HW2 6492   3.532   5.767   3.015
 1865SOL     OW 6493   5.646   1.232   6.173
 1865SOL    HW1 6494   5.725   1.171   6.167
 1865SOL    HW2 6495   5.564   1.178   6.192
 1866SOL     OW 6496   0.192   4.413   3.495
 1866SOL    HW1 6497   0.195   4.431   3.397
 1866SOL    HW2 6498   0.169   4.316   3.510
 1867SOL     OW 6499   2.233   2.552   0.905
 1867SOL    HW1 6500   2.243   2.465   0.954
 1867SOL    HW2 6501   2.273   2.626   0.960
 1868SOL     OW 6502   5.890   4.540   5.734
 1868SOL    HW1 6503   5.890   4.578   5.642
 1868SOL    HW2 6504   5.840   4.602   5.795
 1869SOL     OW 6505   4.329   2.047   4.389
 1869SOL    HW1 6506   4.271   1.981   4.438
 1869SOL    HW2 6507   4.421   2.010   4.380
 1870SOL     OW 6508   0.572   5.052   4.075
 1870SOL    HW1 6509   0.665   5.084   4.095
 1870SOL    HW2 6510   0.509   5.092   4.141
 1871SOL     OW 6511   0.928   6.566   0.510
 1871SOL    HW1 6512   0.925   6.625   0.430
 1871SOL    HW2 6513   1.023   6.546   0.534
 1872SOL     OW 6514   2.497   2.439   0.872
 1872SOL    HW1 6515   2.532   2.418   0.963
 1872SOL    HW2 6516   2.428   2.511   0.878
 1873SOL     OW 6517   6.427   0.729   0.004
 1873SOL    HW1 6518   6.517   0.755   0.039
 1873SOL    HW2 6519   6.437   0.653   6.962
 1874SOL     OW 6520   1.154   6.265   0.069
 1874SOL    HW1 6521   1.213   6.193   0.032
 1874SOL    HW2 6522   1.165   6.348   0.016
 1875SOL     OW 6523   6.207   4.912   0.060
 1875SOL    HW1 6524   6.185   4.948   0.151
 1875SOL    HW2 6525   6.298   4.871   0.062
 1876SOL     OW 6526   6.741   5.904   6.388
 1876SOL    HW1 6527   6.666   5.963   6.418
 1876SOL    HW2 6528   6.813   5.959   6.347
 1877SOL     OW 6529   0.316   1.186   2.443
 1877SOL    HW1 6530   0.261   1.226   2.369
 1877SOL    HW2 6531   0.306   1.087   2.442
 1878SOL     OW 6532   0.018   4.786   3.518
 1878SOL    HW1 6533   6.966   4.816   3.458
 1878SOL    HW2 6534   0.082   4.862   3.531
 1879SOL     OW 6535   3.846   5.567   4.824
 1879SOL    HW1 6536   3.776   5.618   4.774
 1879SOL    HW2 6537   3.891   5.502   4.762
 1880SOL     OW 6538   0.652   1.677   3.864
 1880SOL    HW1 6539   0.612   1.618   3.934
 1880SOL    HW2 6540   0.747   1.698   3.888
 1881SOL     OW 6541   1.504   1.395   3.949
 1881SOL    HW1 6542   1.405   1.391   3.949
 1881SOL    HW2 6543   1.537   1.418   4.041
 1882SOL     OW 6544   1.387   5.570   0.078
 1882SOL    HW1 6545   1.301   5.559   0.128
 1882SOL    HW2 6546   1.368   5.591   7.005
 1883SOL     OW 6547   1.595   2.950   3.020
 1883SOL    HW1 6548   1.569   3.020   3.086
 1883SOL    HW2 6549   1.689   2.966   2.989
 1884SOL     OW 6550   2.935   0.715   0.155
 1884SOL    HW1 6551   2.896   0.690   0.243
 1884SOL    HW2 6552   3.034   0.700   0.156
 1885SOL     OW 6553   0.072   2.105   0.889
 1885SOL    HW1 6554   0.016   2.106   0.971
 1885SOL    HW2 6555   0.016   2.076   0.811
 1886SOL     OW 6556   2.788   2.918   6.921
 1886SOL    HW1 6557   2.825   2.954   6.836
 1886SOL    HW2 6558   2.829   2.829   6.941
 1887SOL     OW 6559   1.151   6.327   5.516
 1887SOL    HW1 6560   1.198   6.328   5.604
 1887SOL    HW2 6561   1.080   6.398   5.515
 1888SOL     OW 6562   1.754   2.465   6.320
 1888SOL    HW1 6563   1.745   2.537   6.388
 1888SOL    HW2 6564   1.681   2.398   6.332
 1889SOL     OW 6565   4.445   2.998   0.336
 1889SOL    HW1 6566   4.491   3.009   0.424
 1889SOL    HW2 6567   4.402   3.084   0.309
 1890SOL     OW 6568   0.125   5.648   6.269
 1890SOL    HW1 6569   0.196   5.694   6.216
 1890SOL    HW2 6570   0.125   5.550   6.246
 1891SOL     OW 6571   6.208   3.222   5.708
 1891SOL    HW1 6572   6.305   3.215   5.732
 1891SOL    HW2 6573   6.157   3.257   5.787
 1892SOL     OW 6574   3.856   4.924   2.023
 1892SOL    HW1 6575   3.855   4.916   2.123
 1892SOL    HW2 6576   3.766   4.956   1.992
 1893SOL     OW 6577   3.831   1.750   4.187
 1893SOL    HW1 6578   3.867   1.775   4.098
 1893SOL    HW2 6579   3.856   1.656   4.209
 1894SOL     OW 6580   4.529   3.974   0.857
 1894SOL    HW1 6581   4.568   4.009   0.772
 1894SOL    HW2 6582   4.595   3.987   0.932
 1895SOL     OW 6583   5.806   0.851   3.294
 1895SOL    HW1 6584   5.726   0.832   3.238
 1895SOL    HW2 6585   5.885   0.799   3.260
 1896SOL     OW 6586   6.959   1.481   5.032
 1896SOL    HW1 6587   7.002   1.403   5.078
 1896SOL    HW2 6588   6.871   1.501   5.076
 1897SOL     OW 6589   5.469   4.762   3.354
 1897SOL    HW1 6590   5.497   4.686   3.297
 1897SOL    HW2 6591   5.536   4.836   3.347
 1898SOL     OW 6592   5.520   4.800   1.217
 1898SOL    HW1 6593   5.516   4.718   1.275
 1898SOL    HW2 6594   5.605   4.849   1.234
 1899SOL     OW 6595   0.752   2.845   2.862
 1899SOL    HW1 6596   0.778   2.887   2.775
 1899SOL    HW2 6597   0.813   2.878   2.934
 1900SOL     OW 6598   1.699   5.566   6.141
 1900SOL    HW1 6599   1.727   5.614   6.059
 1900SOL    HW2 6600   1.599   5.569   6.149
 1901SOL     OW 6601   1.535   0.907   6.595
 1901SOL    HW1 6602   1.615   0.967   6.590
 1901SOL    HW2 6603   1.519   0.881   6.690
 1902SOL     OW 6604   1.008   2.997   4.657
 1902SOL    HW1 6605   0.980   3.045   4.574
 1902SOL    HW2 6606   1.079   2.930   4.634
 1903SOL     OW 6607   6.186   3.698   3.420
 1903SOL    HW1 6608   6.086   3.699   3.419
 1903SOL    HW2 6609   6.220   3.653   3.338
 1904SOL     OW 6610   6.550   0.153   3.907
 1904SOL    HW1 6611   6.511   0.189   3.991
 1904SOL    HW2 6612   6.638   0.111   3.926
 1905SOL     OW 6613   0.401   2.063   3.610
 1905SOL    HW1 6614   0.495   2.030   3.612
 1905SOL    HW2 6615   0.374   2.094   3.701
 1906SOL     OW 6616   2.520   0.538   6.535
 1906SOL    HW1 6617   2.607   0.565   6.493
 1906SOL    HW2 6618   2.444   0.563   6.475
 1907SOL     OW 6619   3.389   6.129   3.850
 1907SOL    HW1 6620   3.423   6.041   3.816
 1907SOL    HW2 6621   3.298   6.146   3.812
 1908SOL     OW 6622   3.975   1.395   6.035
 1908SOL    HW1 6623   3.995   1.453   6.115
 1908SOL    HW2 6624   4.050   1.331   6.020
 1909SOL     OW 6625   2.520   5.265   4.650
 1909SOL    HW1 6626   2.561   5.282   4.560
 1909SOL    HW2 6627   2.526   5.168   4.672
 1910SOL     OW 6628   5.450   2.149   6.004
 1910SOL    HW1 6629   5.425   2.117   6.095
 1910SOL    HW2 6630   5.456   2.249   6.004
 1911SOL     OW 6631   6.532   2.825   5.092
 1911SOL    HW1 6632   6.585   2.909   5.109
 1911SOL    HW2 6633   6.527   2.808   4.994
 1912SOL     OW 6634   3.650   0.075   2.772
 1912SOL    HW1 6635   3.608   0.099   2.860
 1912SOL    HW2 6636   3.639   0.150   2.708
 1913SOL     OW 6637   1.664   5.548   5.515
 1913SOL    HW1 6638   1.713   5.635   5.504
 1913SOL    HW2 6639   1.658   5.502   5.427
 1914SOL     OW 6640   3.511   2.368   6.016
 1914SOL    HW1 6641   3.468   2.338   5.931
 1914SOL    HW2 6642   3.481   2.460   6.038
 1915SOL     OW 6643   3.555   0.091   5.938
 1915SOL    HW1 6644   3.541   0.002   5.895
 1915SOL    HW2 6645   3.504   0.161   5.888
 1916SOL     OW 6646   3.124   6.112   2.078
 1916SOL    HW1 6647   3.088   6.051   2.149
 1916SOL    HW2 6648   3.217   6.084   2.055
 1917SOL     OW 6649   2.954   3.257   4.116
 1917SOL    HW1 6650   2.929   3.268   4.212
 1917SOL    HW2 6651   2.919   3.335   4.063
 1918SOL     OW 6652   5.580   5.741   5.241
 1918SOL    HW1 6653   5.586   5.772   5.146
 1918SOL    HW2 6654   5.613   5.647   5.247
 1919SOL     OW 6655   0.274   6.195   1.799
 1919SOL    HW1 6656   0.194   6.247   1.829
 1919SOL    HW2 6657   0.267   6.101   1.833
 1920SOL     OW 6658   0.319   5.521   3.977
 1920SOL    HW1 6659   0.381   5.599   3.984
 1920SOL    HW2 6660   0.346   5.451   4.044
 1921SOL     OW 6661   1.182   6.463   6.923
 1921SOL    HW1 6662   1.153   6.410   6.843
 1921SOL    HW2 6663   1.260   6.521   6.899
 1922SOL     OW 6664   3.870   4.111   1.012
 1922SOL    HW1 6665   3.914   4.075   1.094
 1922SOL    HW2 6666   3.940   4.134   0.944
 1923SOL     OW 6667   1.701   1.186   0.724
 1923SOL    HW1 6668   1.670   1.278   0.746
 1923SOL    HW2 6669   1.718   1.136   0.809
 1924SOL     OW 6670   0.043   4.146   1.777
 1924SOL    HW1 6671   6.977   4.103   1.796
 1924SOL    HW2 6672   0.099   4.144   1.860
 1925SOL     OW 6673   3.474   4.334   1.705
 1925SOL    HW1 6674   3.451   4.428   1.681
 1925SOL    HW2 6675   3.391   4.279   1.709
 1926SOL     OW 6676   1.289   6.996   4.652
 1926SOL    HW1 6677   1.339   0.050   4.612
 1926SOL    HW2 6678   1.198   6.989   4.612
 1927SOL     OW 6679   3.722   4.074   0.052
 1927SOL    HW1 6680   3.682   3.986   0.028
 1927SOL    HW2 6681   3.800   4.092   7.014
 1928SOL     OW 6682   6.208   4.233   5.597
 1928SOL    HW1 6683   6.171   4.219   5.505
 1928SOL    HW2 6684   6.286   4.173   5.611
 1929SOL     OW 6685   0.889   5.824   1.319
 1929SOL    HW1 6686   0.951   5.760   1.274
 1929SOL    HW2 6687   0.825   5.862   1.252
 1930SOL     OW 6688   5.847   4.908   6.199
 1930SOL    HW1 6689   5.850   4.809   6.218
 1930SOL    HW2 6690   5.874   4.958   6.281
 1931SOL     OW 6691   0.764   3.311   4.448
 1931SOL    HW1 6692   0.763   3.385   4.515
 1931SOL    HW2 6693   0.671   3.295   4.415
 1932SOL     OW 6694   5.165   4.139   2.274
 1932SOL    HW1 6695   5.192   4.052   2.231
 1932SOL    HW2 6696   5.067   4.154   2.260
 1933SOL     OW 6697   2.379   4.449   0.378
 1933SOL    HW1 6698   2.470   4.449   0.338
 1933SOL    HW2 6699   2.340   4.357   0.374
 1934SOL     OW 6700   1.149   6.805   5.893
 1934SOL    HW1 6701   1.101   6.868   5.832
 1934SOL    HW2 6702   1.086   6.771   5.962
 1935SOL     OW 6703   2.381   0.328   3.816
 1935SOL    HW1 6704   2.399   0.234   3.785
 1935SOL    HW2 6705   2.357   0.385   3.737
 1936SOL     OW 6706   5.891   6.180   4.719
 1936SOL    HW1 6707   5.850   6.232   4.644
 1936SOL    HW2 6708   5.990   6.196   4.720
 1937SOL     OW 6709   3.865   6.506   2.270
 1937SOL    HW1 6710   3.827   6.594   2.244
 1937SOL    HW2 6711   3.892   6.456   2.187
 1938SOL     OW 6712   4.005   0.869   3.733
 1938SOL    HW1 6713   3.982   0.860   3.830
 1938SOL    HW2 6714   3.921   0.887   3.681
 1939SOL     OW 6715   1.438   1.105   3.566
 1939SOL    HW1 6716   1.370   1.155   3.512
 1939SOL    HW2 6717   1.402   1.014   3.588
 1940SOL     OW 6718   6.523   5.379   0.016
 1940SOL    HW1 6719   6.490   5.369   6.945
 1940SOL    HW2 6720   6.610   5.330   0.026
 1941SOL     OW 6721   5.582   3.503   2.370
 1941SOL    HW1 6722   5.677   3.499   2.338
 1941SOL    HW2 6723   5.574   3.572   2.442
 1942SOL     OW 6724   6.518   5.178   2.377
 1942SOL    HW1 6725   6.507   5.132   2.465
 1942SOL    HW2 6726   6.545   5.112   2.307
 1943SOL     OW 6727   2.316   4.140   3.536
 1943SOL    HW1 6728   2.405   4.110   3.503
 1943SOL    HW2 6729   2.282   4.213   3.476
 1944SOL     OW 6730   5.764   1.320   6.632
 1944SOL    HW1 6731   5.847   1.355   6.588
 1944SOL    HW2 6732   5.787   1.239   6.686
 1945SOL     OW 6733   4.400   5.527   3.867
 1945SOL    HW1 6734   4.316   5.512   3.919
 1945SOL    HW2 6735   4.402   5.620   3.832
 1946SOL     OW 6736   1.220   0.612   0.215
 1946SOL    HW1 6737   1.161   0.681   0.256
 1946SOL    HW2 6738   1.208   0.613   0.115
 1947SOL     OW 6739   5.412   6.708   3.557
 1947SOL    HW1 6740   5.389   6.644   3.630
 1947SOL    HW2 6741   5.501   6.749   3.575
 1948SOL     OW 6742   6.730   5.846   4.132
 1948SOL    HW1 6743   6.636   5.824   4.156
 1948SOL    HW2 6744   6.757   5.931   4.176
 1949SOL     OW 6745   4.606   4.403   6.470
 1949SOL    HW1 6746   4.639   4.408   6.376
 1949SOL    HW2 6747   4.667   4.455   6.529
 1950SOL     OW 6748   3.380   3.986   6.856
 1950SOL    HW1 6749   3.331   4.069   6.882
 1950SOL    HW2 6750   3.426   4.000   6.768
 1951SOL     OW 6751   5.385   1.446   0.225
 1951SOL    HW1 6752   5.352   1.437   0.319
 1951SOL    HW2 6753   5.440   1.529   0.216
 1952SOL     OW 6754   4.121   2.240   0.624
 1952SOL    HW1 6755   4.086   2.288   0.705
 1952SOL    HW2 6756   4.045   2.205   0.570
 1953SOL     OW 6757   0.190   2.164   6.743
 1953SOL    HW1 6758   0.120   2.234   6.752
 1953SOL    HW2 6759   0.178   2.095   6.814
 1954SOL     OW 6760   4.415   2.007   3.550
 1954SOL    HW1 6761   4.500   1.978   3.506
 1954SOL    HW2 6762   4.339   2.001   3.485
 1955SOL     OW 6763   0.723   6.650   2.409
 1955SOL    HW1 6764   0.651   6.580   2.417
 1955SOL    HW2 6765   0.694   6.720   2.344
 1956SOL     OW 6766   5.521   5.683   2.539
 1956SOL    HW1 6767   5.435   5.643   2.508
 1956SOL    HW2 6768   5.523   5.780   2.515
 1957SOL     OW 6769   0.539   5.633   4.616
 1957SOL    HW1 6770   0.539   5.721   4.568
 1957SOL    HW2 6771   0.537   5.649   4.715
 1958SOL     OW 6772   5.234   3.531   5.268
 1958SOL    HW1 6773   5.142   3.518   5.230
 1958SOL    HW2 6774   5.274   3.615   5.232
 1959SOL     OW 6775   1.214   2.170   6.025
 1959SOL    HW1 6776   1.144   2.113   5.982
 1959SOL    HW2 6777   1.226   2.254   5.971
 1960SOL     OW 6778   6.148   4.977   0.585
 1960SOL    HW1 6779   6.188   5.069   0.584
 1960SOL    HW2 6780   6.164   4.934   0.674
 1961SOL     OW 6781   6.136   4.543   3.967
 1961SOL    HW1 6782   6.230   4.547   3.935
 1961SOL    HW2 6783   6.086   4.471   3.919
 1962SOL     OW 6784   1.269   6.229   3.550
 1962SOL    HW1 6785   1.207   6.287   3.498
 1962SOL    HW2 6786   1.359   6.228   3.507
 1963SOL     OW 6787   0.543   0.291   2.589
 1963SOL    HW1 6788   0.557   0.253   2.681
 1963SOL    HW2 6789   0.534   0.391   2.596
 1964SOL     OW 6790   4.244   2.317   1.901
 1964SOL    HW1 6791   4.156   2.293   1.943
 1964SOL    HW2 6792   4.247   2.279   1.808
 1965SOL     OW 6793   0.675   3.566   2.273
 1965SOL    HW1 6794   0.713   3.583   2.182
 1965SOL    HW2 6795   0.696   3.472   2.300
 1966SOL     OW 6796   6.958   5.252   4.824
 1966SOL    HW1 6797   6.975   5.158   4.853
 1966SOL    HW2 6798   6.909   5.301   4.897
 1967SOL     OW 6799   4.679   2.764   5.888
 1967SOL    HW1 6800   4.692   2.863   5.885
 1967SOL    HW2 6801   4.757   2.719   5.845
 1968SOL     OW 6802   3.035   6.014   6.880
 1968SOL    HW1 6803   3.085   5.971   6.956
 1968SOL    HW2 6804   3.096   6.025   6.802
 1969SOL     OW 6805   6.649   2.534   1.637
 1969SOL    HW1 6806   6.668   2.436   1.633
 1969SOL    HW2 6807   6.575   2.552   1.702
 1970SOL     OW 6808   1.383   0.223   5.748
 1970SOL    HW1 6809   1.466   0.233   5.802
 1970SOL    HW2 6810   1.400   0.254   5.654
 1971SOL     OW 6811   0.464   6.508   6.370
 1971SOL    HW1 6812   0.403   6.582   6.341
 1971SOL    HW2 6813   0.409   6.432   6.407
 1972SOL     OW 6814   0.583   4.452   4.048
 1972SOL    HW1 6815   0.549   4.385   4.114
 1972SOL    HW2 6816   0.525   4.533   4.049
 1973SOL     OW 6817   3.631   2.857   1.594
 1973SOL    HW1 6818   3.697   2.801   1.642
 1973SOL    HW2 6819   3.667   2.883   1.504
 1974SOL     OW 6820   5.403   6.690   4.899
 1974SOL    HW1 6821   5.365   6.697   4.991
 1974SOL    HW2 6822   5.385   6.599   4.862
 1975SOL     OW 6823   2.528   0.701   4.269
 1975SOL    HW1 6824   2.581   0.617   4.261
 1975SOL    HW2 6825   2.487   0.707   4.360
 1976SOL     OW 6826   0.697   5.896   0.581
 1976SOL    HW1 6827   0.647   5.825   0.630
 1976SOL    HW2 6828   0.786   5.910   0.625
 1977SOL     OW 6829   1.082   2.444   4.424
 1977SOL    HW1 6830   1.070   2.428   4.326
 1977SOL    HW2 6831   1.156   2.510   4.438
 1978SOL     OW 6832   0.164   1.058   4.756
 1978SOL    HW1 6833   0.210   0.980   4.797
 1978SOL    HW2 6834   0.221   1.140   4.766
 1979SOL     OW 6835   0.117   4.388   4.772
 1979SOL    HW1 6836   0.140   4.311   4.831
 1979SOL    HW2 6837   0.093   4.467   4.828
 1980SOL     OW 6838   3.268   0.047   1.048
 1980SOL    HW1 6839   3.235   0.041   1.141
 1980SOL    HW2 6840   3.365   0.073   1.049
 1981SOL     OW 6841   5.300   2.976   2.149
 1981SOL    HW1 6842   5.397   2.951   2.139
 1981SOL    HW2 6843   5.284   3.065   2.105
 1982SOL     OW 6844   6.101   4.955   4.782
 1982SOL    HW1 6845   6.125   4.883   4.716
 1982SOL    HW2 6846   6.183   4.979   4.835
 1983SOL     OW 6847   1.357   2.525   3.164
 1983SOL    HW1 6848   1.273   2.541   3.215
 1983SOL    HW2 6849   1.390   2.432   3.183
 1984SOL     OW 6850   4.536   1.478   6.123
 1984SOL    HW1 6851   4.498   1.407   6.182
 1984SOL    HW2 6852   4.629   1.453   6.096
 1985SOL     OW 6853   0.993   0.948   2.072
 1985SOL    HW1 6854   0.994   0.848   2.072
 1985SOL    HW2 6855   1.026   0.982   1.984
 1986SOL     OW 6856   1.512   2.109   6.813
 1986SOL    HW1 6857   1.549   2.147   6.898
 1986SOL    HW2 6858   1.581   2.050   6.770
 1987SOL     OW 6859   2.720   3.137   1.713
 1987SOL    HW1 6860   2.719   3.037   1.716
 1987SOL    HW2 6861   2.806   3.170   1.751
 1988SOL     OW 6862   4.731   3.850   6.813
 1988SOL    HW1 6863   4.817   3.815   6.774
 1988SOL    HW2 6864   4.745   3.872   6.910
 1989SOL     OW 6865   2.182   0.101   4.592
 1989SOL    HW1 6866   2.177   0.039   4.670
 1989SOL    HW2 6867   2.277   0.109   4.562
 1990SOL     OW 6868   3.023   1.112   1.196
 1990SOL    HW1 6869   3.059   1.070   1.112
 1990SOL    HW2 6870   3.076   1.081   1.274
 1991SOL     OW 6871   3.490   5.604   5.341
 1991SOL    HW1 6872   3.435   5.675   5.385
 1991SOL    HW2 6873   3.485   5.520   5.396
 1992SOL     OW 6874   2.151   6.629   4.993
 1992SOL    HW1 6875   2.218   6.696   4.960
 1992SOL    HW2 6876   2.094   6.671   5.063
 1993SOL     OW 6877   3.760   3.919   5.190
 1993SOL    HW1 6878   3.733   3.998   5.135
 1993SOL    HW2 6879   3.740   3.835   5.140
 1994SOL     OW 6880   0.207   2.130   1.777
 1994SOL    HW1 6881   0.251   2.202   1.830
 1994SOL    HW2 6882   0.186   2.164   1.685
 1995SOL     OW 6883   6.175   2.038   1.597
 1995SOL    HW1 6884   6.077   2.023   1.611
 1995SOL    HW2 6885   6.207   1.979   1.523
 1996SOL     OW 6886   3.552   3.486   0.272
 1996SOL    HW1 6887   3.539   3.460   0.176
 1996SOL    HW2 6888   3.469   3.529   0.307
 1997SOL     OW 6889   5.874   1.005   5.439
 1997SOL    HW1 6890   5.869   0.915   5.483
 1997SOL    HW2 6891   5.784   1.029   5.402
 1998SOL     OW 6892   2.726   3.846   6.436
 1998SOL    HW1 6893   2.761   3.929   6.392
 1998SOL    HW2 6894   2.629   3.860   6.459
 1999SOL     OW 6895   2.311   0.159   2.297
 1999SOL    HW1 6896   2.254   0.103   2.358
 1999SOL    HW2 6897   2.253   0.223   2.247
 2000SOL     OW 6898   4.413   1.343   4.758
 2000SOL    HW1 6899   4.343   1.402   4.718
 2000SOL    HW2 6900   4.502   1.390   4.754
 2001SOL     OW 6901   3.927   1.990   1.052
 2001SOL    HW1 6902   4.002   2.008   1.115
 2001SOL    HW2 6903   3.962   1.949   0.968
 2002SOL     OW 6904   2.007   6.296   6.074
 2002SOL    HW1 6905   2.079   6.302   6.005
 2002SOL    HW2 6906   1.974   6.202   6.079
 2003SOL     OW 6907   5.598   0.419   3.463
 2003SOL    HW1 6908   5.564   0.442   3.554
 2003SOL    HW2 6909   5.523   0.421   3.397
 2004SOL     OW 6910   4.238   1.077   4.654
 2004SOL    HW1 6911   4.197   1.149   4.710
 2004SOL    HW2 6912   4.325   1.110   4.616
 2005SOL     OW 6913   2.172   6.171   6.440
 2005SOL    HW1 6914   2.254   6.204   6.392
 2005SOL    HW2 6915   2.198   6.136   6.530
 2006SOL     OW 6916   4.713   4.142   3.633
 2006SOL    HW1 6917   4.676   4.202   3.563
 2006SOL    HW2 6918   4.692   4.179   3.724
 2007SOL     OW 6919   5.012   5.217   6.623
 2007SOL    HW1 6920   5.111   5.219   6.612
 2007SOL    HW2 6921   4.975   5.309   6.612
 2008SOL     OW 6922   6.581   6.207   3.523
 2008SOL    HW1 6923   6.629   6.152   3.591
 2008SOL    HW2 6924   6.587   6.303   3.547
 2009SOL     OW 6925   0.050   0.241   2.040
 2009SOL    HW1 6926   0.115   0.182   2.086
 2009SOL    HW2 6927   0.089   0.273   1.953
 2010SOL     OW 6928   1.112   0.564   0.628
 2010SOL    HW1 6929   1.045   0.592   0.697
 2010SOL    HW2 6930   1.073   0.493   0.570
 2011SOL     OW 6931   6.879   2.418   4.857
 2011SOL    HW1 6932   6.781   2.432   4.870
 2011SOL    HW2 6933   6.894   2.357   4.780
 2012SOL     OW 6934   1.320   4.072   1.494
 2012SOL    HW1 6935   1.278   3.992   1.537
 2012SOL    HW2 6936   1.264   4.101   1.415
 2013SOL     OW 6937   5.540   1.697   3.080
 2013SOL    HW1 6938   5.544   1.613   3.134
 2013SOL    HW2 6939   5.508   1.772   3.138
 2014SOL     OW 6940   1.050   5.881   3.580
 2014SOL    HW1 6941   0.984   5.846   3.646
 2014SOL    HW2 6942   1.128   5.819   3.573
 2015SOL     OW 6943   3.726   0.645   0.362
 2015SOL    HW1 6944   3.810   0.659   0.415
 2015SOL    HW2 6945   3.741   0.573   0.294
 2016SOL     OW 6946   1.182   5.725   4.100
 2016SOL    HW1 6947   1.156   5.814   4.138
 2016SOL    HW2 6948   1.235   5.674   4.167
 2017SOL     OW 6949   2.355   5.987   3.419
 2017SOL    HW1 6950   2.336   6.046   3.341
 2017SOL    HW2 6951   2.284   5.917   3.427
 2018SOL     OW 6952   6.929   5.506   5.032
 2018SOL    HW1 6953   6.938   5.570   5.109
 2018SOL    HW2 6954   6.918   5.558   4.947
 2019SOL     OW 6955   5.390   2.856   0.908
 2019SOL    HW1 6956   5.348   2.931   0.960
 2019SOL    HW2 6957   5.484   2.843   0.937
 2020SOL     OW 6958   1.751   5.108   4.218
 2020SOL    HW1 6959   1.833   5.155   4.185
 2020SOL    HW2 6960   1.732   5.030   4.158
 2021SOL     OW 6961   1.729   0.695   2.108
 2021SOL    HW1 6962   1.685   0.766   2.163
 2021SOL    HW2 6963   1.755   0.733   2.019
 2022SOL     OW 6964   2.136   3.307   1.725
 2022SOL    HW1 6965   2.223   3.338   1.764
 2022SOL    HW2 6966   2.070   3.292   1.798
 2023SOL     OW 6967   6.724   1.016   6.963
 2023SOL    HW1 6968   6.798   0.999   0.005
 2023SOL    HW2 6969   6.745   0.970   6.876
 2024SOL     OW 6970   6.065   0.581   3.450
 2024SOL    HW1 6971   5.968   0.557   3.445
 2024SOL    HW2 6972   6.119   0.499   3.471
 2025SOL     OW 6973   0.953   2.211   1.374
 2025SOL    HW1 6974   1.021   2.235   1.305
 2025SOL    HW2 6975   0.899   2.133   1.343
 2026SOL     OW 6976   2.258   2.477   6.183
 2026SOL    HW1 6977   2.160   2.496   6.175
 2026SOL    HW2 6978   2.292   2.515   6.269
 2027SOL     OW 6979   0.433   0.871   2.220
 2027SOL    HW1 6980   0.413   0.958   2.174
 2027SOL    HW2 6981   0.531   0.865   2.239
 2028SOL     OW 6982   3.827   1.350   0.732
 2028SOL    HW1 6983   3.843   1.252   0.724
 2028SOL    HW2 6984   3.746   1.366   0.788
 2029SOL     OW 6985   1.387   0.719   6.388
 2029SOL    HW1 6986   1.420   0.763   6.471
 2029SOL    HW2 6987   1.415   0.773   6.308
 2030SOL     OW 6988   2.215   2.153   3.629
 2030SOL    HW1 6989   2.219   2.218   3.554
 2030SOL    HW2 6990   2.169   2.194   3.707
 2031SOL     OW 6991   5.321   5.835   2.099
 2031SOL    HW1 6992   5.294   5.747   2.137
 2031SOL    HW2 6993   5.372   5.887   2.167
 2032SOL     OW 6994   5.168   6.046   1.045
 2032SOL    HW1 6995   5.074   6.035   1.076
 2032SOL    HW2 6996   5.183   5.991   0.963
 2033SOL     OW 6997   4.565   4.762   6.465
 2033SOL    HW1 6998   4.604   4.682   6.510
 2033SOL    HW2 6999   4.488   4.796   6.518
 2034SOL     OW 7000   1.943   5.955   3.222
 2034SOL    HW1 7001   1.847   5.950   3.249
 2034SOL    HW2 7002   1.949   5.977   3.124
 2035SOL     OW 7003   7.006   1.609   2.430
 2035SOL    HW1 7004   6.958   1.568   2.508
 2035SOL    HW2 7005   0.032   1.691   2.461
 2036SOL     OW 7006   0.597   5.339   1.108
 2036SOL    HW1 7007   0.595   5.241   1.089
 2036SOL    HW2 7008   0.553   5.388   1.033
 2037SOL     OW 7009   6.793   2.518   5.621
 2037SOL    HW1 7010   6.755   2.578   5.691
 2037SOL    HW2 7011   6.737   2.523   5.538
 2038SOL     OW 7012   0.962   1.807   5.519
 2038SOL    HW1 7013   0.960   1.718   5.564
 2038SOL    HW2 7014   0.880   1.859   5.545
 2039SOL     OW 7015   0.107   5.807   4.037
 2039SOL    HW1 7016   0.152   5.718   4.048
 2039SOL    HW2 7017   0.166   5.868   3.985
 2040SOL     OW 7018   3.927   3.213   4.363
 2040SOL    HW1 7019   3.852   3.279   4.368
 2040SOL    HW2 7020   3.893   3.126   4.327
 2041SOL     OW 7021   5.716   4.686   5.956
 2041SOL    HW1 7022   5.753   4.658   6.044
 2041SOL    HW2 7023   5.668   4.773   5.966
 2042SOL     OW 7024   5.523   5.460   0.868
 2042SOL    HW1 7025   5.513   5.365   0.898
 2042SOL    HW2 7026   5.616   5.491   0.888
 2043SOL     OW 7027   6.476   5.435   2.276
 2043SOL    HW1 7028   6.442   5.510   2.332
 2043SOL    HW2 7029   6.475   5.350   2.330
 2044SOL     OW 7030   6.280   6.984   2.293
 2044SOL    HW1 7031   6.193   6.958   2.250
 2044SOL    HW2 7032   6.262   0.006   2.381
 2045SOL     OW 7033   2.551   4.887   5.963
 2045SOL    HW1 7034   2.486   4.811   5.954
 2045SOL    HW2 7035   2.502   4.974   5.952
 2046SOL     OW 7036   0.031   0.206   4.588
 2046SOL    HW1 7037   0.013   0.235   4.494
 2046SOL    HW2 7038   0.087   0.275   4.635
 2047SOL     OW 7039   4.908   1.938   1.481
 2047SOL    HW1 7040   4.986   1.910   1.425
 2047SOL    HW2 7041   4.855   1.858   1.508
 2048SOL     OW 7042   3.700   6.727   0.137
 2048SOL    HW1 7043   3.682   6.655   0.203
 2048SOL    HW2 7044   3.752   6.691   0.060
 2049SOL     OW 7045   4.602   1.610   6.579
 2049SOL    HW1 7046   4.697   1.634   6.598
 2049SOL    HW2 7047   4.548   1.694   6.569
 2050SOL     OW 7048   6.069   2.978   3.508
 2050SOL    HW1 7049   6.054   2.888   3.548
 2050SOL    HW2 7050   6.126   3.033   3.569
 2051SOL     OW 7051   0.629   5.012   6.783
 2051SOL    HW1 7052   0.680   4.953   6.719
 2051SOL    HW2 7053   0.618   4.964   6.870
 2052SOL     OW 7054   0.633   3.059   6.944
 2052SOL    HW1 7055   0.730   3.065   6.968
 2052SOL    HW2 7056   0.621   2.994   6.870
 2053SOL     OW 7057   5.928   0.267   0.425
 2053SOL    HW1 7058   5.914   0.207   0.504
 2053SOL    HW2 7059   5.939   0.211   0.343
 2054SOL     OW 7060   6.097   2.826   0.958
 2054SOL    HW1 7061   6.050   2.808   1.044
 2054SOL    HW2 7062   6.140   2.742   0.925
 2055SOL     OW 7063   5.512   2.423   3.244
 2055SOL    HW1 7064   5.500   2.429   3.145
 2055SOL    HW2 7065   5.432   2.462   3.289
 2056SOL     OW 7066   1.922   1.372   3.005
 2056SOL    HW1 7067   1.851   1.409   3.065
 2056SOL    HW2 7068   1.958   1.446   2.948
 2057SOL     OW 7069   5.703   2.249   3.745
 2057SOL    HW1 7070   5.790   2.295   3.727
 2057SOL    HW2 7071   5.628   2.314   3.733
 2058SOL     OW 7072   0.571   1.881   3.232
 2058SOL    HW1 7073   0.509   1.959   3.227
 2058SOL    HW2 7074   0.661   1.907   3.196
 2059SOL     OW 7075   2.169   0.529   0.091
 2059SOL    HW1 7076   2.176   0.503   7.017
 2059SOL    HW2 7077   2.244   0.489   0.142
 2060SOL     OW 7078   6.870   4.509   1.820
 2060SOL    HW1 7079   6.898   4.424   1.863
 2060SOL    HW2 7080   6.945   4.546   1.765
 2061SOL     OW 7081   7.019   1.188   2.503
 2061SOL    HW1 7082   6.925   1.221   2.512
 2061SOL    HW2 7083   0.031   1.209   2.412
 2062SOL     OW 7084   5.084   6.883   2.754
 2062SOL    HW1 7085   5.078   6.981   2.735
 2062SOL    HW2 7086   5.000   6.852   2.798
 2063SOL     OW 7087   1.234   1.455   6.182
 2063SOL    HW1 7088   1.244   1.491   6.089
 2063SOL    HW2 7089   1.325   1.438   6.221
 2064SOL     OW 7090   1.146   2.486   5.469
 2064SOL    HW1 7091   1.133   2.564   5.407
 2064SOL    HW2 7092   1.217   2.426   5.432
 2065SOL     OW 7093   5.817   3.452   2.231
 2065SOL    HW1 7094   5.834   3.375   2.170
 2065SOL    HW2 7095   5.899   3.468   2.287
 2066SOL     OW 7096   0.650   5.216   4.368
 2066SOL    HW1 7097   0.685   5.138   4.420
 2066SOL    HW2 7098   0.689   5.301   4.405
 2067SOL     OW 7099   6.808   6.663   0.436
 2067SOL    HW1 7100   6.767   6.751   0.410
 2067SOL    HW2 7101   6.893   6.650   0.386
 2068SOL     OW 7102   2.074   1.301   5.444
 2068SOL    HW1 7103   2.142   1.329   5.376
 2068SOL    HW2 7104   2.104   1.330   5.535
 2069SOL     OW 7105   0.731   2.974   2.504
 2069SOL    HW1 7106   0.721   3.049   2.439
 2069SOL    HW2 7107   0.728   2.887   2.454
 2070SOL     OW 7108   1.207   0.544   2.185
 2070SOL    HW1 7109   1.148   0.559   2.105
 2070SOL    HW2 7110   1.302   0.561   2.159
 2071SOL     OW 7111   0.845   6.303   4.012
 2071SOL    HW1 7112   0.820   6.210   4.040
 2071SOL    HW2 7113   0.796   6.327   3.928
 2072SOL     OW 7114   4.613   5.752   2.232
 2072SOL    HW1 7115   4.621   5.654   2.212
 2072SOL    HW2 7116   4.517   5.780   2.227
 2073SOL     OW 7117   3.939   0.293   4.483
 2073SOL    HW1 7118   3.885   0.272   4.401
 2073SOL    HW2 7119   3.884   0.347   4.546
 2074SOL     OW 7120   0.154   2.007   6.991
 2074SOL    HW1 7121   0.147   1.913   6.959
 2074SOL    HW2 7122   0.091   2.022   0.045
 2075SOL     OW 7123   4.926   3.428   1.463
 2075SOL    HW1 7124   4.890   3.335   1.468
 2075SOL    HW2 7125   5.017   3.431   1.504
 2076SOL     OW 7126   5.618   6.238   0.206
 2076SOL    HW1 7127   5.546   6.234   0.137
 2076SOL    HW2 7128   5.578   6.224   0.297
 2077SOL     OW 7129   5.591   2.681   2.274
 2077SOL    HW1 7130   5.660   2.632   2.221
 2077SOL    HW2 7131   5.621   2.689   2.369
 2078SOL     OW 7132   3.048   6.157   6.239
 2078SOL    HW1 7133   3.138   6.200   6.236
 2078SOL    HW2 7134   3.043   6.086   6.169
 2079SOL     OW 7135   5.703   0.661   3.839
 2079SOL    HW1 7136   5.720   0.563   3.825
 2079SOL    HW2 7137   5.713   0.709   3.752
 2080SOL     OW 7138   2.355   1.681   4.848
 2080SOL    HW1 7139   2.364   1.713   4.753
 2080SOL    HW2 7140   2.262   1.698   4.880
 2081SOL     OW 7141   1.139   6.079   5.365
 2081SOL    HW1 7142   1.126   6.160   5.422
 2081SOL    HW2 7143   1.161   6.108   5.272
 2082SOL     OW 7144   5.765   0.764   1.566
 2082SOL    HW1 7145   5.782   0.681   1.620
 2082SOL    HW2 7146   5.670   0.792   1.577
 2083SOL     OW 7147   4.205   5.059   6.708
 2083SOL    HW1 7148   4.107   5.039   6.703
 2083SOL    HW2 7149   4.223   5.118   6.787
 2084SOL     OW 7150   6.859   2.457   3.444
 2084SOL    HW1 7151   6.880   2.542   3.394
 2084SOL    HW2 7152   6.760   2.448   3.454
 2085SOL     OW 7153   5.428   0.981   6.718
 2085SOL    HW1 7154   5.451   1.041   6.795
 2085SOL    HW2 7155   5.498   0.910   6.709
 2086SOL     OW 7156   2.869   5.322   6.441
 2086SOL    HW1 7157   2.930   5.340   6.518
 2086SOL    HW2 7158   2.780   5.292   6.476
 2087SOL     OW 7159   4.761   6.394   2.132
 2087SOL    HW1 7160   4.698   6.455   2.181
 2087SOL    HW2 7161   4.855   6.421   2.152
 2088SOL     OW 7162   3.379   5.851   0.437
 2088SOL    HW1 7163   3.360   5.767   0.386
 2088SOL    HW2 7164   3.302   5.869   0.499
 2089SOL     OW 7165   4.815   1.284   0.098
 2089SOL    HW1 7166   4.757   1.225   0.154
 2089SOL    HW2 7167   4.773   1.297   0.008
 2090SOL     OW 7168   3.963   3.831   4.224
 2090SOL    HW1 7169   3.948   3.898   4.297
 2090SOL    HW2 7170   3.946   3.739   4.260
 2091SOL     OW 7171   0.436   5.916   0.194
 2091SOL    HW1 7172   0.528   5.883   0.210
 2091SOL    HW2 7173   0.439   6.012   0.164
 2092SOL     OW 7174   5.694   6.183   0.539
 2092SOL    HW1 7175   5.766   6.253   0.538
 2092SOL    HW2 7176   5.731   6.097   0.502
 2093SOL     OW 7177   1.343   1.881   1.703
 2093SOL    HW1 7178   1.376   1.912   1.614
 2093SOL    HW2 7179   1.248   1.907   1.715
 2094SOL     OW 7180   6.254   0.598   1.725
 2094SOL    HW1 7181   6.210   0.592   1.814
 2094SOL    HW2 7182   6.351   0.577   1.733
 2095SOL     OW 7183   5.280   6.971   3.558
 2095SOL    HW1 7184   5.329   6.891   3.524
 2095SOL    HW2 7185   5.185   6.968   3.528
 2096SOL     OW 7186   4.847   3.886   3.196
 2096SOL    HW1 7187   4.849   3.834   3.282
 2096SOL    HW2 7188   4.902   3.839   3.127
 2097SOL     OW 7189   0.961   3.010   6.409
 2097SOL    HW1 7190   0.890   3.043   6.470
 2097SOL    HW2 7191   0.976   2.912   6.425
 2098SOL     OW 7192   4.033   6.269   3.975
 2098SOL    HW1 7193   4.112   6.282   3.915
 2098SOL    HW2 7194   3.949   6.271   3.922
 2099SOL     OW 7195   2.672   0.863   4.789
 2099SOL    HW1 7196   2.610   0.816   4.852
 2099SOL    HW2 7197   2.636   0.954   4.767
 2100SOL     OW 7198   3.593   3.682   6.517
 2100SOL    HW1 7199   3.688   3.656   6.503
 2100SOL    HW2 7200   3.563   3.743   6.444
 2101SOL     OW 7201   0.878   6.694   2.120
 2101SOL    HW1 7202   0.951   6.692   2.051
 2101SOL    HW2 7203   0.919   6.688   2.211
 2102SOL     OW 7204   0.381   4.902   2.088
 2102SOL    HW1 7205   0.359   4.811   2.122
 2102SOL    HW2 7206   0.321   4.970   2.132
 2103SOL     OW 7207   2.570   3.989   0.145
 2103SOL    HW1 7208   2.629   4.061   0.182
 2103SOL    HW2 7209   2.595   3.901   0.185
 2104SOL     OW 7210   1.581   3.469   6.703
 2104SOL    HW1 7211   1.673   3.438   6.678
 2104SOL    HW2 7212   1.559   3.552   6.651
 2105SOL     OW 7213   5.420   5.271   3.245
 2105SOL    HW1 7214   5.368   5.219   3.177
 2105SOL    HW2 7215   5.440   5.213   3.323
 2106SOL     OW 7216   4.275   5.029   0.186
 2106SOL    HW1 7217   4.348   4.995   0.245
 2106SOL    HW2 7218   4.291   5.125   0.165
 2107SOL     OW 7219   4.029   3.530   5.838
 2107SOL    HW1 7220   4.050   3.580   5.755
 2107SOL    HW2 7221   4.079   3.444   5.839
 2108SOL     OW 7222   6.078   5.972   5.754
 2108SOL    HW1 7223   6.100   5.906   5.826
 2108SOL    HW2 7224   6.088   5.929   5.665
 2109SOL     OW 7225   5.032   6.985   3.473
 2109SOL    HW1 7226   4.939   7.021   3.480
 2109SOL    HW2 7227   5.029   6.888   3.448
 2110SOL     OW 7228   2.728   4.166   6.492
 2110SOL    HW1 7229   2.752   4.141   6.398
 2110SOL    HW2 7230   2.804   4.145   6.553
 2111SOL     OW 7231   0.800   1.793   6.318
 2111SOL    HW1 7232   0.816   1.891   6.327
 2111SOL    HW2 7233   0.880   1.750   6.277
 2112SOL     OW 7234   4.853   1.892   1.900
 2112SOL    HW1 7235   4.856   1.910   1.998
 2112SOL    HW2 7236   4.823   1.975   1.851
 2113SOL     OW 7237   1.068   0.014   3.837
 2113SOL    HW1 7238   1.054   6.958   3.776
 2113SOL    HW2 7239   1.156   0.057   3.817
 2114SOL     OW 7240   1.453   3.211   0.656
 2114SOL    HW1 7241   1.368   3.222   0.708
 2114SOL    HW2 7242   1.506   3.135   0.694
 2115SOL     OW 7243   1.956   4.026   3.245
 2115SOL    HW1 7244   1.918   4.118   3.251
 2115SOL    HW2 7245   1.887   3.964   3.208
 2116SOL     OW 7246   6.471   3.832   3.143
 2116SOL    HW1 7247   6.469   3.875   3.233
 2116SOL    HW2 7248   6.440   3.896   3.074
 2117SOL     OW 7249   0.222   4.698   1.881
 2117SOL    HW1 7250   0.286   4.754   1.829
 2117SOL    HW2 7251   0.267   4.663   1.963
 2118SOL     OW 7252   0.252   3.294   2.678
 2118SOL    HW1 7253   0.338   3.316   2.632
 2118SOL    HW2 7254   0.252   3.334   2.770
 2119SOL     OW 7255   2.624   5.963   0.979
 2119SOL    HW1 7256   2.537   5.973   0.932
 2119SOL    HW2 7257   2.685   6.038   0.953
 2120SOL     OW 7258   6.480   5.080   2.614
 2120SOL    HW1 7259   6.523   5.101   2.702
 2120SOL    HW2 7260   6.467   4.982   2.605
 2121SOL     OW 7261   0.845   4.680   5.188
 2121SOL    HW1 7262   0.833   4.582   5.177
 2121SOL    HW2 7263   0.758   4.726   5.173
 2122SOL     OW 7264   6.435   4.338   5.160
 2122SOL    HW1 7265   6.501   4.407   5.187
 2122SOL    HW2 7266   6.368   4.326   5.233
 2123SOL     OW 7267   0.631   4.400   2.675
 2123SOL    HW1 7268   0.588   4.309   2.678
 2123SOL    HW2 7269   0.619   4.445   2.763
 2124SOL     OW 7270   1.961   1.563   1.125
 2124SOL    HW1 7271   1.991   1.592   1.034
 2124SOL    HW2 7272   1.894   1.490   1.116
 2125SOL     OW 7273   1.425   0.785   0.651
 2125SOL    HW1 7274   1.498   0.724   0.621
 2125SOL    HW2 7275   1.408   0.854   0.581
 2126SOL     OW 7276   2.900   0.731   0.797
 2126SOL    HW1 7277   2.988   0.699   0.763
 2126SOL    HW2 7278   2.841   0.652   0.816
 2127SOL     OW 7279   6.191   2.821   4.682
 2127SOL    HW1 7280   6.105   2.848   4.725
 2127SOL    HW2 7281   6.192   2.721   4.670
 2128SOL     OW 7282   0.226   4.576   4.594
 2128SOL    HW1 7283   0.200   4.497   4.649
 2128SOL    HW2 7284   0.167   4.653   4.616
 2129SOL     OW 7285   4.282   3.048   5.634
 2129SOL    HW1 7286   4.277   3.147   5.632
 2129SOL    HW2 7287   4.377   3.019   5.626
 2130SOL     OW 7288   5.025   6.787   2.510
 2130SOL    HW1 7289   5.050   6.817   2.602
 2130SOL    HW2 7290   4.925   6.793   2.500
 2131SOL     OW 7291   0.196   0.867   0.739
 2131SOL    HW1 7292   0.217   0.898   0.832
 2131SOL    HW2 7293   0.230   0.934   0.673
 2132SOL     OW 7294   3.958   3.508   0.794
 2132SOL    HW1 7295   4.038   3.463   0.752
 2132SOL    HW2 7296   3.963   3.499   0.893
 2133SOL     OW 7297   2.988   2.482   5.407
 2133SOL    HW1 7298   3.047   2.444   5.337
 2133SOL    HW2 7299   2.899   2.437   5.404
 2134SOL     OW 7300   0.041   1.866   0.659
 2134SOL    HW1 7301   0.061   1.768   0.657
 2134SOL    HW2 7302   6.975   1.881   0.704
 2135SOL     OW 7303   0.457   4.464   4.502
 2135SOL    HW1 7304   0.383   4.530   4.511
 2135SOL    HW2 7305   0.472   4.418   4.590
 2136SOL     OW 7306   2.833   5.246   2.112
 2136SOL    HW1 7307   2.755   5.224   2.171
 2136SOL    HW2 7308   2.821   5.203   2.023
 2137SOL     OW 7309   3.226   5.062   4.814
 2137SOL    HW1 7310   3.167   4.986   4.785
 2137SOL    HW2 7311   3.191   5.101   4.899
 2138SOL     OW 7312   6.190   0.896   2.994
 2138SOL    HW1 7313   6.277   0.912   3.042
 2138SOL    HW2 7314   6.142   0.983   2.983
 2139SOL     OW 7315   3.842   0.504   4.658
 2139SOL    HW1 7316   3.829   0.569   4.733
 2139SOL    HW2 7317   3.810   0.545   4.573
 2140SOL     OW 7318   3.695   0.272   4.818
 2140SOL    HW1 7319   3.626   0.320   4.872
 2140SOL    HW2 7320   3.732   0.334   4.748
 2141SOL     OW 7321   6.365   4.177   2.296
 2141SOL    HW1 7322   6.313   4.135   2.370
 2141SOL    HW2 7323   6.353   4.124   2.212
 2142SOL     OW 7324   1.203   2.345   3.485
 2142SOL    HW1 7325   1.164   2.253   3.482
 2142SOL    HW2 7326   1.151   2.405   3.424
 2143SOL     OW 7327   2.017   5.426   1.146
 2143SOL    HW1 7328   2.076   5.428   1.066
 2143SOL    HW2 7329   2.068   5.389   1.224
 2144SOL     OW 7330   0.371   4.773   4.264
 2144SOL    HW1 7331   0.465   4.752   4.239
 2144SOL    HW2 7332   0.362   4.872   4.279
 2145SOL     OW 7333   4.180   6.771   4.069
 2145SOL    HW1 7334   4.274   6.744   4.050
 2145SOL    HW2 7335   4.117   6.711   4.019
 2146SOL     OW 7336   2.086   1.992   0.552
 2146SOL    HW1 7337   2.020   1.969   0.624
 2146SOL    HW2 7338   2.178   1.973   0.584
 2147SOL     OW 7339   6.778   1.997   5.855
 2147SOL    HW1 7340   6.862   1.944   5.869
 2147SOL    HW2 7341   6.716   1.980   5.931
 2148SOL     OW 7342   0.443   3.345   6.545
 2148SOL    HW1 7343   0.472   3.263   6.594
 2148SOL    HW2 7344   0.347   3.334   6.518
 2149SOL     OW 7345   1.059   1.038   0.747
 2149SOL    HW1 7346   1.090   1.086   0.829
 2149SOL    HW2 7347   1.096   1.083   0.666
 2150SOL     OW 7348   2.647   2.476   1.794
 2150SOL    HW1 7349   2.741   2.480   1.828
 2150SOL    HW2 7350   2.607   2.567   1.792
 2151SOL     OW 7351   0.847   6.170   6.929
 2151SOL    HW1 7352   0.944   6.152   6.944
 2151SOL    HW2 7353   0.797   6.159   7.016
 2152SOL     OW 7354   3.642   5.252   2.182
 2152SOL    HW1 7355   3.588   5.169   2.166
 2152SOL    HW2 7356   3.583   5.325   2.213
 2153SOL     OW 7357   4.964   1.426   2.430
 2153SOL    HW1 7358   4.867   1.422   2.404
 2153SOL    HW2 7359   4.995   1.335   2.456
 2154SOL     OW 7360   2.582   6.862   3.694
 2154SOL    HW1 7361   2.623   6.878   3.604
 2154SOL    HW2 7362   2.637   6.908   3.764
 2155SOL     OW 7363   4.127   6.827   1.018
 2155SOL    HW1 7364   4.045   6.786   0.979
 2155SOL    HW2 7365   4.149   6.911   0.969
 2156SOL     OW 7366   6.484   0.455   4.240
 2156SOL    HW1 7367   6.523   0.534   4.288
 2156SOL    HW2 7368   6.397   0.481   4.198
 2157SOL     OW 7369   4.560   6.230   3.802
 2157SOL    HW1 7370   4.567   6.329   3.789
 2157SOL    HW2 7371   4.505   6.211   3.884
 2158SOL     OW 7372   4.128   6.735   0.612
 2158SOL    HW1 7373   4.207   6.770   0.662
 2158SOL    HW2 7374   4.049   6.732   0.672
 2159SOL     OW 7375   1.696   0.699   5.261
 2159SOL    HW1 7376   1.624   0.636   5.233
 2159SOL    HW2 7377   1.668   0.793   5.241
 2160SOL     OW 7378   4.873   5.328   6.937
 2160SOL    HW1 7379   4.917   5.393   6.874
 2160SOL    HW2 7380   4.827   5.256   6.884
 2161SOL     OW 7381   0.199   3.836   2.390
 2161SOL    HW1 7382   0.268   3.891   2.438
 2161SOL    HW2 7383   0.139   3.897   2.338
 2162SOL     OW 7384   2.651   6.847   3.404
 2162SOL    HW1 7385   2.554   6.867   3.388
 2162SOL    HW2 7386   2.663   6.748   3.415
 2163SOL     OW 7387   1.739   3.431   0.398
 2163SOL    HW1 7388   1.666   3.381   0.446
 2163SOL    HW2 7389   1.808   3.366   0.366
 2164SOL     OW 7390   2.815   2.613   6.570
 2164SOL    HW1 7391   2.851   2.661   6.490
 2164SOL    HW2 7392   2.887   2.603   6.638
 2165SOL     OW 7393   0.767   1.455   4.267
 2165SOL    HW1 7394   0.772   1.550   4.234
 2165SOL    HW2 7395   0.841   1.439   4.333
 2166SOL     OW 7396   0.178   4.430   4.013
 2166SOL    HW1 7397   0.194   4.331   4.020
 2166SOL    HW2 7398   0.117   4.448   3.935
 2167SOL     OW 7399   1.185   2.793   3.550
 2167SOL    HW1 7400   1.213   2.728   3.621
 2167SOL    HW2 7401   1.118   2.856   3.588
 2168SOL     OW 7402   0.967   1.822   3.083
 2168SOL    HW1 7403   0.898   1.804   3.012
 2168SOL    HW2 7404   1.054   1.780   3.056
 2169SOL     OW 7405   0.493   0.229   1.000
 2169SOL    HW1 7406   0.404   0.273   0.987
 2169SOL    HW2 7407   0.485   0.160   1.072
 2170SOL     OW 7408   0.107   4.132   4.571
 2170SOL    HW1 7409   0.193   4.113   4.619
 2170SOL    HW2 7410   0.051   4.193   4.627
 2171SOL     OW 7411   0.499   5.918   1.040
 2171SOL    HW1 7412   0.449   5.999   1.010
 2171SOL    HW2 7413   0.438   5.839   1.039
 2172SOL     OW 7414   1.186   2.006   5.742
 2172SOL    HW1 7415   1.201   1.964   5.653
 2172SOL    HW2 7416   1.266   1.992   5.800
 2173SOL     OW 7417   5.526   0.008   5.663
 2173SOL    HW1 7418   5.542   0.085   5.726
 2173SOL    HW2 7419   5.451   0.030   5.601
 2174SOL     OW 7420   0.334   6.198   4.935
 2174SOL    HW1 7421   0.287   6.233   5.016
 2174SOL    HW2 7422   0.310   6.101   4.923
 2175SOL     OW 7423   1.927   2.978   5.046
 2175SOL    HW1 7424   2.012   2.989   5.097
 2175SOL    HW2 7425   1.895   3.067   5.015
 2176SOL     OW 7426   4.672   2.610   0.976
 2176SOL    HW1 7427   4.657   2.695   1.026
 2176SOL    HW2 7428   4.770   2.600   0.958
 2177SOL     OW 7429   6.451   0.546   2.617
 2177SOL    HW1 7430   6.395   0.601   2.678
 2177SOL    HW2 7431   6.501   0.477   2.669
 2178SOL     OW 7432   1.132   1.046   1.850
 2178SOL    HW1 7433   1.133   1.024   1.753
 2178SOL    HW2 7434   1.221   1.023   1.890
 2179SOL     OW 7435   1.921   3.480   5.974
 2179SOL    HW1 7436   1.966   3.413   5.914
 2179SOL    HW2 7437   1.990   3.532   6.024
 2180SOL     OW 7438   1.808   3.695   2.081
 2180SOL    HW1 7439   1.901   3.707   2.115
 2180SOL    HW2 7440   1.810   3.637   1.999
 2181SOL     OW 7441   4.948   4.969   4.326
 2181SOL    HW1 7442   5.002   5.028   4.265
 2181SOL    HW2 7443   4.884   5.026   4.378
 2182SOL     OW 7444   0.610   4.567   3.644
 2182SOL    HW1 7445   0.696   4.618   3.634
 2182SOL    HW2 7446   0.544   4.624   3.693
 2183SOL     OW 7447   2.485   3.681   0.431
 2183SOL    HW1 7448   2.450   3.756   0.488
 2183SOL    HW2 7449   2.419   3.606   0.430
 2184SOL     OW 7450   5.137   0.046   0.018
 2184SOL    HW1 7451   5.079   0.002   0.086
 2184SOL    HW2 7452   5.219   0.082   0.061
 2185SOL     OW 7453   1.071   1.401   6.588
 2185SOL    HW1 7454   1.054   1.344   6.508
 2185SOL    HW2 7455   1.086   1.343   6.669
 2186SOL     OW 7456   6.123   5.369   5.557
 2186SOL    HW1 7457   6.035   5.351   5.600
 2186SOL    HW2 7458   6.168   5.446   5.603
 2187SOL     OW 7459   6.922   5.781   2.633
 2187SOL    HW1 7460   6.933   5.866   2.685
 2187SOL    HW2 7461   7.013   5.746   2.609
 2188SOL     OW 7462   2.368   5.111   5.999
 2188SOL    HW1 7463   2.361   5.147   6.092
 2188SOL    HW2 7464   2.446   5.155   5.952
 2189SOL     OW 7465   2.126   1.069   2.541
 2189SOL    HW1 7466   2.043   1.116   2.512
 2189SOL    HW2 7467   2.202   1.097   2.483
 2190SOL     OW 7468   6.893   3.796   2.266
 2190SOL    HW1 7469   6.993   3.792   2.262
 2190SOL    HW2 7470   6.859   3.727   2.330
 2191SOL     OW 7471   2.743   1.517   5.240
 2191SOL    HW1 7472   2.827   1.483   5.281
 2191SOL    HW2 7473   2.763   1.554   5.149
 2192SOL     OW 7474   5.559   0.171   2.501
 2192SOL    HW1 7475   5.634   0.235   2.485
 2192SOL    HW2 7476   5.477   0.221   2.527
 2193SOL     OW 7477   6.057   6.963   5.967
 2193SOL    HW1 7478   6.154   6.953   5.947
 2193SOL    HW2 7479   6.025   6.885   6.021
 2194SOL     OW 7480   0.801   3.915   5.523
 2194SOL    HW1 7481   0.702   3.901   5.523
 2194SOL    HW2 7482   0.824   3.989   5.460
 2195SOL     OW 7483   6.759   6.169   5.188
 2195SOL    HW1 7484   6.793   6.116   5.266
 2195SOL    HW2 7485   6.660   6.164   5.185
 2196SOL     OW 7486   3.131   6.617   5.116
 2196SOL    HW1 7487   3.093   6.705   5.088
 2196SOL    HW2 7488   3.227   6.613   5.089
 2197SOL     OW 7489   2.885   3.198   6.355
 2197SOL    HW1 7490   2.901   3.254   6.274
 2197SOL    HW2 7491   2.952   3.220   6.425
 2198SOL     OW 7492   6.364   6.916   0.968
 2198SOL    HW1 7493   6.309   6.928   0.885
 2198SOL    HW2 7494   6.414   6.829   0.962
 2199SOL     OW 7495   5.195   0.100   4.999
 2199SOL    HW1 7496   5.209   0.199   4.997
 2199SOL    HW2 7497   5.253   0.060   5.069
 2200SOL     OW 7498   2.800   1.371   3.742
 2200SOL    HW1 7499   2.889   1.404   3.711
 2200SOL    HW2 7500   2.730   1.440   3.725
 2201SOL     OW 7501   6.089   3.335   2.995
 2201SOL    HW1 7502   6.115   3.340   2.899
 2201SOL    HW2 7503   6.169   3.311   3.050
 2202SOL     OW 7504   3.069   5.672   2.746
 2202SOL    HW1 7505   3.044   5.755   2.797
 2202SOL    HW2 7506   3.010   5.663   2.666
 2203SOL     OW 7507   2.487   3.315   1.367
 2203SOL    HW1 7508   2.460   3.308   1.463
 2203SOL    HW2 7509   2.430   3.384   1.321
 2204SOL     OW 7510   4.622   2.903   0.819
 2204SOL    HW1 7511   4.663   2.813   0.803
 2204SOL    HW2 7512   4.624   2.923   0.917
 2205SOL     OW 7513   1.321   0.203   0.195
 2205SOL    HW1 7514   1.315   0.110   0.158
 2205SOL    HW2 7515   1.283   0.205   0.287
 2206SOL     OW 7516   2.250   4.590   6.300
 2206SOL    HW1 7517   2.239   4.495   6.270
 2206SOL    HW2 7518   2.305   4.640   6.233
 2207SOL     OW 7519   3.259   5.237   0.051
 2207SOL    HW1 7520   3.337   5.177   0.063
 2207SOL    HW2 7521   3.206   5.240   0.136
 2208SOL     OW 7522   0.620   5.179   3.014
 2208SOL    HW1 7523   0.698   5.215   3.065
 2208SOL    HW2 7524   0.642   5.088   2.979
 2209SOL     OW 7525   2.712   6.098   4.994
 2209SOL    HW1 7526   2.696   6.003   4.967
 2209SOL    HW2 7527   2.710   6.157   4.913
 2210SOL     OW 7528   6.610   6.067   2.956
 2210SOL    HW1 7529   6.693   6.093   3.005
 2210SOL    HW2 7530   6.550   6.015   3.017
 2211SOL     OW 7531   6.143   0.594   0.609
 2211SOL    HW1 7532   6.194   0.680   0.614
 2211SOL    HW2 7533   6.053   0.611   0.568
 2212SOL     OW 7534   1.837   5.837   6.531
 2212SOL    HW1 7535   1.918   5.816   6.586
 2212SOL    HW2 7536   1.840   5.785   6.446
 2213SOL     OW 7537   4.269   2.615   5.555
 2213SOL    HW1 7538   4.214   2.532   5.563
 2213SOL    HW2 7539   4.351   2.607   5.611
 2214SOL     OW 7540   3.120   3.085   4.702
 2214SOL    HW1 7541   3.205   3.040   4.672
 2214SOL    HW2 7542   3.104   3.062   4.799
 2215SOL     OW 7543   5.352   1.851   6.515
 2215SOL    HW1 7544   5.405   1.820   6.436
 2215SOL    HW2 7545   5.327   1.772   6.571
 2216SOL     OW 7546   7.017   0.487   5.931
 2216SOL    HW1 7547   6.976   0.462   6.019
 2216SOL    HW2 7548   6.946   0.527   5.872
 2217SOL     OW 7549   4.315   0.384   3.255
 2217SOL    HW1 7550   4.388   0.346   3.198
 2217SOL    HW2 7551   4.275   0.311   3.310
 2218SOL     OW 7552   6.857   5.166   6.748
 2218SOL    HW1 7553   6.914   5.092   6.712
 2218SOL    HW2 7554   6.830   5.227   6.674
 2219SOL     OW 7555   6.267   2.289   1.002
 2219SOL    HW1 7556   6.180   2.306   1.049
 2219SOL    HW2 7557   6.303   2.200   1.029
 2220SOL     OW 7558   1.954   5.776   5.613
 2220SOL    HW1 7559   1.965   5.835   5.694
 2220SOL    HW2 7560   2.042   5.764   5.569
 2221SOL     OW 7561   6.866   1.878   5.038
 2221SOL    HW1 7562   6.806   1.802   5.010
 2221SOL    HW2 7563   6.822   1.931   5.109
 2222SOL     OW 7564   5.616   6.923   0.543
 2222SOL    HW1 7565   5.593   6.999   0.482
 2222SOL    HW2 7566   5.703   6.941   0.588
 2223SOL     OW 7567   6.343   1.515   6.206
 2223SOL    HW1 7568   6.251   1.538   6.175
 2223SOL    HW2 7569   6.400   1.597   6.206
 2224SOL     OW 7570   5.939   3.085   1.799
 2224SOL    HW1 7571   5.925   3.157   1.730
 2224SOL    HW2 7572   5.857   3.029   1.807
 2225SOL     OW 7573   0.278   6.796   3.129
 2225SOL    HW1 7574   0.287   6.714   3.186
 2225SOL    HW2 7575   0.355   6.857   3.147
 2226SOL     OW 7576   3.919   5.742   0.727
 2226SOL    HW1 7577   3.894   5.778   0.818
 2226SOL    HW2 7578   3.867   5.659   0.709
 2227SOL     OW 7579   4.885   2.595   1.712
 2227SOL    HW1 7580   4.883   2.567   1.808
 2227SOL    HW2 7581   4.815   2.546   1.662
 2228SOL     OW 7582   4.467   5.505   0.330
 2228SOL    HW1 7583   4.401   5.519   0.256
 2228SOL    HW2 7584   4.560   5.516   0.295
 2229SOL     OW 7585   4.057   3.845   4.944
 2229SOL    HW1 7586   4.104   3.825   4.858
 2229SOL    HW2 7587   4.045   3.760   4.996
 2230SOL     OW 7588   5.434   5.963   1.096
 2230SOL    HW1 7589   5.431   5.870   1.133
 2230SOL    HW2 7590   5.342   6.003   1.099
 2231SOL     OW 7591   0.722   0.363   6.899
 2231SOL    HW1 7592   0.790   0.398   6.963
 2231SOL    HW2 7593   0.745   0.269   6.874
 2232SOL     OW 7594   0.652   1.660   4.859
 2232SOL    HW1 7595   0.701   1.611   4.931
 2232SOL    HW2 7596   0.670   1.758   4.868
 2233SOL     OW 7597   2.558   2.989   1.125
 2233SOL    HW1 7598   2.462   2.992   1.149
 2233SOL    HW2 7599   2.568   2.975   1.026
 2234SOL     OW 7600   3.574   1.473   0.589
 2234SOL    HW1 7601   3.616   1.461   0.679
 2234SOL    HW2 7602   3.503   1.404   0.575
 2235SOL     OW 7603   2.582   0.151   2.400
 2235SOL    HW1 7604   2.499   0.147   2.344
 2235SOL    HW2 7605   2.643   0.221   2.365
 2236SOL     OW 7606   1.722   3.531   5.678
 2236SOL    HW1 7607   1.815   3.524   5.642
 2236SOL    HW2 7608   1.720   3.598   5.753
 2237SOL     OW 7609   5.596   4.216   4.892
 2237SOL    HW1 7610   5.619   4.274   4.970
 2237SOL    HW2 7611   5.639   4.127   4.903
 2238SOL     OW 7612   4.413   4.807   2.521
 2238SOL    HW1 7613   4.399   4.723   2.468
 2238SOL    HW2 7614   4.510   4.817   2.542
 2239SOL     OW 7615   4.631   5.930   4.024
 2239SOL    HW1 7616   4.550   5.987   4.038
 2239SOL    HW2 7617   4.645   5.914   3.927
 2240SOL     OW 7618   3.465   5.467   2.681
 2240SOL    HW1 7619   3.451   5.436   2.774
 2240SOL    HW2 7620   3.562   5.458   2.657
 2241SOL     OW 7621   7.007   6.622   1.967
 2241SOL    HW1 7622   0.070   6.575   1.990
 2241SOL    HW2 7623   6.951   6.631   2.050
 2242SOL     OW 7624   5.300   3.628   2.672
 2242SOL    HW1 7625   5.329   3.558   2.737
 2242SOL    HW2 7626   5.262   3.706   2.722
 2243SOL     OW 7627   2.088   6.951   0.080
 2243SOL    HW1 7628   2.153   6.982   0.011
 2243SOL    HW2 7629   2.135   6.897   0.149
 2244SOL     OW 7630   2.873   0.016   1.604
 2244SOL    HW1 7631   2.850   0.112   1.592
 2244SOL    HW2 7632   2.852   7.011   1.698
 2245SOL     OW 7633   0.043   1.525   1.166
 2245SOL    HW1 7634   0.082   1.544   1.076
 2245SOL    HW2 7635   0.089   1.446   1.207
 2246SOL     OW 7636   1.873   0.749   4.232
 2246SOL    HW1 7637   1.957   0.698   4.253
 2246SOL    HW2 7638   1.862   0.756   4.133
 2247SOL     OW 7639   3.050   3.190   2.907
 2247SOL    HW1 7640   3.108   3.208   2.828
 2247SOL    HW2 7641   3.006   3.276   2.935
 2248SOL     OW 7642   6.254   3.886   4.503
 2248SOL    HW1 7643   6.230   3.971   4.458
 2248SOL    HW2 7644   6.338   3.898   4.556
 2249SOL     OW 7645   4.794   0.081   3.522
 2249SOL    HW1 7646   4.788   7.021   3.578
 2249SOL    HW2 7647   4.722   0.144   3.549
 2250SOL     OW 7648   2.968   3.719   5.391
 2250SOL    HW1 7649   3.055   3.695   5.432
 2250SOL    HW2 7650   2.903   3.746   5.462
 2251SOL     OW 7651   5.411   0.138   6.103
 2251SOL    HW1 7652   5.486   0.138   6.169
 2251SOL    HW2 7653   5.333   0.189   6.141
 2252SOL     OW 7654   4.824   1.706   3.129
 2252SOL    HW1 7655   4.784   1.678   3.217
 2252SOL    HW2 7656   4.901   1.645   3.107
 2253SOL     OW 7657   0.005   3.710   0.450
 2253SOL    HW1 7658   0.105   3.713   0.450
 2253SOL    HW2 7659   6.995   3.669   0.364
 2254SOL     OW 7660   3.603   2.906   4.144
 2254SOL    HW1 7661   3.555   2.827   4.105
 2254SOL    HW2 7662   3.543   2.986   4.138
 2255SOL     OW 7663   3.329   3.907   5.709
 2255SOL    HW1 7664   3.371   3.898   5.619
 2255SOL    HW2 7665   3.239   3.949   5.700
 2256SOL     OW 7666   5.246   6.808   2.058
 2256SOL    HW1 7667   5.208   6.718   2.076
 2256SOL    HW2 7668   5.208   6.874   2.122
 2257SOL     OW 7669   0.486   0.906   4.681
 2257SOL    HW1 7670   0.417   0.835   4.696
 2257SOL    HW2 7671   0.577   0.868   4.698
 2258SOL     OW 7672   1.966   5.504   4.721
 2258SOL    HW1 7673   1.878   5.537   4.756
 2258SOL    HW2 7674   1.955   5.473   4.627
 2259SOL     OW 7675   5.201   3.004   5.339
 2259SOL    HW1 7676   5.225   2.978   5.433
 2259SOL    HW2 7677   5.166   3.097   5.338
 2260SOL     OW 7678   0.076   3.725   1.503
 2260SOL    HW1 7679   0.066   3.717   1.404
 2260SOL    HW2 7680   0.064   3.820   1.530
 2261SOL     OW 7681   6.370   5.182   0.280
 2261SOL    HW1 7682   6.383   5.280   0.297
 2261SOL    HW2 7683   6.459   5.136   0.281
 2262SOL     OW 7684   6.172   6.986   3.138
 2262SOL    HW1 7685   6.124   0.015   3.067
 2262SOL    HW2 7686   6.191   0.023   3.216
 2263SOL     OW 7687   2.490   6.062   0.155
 2263SOL    HW1 7688   2.569   6.094   0.206
 2263SOL    HW2 7689   2.452   5.981   0.200
 2264SOL     OW 7690   3.409   6.379   6.449
 2264SOL    HW1 7691   3.402   6.390   6.548
 2264SOL    HW2 7692   3.454   6.460   6.409
 2265SOL     OW 7693   2.034   0.377   4.282
 2265SOL    HW1 7694   2.071   0.453   4.336
 2265SOL    HW2 7695   1.991   0.413   4.199
 2266SOL     OW 7696   5.050   2.067   6.296
 2266SOL    HW1 7697   5.056   2.165   6.277
 2266SOL    HW2 7698   4.992   2.052   6.376
 2267SOL     OW 7699   4.663   3.240   5.322
 2267SOL    HW1 7700   4.707   3.301   5.387
 2267SOL    HW2 7701   4.565   3.236   5.341
 2268SOL     OW 7702   6.261   4.122   6.462
 2268SOL    HW1 7703   6.277   4.156   6.555
 2268SOL    HW2 7704   6.163   4.120   6.444
 2269SOL     OW 7705   0.776   3.655   5.193
 2269SOL    HW1 7706   0.826   3.734   5.228
 2269SOL    HW2 7707   0.826   3.571   5.215
 2270SOL     OW 7708   3.908   3.062   6.282
 2270SOL    HW1 7709   3.903   3.006   6.199
 2270SOL    HW2 7710   4.004   3.072   6.310
 2271SOL     OW 7711   5.621   4.614   0.169
 2271SOL    HW1 7712   5.627   4.515   0.176
 2271SOL    HW2 7713   5.660   4.656   0.251
 2272SOL     OW 7714   5.884   1.220   6.887
 2272SOL    HW1 7715   5.952   1.149   6.869
 2272SOL    HW2 7716   5.918   1.308   6.854
 2273SOL     OW 7717   1.064   1.940   1.711
 2273SOL    HW1 7718   1.025   1.946   1.802
 2273SOL    HW2 7719   1.070   2.032   1.671
 2274SOL     OW 7720   0.337   1.813   6.613
 2274SOL    HW1 7721   0.424   1.783   6.573
 2274SOL    HW2 7722   0.342   1.806   6.713
 2275SOL     OW 7723   5.912   6.700   2.939
 2275SOL    HW1 7724   5.971   6.631   2.898
 2275SOL    HW2 7725   5.960   6.745   3.015
 2276SOL     OW 7726   1.736   5.730   1.835
 2276SOL    HW1 7727   1.653   5.754   1.885
 2276SOL    HW2 7728   1.812   5.716   1.899
 2277SOL     OW 7729   3.639   4.164   4.862
 2277SOL    HW1 7730   3.588   4.078   4.873
 2277SOL    HW2 7731   3.598   4.217   4.788
 2278SOL     OW 7732   6.073   2.725   3.669
 2278SOL    HW1 7733   6.096   2.744   3.765
 2278SOL    HW2 7734   6.155   2.696   3.620
 2279SOL     OW 7735   5.894   0.199   5.330
 2279SOL    HW1 7736   5.859   0.214   5.423
 2279SOL    HW2 7737   5.883   0.102   5.306
 2280SOL     OW 7738   6.816   6.902   4.290
 2280SOL    HW1 7739   6.883   6.868   4.357
 2280SOL    HW2 7740   6.742   6.948   4.338
 2281SOL     OW 7741   3.219   0.887   1.906
 2281SOL    HW1 7742   3.187   0.857   1.996
 2281SOL    HW2 7743   3.150   0.946   1.865
 2282SOL     OW 7744   5.488   6.064   5.947
 2282SOL    HW1 7745   5.427   6.006   5.894
 2282SOL    HW2 7746   5.583   6.041   5.925
 2283SOL     OW 7747   1.837   0.335   1.807
 2283SOL    HW1 7748   1.896   0.265   1.765
 2283SOL    HW2 7749   1.751   0.293   1.835
 2284SOL     OW 7750   1.165   3.198   6.422
 2284SOL    HW1 7751   1.081   3.144   6.431
 2284SOL    HW2 7752   1.182   3.217   6.325
 2285SOL     OW 7753   1.059   3.095   0.410
 2285SOL    HW1 7754   1.065   3.051   0.500
 2285SOL    HW2 7755   1.118   3.175   0.408
 2286SOL     OW 7756   5.456   0.522   3.697
 2286SOL    HW1 7757   5.387   0.585   3.735
 2286SOL    HW2 7758   5.544   0.540   3.742
 2287SOL     OW 7759   1.847   0.666   3.616
 2287SOL    HW1 7760   1.933   0.680   3.665
 2287SOL    HW2 7761   1.787   0.606   3.670
 2288SOL     OW 7762   6.597   5.245   3.707
 2288SOL    HW1 7763   6.531   5.231   3.780
 2288SOL    HW2 7764   6.646   5.159   3.690
 2289SOL     OW 7765   0.140   5.200   0.535
 2289SOL    HW1 7766   0.083   5.275   0.569
 2289SOL    HW2 7767   0.222   5.238   0.492
 2290SOL     OW 7768   0.758   3.910   1.167
 2290SOL    HW1 7769   0.826   3.953   1.227
 2290SOL    HW2 7770   0.727   3.825   1.210
 2291SOL     OW 7771   2.556   2.777   5.787
 2291SOL    HW1 7772   2.513   2.786   5.697
 2291SOL    HW2 7773   2.538   2.685   5.823
 2292SOL     OW 7774   1.358   1.627   4.534
 2292SOL    HW1 7775   1.352   1.528   4.541
 2292SOL    HW2 7776   1.444   1.658   4.576
 2293SOL     OW 7777   4.980   6.196   1.900
 2293SOL    HW1 7778   4.885   6.171   1.879
 2293SOL    HW2 7779   5.032   6.113   1.920
 2294SOL     OW 7780   2.952   0.367   0.112
 2294SOL    HW1 7781   3.041   0.375   0.158
 2294SOL    HW2 7782   2.895   0.445   0.136
 2295SOL     OW 7783   0.277   1.732   2.343
 2295SOL    HW1 7784   0.344   1.775   2.404
 2295SOL    HW2 7785   0.195   1.790   2.338
 2296SOL     OW 7786   3.618   5.975   0.425
 2296SOL    HW1 7787   3.670   5.971   0.340
 2296SOL    HW2 7788   3.537   5.917   0.417
 2297SOL     OW 7789   3.542   4.167   5.251
 2297SOL    HW1 7790   3.625   4.134   5.205
 2297SOL    HW2 7791   3.556   4.260   5.283
 2298SOL     OW 7792   4.180   2.554   1.688
 2298SOL    HW1 7793   4.195   2.554   1.589
 2298SOL    HW2 7794   4.267   2.567   1.735
 2299SOL     OW 7795   5.150   0.420   6.595
 2299SOL    HW1 7796   5.227   0.356   6.588
 2299SOL    HW2 7797   5.105   0.408   6.683
 2300SOL     OW 7798   2.556   4.869   1.485
 2300SOL    HW1 7799   2.656   4.866   1.478
 2300SOL    HW2 7800   2.528   4.961   1.513
 2301SOL     OW 7801   3.246   2.943   3.293
 2301SOL    HW1 7802   3.198   2.972   3.211
 2301SOL    HW2 7803   3.215   2.852   3.320
 2302SOL     OW 7804   3.446   0.177   1.974
 2302SOL    HW1 7805   3.378   0.250   1.972
 2302SOL    HW2 7806   3.512   0.191   1.900
 2303SOL     OW 7807   1.633   3.341   6.050
 2303SOL    HW1 7808   1.536   3.335   6.025
 2303SOL    HW2 7809   1.680   3.399   5.983
 2304SOL     OW 7810   3.130   0.288   3.081
 2304SOL    HW1 7811   3.116   0.387   3.068
 2304SOL    HW2 7812   3.042   0.242   3.082
 2305SOL     OW 7813   3.200   6.123   3.294
 2305SOL    HW1 7814   3.178   6.198   3.357
 2305SOL    HW2 7815   3.291   6.137   3.256
 2306SOL     OW 7816   1.994   5.450   2.139
 2306SOL    HW1 7817   1.903   5.421   2.169
 2306SOL    HW2 7818   2.031   5.516   2.205
 2307SOL     OW 7819   1.929   4.499   2.697
 2307SOL    HW1 7820   1.856   4.521   2.633
 2307SOL    HW2 7821   1.928   4.400   2.717
 2308SOL     OW 7822   1.564   6.860   6.996
 2308SOL    HW1 7823   1.613   6.905   0.048
 2308SOL    HW2 7824   1.608   6.881   6.909
 2309SOL     OW 7825   3.049   6.885   0.094
 2309SOL    HW1 7826   3.035   6.978   0.060
 2309SOL    HW2 7827   2.963   6.834   0.091
 2310SOL     OW 7828   6.019   6.335   1.478
 2310SOL    HW1 7829   6.086   6.336   1.552
 2310SOL    HW2 7830   6.026   6.420   1.426
 2311SOL     OW 7831   2.691   6.558   2.307
 2311SOL    HW1 7832   2.651   6.478   2.263
 2311SOL    HW2 7833   2.684   6.550   2.406
 2312SOL     OW 7834   3.514   6.891   3.723
 2312SOL    HW1 7835   3.469   6.922   3.640
 2312SOL    HW2 7836   3.613   6.906   3.715
 2313SOL     OW 7837   4.961   5.317   2.303
 2313SOL    HW1 7838   5.012   5.238   2.336
 2313SOL    HW2 7839   5.011   5.362   2.229
 2314SOL     OW 7840   5.654   0.847   4.617
 2314SOL    HW1 7841   5.669   0.909   4.694
 2314SOL    HW2 7842   5.741   0.803   4.593
 2315SOL     OW 7843   4.997   3.511   5.177
 2315SOL    HW1 7844   4.926   3.566   5.133
 2315SOL    HW2 7845   4.980   3.414   5.160
 2316SOL     OW 7846   2.925   0.883   4.956
 2316SOL    HW1 7847   2.918   0.846   5.049
 2316SOL    HW2 7848   2.867   0.830   4.894
 2317SOL     OW 7849   6.360   6.427   3.438
 2317SOL    HW1 7850   6.287   6.453   3.502
 2317SOL    HW2 7851   6.431   6.497   3.438
 2318SOL     OW 7852   1.997   3.425   4.456
 2318SOL    HW1 7853   1.998   3.475   4.370
 2318SOL    HW2 7854   2.066   3.353   4.454
 2319SOL     OW 7855   3.154   5.654   5.182
 2319SOL    HW1 7856   3.233   5.700   5.140
 2319SOL    HW2 7857   3.105   5.719   5.239
 2320SOL     OW 7858   1.388   2.705   5.513
 2320SOL    HW1 7859   1.367   2.647   5.592
 2320SOL    HW2 7860   1.323   2.688   5.440
 2321SOL     OW 7861   1.784   5.324   6.994
 2321SOL    HW1 7862   1.878   5.291   7.002
 2321SOL    HW2 7863   1.749   5.305   6.902
 2322SOL     OW 7864   2.043   4.229   2.447
 2322SOL    HW1 7865   1.957   4.253   2.401
 2322SOL    HW2 7866   2.025   4.214   2.544
 2323SOL     OW 7867   3.542   4.940   1.715
 2323SOL    HW1 7868   3.583   4.853   1.741
 2323SOL    HW2 7869   3.445   4.940   1.741
 2324SOL     OW 7870   6.786   5.949   1.089
 2324SOL    HW1 7871   6.718   5.956   1.162
 2324SOL    HW2 7872   6.740   5.948   1.000
 2325SOL     OW 7873   0.580   4.146   1.299
 2325SOL    HW1 7874   0.519   4.224   1.311
 2325SOL    HW2 7875   0.623   4.150   1.209
 2326SOL     OW 7876   2.006   6.493   6.569
 2326SOL    HW1 7877   1.965   6.583   6.578
 2326SOL    HW2 7878   2.001   6.463   6.474
 2327SOL     OW 7879   0.041   1.410   3.173
 2327SOL    HW1 7880   0.097   1.493   3.166
 2327SOL    HW2 7881   7.020   1.407   3.263
 2328SOL     OW 7882   1.409   1.607   3.063
 2328SOL    HW1 7883   1.474   1.537   3.092
 2328SOL    HW2 7884   1.385   1.665   3.141
 2329SOL     OW 7885   1.000   4.395   5.250
 2329SOL    HW1 7886   1.089   4.406   5.205
 2329SOL    HW2 7887   0.933   4.363   5.183
 2330SOL     OW 7888   0.409   2.711   1.110
 2330SOL    HW1 7889   0.406   2.759   1.022
 2330SOL    HW2 7890   0.419   2.777   1.184
 2331SOL     OW 7891   3.877   4.819   0.215
 2331SOL    HW1 7892   3.933   4.746   0.254
 2331SOL    HW2 7893   3.888   4.902   0.270
 2332SOL     OW 7894   6.753   6.916   5.745
 2332SOL    HW1 7895   6.801   6.861   5.677
 2332SOL    HW2 7896   6.654   6.912   5.728
 2333SOL     OW 7897   6.835   3.900   3.328
 2333SOL    HW1 7898   6.927   3.939   3.318
 2333SOL    HW2 7899   6.839   3.823   3.391
 2334SOL     OW 7900   2.326   1.050   6.388
 2334SOL    HW1 7901   2.302   1.091   6.300
 2334SOL    HW2 7902   2.326   1.121   6.459
 2335SOL     OW 7903   5.894   0.904   4.166
 2335SOL    HW1 7904   5.910   0.810   4.135
 2335SOL    HW2 7905   5.816   0.906   4.229
 2336SOL     OW 7906   4.098   1.292   4.815
 2336SOL    HW1 7907   4.106   1.368   4.750
 2336SOL    HW2 7908   4.053   1.324   4.898
 2337SOL     OW 7909   3.902   0.073   1.373
 2337SOL    HW1 7910   3.954   0.080   1.287
 2337SOL    HW2 7911   3.947   0.008   1.434
 2338SOL     OW 7912   0.322   3.139   4.954
 2338SOL    HW1 7913   0.304   3.098   4.865
 2338SOL    HW2 7914   0.322   3.067   5.024
 2339SOL     OW 7915   3.261   4.025   3.191
 2339SOL    HW1 7916   3.250   4.082   3.110
 2339SOL    HW2 7917   3.352   3.984   3.190
 2340SOL     OW 7918   6.880   4.038   6.270
 2340SOL    HW1 7919   6.909   4.109   6.206
 2340SOL    HW2 7920   6.909   4.062   6.362
 2341SOL     OW 7921   3.016   4.783   1.826
 2341SOL    HW1 7922   2.961   4.699   1.830
 2341SOL    HW2 7923   3.020   4.825   1.917
 2342SOL     OW 7924   1.162   6.790   5.529
 2342SOL    HW1 7925   1.099   6.725   5.571
 2342SOL    HW2 7926   1.170   6.872   5.587
 2343SOL     OW 7927   1.552   5.238   2.608
 2343SOL    HW1 7928   1.574   5.140   2.609
 2343SOL    HW2 7929   1.593   5.282   2.688
 2344SOL     OW 7930   0.778   5.652   6.812
 2344SOL    HW1 7931   0.699   5.624   6.867
 2344SOL    HW2 7932   0.833   5.717   6.864
 2345SOL     OW 7933   3.043   5.936   5.198
 2345SOL    HW1 7934   2.945   5.954   5.209
 2345SOL    HW2 7935   3.062   5.919   5.101
 2346SOL     OW 7936   3.431   3.379   5.356
 2346SOL    HW1 7937   3.441   3.373   5.257
 2346SOL    HW2 7938   3.355   3.321   5.386
 2347SOL     OW 7939   3.032   2.341   1.196
 2347SOL    HW1 7940   2.990   2.381   1.278
 2347SOL    HW2 7941   3.068   2.413   1.138
 2348SOL     OW 7942   2.414   6.671   3.565
 2348SOL    HW1 7943   2.321   6.707   3.574
 2348SOL    HW2 7944   2.474   6.720   3.629
 2349SOL     OW 7945   1.249   5.167   5.817
 2349SOL    HW1 7946   1.201   5.085   5.845
 2349SOL    HW2 7947   1.208   5.247   5.862
 2350SOL     OW 7948   6.300   5.901   6.127
 2350SOL    HW1 7949   6.324   5.947   6.041
 2350SOL    HW2 7950   6.325   5.959   6.204
 2351SOL     OW 7951   2.706   5.380   4.824
 2351SOL    HW1 7952   2.763   5.436   4.764
 2351SOL    HW2 7953   2.635   5.334   4.770
 2352SOL     OW 7954   0.460   3.995   2.473
 2352SOL    HW1 7955   0.558   4.005   2.457
 2352SOL    HW2 7956   0.438   4.023   2.566
 2353SOL     OW 7957   3.516   5.466   5.078
 2353SOL    HW1 7958   3.497   5.499   5.170
 2353SOL    HW2 7959   3.601   5.413   5.079
 2354SOL     OW 7960   2.874   2.009   5.414
 2354SOL    HW1 7961   2.819   1.926   5.428
 2354SOL    HW2 7962   2.924   2.002   5.328
 2355SOL     OW 7963   2.134   6.802   6.419
 2355SOL    HW1 7964   2.195   6.727   6.393
 2355SOL    HW2 7965   2.129   6.868   6.344
 2356SOL     OW 7966   1.418   3.156   6.520
 2356SOL    HW1 7967   1.327   3.154   6.477
 2356SOL    HW2 7968   1.488   3.167   6.449
 2357SOL     OW 7969   4.221   0.056   2.667
 2357SOL    HW1 7970   4.249   6.984   2.679
 2357SOL    HW2 7971   4.189   0.093   2.754
 2358SOL     OW 7972   3.958   5.138   4.716
 2358SOL    HW1 7973   3.964   5.117   4.814
 2358SOL    HW2 7974   3.982   5.057   4.663
 2359SOL     OW 7975   6.585   0.933   5.440
 2359SOL    HW1 7976   6.633   0.956   5.525
 2359SOL    HW2 7977   6.491   0.967   5.445
 2360SOL     OW 7978   5.664   3.575   0.011
 2360SOL    HW1 7979   5.728   3.553   6.959
 2360SOL    HW2 7980   5.581   3.520   0.001
 2361SOL     OW 7981   2.921   1.011   5.368
 2361SOL    HW1 7982   2.835   1.001   5.318
 2361SOL    HW2 7983   2.981   0.933   5.347
 2362SOL     OW 7984   2.355   6.178   3.925
 2362SOL    HW1 7985   2.307   6.187   3.838
 2362SOL    HW2 7986   2.315   6.241   3.992
 2363SOL     OW 7987   4.674   2.281   4.972
 2363SOL    HW1 7988   4.578   2.266   4.951
 2363SOL    HW2 7989   4.712   2.347   4.907
 2364SOL     OW 7990   0.465   2.164   2.525
 2364SOL    HW1 7991   0.493   2.178   2.430
 2364SOL    HW2 7992   0.395   2.232   2.549
 2365SOL     OW 7993   6.080   2.487   6.446
 2365SOL    HW1 7994   6.168   2.458   6.485
 2365SOL    HW2 7995   6.027   2.407   6.419
 2366SOL     OW 7996   2.550   5.471   6.305
 2366SOL    HW1 7997   2.497   5.459   6.389
 2366SOL    HW2 7998   2.558   5.384   6.258
 2367SOL     OW 7999   2.655   3.800   0.981
 2367SOL    HW1 8000   2.725   3.728   0.988
 2367SOL    HW2 8001   2.617   3.818   1.071
 2368SOL     OW 8002   4.200   0.406   4.439
 2368SOL    HW1 8003   4.102   0.382   4.437
 2368SOL    HW2 8004   4.254   0.323   4.426
 2369SOL     OW 8005   1.544   0.974   5.227
 2369SOL    HW1 8006   1.452   1.009   5.242
 2369SOL    HW2 8007   1.590   0.963   5.315
 2370SOL     OW 8008   4.748   3.308   6.817
 2370SOL    HW1 8009   4.734   3.381   6.884
 2370SOL    HW2 8010   4.663   3.294   6.765
 2371SOL     OW 8011   0.733   6.589   1.656
 2371SOL    HW1 8012   0.658   6.643   1.693
 2371SOL    HW2 8013   0.779   6.641   1.584
 2372SOL     OW 8014   0.480   2.797   2.415
 2372SOL    HW1 8015   0.473   2.854   2.334
 2372SOL    HW2 8016   0.444   2.847   2.494
 2373SOL     OW 8017   0.867   1.843   6.685
 2373SOL    HW1 8018   0.949   1.884   6.647
 2373SOL    HW2 8019   0.786   1.890   6.649
 2374SOL     OW 8020   6.124   1.907   3.688
 2374SOL    HW1 8021   6.056   1.836   3.671
 2374SOL    HW2 8022   6.081   1.985   3.733
 2375SOL     OW 8023   2.750   6.485   4.939
 2375SOL    HW1 8024   2.771   6.578   4.909
 2375SOL    HW2 8025   2.795   6.467   5.026
 2376SOL     OW 8026   6.884   2.243   4.655
 2376SOL    HW1 8027   6.863   2.269   4.561
 2376SOL    HW2 8028   6.886   2.143   4.663
 2377SOL     OW 8029   3.983   3.918   3.221
 2377SOL    HW1 8030   3.972   3.959   3.311
 2377SOL    HW2 8031   4.049   3.843   3.226
 2378SOL     OW 8032   4.873   1.384   0.713
 2378SOL    HW1 8033   4.795   1.326   0.688
 2378SOL    HW2 8034   4.941   1.329   0.763
 2379SOL     OW 8035   6.006   1.549   0.110
 2379SOL    HW1 8036   6.042   1.520   0.199
 2379SOL    HW2 8037   6.053   1.633   0.081
 2380SOL     OW 8038   0.509   1.332   6.810
 2380SOL    HW1 8039   0.515   1.411   6.871
 2380SOL    HW2 8040   0.584   1.269   6.831
 2381SOL     OW 8041   2.089   4.385   4.459
 2381SOL    HW1 8042   2.031   4.365   4.538
 2381SOL    HW2 8043   2.169   4.325   4.462
 2382SOL     OW 8044   1.941   3.982   4.152
 2382SOL    HW1 8045   1.905   4.058   4.206
 2382SOL    HW2 8046   1.960   4.014   4.059
 2383SOL     OW 8047   4.898   6.436   1.468
 2383SOL    HW1 8048   4.911   6.398   1.376
 2383SOL    HW2 8049   4.812   6.404   1.506
 2384SOL     OW 8050   5.594   0.883   3.132
 2384SOL    HW1 8051   5.504   0.854   3.099
 2384SOL    HW2 8052   5.585   0.970   3.180
 2385SOL     OW 8053   1.170   0.142   0.445
 2385SOL    HW1 8054   1.187   0.044   0.458
 2385SOL    HW2 8055   1.237   0.195   0.497
 2386SOL     OW 8056   6.145   5.798   4.372
 2386SOL    HW1 8057   6.049   5.770   4.376
 2386SOL    HW2 8058   6.159   5.853   4.289
 2387SOL     OW 8059   1.305   2.363   3.754
 2387SOL    HW1 8060   1.361   2.286   3.786
 2387SOL    HW2 8061   1.231   2.328   3.696
 2388SOL     OW 8062   1.086   2.123   4.436
 2388SOL    HW1 8063   1.086   2.217   4.401
 2388SOL    HW2 8064   1.023   2.068   4.382
 2389SOL     OW 8065   4.816   4.179   3.196
 2389SOL    HW1 8066   4.916   4.183   3.193
 2389SOL    HW2 8067   4.787   4.084   3.185
 2390SOL     OW 8068   4.087   3.196   3.389
 2390SOL    HW1 8069   4.034   3.127   3.339
 2390SOL    HW2 8070   4.103   3.164   3.483
 2391SOL     OW 8071   4.825   3.844   5.971
 2391SOL    HW1 8072   4.859   3.808   5.885
 2391SOL    HW2 8073   4.794   3.768   6.029
 2392SOL     OW 8074   4.682   6.379   5.329
 2392SOL    HW1 8075   4.673   6.366   5.230
 2392SOL    HW2 8076   4.739   6.306   5.367
 2393SOL     OW 8077   5.497   3.934   5.971
 2393SOL    HW1 8078   5.523   3.931   6.067
 2393SOL    HW2 8079   5.455   4.022   5.950
 2394SOL     OW 8080   1.392   3.750   4.986
 2394SOL    HW1 8081   1.452   3.687   5.035
 2394SOL    HW2 8082   1.435   3.840   4.979
 2395SOL     OW 8083   5.136   2.753   6.312
 2395SOL    HW1 8084   5.115   2.795   6.224
 2395SOL    HW2 8085   5.075   2.675   6.327
 2396SOL     OW 8086   3.389   5.598   1.257
 2396SOL    HW1 8087   3.359   5.626   1.165
 2396SOL    HW2 8088   3.328   5.637   1.325
 2397SOL     OW 8089   6.638   4.286   5.944
 2397SOL    HW1 8090   6.684   4.258   6.028
 2397SOL    HW2 8091   6.684   4.366   5.905
 2398SOL     OW 8092   2.829   3.654   0.157
 2398SOL    HW1 8093   2.734   3.661   0.128
 2398SOL    HW2 8094   2.852   3.730   0.217
 2399SOL     OW 8095   5.123   1.563   2.148
 2399SOL    HW1 8096   5.148   1.500   2.222
 2399SOL    HW2 8097   5.044   1.527   2.099
 2400SOL     OW 8098   3.296   3.949   0.833
 2400SOL    HW1 8099   3.238   3.956   0.752
 2400SOL    HW2 8100   3.391   3.937   0.804
 2401SOL     OW 8101   4.546   6.642   6.682
 2401SOL    HW1 8102   4.482   6.571   6.710
 2401SOL    HW2 8103   4.516   6.730   6.721
 2402SOL     OW 8104   0.006   0.512   3.654
 2402SOL    HW1 8105   0.043   0.582   3.593
 2402SOL    HW2 8106   0.075   0.441   3.670
 2403SOL     OW 8107   2.405   2.566   6.397
 2403SOL    HW1 8108   2.429   2.662   6.386
 2403SOL    HW2 8109   2.466   2.524   6.465
 2404SOL     OW 8110   3.519   1.379   1.141
 2404SOL    HW1 8111   3.435   1.428   1.168
 2404SOL    HW2 8112   3.588   1.390   1.213
 2405SOL     OW 8113   3.694   3.575   2.435
 2405SOL    HW1 8114   3.720   3.514   2.360
 2405SOL    HW2 8115   3.705   3.526   2.522
 2406SOL     OW 8116   2.720   6.831   2.287
 2406SOL    HW1 8117   2.736   6.884   2.371
 2406SOL    HW2 8118   2.709   6.735   2.311
 2407SOL     OW 8119   5.654   1.816   2.674
 2407SOL    HW1 8120   5.613   1.845   2.761
 2407SOL    HW2 8121   5.605   1.860   2.599
 2408SOL     OW 8122   4.158   4.739   3.200
 2408SOL    HW1 8123   4.106   4.675   3.256
 2408SOL    HW2 8124   4.255   4.715   3.202
 2409SOL     OW 8125   1.948   4.991   2.506
 2409SOL    HW1 8126   1.932   4.897   2.535
 2409SOL    HW2 8127   2.038   5.021   2.537
 2410SOL     OW 8128   4.365   3.303   5.662
 2410SOL    HW1 8129   4.451   3.354   5.656
 2410SOL    HW2 8130   4.329   3.310   5.755
 2411SOL     OW 8131   4.601   5.666   5.102
 2411SOL    HW1 8132   4.697   5.672   5.075
 2411SOL    HW2 8133   4.553   5.600   5.044
 2412SOL     OW 8134   5.011   4.937   0.691
 2412SOL    HW1 8135   5.023   4.839   0.709
 2412SOL    HW2 8136   5.083   4.988   0.739
 2413SOL     OW 8137   6.116   1.622   1.119
 2413SOL    HW1 8138   6.047   1.642   1.049
 2413SOL    HW2 8139   6.099   1.679   1.199
 2414SOL     OW 8140   4.706   4.769   2.888
 2414SOL    HW1 8141   4.794   4.749   2.931
 2414SOL    HW2 8142   4.633   4.727   2.941
 2415SOL     OW 8143   6.354   0.740   2.791
 2415SOL    HW1 8144   6.422   0.718   2.861
 2415SOL    HW2 8145   6.298   0.817   2.821
 2416SOL     OW 8146   4.566   2.291   5.589
 2416SOL    HW1 8147   4.599   2.381   5.615
 2416SOL    HW2 8148   4.626   2.221   5.630
 2417SOL     OW 8149   3.838   3.478   5.266
 2417SOL    HW1 8150   3.768   3.407   5.276
 2417SOL    HW2 8151   3.913   3.443   5.210
 2418SOL     OW 8152   3.246   3.153   4.251
 2418SOL    HW1 8153   3.202   3.153   4.161
 2418SOL    HW2 8154   3.178   3.140   4.322
 2419SOL     OW 8155   6.852   0.032   4.722
 2419SOL    HW1 8156   6.888   0.012   4.813
 2419SOL    HW2 8157   6.915   0.092   4.673
 2420SOL     OW 8158   2.996   0.869   2.810
 2420SOL    HW1 8159   2.953   0.891   2.723
 2420SOL    HW2 8160   2.924   0.850   2.878
 2421SOL     OW 8161   2.359   2.385   4.816
 2421SOL    HW1 8162   2.435   2.345   4.868
 2421SOL    HW2 8163   2.273   2.355   4.856
 2422SOL     OW 8164   5.724   1.396   1.060
 2422SOL    HW1 8165   5.740   1.388   0.961
 2422SOL    HW2 8166   5.793   1.455   1.100
 2423SOL     OW 8167   1.247   5.426   2.427
 2423SOL    HW1 8168   1.283   5.335   2.448
 2423SOL    HW2 8169   1.321   5.484   2.394
 2424SOL     OW 8170   5.950   0.050   6.218
 2424SOL    HW1 8171   6.028   0.010   6.171
 2424SOL    HW2 8172   5.916   7.009   6.288
 2425SOL     OW 8173   5.828   0.396   4.129
 2425SOL    HW1 8174   5.833   0.326   4.058
 2425SOL    HW2 8175   5.732   0.408   4.157
 2426SOL     OW 8176   0.916   6.254   5.080
 2426SOL    HW1 8177   0.866   6.196   5.145
 2426SOL    HW2 8178   0.973   6.318   5.130
 2427SOL     OW 8179   5.541   5.953   5.507
 2427SOL    HW1 8180   5.613   5.992   5.564
 2427SOL    HW2 8181   5.572   5.865   5.471
 2428SOL     OW 8182   6.858   0.470   2.325
 2428SOL    HW1 8183   6.828   0.453   2.231
 2428SOL    HW2 8184   6.943   0.420   2.342
 2429SOL     OW 8185   5.519   5.726   3.248
 2429SOL    HW1 8186   5.448   5.701   3.182
 2429SOL    HW2 8187   5.608   5.724   3.203
 2430SOL     OW 8188   5.997   0.880   1.526
 2430SOL    HW1 8189   6.074   0.818   1.536
 2430SOL    HW2 8190   5.911   0.830   1.538
 2431SOL     OW 8191   4.114   1.160   1.655
 2431SOL    HW1 8192   4.105   1.242   1.599
 2431SOL    HW2 8193   4.181   1.176   1.728
 2432SOL     OW 8194   3.287   6.088   2.646
 2432SOL    HW1 8195   3.257   6.183   2.650
 2432SOL    HW2 8196   3.373   6.082   2.595
 2433SOL     OW 8197   4.068   1.708   0.323
 2433SOL    HW1 8198   4.013   1.625   0.315
 2433SOL    HW2 8199   4.015   1.779   0.369
 2434SOL     OW 8200   3.650   1.273   5.758
 2434SOL    HW1 8201   3.664   1.302   5.853
 2434SOL    HW2 8202   3.739   1.261   5.713
 2435SOL     OW 8203   4.420   5.291   5.751
 2435SOL    HW1 8204   4.392   5.365   5.690
 2435SOL    HW2 8205   4.395   5.314   5.845
 2436SOL     OW 8206   1.617   5.063   0.545
 2436SOL    HW1 8207   1.612   5.042   0.447
 2436SOL    HW2 8208   1.659   5.153   0.557
 2437SOL     OW 8209   5.345   6.467   6.660
 2437SOL    HW1 8210   5.426   6.408   6.664
 2437SOL    HW2 8211   5.287   6.439   6.584
 2438SOL     OW 8212   3.116   1.580   6.631
 2438SOL    HW1 8213   3.100   1.527   6.548
 2438SOL    HW2 8214   3.156   1.669   6.607
 2439SOL     OW 8215   0.619   4.661   6.387
 2439SOL    HW1 8216   0.555   4.725   6.346
 2439SOL    HW2 8217   0.711   4.678   6.352
 2440SOL     OW 8218   4.601   6.140   5.800
 2440SOL    HW1 8219   4.605   6.214   5.867
 2440SOL    HW2 8220   4.620   6.178   5.709
 2441SOL     OW 8221   0.288   1.596   6.859
 2441SOL    HW1 8222   0.268   1.608   6.957
 2441SOL    HW2 8223   0.203   1.576   6.810
 2442SOL     OW 8224   0.772   3.574   5.702
 2442SOL    HW1 8225   0.845   3.511   5.675
 2442SOL    HW2 8226   0.700   3.524   5.750
 2443SOL     OW 8227   3.484   4.922   5.863
 2443SOL    HW1 8228   3.548   4.953   5.793
 2443SOL    HW2 8229   3.446   4.833   5.837
 2444SOL     OW 8230   2.496   4.349   6.530
 2444SOL    HW1 8231   2.471   4.290   6.453
 2444SOL    HW2 8232   2.585   4.320   6.567
 2445SOL     OW 8233   6.794   1.477   1.196
 2445SOL    HW1 8234   6.760   1.429   1.115
 2445SOL    HW2 8235   6.894   1.486   1.190
 2446SOL     OW 8236   6.417   4.416   3.999
 2446SOL    HW1 8237   6.425   4.481   4.074
 2446SOL    HW2 8238   6.349   4.346   4.023
 2447SOL     OW 8239   2.374   2.851   0.336
 2447SOL    HW1 8240   2.474   2.848   0.343
 2447SOL    HW2 8241   2.343   2.774   0.279
 2448SOL     OW 8242   0.321   0.769   4.379
 2448SOL    HW1 8243   0.412   0.806   4.397
 2448SOL    HW2 8244   0.285   0.811   4.296
 2449SOL     OW 8245   6.938   4.424   0.221
 2449SOL    HW1 8246   6.913   4.521   0.219
 2449SOL    HW2 8247   6.958   4.393   0.128
 2450SOL     OW 8248   2.436   4.512   2.587
 2450SOL    HW1 8249   2.453   4.436   2.525
 2450SOL    HW2 8250   2.367   4.573   2.548
 2451SOL     OW 8251   1.450   0.237   4.272
 2451SOL    HW1 8252   1.485   0.179   4.199
 2451SOL    HW2 8253   1.364   0.279   4.244
 2452SOL     OW 8254   1.699   3.616   3.165
 2452SOL    HW1 8255   1.652   3.573   3.087
 2452SOL    HW2 8256   1.641   3.609   3.246
 2453SOL     OW 8257   6.484   4.804   1.160
 2453SOL    HW1 8258   6.562   4.797   1.099
 2453SOL    HW2 8259   6.497   4.880   1.223
 2454SOL     OW 8260   3.812   1.006   1.924
 2454SOL    HW1 8261   3.873   0.988   2.001
 2454SOL    HW2 8262   3.863   1.048   1.849
 2455SOL     OW 8263   5.014   5.606   0.436
 2455SOL    HW1 8264   5.103   5.646   0.458
 2455SOL    HW2 8265   5.007   5.591   0.338
 2456SOL     OW 8266   5.036   6.640   1.921
 2456SOL    HW1 8267   5.013   6.736   1.905
 2456SOL    HW2 8268   5.023   6.618   2.018
 2457SOL     OW 8269   5.320   6.257   0.294
 2457SOL    HW1 8270   5.238   6.314   0.299
 2457SOL    HW2 8271   5.390   6.295   0.353
 2458SOL     OW 8272   2.251   5.401   3.320
 2458SOL    HW1 8273   2.205   5.325   3.275
 2458SOL    HW2 8274   2.314   5.366   3.389
 2459SOL     OW 8275   1.656   6.826   0.665
 2459SOL    HW1 8276   1.598   6.745   0.670
 2459SOL    HW2 8277   1.704   6.828   0.577
 2460SOL     OW 8278   2.250   6.419   2.358
 2460SOL    HW1 8279   2.301   6.390   2.439
 2460SOL    HW2 8280   2.179   6.483   2.384
 2461SOL     OW 8281   5.708   0.617   2.381
 2461SOL    HW1 8282   5.780   0.556   2.350
 2461SOL    HW2 8283   5.681   0.678   2.306
 2462SOL     OW 8284   1.869   5.268   0.376
 2462SOL    HW1 8285   1.920   5.329   0.316
 2462SOL    HW2 8286   1.914   5.179   0.380
 2463SOL     OW 8287   0.199   1.864   3.636
 2463SOL    HW1 8288   0.125   1.929   3.650
 2463SOL    HW2 8289   0.284   1.913   3.615
 2464SOL     OW 8290   0.521   4.157   0.734
 2464SOL    HW1 8291   0.555   4.073   0.775
 2464SOL    HW2 8292   0.516   4.229   0.804
 2465SOL     OW 8293   7.005   5.876   1.747
 2465SOL    HW1 8294   0.066   5.884   1.801
 2465SOL    HW2 8295   6.939   5.819   1.797
 2466SOL     OW 8296   4.297   1.436   3.025
 2466SOL    HW1 8297   4.249   1.391   2.950
 2466SOL    HW2 8298   4.252   1.523   3.045
 2467SOL     OW 8299   6.653   0.922   5.814
 2467SOL    HW1 8300   6.657   0.992   5.886
 2467SOL    HW2 8301   6.698   0.956   5.732
 2468SOL     OW 8302   6.891   6.243   2.082
 2468SOL    HW1 8303   6.917   6.147   2.091
 2468SOL    HW2 8304   6.821   6.265   2.150
 2469SOL     OW 8305   3.079   3.982   5.632
 2469SOL    HW1 8306   2.983   4.009   5.619
 2469SOL    HW2 8307   3.121   3.966   5.543
 2470SOL     OW 8308   2.702   3.805   5.821
 2470SOL    HW1 8309   2.605   3.784   5.830
 2470SOL    HW2 8310   2.747   3.794   5.910
 2471SOL     OW 8311   0.824   6.388   2.085
 2471SOL    HW1 8312   0.755   6.450   2.048
 2471SOL    HW2 8313   0.818   6.387   2.185
 2472SOL     OW 8314   5.380   2.149   4.139
 2472SOL    HW1 8315   5.446   2.150   4.063
 2472SOL    HW2 8316   5.334   2.061   4.142
 2473SOL     OW 8317   1.242   5.527   4.660
 2473SOL    HW1 8318   1.327   5.563   4.697
 2473SOL    HW2 8319   1.221   5.573   4.574
 2474SOL     OW 8320   0.056   5.469   5.329
 2474SOL    HW1 8321   6.995   5.442   5.280
 2474SOL    HW2 8322   0.103   5.387   5.362
 2475SOL     OW 8323   4.410   2.584   0.462
 2475SOL    HW1 8324   4.350   2.517   0.419
 2475SOL    HW2 8325   4.458   2.636   0.391
 2476SOL     OW 8326   1.207   1.381   4.071
 2476SOL    HW1 8327   1.146   1.433   4.010
 2476SOL    HW2 8328   1.173   1.386   4.164
 2477SOL     OW 8329   5.639   6.159   1.252
 2477SOL    HW1 8330   5.551   6.186   1.213
 2477SOL    HW2 8331   5.701   6.133   1.178
 2478SOL     OW 8332   6.400   6.677   2.770
 2478SOL    HW1 8333   6.382   6.599   2.710
 2478SOL    HW2 8334   6.372   6.762   2.724
 2479SOL     OW 8335   0.093   2.486   0.952
 2479SOL    HW1 8336   0.185   2.451   0.932
 2479SOL    HW2 8337   0.028   2.445   0.889
 2480SOL     OW 8338   6.570   3.423   1.731
 2480SOL    HW1 8339   6.525   3.363   1.665
 2480SOL    HW2 8340   6.565   3.518   1.700
 2481SOL     OW 8341   4.159   5.630   1.592
 2481SOL    HW1 8342   4.225   5.564   1.628
 2481SOL    HW2 8343   4.200   5.721   1.591
 2482SOL     OW 8344   5.022   3.452   5.545
 2482SOL    HW1 8345   5.100   3.475   5.487
 2482SOL    HW2 8346   4.941   3.501   5.512
 2483SOL     OW 8347   1.060   1.107   0.307
 2483SOL    HW1 8348   0.964   1.085   0.324
 2483SOL    HW2 8349   1.096   1.161   0.383
 2484SOL     OW 8350   2.873   1.027   0.691
 2484SOL    HW1 8351   2.881   1.052   0.594
 2484SOL    HW2 8352   2.852   0.930   0.699
 2485SOL     OW 8353   0.213   5.100   2.218
 2485SOL    HW1 8354   0.122   5.088   2.257
 2485SOL    HW2 8355   0.280   5.107   2.292
 2486SOL     OW 8356   1.843   5.592   2.994
 2486SOL    HW1 8357   1.933   5.619   2.962
 2486SOL    HW2 8358   1.780   5.670   2.985
 2487SOL     OW 8359   3.797   7.001   0.684
 2487SOL    HW1 8360   3.700   0.003   0.688
 2487SOL    HW2 8361   3.839   7.015   0.774
 2488SOL     OW 8362   2.846   4.435   1.228
 2488SOL    HW1 8363   2.816   4.413   1.320
 2488SOL    HW2 8364   2.928   4.382   1.205
 2489SOL     OW 8365   1.706   5.213   5.295
 2489SOL    HW1 8366   1.805   5.223   5.304
 2489SOL    HW2 8367   1.684   5.119   5.272
 2490SOL     OW 8368   6.215   3.750   0.929
 2490SOL    HW1 8369   6.202   3.824   0.995
 2490SOL    HW2 8370   6.290   3.774   0.867
 2491SOL     OW 8371   2.868   5.098   3.343
 2491SOL    HW1 8372   2.921   5.173   3.304
 2491SOL    HW2 8373   2.855   5.027   3.274
 2492SOL     OW 8374   4.429   3.174   6.354
 2492SOL    HW1 8375   4.445   3.137   6.262
 2492SOL    HW2 8376   4.505   3.147   6.414
 2493SOL     OW 8377   5.874   1.706   3.163
 2493SOL    HW1 8378   5.805   1.713   3.235
 2493SOL    HW2 8379   5.835   1.736   3.077
 2494SOL     OW 8380   4.923   2.627   2.206
 2494SOL    HW1 8381   4.893   2.658   2.116
 2494SOL    HW2 8382   4.932   2.527   2.205
 2495SOL     OW 8383   5.201   1.216   5.210
 2495SOL    HW1 8384   5.107   1.224   5.243
 2495SOL    HW2 8385   5.240   1.129   5.241
 2496SOL     OW 8386   0.931   5.486   7.019
 2496SOL    HW1 8387   0.877   5.410   6.982
 2496SOL    HW2 8388   0.941   5.557   6.949
 2497SOL     OW 8389   6.646   1.629   0.010
 2497SOL    HW1 8390   6.717   1.650   0.077
 2497SOL    HW2 8391   6.556   1.644   0.051
 2498SOL     OW 8392   2.044   2.687   3.890
 2498SOL    HW1 8393   2.130   2.714   3.846
 2498SOL    HW2 8394   2.028   2.744   3.970
 2499SOL     OW 8395   5.042   0.771   4.554
 2499SOL    HW1 8396   4.985   0.848   4.524
 2499SOL    HW2 8397   5.133   0.779   4.514
 2500SOL     OW 8398   4.656   3.119   6.157
 2500SOL    HW1 8399   4.735   3.086   6.106
 2500SOL    HW2 8400   4.672   3.213   6.188
 2501SOL     OW 8401   6.186   4.732   0.378
 2501SOL    HW1 8402   6.134   4.699   0.299
 2501SOL    HW2 8403   6.149   4.820   0.408
 2502SOL     OW 8404   1.774   0.029   2.765
 2502SOL    HW1 8405   1.801   6.972   2.819
 2502SOL    HW2 8406   1.842   0.046   2.693
 2503SOL     OW 8407   3.771   4.993   5.997
 2503SOL    HW1 8408   3.850   5.041   5.957
 2503SOL    HW2 8409   3.713   4.958   5.923
 2504SOL     OW 8410   1.833   4.773   4.601
 2504SOL    HW1 8411   1.912   4.755   4.543
 2504SOL    HW2 8412   1.778   4.846   4.560
 2505SOL     OW 8413   4.591   5.530   4.198
 2505SOL    HW1 8414   4.528   5.607   4.191
 2505SOL    HW2 8415   4.625   5.506   4.107
 2506SOL     OW 8416   6.263   2.833   6.192
 2506SOL    HW1 8417   6.357   2.801   6.204
 2506SOL    HW2 8418   6.235   2.820   6.097
 2507SOL     OW 8419   6.214   6.097   0.696
 2507SOL    HW1 8420   6.306   6.129   0.672
 2507SOL    HW2 8421   6.186   6.025   0.632
 2508SOL     OW 8422   2.444   2.113   2.072
 2508SOL    HW1 8423   2.519   2.138   2.011
 2508SOL    HW2 8424   2.404   2.025   2.043
 2509SOL     OW 8425   5.311   2.541   3.366
 2509SOL    HW1 8426   5.341   2.626   3.411
 2509SOL    HW2 8427   5.297   2.558   3.268
 2510SOL     OW 8428   3.123   5.241   0.296
 2510SOL    HW1 8429   3.166   5.195   0.374
 2510SOL    HW2 8430   3.041   5.191   0.270
 2511SOL     OW 8431   1.105   0.690   5.258
 2511SOL    HW1 8432   1.141   0.621   5.195
 2511SOL    HW2 8433   1.178   0.720   5.319
 2512SOL     OW 8434   4.772   4.123   4.929
 2512SOL    HW1 8435   4.742   4.134   4.834
 2512SOL    HW2 8436   4.840   4.192   4.951
 2513SOL     OW 8437   0.842   2.752   6.551
 2513SOL    HW1 8438   0.770   2.767   6.483
 2513SOL    HW2 8439   0.818   2.672   6.606
 2514SOL     OW 8440   1.379   0.732   4.325
 2514SOL    HW1 8441   1.317   0.677   4.270
 2514SOL    HW2 8442   1.418   0.806   4.269
 2515SOL     OW 8443   0.980   5.654   0.653
 2515SOL    HW1 8444   1.076   5.639   0.675
 2515SOL    HW2 8445   0.969   5.661   0.553
 2516SOL     OW 8446   6.153   6.972   3.653
 2516SOL    HW1 8447   6.242   6.960   3.609
 2516SOL    HW2 8448   6.114   6.882   3.674
 2517SOL     OW 8449   2.237   4.682   0.304
 2517SOL    HW1 8450   2.240   4.768   0.356
 2517SOL    HW2 8451   2.306   4.620   0.340
 2518SOL     OW 8452   2.296   3.212   6.512
 2518SOL    HW1 8453   2.337   3.280   6.452
 2518SOL    HW2 8454   2.248   3.143   6.457
 2519SOL     OW 8455   4.790   4.835   4.811
 2519SOL    HW1 8456   4.720   4.774   4.774
 2519SOL    HW2 8457   4.768   4.929   4.785
 2520SOL     OW 8458   2.143   3.625   1.128
 2520SOL    HW1 8459   2.130   3.536   1.172
 2520SOL    HW2 8460   2.224   3.621   1.069
 2521SOL     OW 8461   6.468   0.114   5.628
 2521SOL    HW1 8462   6.479   0.027   5.579
 2521SOL    HW2 8463   6.392   0.165   5.587
 2522SOL     OW 8464   1.271   3.384   4.598
 2522SOL    HW1 8465   1.290   3.443   4.677
 2522SOL    HW2 8466   1.300   3.291   4.619
 2523SOL     OW 8467   6.986   4.010   0.596
 2523SOL    HW1 8468   6.919   4.023   0.670
 2523SOL    HW2 8469   0.021   3.931   0.617
 2524SOL     OW 8470   1.320   6.540   3.650
 2524SOL    HW1 8471   1.350   6.501   3.737
 2524SOL    HW2 8472   1.365   6.491   3.575
 2525SOL     OW 8473   0.914   3.488   3.579
 2525SOL    HW1 8474   0.957   3.575   3.603
 2525SOL    HW2 8475   0.829   3.504   3.529
 2526SOL     OW 8476   6.941   1.632   4.289
 2526SOL    HW1 8477   6.987   1.718   4.269
 2526SOL    HW2 8478   7.008   1.558   4.292
 2527SOL     OW 8479   5.486   6.168   4.698
 2527SOL    HW1 8480   5.449   6.175   4.790
 2527SOL    HW2 8481   5.497   6.259   4.659
 2528SOL     OW 8482   6.148   5.592   0.677
 2528SOL    HW1 8483   6.142   5.561   0.582
 2528SOL    HW2 8484   6.221   5.660   0.685
 2529SOL     OW 8485   5.281   4.799   4.692
 2529SOL    HW1 8486   5.233   4.816   4.606
 2529SOL    HW2 8487   5.219   4.756   4.757
 2530SOL     OW 8488   1.155   0.263   3.214
 2530SOL    HW1 8489   1.100   0.330   3.165
 2530SOL    HW2 8490   1.127   0.171   3.187
 2531SOL     OW 8491   4.082   0.990   5.678
 2531SOL    HW1 8492   4.082   1.083   5.641
 2531SOL    HW2 8493   4.088   0.924   5.602
 2532SOL     OW 8494   1.253   5.234   6.744
 2532SOL    HW1 8495   1.223   5.237   6.840
 2532SOL    HW2 8496   1.294   5.145   6.725
 2533SOL     OW 8497   5.776   6.779   5.549
 2533SOL    HW1 8498   5.824   6.693   5.528
 2533SOL    HW2 8499   5.758   6.784   5.647
 2534SOL     OW 8500   1.884   0.705   3.970
 2534SOL    HW1 8501   1.790   0.726   3.943
 2534SOL    HW2 8502   1.948   0.746   3.905
 2535SOL     OW 8503   1.777   0.977   3.912
 2535SOL    HW1 8504   1.857   1.029   3.941
 2535SOL    HW2 8505   1.698   1.038   3.906
 2536SOL     OW 8506   5.982   1.660   4.527
 2536SOL    HW1 8507   5.980   1.702   4.617
 2536SOL    HW2 8508   5.892   1.667   4.485
 2537SOL     OW 8509   5.092   5.767   1.475
 2537SOL    HW1 8510   5.118   5.672   1.458
 2537SOL    HW2 8511   5.136   5.799   1.559
 2538SOL     OW 8512   1.973   4.876   4.277
 2538SOL    HW1 8513   2.020   4.854   4.362
 2538SOL    HW2 8514   1.987   4.972   4.255
 2539SOL     OW 8515   4.126   0.513   5.524
 2539SOL    HW1 8516   4.131   0.423   5.567
 2539SOL    HW2 8517   4.097   0.502   5.428
 2540SOL     OW 8518   5.656   1.332   2.111
 2540SOL    HW1 8519   5.568   1.290   2.089
 2540SOL    HW2 8520   5.646   1.389   2.193
 2541SOL     OW 8521   1.550   6.554   5.977
 2541SOL    HW1 8522   1.569   6.594   6.067
 2541SOL    HW2 8523   1.515   6.625   5.917
 2542SOL     OW 8524   3.388   1.797   4.435
 2542SOL    HW1 8525   3.411   1.891   4.410
 2542SOL    HW2 8526   3.385   1.788   4.534
 2543SOL     OW 8527   0.579   1.546   2.736
 2543SOL    HW1 8528   0.603   1.450   2.750
 2543SOL    HW2 8529   0.492   1.565   2.782
 2544SOL     OW 8530   6.410   5.054   1.023
 2544SOL    HW1 8531   6.435   4.958   1.034
 2544SOL    HW2 8532   6.485   5.103   0.980
 2545SOL     OW 8533   0.533   1.760   1.591
 2545SOL    HW1 8534   0.502   1.674   1.632
 2545SOL    HW2 8535   0.507   1.762   1.495
 2546SOL     OW 8536   6.620   3.647   1.977
 2546SOL    HW1 8537   6.531   3.679   1.943
 2546SOL    HW2 8538   6.674   3.725   2.008
 2547SOL     OW 8539   5.478   4.142   0.798
 2547SOL    HW1 8540   5.469   4.186   0.888
 2547SOL    HW2 8541   5.474   4.212   0.727
 2548SOL     OW 8542   0.261   6.975   5.344
 2548SOL    HW1 8543   0.267   6.886   5.389
 2548SOL    HW2 8544   0.180   0.001   5.377
 2549SOL     OW 8545   2.330   1.839   1.224
 2549SOL    HW1 8546   2.302   1.857   1.129
 2549SOL    HW2 8547   2.402   1.770   1.225
 2550SOL     OW 8548   4.775   0.172   6.497
 2550SOL    HW1 8549   4.872   0.194   6.502
 2550SOL    HW2 8550   4.737   0.207   6.411
 2551SOL     OW 8551   2.762   5.331   6.832
 2551SOL    HW1 8552   2.709   5.275   6.768
 2551SOL    HW2 8553   2.787   5.275   6.912
 2552SOL     OW 8554   1.975   6.205   0.209
 2552SOL    HW1 8555   2.015   6.134   0.267
 2552SOL    HW2 8556   2.035   6.285   0.206
 2553SOL     OW 8557   4.298   1.939   6.648
 2553SOL    HW1 8558   4.229   1.998   6.688
 2553SOL    HW2 8559   4.377   1.933   6.710
 2554SOL     OW 8560   1.908   5.698   1.184
 2554SOL    HW1 8561   1.958   5.612   1.176
 2554SOL    HW2 8562   1.920   5.735   1.276
 2555SOL     OW 8563   6.061   5.885   5.520
 2555SOL    HW1 8564   5.983   5.946   5.512
 2555SOL    HW2 8565   6.079   5.841   5.432
 2556SOL     OW 8566   3.268   0.007   1.570
 2556SOL    HW1 8567   3.197   6.968   1.534
 2556SOL    HW2 8568   3.232   0.055   1.650
 2557SOL     OW 8569   3.628   0.746   0.673
 2557SOL    HW1 8570   3.707   0.713   0.621
 2557SOL    HW2 8571   3.650   0.833   0.716
 2558SOL     OW 8572   5.641   4.621   6.926
 2558SOL    HW1 8573   5.608   4.711   6.900
 2558SOL    HW2 8574   5.636   4.611   0.003
 2559SOL     OW 8575   0.933   3.491   4.013
 2559SOL    HW1 8576   0.921   3.478   4.111
 2559SOL    HW2 8577   0.869   3.562   3.981
 2560SOL     OW 8578   4.935   2.513   2.878
 2560SOL    HW1 8579   5.010   2.547   2.822
 2560SOL    HW2 8580   4.872   2.588   2.898
 2561SOL     OW 8581   3.353   0.642   4.281
 2561SOL    HW1 8582   3.303   0.687   4.207
 2561SOL    HW2 8583   3.291   0.584   4.333
 2562SOL     OW 8584   2.982   6.476   3.573
 2562SOL    HW1 8585   2.896   6.428   3.589
 2562SOL    HW2 8586   3.028   6.492   3.660
 2563SOL     OW 8587   2.982   1.407   0.126
 2563SOL    HW1 8588   2.958   1.479   0.191
 2563SOL    HW2 8589   3.071   1.368   0.151
 2564SOL     OW 8590   1.470   1.148   0.534
 2564SOL    HW1 8591   1.472   1.122   0.438
 2564SOL    HW2 8592   1.561   1.135   0.574
 2565SOL     OW 8593   1.096   1.949   6.610
 2565SOL    HW1 8594   1.145   1.869   6.575
 2565SOL    HW2 8595   1.162   2.013   6.651
 2566SOL     OW 8596   3.029   0.808   1.144
 2566SOL    HW1 8597   3.076   0.839   1.062
 2566SOL    HW2 8598   3.076   0.844   1.225
 2567SOL     OW 8599   1.658   6.970   6.761
 2567SOL    HW1 8600   1.743   7.017   6.787
 2567SOL    HW2 8601   1.657   6.955   6.662
 2568SOL     OW 8602   2.890   5.957   1.275
 2568SOL    HW1 8603   2.857   6.046   1.244
 2568SOL    HW2 8604   2.813   5.906   1.314
 2569SOL     OW 8605   1.557   1.405   1.172
 2569SOL    HW1 8606   1.475   1.462   1.182
 2569SOL    HW2 8607   1.530   1.313   1.142
 2570SOL     OW 8608   5.071   5.972   0.129
 2570SOL    HW1 8609   5.154   5.920   0.109
 2570SOL    HW2 8610   5.072   6.001   0.225
 2571SOL     OW 8611   4.115   3.551   4.473
 2571SOL    HW1 8612   4.119   3.516   4.379
 2571SOL    HW2 8613   4.157   3.642   4.477
 2572SOL     OW 8614   2.341   5.681   1.526
 2572SOL    HW1 8615   2.268   5.618   1.555
 2572SOL    HW2 8616   2.420   5.628   1.496
 2573SOL     OW 8617   0.006   2.164   4.026
 2573SOL    HW1 8618   6.949   2.224   4.014
 2573SOL    HW2 8619   7.012   2.079   3.977
 2574SOL     OW 8620   6.791   3.913   1.256
 2574SOL    HW1 8621   6.776   3.830   1.204
 2574SOL    HW2 8622   6.813   3.890   1.351
 2575SOL     OW 8623   5.964   4.111   0.687
 2575SOL    HW1 8624   5.955   4.022   0.642
 2575SOL    HW2 8625   6.024   4.102   0.767
 2576SOL     OW 8626   2.048   6.667   2.870
 2576SOL    HW1 8627   1.985   6.662   2.792
 2576SOL    HW2 8628   2.012   6.731   2.938
 2577SOL     OW 8629   3.022   6.711   3.406
 2577SOL    HW1 8630   3.069   6.681   3.323
 2577SOL    HW2 8631   2.999   6.631   3.462
 2578SOL     OW 8632   4.494   2.509   4.331
 2578SOL    HW1 8633   4.501   2.599   4.288
 2578SOL    HW2 8634   4.419   2.457   4.290
 2579SOL     OW 8635   0.554   2.461   6.456
 2579SOL    HW1 8636   0.527   2.396   6.527
 2579SOL    HW2 8637   0.502   2.443   6.373
 2580SOL     OW 8638   2.036   2.393   6.505
 2580SOL    HW1 8639   2.028   2.492   6.498
 2580SOL    HW2 8640   2.119   2.369   6.555
 2581SOL     OW 8641   5.310   5.596   2.205
 2581SOL    HW1 8642   5.275   5.574   2.296
 2581SOL    HW2 8643   5.409   5.584   2.204
 2582SOL     OW 8644   0.706   5.162   2.630
 2582SOL    HW1 8645   0.616   5.161   2.587
 2582SOL    HW2 8646   0.725   5.253   2.667
 2583SOL     OW 8647   0.956   6.953   0.755
 2583SOL    HW1 8648   0.891   6.880   0.733
 2583SOL    HW2 8649   1.044   6.934   0.712
 2584SOL     OW 8650   3.394   6.215   1.080
 2584SOL    HW1 8651   3.295   6.217   1.069
 2584SOL    HW2 8652   3.419   6.138   1.139
 2585SOL     OW 8653   3.291   0.007   0.788
 2585SOL    HW1 8654   3.269   0.024   0.884
 2585SOL    HW2 8655   3.223   6.968   0.748
 2586SOL     OW 8656   6.323   1.588   4.584
 2586SOL    HW1 8657   6.320   1.490   4.566
 2586SOL    HW2 8658   6.318   1.638   4.497
 2587SOL     OW 8659   6.179   6.726   4.490
 2587SOL    HW1 8660   6.194   6.811   4.541
 2587SOL    HW2 8661   6.097   6.680   4.524
 2588SOL     OW 8662   5.726   0.607   2.019
 2588SOL    HW1 8663   5.694   0.519   2.055
 2588SOL    HW2 8664   5.785   0.651   2.086
 2589SOL     OW 8665   6.535   6.836   5.586
 2589SOL    HW1 8666   6.556   6.825   5.489
 2589SOL    HW2 8667   6.468   6.767   5.613
 2590SOL     OW 8668   3.974   6.823   2.761
 2590SOL    HW1 8669   3.891   6.794   2.713
 2590SOL    HW2 8670   4.050   6.824   2.697
 2591SOL     OW 8671   5.175   6.178   1.633
 2591SOL    HW1 8672   5.156   6.194   1.536
 2591SOL    HW2 8673   5.133   6.250   1.688
 2592SOL     OW 8674   3.039   5.358   1.109
 2592SOL    HW1 8675   2.987   5.444   1.115
 2592SOL    HW2 8676   3.122   5.374   1.056
 2593SOL     OW 8677   3.550   6.270   3.035
 2593SOL    HW1 8678   3.509   6.347   2.986
 2593SOL    HW2 8679   3.645   6.259   3.007
 2594SOL     OW 8680   0.203   0.382   6.773
 2594SOL    HW1 8681   0.278   0.406   6.836
 2594SOL    HW2 8682   0.116   0.385   6.822
 2595SOL     OW 8683   6.848   3.326   4.712
 2595SOL    HW1 8684   6.894   3.331   4.800
 2595SOL    HW2 8685   6.781   3.401   4.705
 2596SOL     OW 8686   4.251   2.090   2.256
 2596SOL    HW1 8687   4.224   2.080   2.351
 2596SOL    HW2 8688   4.175   2.063   2.196
 2597SOL     OW 8689   2.764   3.268   1.333
 2597SOL    HW1 8690   2.784   3.199   1.403
 2597SOL    HW2 8691   2.666   3.271   1.317
 2598SOL     OW 8692   0.019   2.708   3.766
 2598SOL    HW1 8693   0.072   2.708   3.681
 2598SOL    HW2 8694   0.030   2.795   3.813
 2599SOL     OW 8695   4.090   5.614   6.880
 2599SOL    HW1 8696   4.041   5.651   6.959
 2599SOL    HW2 8697   4.157   5.681   6.848
 2600SOL     OW 8698   5.895   3.858   4.088
 2600SOL    HW1 8699   5.947   3.812   4.160
 2600SOL    HW2 8700   5.803   3.818   4.084
 2601SOL     OW 8701   3.597   3.231   5.996
 2601SOL    HW1 8702   3.539   3.279   5.930
 2601SOL    HW2 8703   3.541   3.193   6.069
 2602SOL     OW 8704   0.067   4.803   4.639
 2602SOL    HW1 8705   0.103   4.896   4.628
 2602SOL    HW2 8706   7.010   4.790   4.579
 2603SOL     OW 8707   2.250   2.306   1.045
 2603SOL    HW1 8708   2.328   2.253   1.080
 2603SOL    HW2 8709   2.181   2.243   1.008
 2604SOL     OW 8710   5.070   0.449   1.158
 2604SOL    HW1 8711   5.012   0.391   1.215
 2604SOL    HW2 8712   5.103   0.396   1.080
 2605SOL     OW 8713   4.106   4.821   3.808
 2605SOL    HW1 8714   4.124   4.768   3.891
 2605SOL    HW2 8715   4.167   4.900   3.805
 2606SOL     OW 8716   5.958   4.042   1.186
 2606SOL    HW1 8717   5.859   4.027   1.196
 2606SOL    HW2 8718   5.986   4.012   1.095
 2607SOL     OW 8719   1.236   0.856   2.951
 2607SOL    HW1 8720   1.213   0.914   3.029
 2607SOL    HW2 8721   1.164   0.789   2.937
 2608SOL     OW 8722   5.492   0.264   1.759
 2608SOL    HW1 8723   5.551   0.194   1.717
 2608SOL    HW2 8724   5.397   0.248   1.732
 2609SOL     OW 8725   0.437   1.875   2.501
 2609SOL    HW1 8726   0.429   1.973   2.484
 2609SOL    HW2 8727   0.480   1.861   2.590
 2610SOL     OW 8728   6.443   5.718   4.798
 2610SOL    HW1 8729   6.526   5.666   4.816
 2610SOL    HW2 8730   6.465   5.814   4.784
 2611SOL     OW 8731   5.278   6.680   0.926
 2611SOL    HW1 8732   5.228   6.711   1.007
 2611SOL    HW2 8733   5.334   6.754   0.891
 2612SOL     OW 8734   5.137   6.445   4.097
 2612SOL    HW1 8735   5.141   6.518   4.029
 2612SOL    HW2 8736   5.230   6.420   4.124
 2613SOL     OW 8737   3.447   6.935   2.403
 2613SOL    HW1 8738   3.455   6.841   2.371
 2613SOL    HW2 8739   3.537   6.967   2.435
 2614SOL     OW 8740   6.317   6.718   5.745
 2614SOL    HW1 8741   6.321   6.623   5.773
 2614SOL    HW2 8742   6.343   6.777   5.821
 2615SOL     OW 8743   5.305   5.643   3.076
 2615SOL    HW1 8744   5.316   5.656   2.978
 2615SOL    HW2 8745   5.210   5.658   3.101
 2616SOL     OW 8746   3.932   3.098   3.056
 2616SOL    HW1 8747   3.987   3.181   3.049
 2616SOL    HW2 8748   3.915   3.062   2.964
 2617SOL     OW 8749   3.846   5.519   0.979
 2617SOL    HW1 8750   3.840   5.501   0.881
 2617SOL    HW2 8751   3.942   5.532   1.005
 2618SOL     OW 8752   0.152   0.316   1.811
 2618SOL    HW1 8753   0.133   0.236   1.754
 2618SOL    HW2 8754   0.231   0.365   1.774
 2619SOL     OW 8755   4.353   1.761   2.160
 2619SOL    HW1 8756   4.263   1.749   2.202
 2619SOL    HW2 8757   4.370   1.858   2.146
 2620SOL     OW 8758   1.233   4.797   3.224
 2620SOL    HW1 8759   1.171   4.864   3.266
 2620SOL    HW2 8760   1.181   4.714   3.201
 2621SOL     OW 8761   0.569   5.392   4.151
 2621SOL    HW1 8762   0.628   5.382   4.231
 2621SOL    HW2 8763   0.475   5.367   4.175
 2622SOL     OW 8764   2.086   3.200   6.006
 2622SOL    HW1 8765   2.182   3.206   6.033
 2622SOL    HW2 8766   2.028   3.207   6.086
 2623SOL     OW 8767   3.691   1.390   4.237
 2623SOL    HW1 8768   3.640   1.466   4.277
 2623SOL    HW2 8769   3.654   1.303   4.271
 2624SOL     OW 8770   5.954   2.826   3.187
 2624SOL    HW1 8771   5.904   2.741   3.171
 2624SOL    HW2 8772   5.914   2.899   3.131
 2625SOL     OW 8773   2.411   2.755   5.555
 2625SOL    HW1 8774   2.339   2.686   5.559
 2625SOL    HW2 8775   2.372   2.841   5.521
 2626SOL     OW 8776   1.468   6.441   3.888
 2626SOL    HW1 8777   1.492   6.351   3.850
 2626SOL    HW2 8778   1.462   6.435   3.987
 2627SOL     OW 8779   0.519   0.631   4.732
 2627SOL    HW1 8780   0.546   0.617   4.827
 2627SOL    HW2 8781   0.487   0.545   4.693
 2628SOL     OW 8782   3.769   6.410   6.276
 2628SOL    HW1 8783   3.760   6.479   6.204
 2628SOL    HW2 8784   3.711   6.435   6.354
 2629SOL     OW 8785   3.723   4.258   1.639
 2629SOL    HW1 8786   3.634   4.287   1.672
 2629SOL    HW2 8787   3.757   4.182   1.695
 2630SOL     OW 8788   3.591   1.501   2.360
 2630SOL    HW1 8789   3.578   1.436   2.285
 2630SOL    HW2 8790   3.525   1.576   2.351
 2631SOL     OW 8791   4.764   6.802   4.603
 2631SOL    HW1 8792   4.719   6.719   4.570
 2631SOL    HW2 8793   4.706   6.847   4.670
 2632SOL     OW 8794   3.335   2.145   6.853
 2632SOL    HW1 8795   3.238   2.165   6.863
 2632SOL    HW2 8796   3.387   2.189   6.926
 2633SOL     OW 8797   5.994   2.388   6.896
 2633SOL    HW1 8798   5.987   2.459   6.826
 2633SOL    HW2 8799   5.975   2.299   6.855
 2634SOL     OW 8800   2.007   4.284   2.062
 2634SOL    HW1 8801   2.082   4.219   2.073
 2634SOL    HW2 8802   1.941   4.271   2.136
 2635SOL     OW 8803   5.562   6.026   4.296
 2635SOL    HW1 8804   5.585   5.966   4.219
 2635SOL    HW2 8805   5.485   5.987   4.347
 2636SOL     OW 8806   5.600   6.945   5.988
 2636SOL    HW1 8807   5.567   0.006   5.943
 2636SOL    HW2 8808   5.598   6.959   6.087
 2637SOL     OW 8809   5.695   0.129   3.395
 2637SOL    HW1 8810   5.789   0.122   3.362
 2637SOL    HW2 8811   5.688   0.208   3.457
 2638SOL     OW 8812   5.167   6.355   1.403
 2638SOL    HW1 8813   5.240   6.389   1.462
 2638SOL    HW2 8814   5.087   6.414   1.412
 2639SOL     OW 8815   6.064   6.868   2.104
 2639SOL    HW1 8816   6.083   6.866   2.005
 2639SOL    HW2 8817   6.058   6.774   2.137
 2640SOL     OW 8818   0.304   6.486   5.075
 2640SOL    HW1 8819   0.220   6.434   5.086
 2640SOL    HW2 8820   0.339   6.474   4.982
 2641SOL     OW 8821   5.317   3.865   6.972
 2641SOL    HW1 8822   5.366   3.791   6.927
 2641SOL    HW2 8823   5.219   3.856   6.955
 2642SOL     OW 8824   5.145   0.424   4.279
 2642SOL    HW1 8825   5.056   0.381   4.269
 2642SOL    HW2 8826   5.176   0.416   4.374
 2643SOL     OW 8827   6.910   6.063   2.974
 2643SOL    HW1 8828   6.927   6.038   2.878
 2643SOL    HW2 8829   6.966   6.141   2.998
 2644SOL     OW 8830   1.479   5.058   5.534
 2644SOL    HW1 8831   1.455   4.963   5.516
 2644SOL    HW2 8832   1.579   5.068   5.535
 2645SOL     OW 8833   5.130   6.637   5.872
 2645SOL    HW1 8834   5.135   6.731   5.840
 2645SOL    HW2 8835   5.163   6.632   5.967
 2646SOL     OW 8836   6.720   0.607   6.137
 2646SOL    HW1 8837   6.665   0.661   6.201
 2646SOL    HW2 8838   6.771   0.669   6.077
 2647SOL     OW 8839   4.877   1.095   0.817
 2647SOL    HW1 8840   4.963   1.055   0.788
 2647SOL    HW2 8841   4.864   1.078   0.915
 2648SOL     OW 8842   6.647   0.085   2.315
 2648SOL    HW1 8843   6.673   0.066   2.409
 2648SOL    HW2 8844   6.577   0.019   2.286
 2649SOL     OW 8845   3.349   1.334   5.997
 2649SOL    HW1 8846   3.374   1.349   5.902
 2649SOL    HW2 8847   3.250   1.340   6.008
 2650SOL     OW 8848   0.593   4.843   3.367
 2650SOL    HW1 8849   0.534   4.763   3.366
 2650SOL    HW2 8850   0.558   4.909   3.433
 2651SOL     OW 8851   0.514   1.207   1.251
 2651SOL    HW1 8852   0.545   1.265   1.176
 2651SOL    HW2 8853   0.589   1.193   1.316
 2652SOL     OW 8854   3.419   3.090   3.458
 2652SOL    HW1 8855   3.376   3.029   3.392
 2652SOL    HW2 8856   3.408   3.185   3.428
 2653SOL     OW 8857   5.588   6.992   6.272
 2653SOL    HW1 8858   5.637   6.978   6.358
 2653SOL    HW2 8859   5.511   6.929   6.267
 2654SOL     OW 8860   5.102   2.935   6.094
 2654SOL    HW1 8861   5.132   3.017   6.143
 2654SOL    HW2 8862   5.091   2.956   5.997
 2655SOL     OW 8863   4.275   6.111   4.399
 2655SOL    HW1 8864   4.293   6.159   4.485
 2655SOL    HW2 8865   4.238   6.020   4.419
 2656SOL     OW 8866   5.292   4.523   3.966
 2656SOL    HW1 8867   5.234   4.605   3.965
 2656SOL    HW2 8868   5.245   4.450   4.016
 2657SOL     OW 8869   2.146   4.139   6.471
 2657SOL    HW1 8870   2.224   4.191   6.505
 2657SOL    HW2 8871   2.079   4.201   6.429
 2658SOL     OW 8872   6.132   4.704   6.303
 2658SOL    HW1 8873   6.042   4.716   6.346
 2658SOL    HW2 8874   6.159   4.789   6.260
 2659SOL     OW 8875   6.651   2.859   4.574
 2659SOL    HW1 8876   6.599   2.812   4.503
 2659SOL    HW2 8877   6.698   2.938   4.534
 2660SOL     OW 8878   6.773   2.497   2.288
 2660SOL    HW1 8879   6.816   2.522   2.201
 2660SOL    HW2 8880   6.815   2.414   2.324
 2661SOL     OW 8881   3.251   5.658   1.038
 2661SOL    HW1 8882   3.187   5.722   1.080
 2661SOL    HW2 8883   3.309   5.706   0.973
 2662SOL     OW 8884   4.880   6.449   4.803
 2662SOL    HW1 8885   4.836   6.518   4.861
 2662SOL    HW2 8886   4.954   6.406   4.853
 2663SOL     OW 8887   2.036   4.595   1.525
 2663SOL    HW1 8888   2.022   4.578   1.622
 2663SOL    HW2 8889   1.980   4.531   1.472
 2664SOL     OW 8890   3.830   4.057   3.060
 2664SOL    HW1 8891   3.828   4.149   3.098
 2664SOL    HW2 8892   3.893   4.000   3.113
 2665SOL     OW 8893   3.097   1.475   4.622
 2665SOL    HW1 8894   3.080   1.378   4.605
 2665SOL    HW2 8895   3.187   1.486   4.664
 2666SOL     OW 8896   5.089   4.736   0.872
 2666SOL    HW1 8897   5.186   4.725   0.895
 2666SOL    HW2 8898   5.041   4.650   0.889
 2667SOL     OW 8899   1.659   6.048   5.415
 2667SOL    HW1 8900   1.707   6.118   5.361
 2667SOL    HW2 8901   1.565   6.039   5.382
 2668SOL     OW 8902   6.685   3.613   4.343
 2668SOL    HW1 8903   6.651   3.554   4.270
 2668SOL    HW2 8904   6.646   3.705   4.333
 2669SOL     OW 8905   3.786   4.831   5.376
 2669SOL    HW1 8906   3.822   4.787   5.458
 2669SOL    HW2 8907   3.686   4.833   5.380
 2670SOL     OW 8908   6.975   0.769   6.824
 2670SOL    HW1 8909   6.892   0.766   6.880
 2670SOL    HW2 8910   0.025   0.716   6.868
 2671SOL     OW 8911   2.225   3.659   6.595
 2671SOL    HW1 8912   2.322   3.661   6.620
 2671SOL    HW2 8913   2.190   3.566   6.607
 2672SOL     OW 8914   1.908   5.561   0.040
 2672SOL    HW1 8915   1.843   5.492   0.009
 2672SOL    HW2 8916   1.947   5.534   0.128
 2673SOL     OW 8917   4.430   2.459   3.182
 2673SOL    HW1 8918   4.484   2.375   3.182
 2673SOL    HW2 8919   4.357   2.453   3.115
 2674SOL     OW 8920   1.036   4.897   4.398
 2674SOL    HW1 8921   1.107   4.876   4.466
 2674SOL    HW2 8922   0.946   4.876   4.436
 2675SOL     OW 8923   0.764   4.441   5.529
 2675SOL    HW1 8924   0.821   4.519   5.556
 2675SOL    HW2 8925   0.822   4.368   5.492
 2676SOL     OW 8926   5.235   1.952   2.746
 2676SOL    HW1 8927   5.168   2.009   2.794
 2676SOL    HW2 8928   5.195   1.862   2.727
 2677SOL     OW 8929   1.953   4.674   1.805
 2677SOL    HW1 8930   1.936   4.739   1.879
 2677SOL    HW2 8931   2.030   4.615   1.831
 2678SOL     OW 8932   1.313   4.923   6.679
 2678SOL    HW1 8933   1.403   4.884   6.697
 2678SOL    HW2 8934   1.295   4.921   6.580
 2679SOL     OW 8935   3.529   5.051   0.848
 2679SOL    HW1 8936   3.515   5.142   0.886
 2679SOL    HW2 8937   3.595   5.002   0.905
 2680SOL     OW 8938   2.129   1.823   0.300
 2680SOL    HW1 8939   2.086   1.854   0.384
 2680SOL    HW2 8940   2.094   1.732   0.277
 2681SOL     OW 8941   1.520   3.279   3.857
 2681SOL    HW1 8942   1.510   3.379   3.856
 2681SOL    HW2 8943   1.433   3.237   3.885
 2682SOL     OW 8944   5.562   2.864   2.053
 2682SOL    HW1 8945   5.546   2.818   2.140
 2682SOL    HW2 8946   5.554   2.798   1.978
 2683SOL     OW 8947   0.628   4.647   1.275
 2683SOL    HW1 8948   0.622   4.654   1.176
 2683SOL    HW2 8949   0.540   4.617   1.312
 2684SOL     OW 8950   4.271   6.566   2.605
 2684SOL    HW1 8951   4.201   6.565   2.534
 2684SOL    HW2 8952   4.253   6.491   2.669
 2685SOL     OW 8953   5.677   6.316   4.160
 2685SOL    HW1 8954   5.735   6.237   4.179
 2685SOL    HW2 8955   5.659   6.365   4.245
 2686SOL     OW 8956   1.933   2.412   4.375
 2686SOL    HW1 8957   1.991   2.483   4.334
 2686SOL    HW2 8958   1.866   2.455   4.435
 2687SOL     OW 8959   3.754   4.839   2.551
 2687SOL    HW1 8960   3.755   4.765   2.618
 2687SOL    HW2 8961   3.745   4.927   2.598
 2688SOL     OW 8962   4.101   5.447   6.038
 2688SOL    HW1 8963   4.025   5.395   6.000
 2688SOL    HW2 8964   4.072   5.489   6.125
 2689SOL     OW 8965   1.362   1.765   3.647
 2689SOL    HW1 8966   1.420   1.704   3.701
 2689SOL    HW2 8967   1.404   1.855   3.642
 2690SOL     OW 8968   4.129   3.426   3.862
 2690SOL    HW1 8969   4.105   3.370   3.783
 2690SOL    HW2 8970   4.103   3.378   3.946
 2691SOL     OW 8971   1.522   5.726   2.002
 2691SOL    HW1 8972   1.442   5.676   2.035
 2691SOL    HW2 8973   1.530   5.813   2.050
 2692SOL     OW 8974   6.688   5.318   4.062
 2692SOL    HW1 8975   6.668   5.415   4.076
 2692SOL    HW2 8976   6.722   5.304   3.969
 2693SOL     OW 8977   2.194   3.784   3.601
 2693SOL    HW1 8978   2.157   3.695   3.628
 2693SOL    HW2 8979   2.196   3.844   3.681
 2694SOL     OW 8980   2.852   0.247   3.007
 2694SOL    HW1 8981   2.785   0.316   3.035
 2694SOL    HW2 8982   2.900   0.278   2.925
 2695SOL     OW 8983   4.916   2.375   2.412
 2695SOL    HW1 8984   4.845   2.428   2.457
 2695SOL    HW2 8985   4.875   2.317   2.342
 2696SOL     OW 8986   3.946   3.729   5.626
 2696SOL    HW1 8987   3.947   3.825   5.653
 2696SOL    HW2 8988   3.857   3.689   5.645
 2697SOL     OW 8989   3.983   2.222   3.950
 2697SOL    HW1 8990   3.906   2.243   4.010
 2697SOL    HW2 8991   4.036   2.146   3.988
 2698SOL     OW 8992   1.213   4.753   0.948
 2698SOL    HW1 8993   1.281   4.731   0.879
 2698SOL    HW2 8994   1.218   4.686   1.023
 2699SOL     OW 8995   3.548   5.555   0.715
 2699SOL    HW1 8996   3.501   5.480   0.669
 2699SOL    HW2 8997   3.635   5.523   0.751
 2700SOL     OW 8998   2.035   3.364   2.930
 2700SOL    HW1 8999   2.065   3.272   2.955
 2700SOL    HW2 9000   2.052   3.427   3.006
 2701SOL     OW 9001   3.667   0.346   6.841
 2701SOL    HW1 9002   3.601   0.419   6.823
 2701SOL    HW2 9003   3.749   0.362   6.786
 2702SOL     OW 9004   6.799   1.799   3.475
 2702SOL    HW1 9005   6.804   1.846   3.563
 2702SOL    HW2 9006   6.875   1.734   3.468
 2703SOL     OW 9007   2.735   1.683   2.878
 2703SOL    HW1 9008   2.756   1.781   2.882
 2703SOL    HW2 9009   2.716   1.657   2.784
 2704SOL     OW 9010   2.033   5.666   2.288
 2704SOL    HW1 9011   1.941   5.707   2.287
 2704SOL    HW2 9012   2.086   5.706   2.362
 2705SOL     OW 9013   0.117   5.519   3.787
 2705SOL    HW1 9014   0.202   5.503   3.836
 2705SOL    HW2 9015   0.093   5.615   3.792
 2706SOL     OW 9016   6.429   1.426   1.879
 2706SOL    HW1 9017   6.501   1.413   1.812
 2706SOL    HW2 9018   6.460   1.395   1.969
 2707SOL     OW 9019   2.298   1.746   6.527
 2707SOL    HW1 9020   2.311   1.845   6.533
 2707SOL    HW2 9021   2.375   1.699   6.570
 2708SOL     OW 9022   2.366   2.696   2.009
 2708SOL    HW1 9023   2.415   2.620   2.051
 2708SOL    HW2 9024   2.302   2.735   2.075
 2709SOL     OW 9025   4.878   5.992   1.512
 2709SOL    HW1 9026   4.944   5.929   1.472
 2709SOL    HW2 9027   4.859   5.965   1.606
 2710SOL     OW 9028   6.929   3.454   2.765
 2710SOL    HW1 9029   6.968   3.412   2.684
 2710SOL    HW2 9030   6.831   3.437   2.768
 2711SOL     OW 9031   1.770   0.156   2.101
 2711SOL    HW1 9032   1.687   0.129   2.052
 2711SOL    HW2 9033   1.837   0.191   2.036
 2712SOL     OW 9034   2.788   4.925   0.351
 2712SOL    HW1 9035   2.832   4.911   0.440
 2712SOL    HW2 9036   2.701   4.876   0.349
 2713SOL     OW 9037   2.238   2.981   4.833
 2713SOL    HW1 9038   2.248   3.018   4.925
 2713SOL    HW2 9039   2.188   2.895   4.837
 2714SOL     OW 9040   5.782   1.675   6.026
 2714SOL    HW1 9041   5.809   1.761   5.982
 2714SOL    HW2 9042   5.710   1.631   5.972
 2715SOL     OW 9043   5.403   0.892   0.238
 2715SOL    HW1 9044   5.434   0.877   0.144
 2715SOL    HW2 9045   5.327   0.831   0.258
 2716SOL     OW 9046   6.912   5.322   1.371
 2716SOL    HW1 9047   6.990   5.361   1.321
 2716SOL    HW2 9048   6.864   5.396   1.419
 2717SOL     OW 9049   0.790   6.091   2.040
 2717SOL    HW1 9050   0.709   6.050   2.080
 2717SOL    HW2 9051   0.802   6.184   2.075
 2718SOL     OW 9052   2.037   3.830   4.379
 2718SOL    HW1 9053   2.118   3.785   4.344
 2718SOL    HW2 9054   1.978   3.857   4.303
 2719SOL     OW 9055   4.303   5.071   2.158
 2719SOL    HW1 9056   4.249   4.991   2.184
 2719SOL    HW2 9057   4.398   5.057   2.186
 2720SOL     OW 9058   1.798   5.958   3.630
 2720SOL    HW1 9059   1.767   6.049   3.655
 2720SOL    HW2 9060   1.862   5.964   3.554
 2721SOL     OW 9061   2.648   0.051   4.467
 2721SOL    HW1 9062   2.730   0.096   4.431
 2721SOL    HW2 9063   2.647   6.978   4.439
 2722SOL     OW 9064   0.256   5.575   3.095
 2722SOL    HW1 9065   0.349   5.603   3.074
 2722SOL    HW2 9066   0.255   5.531   3.185
 2723SOL     OW 9067   2.174   1.213   5.883
 2723SOL    HW1 9068   2.176   1.278   5.807
 2723SOL    HW2 9069   2.196   1.260   5.968
 2724SOL     OW 9070   3.508   4.918   6.232
 2724SOL    HW1 9071   3.443   4.944   6.161
 2724SOL    HW2 9072   3.485   4.964   6.318
 2725SOL     OW 9073   4.957   4.725   2.980
 2725SOL    HW1 9074   4.999   4.641   2.946
 2725SOL    HW2 9075   4.956   4.723   3.080
 2726SOL     OW 9076   4.849   4.816   2.022
 2726SOL    HW1 9077   4.780   4.788   1.956
 2726SOL    HW2 9078   4.809   4.880   2.088
 2727SOL     OW 9079   0.784   4.891   2.457
 2727SOL    HW1 9080   0.807   4.807   2.408
 2727SOL    HW2 9081   0.733   4.868   2.540
 2728SOL     OW 9082   3.030   0.223   5.093
 2728SOL    HW1 9083   3.036   0.304   5.152
 2728SOL    HW2 9084   3.053   0.249   4.999
 2729SOL     OW 9085   6.677   5.428   3.057
 2729SOL    HW1 9086   6.741   5.376   3.114
 2729SOL    HW2 9087   6.682   5.393   2.963
 2730SOL     OW 9088   2.422   0.059   0.175
 2730SOL    HW1 9089   2.363   7.009   0.211
 2730SOL    HW2 9090   2.400   0.076   0.079
 2731SOL     OW 9091   2.655   3.686   1.451
 2731SOL    HW1 9092   2.746   3.660   1.485
 2731SOL    HW2 9093   2.585   3.651   1.514
 2732SOL     OW 9094   5.954   3.207   2.552
 2732SOL    HW1 9095   5.944   3.305   2.571
 2732SOL    HW2 9096   5.936   3.190   2.455
 2733SOL     OW 9097   0.777   0.092   5.792
 2733SOL    HW1 9098   0.711   0.018   5.808
 2733SOL    HW2 9099   0.787   0.107   5.694
 2734SOL     OW 9100   1.669   6.566   3.760
 2734SOL    HW1 9101   1.583   6.530   3.796
 2734SOL    HW2 9102   1.694   6.517   3.676
 2735SOL     OW 9103   1.209   4.199   2.674
 2735SOL    HW1 9104   1.168   4.286   2.701
 2735SOL    HW2 9105   1.141   4.141   2.630
 2736SOL     OW 9106   4.885   0.750   5.806
 2736SOL    HW1 9107   4.819   0.702   5.864
 2736SOL    HW2 9108   4.954   0.794   5.863
 2737SOL     OW 9109   3.520   3.281   6.353
 2737SOL    HW1 9110   3.580   3.347   6.310
 2737SOL    HW2 9111   3.560   3.250   6.439
 2738SOL     OW 9112   5.065   5.459   3.757
 2738SOL    HW1 9113   4.969   5.486   3.766
 2738SOL    HW2 9114   5.071   5.363   3.729
 2739SOL     OW 9115   5.715   4.727   0.738
 2739SOL    HW1 9116   5.632   4.778   0.717
 2739SOL    HW2 9117   5.697   4.629   0.731
 2740SOL     OW 9118   6.184   2.206   2.643
 2740SOL    HW1 9119   6.193   2.262   2.726
 2740SOL    HW2 9120   6.097   2.157   2.646
 2741SOL     OW 9121   7.013   2.181   5.642
 2741SOL    HW1 9122   0.047   2.196   5.561
 2741SOL    HW2 9123   0.017   2.095   5.685
 2742SOL     OW 9124   1.411   5.528   6.134
 2742SOL    HW1 9125   1.421   5.537   6.035
 2742SOL    HW2 9126   1.385   5.434   6.156
 2743SOL     OW 9127   5.382   5.311   1.495
 2743SOL    HW1 9128   5.372   5.214   1.516
 2743SOL    HW2 9129   5.468   5.344   1.533
 2744SOL     OW 9130   4.009   2.246   6.477
 2744SOL    HW1 9131   4.067   2.213   6.552
 2744SOL    HW2 9132   4.062   2.250   6.393
 2745SOL     OW 9133   1.999   6.607   0.799
 2745SOL    HW1 9134   1.934   6.533   0.817
 2745SOL    HW2 9135   2.083   6.568   0.760
 2746SOL     OW 9136   1.991   2.737   4.914
 2746SOL    HW1 9137   2.083   2.728   4.950
 2746SOL    HW2 9138   1.946   2.815   4.957
 2747SOL     OW 9139   6.051   5.504   4.823
 2747SOL    HW1 9140   6.049   5.421   4.766
 2747SOL    HW2 9141   5.980   5.498   4.892
 2748SOL     OW 9142   4.028   1.428   3.564
 2748SOL    HW1 9143   4.112   1.401   3.517
 2748SOL    HW2 9144   4.018   1.374   3.647
 2749SOL     OW 9145   5.068   4.377   4.107
 2749SOL    HW1 9146   5.106   4.374   4.200
 2749SOL    HW2 9147   4.975   4.339   4.109
 2750SOL     OW 9148   0.439   5.821   1.852
 2750SOL    HW1 9149   0.473   5.901   1.801
 2750SOL    HW2 9150   0.446   5.740   1.794
 2751SOL     OW 9151   2.010   0.244   0.045
 2751SOL    HW1 9152   1.968   0.161   0.083
 2751SOL    HW2 9153   2.010   0.316   0.114
 2752SOL     OW 9154   5.110   6.686   5.225
 2752SOL    HW1 9155   5.099   6.670   5.127
 2752SOL    HW2 9156   5.096   6.601   5.275
 2753SOL     OW 9157   3.435   5.999   6.065
 2753SOL    HW1 9158   3.459   6.095   6.052
 2753SOL    HW2 9159   3.498   5.942   6.012
 2754SOL     OW 9160   0.345   0.165   4.391
 2754SOL    HW1 9161   0.257   0.190   4.351
 2754SOL    HW2 9162   0.355   0.208   4.481
 2755SOL     OW 9163   2.675   6.227   2.582
 2755SOL    HW1 9164   2.616   6.151   2.610
 2755SOL    HW2 9165   2.753   6.191   2.532
 2756SOL     OW 9166   5.392   3.586   4.922
 2756SOL    HW1 9167   5.315   3.644   4.895
 2756SOL    HW2 9168   5.360   3.491   4.931
 2757SOL     OW 9169   4.506   1.929   6.824
 2757SOL    HW1 9170   4.478   1.845   6.871
 2757SOL    HW2 9171   4.605   1.929   6.812
 2758SOL     OW 9172   5.096   5.141   3.328
 2758SOL    HW1 9173   5.165   5.163   3.259
 2758SOL    HW2 9174   5.140   5.109   3.411
 2759SOL     OW 9175   3.409   4.402   6.256
 2759SOL    HW1 9176   3.441   4.433   6.167
 2759SOL    HW2 9177   3.347   4.470   6.296
 2760SOL     OW 9178   5.778   6.207   3.502
 2760SOL    HW1 9179   5.721   6.134   3.463
 2760SOL    HW2 9180   5.729   6.294   3.495
 2761SOL     OW 9181   1.846   4.019   2.845
 2761SOL    HW1 9182   1.906   3.942   2.823
 2761SOL    HW2 9183   1.800   4.001   2.933
 2762SOL     OW 9184   1.869   2.090   0.002
 2762SOL    HW1 9185   1.927   2.120   6.949
 2762SOL    HW2 9186   1.922   2.032   0.064
 2763SOL     OW 9187   4.609   1.420   5.789
 2763SOL    HW1 9188   4.613   1.497   5.853
 2763SOL    HW2 9189   4.630   1.451   5.697
 2764SOL     OW 9190   0.675   4.232   1.813
 2764SOL    HW1 9191   0.609   4.295   1.773
 2764SOL    HW2 9192   0.723   4.182   1.741
 2765SOL     OW 9193   6.362   0.084   6.921
 2765SOL    HW1 9194   6.436   0.034   6.966
 2765SOL    HW2 9195   6.274   0.055   6.959
 2766SOL     OW 9196   4.889   1.321   6.707
 2766SOL    HW1 9197   4.885   1.304   6.608
 2766SOL    HW2 9198   4.975   1.285   6.743
 2767SOL     OW 9199   6.091   5.269   6.115
 2767SOL    HW1 9200   6.120   5.196   6.176
 2767SOL    HW2 9201   6.172   5.308   6.069
 2768SOL     OW 9202   4.298   0.319   1.029
 2768SOL    HW1 9203   4.273   0.384   1.101
 2768SOL    HW2 9204   4.369   0.258   1.063
 2769SOL     OW 9205   1.723   4.287   5.547
 2769SOL    HW1 9206   1.791   4.231   5.595
 2769SOL    HW2 9207   1.769   4.340   5.476
 2770SOL     OW 9208   3.083   6.683   6.390
 2770SOL    HW1 9209   3.140   6.703   6.470
 2770SOL    HW2 9210   3.040   6.767   6.357
 2771SOL     OW 9211   4.479   0.262   4.870
 2771SOL    HW1 9212   4.459   0.212   4.954
 2771SOL    HW2 9213   4.460   0.359   4.883
 2772SOL     OW 9214   3.886   0.974   2.855
 2772SOL    HW1 9215   3.912   0.897   2.913
 2772SOL    HW2 9216   3.921   0.960   2.763
 2773SOL     OW 9217   0.081   2.905   4.219
 2773SOL    HW1 9218   0.036   2.966   4.153
 2773SOL    HW2 9219   0.145   2.958   4.275
 2774SOL     OW 9220   4.986   1.930   3.255
 2774SOL    HW1 9221   4.916   1.886   3.198
 2774SOL    HW2 9222   5.050   1.981   3.197
 2775SOL     OW 9223   6.997   4.078   4.343
 2775SOL    HW1 9224   6.979   4.138   4.266
 2775SOL    HW2 9225   0.042   4.121   4.404
 2776SOL     OW 9226   4.782   4.843   6.078
 2776SOL    HW1 9227   4.684   4.861   6.090
 2776SOL    HW2 9228   4.809   4.867   5.984
 2777SOL     OW 9229   3.332   2.342   5.793
 2777SOL    HW1 9230   3.239   2.314   5.816
 2777SOL    HW2 9231   3.336   2.369   5.696
 2778SOL     OW 9232   2.350   5.810   6.750
 2778SOL    HW1 9233   2.434   5.862   6.764
 2778SOL    HW2 9234   2.346   5.778   6.655
 2779SOL     OW 9235   5.919   6.027   1.925
 2779SOL    HW1 9236   5.951   6.041   1.831
 2779SOL    HW2 9237   5.928   5.930   1.949
 2780SOL     OW 9238   0.102   1.080   6.240
 2780SOL    HW1 9239   0.122   0.984   6.262
 2780SOL    HW2 9240   0.186   1.126   6.214
 2781SOL     OW 9241   6.635   0.631   2.421
 2781SOL    HW1 9242   6.698   0.557   2.398
 2781SOL    HW2 9243   6.586   0.608   2.505
 2782SOL     OW 9244   4.275   0.891   6.697
 2782SOL    HW1 9245   4.239   0.977   6.663
 2782SOL    HW2 9246   4.246   0.877   6.791
 2783SOL     OW 9247   5.649   3.628   2.125
 2783SOL    HW1 9248   5.711   3.558   2.160
 2783SOL    HW2 9249   5.593   3.590   2.051
 2784SOL     OW 9250   1.819   1.749   1.276
 2784SOL    HW1 9251   1.819   1.688   1.197
 2784SOL    HW2 9252   1.908   1.795   1.283
 2785SOL     OW 9253   5.008   2.729   1.492
 2785SOL    HW1 9254   5.086   2.668   1.476
 2785SOL    HW2 9255   4.957   2.697   1.572
 2786SOL     OW 9256   6.975   5.448   0.365
 2786SOL    HW1 9257   0.024   5.446   0.295
 2786SOL    HW2 9258   6.886   5.429   0.324
 2787SOL     OW 9259   6.158   5.614   5.688
 2787SOL    HW1 9260   6.090   5.662   5.633
 2787SOL    HW2 9261   6.196   5.677   5.757
 2788SOL     OW 9262   3.365   6.525   5.449
 2788SOL    HW1 9263   3.445   6.508   5.392
 2788SOL    HW2 9264   3.361   6.623   5.472
 2789SOL     OW 9265   0.348   2.513   4.663
 2789SOL    HW1 9266   0.402   2.462   4.596
 2789SOL    HW2 9267   0.315   2.598   4.622
 2790SOL     OW 9268   2.010   5.611   0.694
 2790SOL    HW1 9269   2.018   5.654   0.784
 2790SOL    HW2 9270   1.931   5.649   0.645
 2791SOL     OW 9271   6.938   3.648   3.015
 2791SOL    HW1 9272   6.922   3.592   3.096
 2791SOL    HW2 9273   6.907   3.599   2.933
 2792SOL     OW 9274   3.156   1.086   4.778
 2792SOL    HW1 9275   3.093   1.123   4.845
 2792SOL    HW2 9276   3.245   1.130   4.787
 2793SOL     OW 9277   3.810   4.555   1.230
 2793SOL    HW1 9278   3.850   4.605   1.307
 2793SOL    HW2 9279   3.741   4.612   1.186
 2794SOL     OW 9280   6.984   1.689   6.179
 2794SOL    HW1 9281   6.965   1.597   6.213
 2794SOL    HW2 9282   6.999   1.751   6.257
 2795SOL     OW 9283   0.489   4.544   1.591
 2795SOL    HW1 9284   0.582   4.533   1.627
 2795SOL    HW2 9285   0.460   4.639   1.602
 2796SOL     OW 9286   0.530   6.094   5.652
 2796SOL    HW1 9287   0.466   6.172   5.654
 2796SOL    HW2 9288   0.612   6.120   5.601
 2797SOL     OW 9289   5.296   6.645   4.394
 2797SOL    HW1 9290   5.320   6.673   4.301
 2797SOL    HW2 9291   5.372   6.666   4.456
 2798SOL     OW 9292   6.341   6.511   1.855
 2798SOL    HW1 9293   6.375   6.452   1.927
 2798SOL    HW2 9294   6.409   6.518   1.782
 2799SOL     OW 9295   4.046   6.291   4.866
 2799SOL    HW1 9296   4.023   6.195   4.855
 2799SOL    HW2 9297   3.998   6.346   4.797
 2800SOL     OW 9298   6.168   0.719   0.086
 2800SOL    HW1 9299   6.098   0.738   0.017
 2800SOL    HW2 9300   6.259   0.737   0.047
 2801SOL     OW 9301   0.675   4.880   6.167
 2801SOL    HW1 9302   0.694   4.969   6.208
 2801SOL    HW2 9303   0.759   4.844   6.127
 2802SOL     OW 9304   6.502   6.090   5.186
 2802SOL    HW1 9305   6.452   6.137   5.114
 2802SOL    HW2 9306   6.441   6.071   5.263
 2803SOL     OW 9307   3.388   3.142   6.161
 2803SOL    HW1 9308   3.342   3.055   6.179
 2803SOL    HW2 9309   3.448   3.165   6.237
 2804SOL     OW 9310   0.840   2.852   4.317
 2804SOL    HW1 9311   0.770   2.853   4.246
 2804SOL    HW2 9312   0.845   2.760   4.357
 2805SOL     OW 9313   4.408   3.769   1.575
 2805SOL    HW1 9314   4.349   3.716   1.514
 2805SOL    HW2 9315   4.353   3.840   1.621
 2806SOL     OW 9316   0.934   4.649   5.720
 2806SOL    HW1 9317   0.908   4.746   5.718
 2806SOL    HW2 9318   1.005   4.632   5.653
 2807SOL     OW 9319   2.685   0.473   3.084
 2807SOL    HW1 9320   2.644   0.425   3.006
 2807SOL    HW2 9321   2.632   0.556   3.103
 2808SOL     OW 9322   6.180   5.664   0.380
 2808SOL    HW1 9323   6.241   5.648   0.302
 2808SOL    HW2 9324   6.091   5.622   0.361
 2809SOL     OW 9325   6.664   5.005   2.176
 2809SOL    HW1 9326   6.739   4.947   2.209
 2809SOL    HW2 9327   6.628   4.967   2.091
 2810SOL     OW 9328   2.366   5.668   3.599
 2810SOL    HW1 9329   2.412   5.737   3.542
 2810SOL    HW2 9330   2.275   5.651   3.563
 2811SOL     OW 9331   0.780   0.106   2.537
 2811SOL    HW1 9332   0.695   0.160   2.543
 2811SOL    HW2 9333   0.805   0.094   2.441
 2812SOL     OW 9334   0.534   3.276   1.090
 2812SOL    HW1 9335   0.511   3.364   1.133
 2812SOL    HW2 9336   0.508   3.279   0.994
 2813SOL     OW 9337   0.482   2.074   1.396
 2813SOL    HW1 9338   0.418   2.013   1.443
 2813SOL    HW2 9339   0.462   2.169   1.420
 2814SOL     OW 9340   2.182   3.894   0.295
 2814SOL    HW1 9341   2.113   3.821   0.295
 2814SOL    HW2 9342   2.197   3.926   0.202
 2815SOL     OW 9343   0.521   5.746   4.904
 2815SOL    HW1 9344   0.615   5.779   4.916
 2815SOL    HW2 9345   0.487   5.711   4.991
 2816SOL     OW 9346   7.002   6.250   5.746
 2816SOL    HW1 9347   6.933   6.233   5.676
 2816SOL    HW2 9348   6.998   6.177   5.815
 2817SOL     OW 9349   3.982   0.907   2.106
 2817SOL    HW1 9350   3.957   0.865   2.194
 2817SOL    HW2 9351   4.072   0.873   2.077
 2818SOL     OW 9352   1.771   1.011   1.242
 2818SOL    HW1 9353   1.831   1.021   1.321
 2818SOL    HW2 9354   1.680   1.046   1.265
 2819SOL     OW 9355   0.552   6.849   0.823
 2819SOL    HW1 9356   0.506   6.938   0.814
 2819SOL    HW2 9357   0.646   6.856   0.788
 2820SOL     OW 9358   1.371   2.367   1.693
 2820SOL    HW1 9359   1.441   2.438   1.684
 2820SOL    HW2 9360   1.327   2.352   1.605
 2821SOL     OW 9361   3.309   4.494   6.661
 2821SOL    HW1 9362   3.290   4.536   6.572
 2821SOL    HW2 9363   3.325   4.566   6.729
 2822SOL     OW 9364   4.252   2.646   0.685
 2822SOL    HW1 9365   4.306   2.629   0.603
 2822SOL    HW2 9366   4.156   2.624   0.668
 2823SOL     OW 9367   4.685   1.730   0.548
 2823SOL    HW1 9368   4.690   1.696   0.454
 2823SOL    HW2 9369   4.717   1.824   0.552
 2824SOL     OW 9370   1.165   3.790   5.221
 2824SOL    HW1 9371   1.118   3.808   5.308
 2824SOL    HW2 9372   1.167   3.691   5.204
 2825SOL     OW 9373   5.339   1.526   6.290
 2825SOL    HW1 9374   5.368   1.622   6.285
 2825SOL    HW2 9375   5.399   1.477   6.354
 2826SOL     OW 9376   1.211   3.789   6.161
 2826SOL    HW1 9377   1.155   3.817   6.082
 2826SOL    HW2 9378   1.246   3.697   6.146
 2827SOL     OW 9379   0.011   0.952   6.643
 2827SOL    HW1 9380   6.991   0.893   6.712
 2827SOL    HW2 9381   0.060   0.895   6.577
 2828SOL     OW 9382   1.318   3.720   0.624
 2828SOL    HW1 9383   1.384   3.717   0.549
 2828SOL    HW2 9384   1.253   3.794   0.608
 2829SOL     OW 9385   3.621   4.030   3.488
 2829SOL    HW1 9386   3.561   4.090   3.541
 2829SOL    HW2 9387   3.588   4.024   3.394
 2830SOL     OW 9388   3.722   5.543   5.824
 2830SOL    HW1 9389   3.624   5.526   5.822
 2830SOL    HW2 9390   3.746   5.605   5.749
 2831SOL     OW 9391   6.654   2.253   1.627
 2831SOL    HW1 9392   6.578   2.193   1.650
 2831SOL    HW2 9393   6.738   2.218   1.668
 2832SOL     OW 9394   0.697   3.242   1.383
 2832SOL    HW1 9395   0.635   3.255   1.306
 2832SOL    HW2 9396   0.773   3.307   1.377
 2833SOL     OW 9397   2.015   2.030   1.963
 2833SOL    HW1 9398   2.074   1.999   1.888
 2833SOL    HW2 9399   1.952   1.956   1.988
 2834SOL     OW 9400   4.278   6.132   4.914
 2834SOL    HW1 9401   4.187   6.170   4.926
 2834SOL    HW2 9402   4.290   6.055   4.977
 2835SOL     OW 9403   1.168   6.394   0.634
 2835SOL    HW1 9404   1.158   6.443   0.721
 2835SOL    HW2 9405   1.161   6.296   0.650
 2836SOL     OW 9406   3.368   6.058   3.541
 2836SOL    HW1 9407   3.270   6.067   3.520
 2836SOL    HW2 9408   3.398   6.135   3.596
 2837SOL     OW 9409   5.619   4.043   2.274
 2837SOL    HW1 9410   5.601   3.992   2.190
 2837SOL    HW2 9411   5.561   4.125   2.276
 2838SOL     OW 9412   5.030   3.702   6.174
 2838SOL    HW1 9413   5.114   3.655   6.147
 2838SOL    HW2 9414   5.015   3.780   6.113
 2839SOL     OW 9415   6.153   3.433   5.040
 2839SOL    HW1 9416   6.164   3.528   5.071
 2839SOL    HW2 9417   6.180   3.426   4.944
 2840SOL     OW 9418   0.207   5.791   2.715
 2840SOL    HW1 9419   0.244   5.814   2.805
 2840SOL    HW2 9420   0.173   5.697   2.716
 2841SOL     OW 9421   5.831   2.643   1.645
 2841SOL    HW1 9422   5.833   2.734   1.605
 2841SOL    HW2 9423   5.923   2.604   1.646
 2842SOL     OW 9424   1.810   6.342   3.908
 2842SOL    HW1 9425   1.799   6.413   3.977
 2842SOL    HW2 9426   1.791   6.253   3.949
 2843SOL     OW 9427   2.241   2.999   3.554
 2843SOL    HW1 9428   2.329   2.962   3.583
 2843SOL    HW2 9429   2.167   2.940   3.588
 2844SOL     OW 9430   4.978   4.516   0.952
 2844SOL    HW1 9431   4.878   4.505   0.952
 2844SOL    HW2 9432   5.013   4.498   1.044
 2845SOL     OW 9433   4.106   2.176   2.767
 2845SOL    HW1 9434   4.189   2.129   2.738
 2845SOL    HW2 9435   4.036   2.165   2.697
 2846SOL     OW 9436   4.597   0.756   0.517
 2846SOL    HW1 9437   4.688   0.787   0.492
 2846SOL    HW2 9438   4.604   0.668   0.565
 2847SOL     OW 9439   4.715   4.260   2.432
 2847SOL    HW1 9440   4.688   4.204   2.510
 2847SOL    HW2 9441   4.784   4.327   2.462
 2848SOL     OW 9442   0.777   3.404   4.862
 2848SOL    HW1 9443   0.866   3.433   4.896
 2848SOL    HW2 9444   0.775   3.305   4.852
 2849SOL     OW 9445   3.975   0.432   2.711
 2849SOL    HW1 9446   4.023   0.413   2.797
 2849SOL    HW2 9447   4.006   0.520   2.675
 2850SOL     OW 9448   2.439   0.022   2.959
 2850SOL    HW1 9449   2.532   0.011   2.994
 2850SOL    HW2 9450   2.391   6.957   2.961
 2851SOL     OW 9451   4.447   3.340   1.065
 2851SOL    HW1 9452   4.507   3.417   1.089
 2851SOL    HW2 9453   4.364   3.344   1.122
 2852SOL     OW 9454   6.851   4.261   6.117
 2852SOL    HW1 9455   6.836   4.325   6.193
 2852SOL    HW2 9456   6.893   4.310   6.040
 2853SOL     OW 9457   0.725   3.646   0.164
 2853SOL    HW1 9458   0.688   3.724   0.214
 2853SOL    HW2 9459   0.703   3.656   0.067
 2854SOL     OW 9460   3.279   1.578   5.781
 2854SOL    HW1 9461   3.249   1.639   5.709
 2854SOL    HW2 9462   3.329   1.629   5.851
 2855SOL     OW 9463   1.544   1.391   4.217
 2855SOL    HW1 9464   1.580   1.298   4.227
 2855SOL    HW2 9465   1.446   1.392   4.235
 2856SOL     OW 9466   1.302   4.451   2.990
 2856SOL    HW1 9467   1.336   4.411   3.075
 2856SOL    HW2 9468   1.366   4.431   2.916
 2857SOL     OW 9469   0.176   3.064   0.833
 2857SOL    HW1 9470   0.262   3.033   0.792
 2857SOL    HW2 9471   0.126   2.985   0.869
 2858SOL     OW 9472   4.432   4.696   3.171
 2858SOL    HW1 9473   4.487   4.778   3.159
 2858SOL    HW2 9474   4.433   4.643   3.086
 2859SOL     OW 9475   5.623   5.103   1.806
 2859SOL    HW1 9476   5.554   5.167   1.841
 2859SOL    HW2 9477   5.577   5.020   1.774
 2860SOL     OW 9478   1.583   5.950   1.347
 2860SOL    HW1 9479   1.581   6.039   1.392
 2860SOL    HW2 9480   1.657   5.949   1.279
 2861SOL     OW 9481   4.408   4.830   6.703
 2861SOL    HW1 9482   4.423   4.774   6.784
 2861SOL    HW2 9483   4.477   4.902   6.698
 2862SOL     OW 9484   4.545   3.112   1.480
 2862SOL    HW1 9485   4.541   3.211   1.468
 2862SOL    HW2 9486   4.488   3.085   1.558
 2863SOL     OW 9487   5.782   6.821   5.826
 2863SOL    HW1 9488   5.707   6.874   5.867
 2863SOL    HW2 9489   5.858   6.817   5.891
 2864SOL     OW 9490   3.751   3.641   0.725
 2864SOL    HW1 9491   3.832   3.588   0.749
 2864SOL    HW2 9492   3.700   3.662   0.809
 2865SOL     OW 9493   5.384   5.966   4.519
 2865SOL    HW1 9494   5.417   6.034   4.585
 2865SOL    HW2 9495   5.416   5.875   4.547
 2866SOL     OW 9496   4.853   4.208   6.821
 2866SOL    HW1 9497   4.819   4.172   6.734
 2866SOL    HW2 9498   4.901   4.294   6.804
 2867SOL     OW 9499   6.024   6.461   1.982
 2867SOL    HW1 9500   5.991   6.384   2.036
 2867SOL    HW2 9501   6.112   6.438   1.941
 2868SOL     OW 9502   1.772   0.621   5.863
 2868SOL    HW1 9503   1.847   0.685   5.845
 2868SOL    HW2 9504   1.690   0.673   5.888
 2869SOL     OW 9505   5.273   5.844   3.810
 2869SOL    HW1 9506   5.292   5.905   3.887
 2869SOL    HW2 9507   5.300   5.751   3.832
 2870SOL     OW 9508   0.740   1.451   1.599
 2870SOL    HW1 9509   0.640   1.456   1.598
 2870SOL    HW2 9510   0.776   1.537   1.635
 2871SOL     OW 9511   6.180   1.815   1.411
 2871SOL    HW1 9512   6.087   1.819   1.375
 2871SOL    HW2 9513   6.219   1.725   1.392
 2872SOL     OW 9514   2.517   1.858   2.405
 2872SOL    HW1 9515   2.448   1.817   2.465
 2872SOL    HW2 9516   2.487   1.949   2.377
 2873SOL     OW 9517   0.704   6.431   1.353
 2873SOL    HW1 9518   0.673   6.357   1.293
 2873SOL    HW2 9519   0.732   6.393   1.441
 2874SOL     OW 9520   1.986   0.638   3.360
 2874SOL    HW1 9521   1.942   0.613   3.447
 2874SOL    HW2 9522   1.965   0.568   3.291
 2875SOL     OW 9523   3.061   6.716   2.606
 2875SOL    HW1 9524   3.050   6.815   2.591
 2875SOL    HW2 9525   3.158   6.693   2.603
 2876SOL     OW 9526   1.480   6.070   1.767
 2876SOL    HW1 9527   1.452   6.144   1.828
 2876SOL    HW2 9528   1.569   6.092   1.728
 2877SOL     OW 9529   1.994   0.858   5.843
 2877SOL    HW1 9530   1.984   0.839   5.941
 2877SOL    HW2 9531   2.078   0.910   5.827
 2878SOL     OW 9532   3.847   3.540   4.803
 2878SOL    HW1 9533   3.826   3.449   4.769
 2878SOL    HW2 9534   3.942   3.544   4.835
 2879SOL     OW 9535   4.085   4.646   6.362
 2879SOL    HW1 9536   4.119   4.553   6.375
 2879SOL    HW2 9537   4.120   4.704   6.435
 2880SOL     OW 9538   1.574   1.483   4.634
 2880SOL    HW1 9539   1.499   1.435   4.588
 2880SOL    HW2 9540   1.613   1.424   4.705
 2881SOL     OW 9541   3.700   6.541   6.530
 2881SOL    HW1 9542   3.764   6.597   6.582
 2881SOL    HW2 9543   3.634   6.499   6.592
 2882SOL     OW 9544   4.311   6.047   0.460
 2882SOL    HW1 9545   4.218   6.052   0.422
 2882SOL    HW2 9546   4.306   6.049   0.560
 2883SOL     OW 9547   6.103   6.465   3.553
 2883SOL    HW1 9548   6.038   6.444   3.480
 2883SOL    HW2 9549   6.102   6.563   3.571
 2884SOL     OW 9550   0.127   5.528   2.787
 2884SOL    HW1 9551   0.147   5.463   2.715
 2884SOL    HW2 9552   0.178   5.503   2.870
 2885SOL     OW 9553   1.026   3.463   2.971
 2885SOL    HW1 9554   1.017   3.365   2.950
 2885SOL    HW2 9555   1.109   3.478   3.025
 2886SOL     OW 9556   2.879   4.460   6.368
 2886SOL    HW1 9557   2.796   4.434   6.319
 2886SOL    HW2 9558   2.945   4.385   6.364
 2887SOL     OW 9559   1.076   6.427   3.933
 2887SOL    HW1 9560   1.120   6.347   3.893
 2887SOL    HW2 9561   0.994   6.399   3.983
 2888SOL     OW 9562   6.611   6.556   0.701
 2888SOL    HW1 9563   6.640   6.508   0.784
 2888SOL    HW2 9564   6.570   6.491   0.638
 2889SOL     OW 9565   2.918   6.400   3.187
 2889SOL    HW1 9566   3.015   6.416   3.205
 2889SOL    HW2 9567   2.864   6.441   3.260
 2890SOL     OW 9568   1.681   0.037   0.840
 2890SOL    HW1 9569   1.761   7.003   0.860
 2890SOL    HW2 9570   1.611   7.002   0.795
 2891SOL     OW 9571   0.127   3.331   3.530
 2891SOL    HW1 9572   0.114   3.231   3.530
 2891SOL    HW2 9573   0.121   3.364   3.436
 2892SOL     OW 9574   6.297   3.491   1.245
 2892SOL    HW1 9575   6.364   3.547   1.293
 2892SOL    HW2 9576   6.321   3.486   1.148
 2893SOL     OW 9577   0.040   5.052   4.388
 2893SOL    HW1 9578   7.020   4.966   4.417
 2893SOL    HW2 9579   0.086   5.095   4.466
 2894SOL     OW 9580   1.293   5.201   2.150
 2894SOL    HW1 9581   1.344   5.185   2.234
 2894SOL    HW2 9582   1.314   5.128   2.084
 2895SOL     OW 9583   3.991   6.999   5.879
 2895SOL    HW1 9584   3.912   7.004   5.941
 2895SOL    HW2 9585   4.074   7.022   5.930
 2896SOL     OW 9586   5.399   6.142   4.967
 2896SOL    HW1 9587   5.425   6.218   5.028
 2896SOL    HW2 9588   5.301   6.127   4.973
 2897SOL     OW 9589   3.550   4.913   3.125
 2897SOL    HW1 9590   3.540   4.947   3.218
 2897SOL    HW2 9591   3.641   4.937   3.090
 2898SOL     OW 9592   5.616   4.398   2.746
 2898SOL    HW1 9593   5.672   4.481   2.749
 2898SOL    HW2 9594   5.666   4.326   2.697
 2899SOL     OW 9595   6.775   2.901   0.813
 2899SOL    HW1 9596   6.705   2.972   0.806
 2899SOL    HW2 9597   6.732   2.811   0.812
 2900SOL     OW 9598   3.088   3.581   0.197
 2900SOL    HW1 9599   2.988   3.579   0.204
 2900SOL    HW2 9600   3.113   3.614   0.106
 2901SOL     OW 9601   1.519   3.634   3.397
 2901SOL    HW1 9602   1.462   3.554   3.413
 2901SOL    HW2 9603   1.494   3.706   3.463
 2902SOL     OW 9604   1.239   5.634   4.418
 2902SOL    HW1 9605   1.328   5.603   4.385
 2902SOL    HW2 9606   1.235   5.734   4.413
 2903SOL     OW 9607   4.228   5.944   0.766
 2903SOL    HW1 9608   4.185   6.030   0.795
 2903SOL    HW2 9609   4.157   5.877   0.745
 2904SOL     OW 9610   2.495   4.399   5.395
 2904SOL    HW1 9611   2.468   4.467   5.464
 2904SOL    HW2 9612   2.504   4.444   5.306
 2905SOL     OW 9613   0.908   4.435   1.879
 2905SOL    HW1 9614   0.844   4.427   1.956
 2905SOL    HW2 9615   0.867   4.493   1.808
 2906SOL     OW 9616   5.896   5.784   3.505
 2906SOL    HW1 9617   5.867   5.688   3.509
 2906SOL    HW2 9618   5.875   5.822   3.416
 2907SOL     OW 9619   0.822   0.217   3.349
 2907SOL    HW1 9620   0.819   0.118   3.339
 2907SOL    HW2 9621   0.915   0.250   3.331
 2908SOL     OW 9622   4.700   7.014   2.741
 2908SOL    HW1 9623   4.725   0.020   2.834
 2908SOL    HW2 9624   4.664   6.921   2.744
 2909SOL     OW 9625   1.280   5.954   2.036
 2909SOL    HW1 9626   1.273   5.944   1.937
 2909SOL    HW2 9627   1.190   5.938   2.077
 2910SOL     OW 9628   0.216   0.831   3.588
 2910SOL    HW1 9629   0.237   0.763   3.518
 2910SOL    HW2 9630   0.133   0.880   3.563
 2911SOL     OW 9631   6.501   4.074   4.235
 2911SOL    HW1 9632   6.500   3.975   4.223
 2911SOL    HW2 9633   6.411   4.111   4.211
 2912SOL     OW 9634   6.958   6.628   0.684
 2912SOL    HW1 9635   7.008   6.542   0.671
 2912SOL    HW2 9636   6.906   6.649   0.601
 2913SOL     OW 9637   2.032   5.756   0.943
 2913SOL    HW1 9638   1.984   5.754   1.031
 2913SOL    HW2 9639   2.008   5.840   0.894
 2914SOL     OW 9640   5.378   5.202   0.362
 2914SOL    HW1 9641   5.392   5.219   0.460
 2914SOL    HW2 9642   5.416   5.279   0.309
 2915SOL     OW 9643   3.218   1.354   3.423
 2915SOL    HW1 9644   3.153   1.353   3.347
 2915SOL    HW2 9645   3.305   1.391   3.391
 2916SOL     OW 9646   1.564   6.226   0.325
 2916SOL    HW1 9647   1.470   6.226   0.359
 2916SOL    HW2 9648   1.564   6.255   0.229
 2917SOL     OW 9649   2.377   6.960   3.337
 2917SOL    HW1 9650   2.324   6.979   3.254
 2917SOL    HW2 9651   2.322   6.906   3.401
 2918SOL     OW 9652   6.239   3.467   0.907
 2918SOL    HW1 9653   6.208   3.443   0.815
 2918SOL    HW2 9654   6.247   3.566   0.915
 2919SOL     OW 9655   0.906   6.233   4.805
 2919SOL    HW1 9656   0.841   6.169   4.764
 2919SOL    HW2 9657   0.897   6.230   4.905
 2920SOL     OW 9658   1.647   1.041   1.801
 2920SOL    HW1 9659   1.656   1.095   1.718
 2920SOL    HW2 9660   1.565   0.983   1.795
 2921SOL     OW 9661   0.469   0.026   5.781
 2921SOL    HW1 9662   0.482   0.088   5.704
 2921SOL    HW2 9663   0.433   0.077   5.859
 2922SOL     OW 9664   3.834   0.903   3.234
 2922SOL    HW1 9665   3.879   0.991   3.243
 2922SOL    HW2 9666   3.742   0.908   3.271
 2923SOL     OW 9667   6.201   4.659   5.261
 2923SOL    HW1 9668   6.115   4.681   5.213
 2923SOL    HW2 9669   6.276   4.656   5.194
 2924SOL     OW 9670   6.376   2.908   5.324
 2924SOL    HW1 9671   6.388   2.925   5.226
 2924SOL    HW2 9672   6.436   2.969   5.376
 2925SOL     OW 9673   5.327   0.642   5.738
 2925SOL    HW1 9674   5.414   0.692   5.730
 2925SOL    HW2 9675   5.256   0.689   5.686
 2926SOL     OW 9676   0.380   1.551   4.892
 2926SOL    HW1 9677   0.480   1.545   4.901
 2926SOL    HW2 9678   0.358   1.612   4.815
 2927SOL     OW 9679   1.741   2.739   1.641
 2927SOL    HW1 9680   1.840   2.727   1.632
 2927SOL    HW2 9681   1.719   2.837   1.639
 2928SOL     OW 9682   6.494   2.319   0.058
 2928SOL    HW1 9683   6.461   2.406   0.093
 2928SOL    HW2 9684   6.543   2.270   0.130
 2929SOL     OW 9685   1.906   2.238   4.759
 2929SOL    HW1 9686   1.978   2.252   4.826
 2929SOL    HW2 9687   1.939   2.262   4.668
 2930SOL     OW 9688   0.184   5.408   4.686
 2930SOL    HW1 9689   0.258   5.383   4.624
 2930SOL    HW2 9690   0.099   5.419   4.634
 2931SOL     OW 9691   4.149   4.367   6.299
 2931SOL    HW1 9692   4.100   4.350   6.385
 2931SOL    HW2 9693   4.129   4.294   6.234
 2932SOL     OW 9694   6.501   5.506   0.695
 2932SOL    HW1 9695   6.572   5.547   0.752
 2932SOL    HW2 9696   6.430   5.465   0.753
 2933SOL     OW 9697   1.080   0.070   0.935
 2933SOL    HW1 9698   1.115   0.155   0.896
 2933SOL    HW2 9699   1.041   0.013   0.863
 2934SOL     OW 9700   4.098   3.754   0.430
 2934SOL    HW1 9701   4.112   3.791   0.338
 2934SOL    HW2 9702   4.186   3.731   0.471
 2935SOL     OW 9703   0.203   2.612   6.262
 2935SOL    HW1 9704   0.285   2.666   6.280
 2935SOL    HW2 9705   0.221   2.551   6.185
 2936SOL     OW 9706   4.595   0.159   0.835
 2936SOL    HW1 9707   4.647   0.245   0.844
 2936SOL    HW2 9708   4.617   0.116   0.748
 2937SOL     OW 9709   4.297   5.673   2.046
 2937SOL    HW1 9710   4.202   5.703   2.036
 2937SOL    HW2 9711   4.305   5.611   2.124
 2938SOL     OW 9712   6.636   5.666   6.280
 2938SOL    HW1 9713   6.537   5.678   6.274
 2938SOL    HW2 9714   6.674   5.733   6.345
 2939SOL     OW 9715   0.161   5.626   1.576
 2939SOL    HW1 9716   0.099   5.595   1.648
 2939SOL    HW2 9717   0.117   5.697   1.521
 2940SOL     OW 9718   5.423   5.848   3.596
 2940SOL    HW1 9719   5.378   5.867   3.683
 2940SOL    HW2 9720   5.375   5.895   3.522
 2941SOL     OW 9721   2.209   3.288   3.847
 2941SOL    HW1 9722   2.121   3.293   3.801
 2941SOL    HW2 9723   2.227   3.374   3.896
 2942SOL     OW 9724   3.266   1.653   0.868
 2942SOL    HW1 9725   3.185   1.670   0.925
 2942SOL    HW2 9726   3.346   1.689   0.915
 2943SOL     OW 9727   5.948   4.201   3.468
 2943SOL    HW1 9728   5.980   4.291   3.497
 2943SOL    HW2 9729   5.849   4.203   3.456
 2944SOL     OW 9730   2.287   5.876   3.809
 2944SOL    HW1 9731   2.326   5.961   3.775
 2944SOL    HW2 9732   2.301   5.804   3.741
 2945SOL     OW 9733   5.023   4.517   1.608
 2945SOL    HW1 9734   5.041   4.481   1.699
 2945SOL    HW2 9735   5.100   4.497   1.548
 2946SOL     OW 9736   2.779   4.034   6.249
 2946SOL    HW1 9737   2.842   4.109   6.229
 2946SOL    HW2 9738   2.794   3.959   6.185
 2947SOL     OW 9739   5.856   6.594   0.742
 2947SOL    HW1 9740   5.809   6.614   0.656
 2947SOL    HW2 9741   5.844   6.498   0.766
 2948SOL     OW 9742   5.817   4.236   2.637
 2948SOL    HW1 9743   5.874   4.224   2.555
 2948SOL    HW2 9744   5.874   4.268   2.712
 2949SOL     OW 9745   1.674   0.220   1.037
 2949SOL    HW1 9746   1.612   0.292   1.007
 2949SOL    HW2 9747   1.674   0.146   0.969
 2950SOL     OW 9748   4.888   4.412   2.586
 2950SOL    HW1 9749   4.836   4.494   2.612
 2950SOL    HW2 9750   4.912   4.361   2.669
 2951SOL     OW 9751   6.003   1.131   1.406
 2951SOL    HW1 9752   5.995   1.053   1.468
 2951SOL    HW2 9753   6.099   1.143   1.380
 2952SOL     OW 9754   5.644   1.173   4.296
 2952SOL    HW1 9755   5.739   1.189   4.270
 2952SOL    HW2 9756   5.626   1.074   4.296
 2953SOL     OW 9757   0.900   5.976   3.364
 2953SOL    HW1 9758   0.953   6.031   3.299
 2953SOL    HW2 9759   0.959   5.945   3.438
 2954SOL     OW 9760   0.280   4.515   6.121
 2954SOL    HW1 9761   0.346   4.440   6.126
 2954SOL    HW2 9762   0.195   4.487   6.166
 2955SOL     OW 9763   1.948   3.938   6.790
 2955SOL    HW1 9764   1.863   3.891   6.814
 2955SOL    HW2 9765   1.971   3.918   6.695
 2956SOL     OW 9766   6.217   4.203   3.402
 2956SOL    HW1 9767   6.264   4.131   3.453
 2956SOL    HW2 9768   6.120   4.204   3.428
 2957SOL     OW 9769   2.992   5.497   1.469
 2957SOL    HW1 9770   2.917   5.492   1.534
 2957SOL    HW2 9771   3.076   5.465   1.513
 2958SOL     OW 9772   2.184   5.030   3.376
 2958SOL    HW1 9773   2.272   4.983   3.370
 2958SOL    HW2 9774   2.161   5.072   3.288
 2959SOL     OW 9775   6.303   2.032   2.871
 2959SOL    HW1 9776   6.285   2.096   2.796
 2959SOL    HW2 9777   6.343   2.081   2.948
 2960SOL     OW 9778   4.335   0.380   0.779
 2960SOL    HW1 9779   4.293   0.303   0.732
 2960SOL    HW2 9780   4.349   0.357   0.876
 2961SOL     OW 9781   5.323   4.126   2.636
 2961SOL    HW1 9782   5.418   4.097   2.624
 2961SOL    HW2 9783   5.263   4.046   2.640
 2962SOL     OW 9784   6.807   6.435   2.392
 2962SOL    HW1 9785   6.827   6.519   2.340
 2962SOL    HW2 9786   6.801   6.457   2.489
 2963SOL     OW 9787   1.615   1.207   5.048
 2963SOL    HW1 9788   1.548   1.143   5.086
 2963SOL    HW2 9789   1.670   1.245   5.122
 2964SOL     OW 9790   1.035   2.633   6.825
 2964SOL    HW1 9791   1.084   2.701   6.771
 2964SOL    HW2 9792   0.947   2.613   6.781
 2965SOL     OW 9793   0.416   0.634   5.290
 2965SOL    HW1 9794   0.423   0.731   5.314
 2965SOL    HW2 9795   0.340   0.593   5.340
 2966SOL     OW 9796   4.350   5.776   3.736
 2966SOL    HW1 9797   4.422   5.846   3.741
 2966SOL    HW2 9798   4.289   5.798   3.660
 2967SOL     OW 9799   6.327   0.998   5.669
 2967SOL    HW1 9800   6.349   1.021   5.764
 2967SOL    HW2 9801   6.327   0.899   5.658
 2968SOL     OW 9802   1.367   1.884   1.057
 2968SOL    HW1 9803   1.290   1.855   1.115
 2968SOL    HW2 9804   1.331   1.928   0.975
 2969SOL     OW 9805   5.762   3.534   4.360
 2969SOL    HW1 9806   5.778   3.477   4.440
 2969SOL    HW2 9807   5.682   3.501   4.310
 2970SOL     OW 9808   2.322   2.821   4.301
 2970SOL    HW1 9809   2.230   2.798   4.269
 2970SOL    HW2 9810   2.316   2.869   4.388
 2971SOL     OW 9811   5.603   3.931   6.433
 2971SOL    HW1 9812   5.585   3.906   6.528
 2971SOL    HW2 9813   5.688   3.982   6.427
 2972SOL     OW 9814   5.662   4.765   6.467
 2972SOL    HW1 9815   5.670   4.684   6.525
 2972SOL    HW2 9816   5.717   4.752   6.385
 2973SOL     OW 9817   5.129   6.913   2.293
 2973SOL    HW1 9818   5.081   6.998   2.269
 2973SOL    HW2 9819   5.090   6.877   2.378
 2974SOL     OW 9820   5.122   5.511   3.460
 2974SOL    HW1 9821   5.199   5.449   3.446
 2974SOL    HW2 9822   5.068   5.481   3.538
 2975SOL     OW 9823   4.634   4.695   4.074
 2975SOL    HW1 9824   4.684   4.697   4.161
 2975SOL    HW2 9825   4.581   4.611   4.067
 2976SOL     OW 9826   4.814   2.233   2.207
 2976SOL    HW1 9827   4.880   2.175   2.160
 2976SOL    HW2 9828   4.724   2.190   2.204
 2977SOL     OW 9829   1.024   0.461   1.805
 2977SOL    HW1 9830   1.010   0.558   1.827
 2977SOL    HW2 9831   0.958   0.433   1.735
 2978SOL     OW 9832   4.274   4.386   5.996
 2978SOL    HW1 9833   4.185   4.375   5.952
 2978SOL    HW2 9834   4.274   4.470   6.050
 2979SOL     OW 9835   2.430   1.451   4.375
 2979SOL    HW1 9836   2.363   1.416   4.441
 2979SOL    HW2 9837   2.522   1.443   4.414
 2980SOL     OW 9838   3.855   3.837   6.277
 2980SOL    HW1 9839   3.877   3.761   6.216
 2980SOL    HW2 9840   3.843   3.921   6.223
 2981SOL     OW 9841   1.956   1.260   0.658
 2981SOL    HW1 9842   1.879   1.195   0.655
 2981SOL    HW2 9843   2.023   1.235   0.589
 2982SOL     OW 9844   1.116   0.082   2.097
 2982SOL    HW1 9845   1.104   0.156   2.163
 2982SOL    HW2 9846   1.168   0.115   2.018
 2983SOL     OW 9847   6.192   3.126   6.700
 2983SOL    HW1 9848   6.268   3.155   6.759
 2983SOL    HW2 9849   6.106   3.141   6.748
 2984SOL     OW 9850   6.626   5.083   0.203
 2984SOL    HW1 9851   6.654   5.103   0.109
 2984SOL    HW2 9852   6.695   5.119   0.266
 2985SOL     OW 9853   0.035   0.442   4.952
 2985SOL    HW1 9854   0.009   0.539   4.951
 2985SOL    HW2 9855   0.034   0.409   5.047
 2986SOL     OW 9856   3.709   3.951   2.836
 2986SOL    HW1 9857   3.677   3.860   2.863
 2986SOL    HW2 9858   3.737   4.002   2.917
 2987SOL     OW 9859   1.032   1.155   4.248
 2987SOL    HW1 9860   1.002   1.105   4.167
 2987SOL    HW2 9861   0.956   1.164   4.312
 2988SOL     OW 9862   0.655   1.738   0.414
 2988SOL    HW1 9863   0.607   1.651   0.404
 2988SOL    HW2 9864   0.649   1.769   0.508
 2989SOL     OW 9865   5.133   3.275   4.496
 2989SOL    HW1 9866   5.202   3.275   4.568
 2989SOL    HW2 9867   5.042   3.268   4.537
 2990SOL     OW 9868   5.161   1.852   4.390
 2990SOL    HW1 9869   5.080   1.906   4.364
 2990SOL    HW2 9870   5.231   1.913   4.426
 2991SOL     OW 9871   5.495   2.886   0.487
 2991SOL    HW1 9872   5.507   2.953   0.414
 2991SOL    HW2 9873   5.403   2.894   0.526
 2992SOL     OW 9874   0.349   3.519   5.819
 2992SOL    HW1 9875   0.438   3.474   5.819
 2992SOL    HW2 9876   0.358   3.612   5.855
 2993SOL     OW 9877   1.158   4.549   0.174
 2993SOL    HW1 9878   1.249   4.591   0.183
 2993SOL    HW2 9879   1.100   4.579   0.250
 2994SOL     OW 9880   4.569   6.644   0.344
 2994SOL    HW1 9881   4.607   6.561   0.384
 2994SOL    HW2 9882   4.594   6.722   0.401
 2995SOL     OW 9883   4.835   0.055   0.557
 2995SOL    HW1 9884   4.847   0.049   0.656
 2995SOL    HW2 9885   4.891   7.007   0.512
 2996SOL     OW 9886   1.081   1.831   4.763
 2996SOL    HW1 9887   0.994   1.829   4.713
 2996SOL    HW2 9888   1.151   1.873   4.705
 2997SOL     OW 9889   5.112   0.456   3.901
 2997SOL    HW1 9890   5.016   0.469   3.876
 2997SOL    HW2 9891   5.169   0.512   3.843
 2998SOL     OW 9892   2.625   1.059   2.971
 2998SOL    HW1 9893   2.694   1.001   2.929
 2998SOL    HW2 9894   2.588   1.122   2.903
 2999SOL     OW 9895   2.757   4.307   0.507
 2999SOL    HW1 9896   2.808   4.308   0.592
 2999SOL    HW2 9897   2.668   4.263   0.522
 3000SOL     OW 9898   2.788   3.813   5.198
 3000SOL    HW1 9899   2.842   3.736   5.232
 3000SOL    HW2 9900   2.834   3.853   5.119
 3001SOL     OW 9901   6.431   1.766   6.228
 3001SOL    HW1 9902   6.376   1.834   6.277
 3001SOL    HW2 9903   6.416   1.775   6.130
 3002SOL     OW 9904   2.617   0.942   2.027
 3002SOL    HW1 9905   2.710   0.942   1.992
 3002SOL    HW2 9906   2.592   0.850   2.058
 3003SOL     OW 9907   1.063   6.135   0.298
 3003SOL    HW1 9908   1.106   6.155   0.210
 3003SOL    HW2 9909   1.118   6.068   0.348
 3004SOL     OW 9910   2.537   5.587   4.481
 3004SOL    HW1 9911   2.442   5.609   4.459
 3004SOL    HW2 9912   2.550   5.488   4.475
 3005SOL     OW 9913   1.034   2.910   5.329
 3005SOL    HW1 9914   1.002   2.967   5.254
 3005SOL    HW2 9915   0.959   2.853   5.362
 3006SOL     OW 9916   5.244   2.054   5.100
 3006SOL    HW1 9917   5.170   2.093   5.156
 3006SOL    HW2 9918   5.295   2.128   5.057
 3007SOL     OW 9919   5.394   5.060   6.713
 3007SOL    HW1 9920   5.359   5.153   6.709
 3007SOL    HW2 9921   5.426   5.032   6.622
 3008SOL     OW 9922   4.309   2.257   5.740
 3008SOL    HW1 9923   4.231   2.306   5.699
 3008SOL    HW2 9924   4.385   2.255   5.676
 3009SOL     OW 9925   0.489   3.123   2.659
 3009SOL    HW1 9926   0.562   3.054   2.655
 3009SOL    HW2 9927   0.414   3.088   2.716
 3010SOL     OW 9928   4.231   6.137   6.040
 3010SOL    HW1 9929   4.243   6.098   5.949
 3010SOL    HW2 9930   4.147   6.101   6.081
 3011SOL     OW 9931   5.932   0.235   1.148
 3011SOL    HW1 9932   5.934   0.331   1.118
 3011SOL    HW2 9933   5.954   0.230   1.246
 3012SOL     OW 9934   2.905   2.998   6.155
 3012SOL    HW1 9935   2.976   3.046   6.103
 3012SOL    HW2 9936   2.845   3.065   6.199
 3013SOL     OW 9937   0.835   5.794   4.251
 3013SOL    HW1 9938   0.907   5.749   4.304
 3013SOL    HW2 9939   0.787   5.726   4.195
 3014SOL     OW 9940   4.824   0.896   5.348
 3014SOL    HW1 9941   4.873   0.906   5.434
 3014SOL    HW2 9942   4.753   0.827   5.357
 3015SOL     OW 9943   1.530   1.117   0.261
 3015SOL    HW1 9944   1.548   1.209   0.225
 3015SOL    HW2 9945   1.506   1.056   0.186
 3016SOL     OW 9946   2.738   6.275   4.767
 3016SOL    HW1 9947   2.651   6.291   4.720
 3016SOL    HW2 9948   2.763   6.356   4.820
 3017SOL     OW 9949   6.530   5.999   1.512
 3017SOL    HW1 9950   6.438   6.036   1.522
 3017SOL    HW2 9951   6.597   6.073   1.514
 3018SOL     OW 9952   3.252   0.389   0.232
 3018SOL    HW1 9953   3.248   0.290   0.218
 3018SOL    HW2 9954   3.333   0.426   0.187
 3019SOL     OW 9955   1.554   0.130   6.042
 3019SOL    HW1 9956   1.594   0.039   6.036
 3019SOL    HW2 9957   1.520   0.146   6.134
 3020SOL     OW 9958   5.209   3.732   0.358
 3020SOL    HW1 9959   5.293   3.737   0.304
 3020SOL    HW2 9960   5.145   3.801   0.325
 3021SOL     OW 9961   3.495   6.447   4.795
 3021SOL    HW1 9962   3.530   6.534   4.761
 3021SOL    HW2 9963   3.553   6.373   4.761
 3022SOL     OW 9964   4.478   6.274   3.475
 3022SOL    HW1 9965   4.497   6.292   3.571
 3022SOL    HW2 9966   4.531   6.195   3.444
 3023SOL     OW 9967   3.911   0.021   2.885
 3023SOL    HW1 9968   3.850   0.056   2.815
 3023SOL    HW2 9969   3.945   6.953   2.858
 3024SOL     OW 9970   0.181   6.312   6.290
 3024SOL    HW1 9971   0.265   6.281   6.335
 3024SOL    HW2 9972   0.183   6.287   6.194
 3025SOL     OW 9973   3.734   6.090   0.893
 3025SOL    HW1 9974   3.635   6.094   0.900
 3025SOL    HW2 9975   3.760   6.065   0.799
 3026SOL     OW 9976   5.739   1.317   0.338
 3026SOL    HW1 9977   5.730   1.351   0.244
 3026SOL    HW2 9978   5.821   1.261   0.345
 3027SOL     OW 9979   5.135   1.237   1.490
 3027SOL    HW1 9980   5.148   1.336   1.495
 3027SOL    HW2 9981   5.177   1.202   1.406
 3028SOL     OW 9982   2.624   4.398   6.242
 3028SOL    HW1 9983   2.651   4.368   6.151
 3028SOL    HW2 9984   2.575   4.324   6.289
 3029SOL     OW 9985   0.796   1.721   4.208
 3029SOL    HW1 9986   0.710   1.772   4.203
 3029SOL    HW2 9987   0.858   1.766   4.272
 3030SOL     OW 9988   1.341   3.524   1.279
 3030SOL    HW1 9989   1.418   3.461   1.269
 3030SOL    HW2 9990   1.375   3.615   1.303
 3031SOL     OW 9991   1.261   5.735   1.245
 3031SOL    HW1 9992   1.195   5.755   1.172
 3031SOL    HW2 9993   1.308   5.819   1.272
 3032SOL     OW 9994   1.348   0.556   2.740
 3032SOL    HW1 9995   1.433   0.533   2.789
 3032SOL    HW2 9996   1.367   0.628   2.674
 3033SOL     OW 9997   0.105   2.035   4.394
 3033SOL    HW1 9998   0.190   2.052   4.344
 3033SOL    HW2 9999   0.066   2.122   4.425
 3034SOL     OW10000   0.368   5.875   3.613
 3034SOL    HW110001   0.405   5.947   3.554
 3034SOL    HW210002   0.291   5.911   3.666
 3035SOL     OW10003   1.442   2.571   6.453
 3035SOL    HW110004   1.535   2.607   6.441
 3035SOL    HW210005   1.398   2.561   6.364
 3036SOL     OW10006   2.616   2.002   6.300
 3036SOL    HW110007   2.588   2.043   6.213
 3036SOL    HW210008   2.649   2.074   6.361
 3037SOL     OW10009   0.643   5.489   6.466
 3037SOL    HW110010   0.596   5.507   6.379
 3037SOL    HW210011   0.647   5.573   6.520
 3038SOL     OW10012   5.112   4.865   6.335
 3038SOL    HW110013   5.180   4.815   6.389
 3038SOL    HW210014   5.044   4.801   6.301
 3039SOL     OW10015   6.553   4.328   0.122
 3039SOL    HW110016   6.533   4.245   0.069
 3039SOL    HW210017   6.600   4.394   0.064
 3040SOL     OW10018   3.836   4.525   6.329
 3040SOL    HW110019   3.819   4.614   6.287
 3040SOL    HW210020   3.934   4.512   6.341
 3041SOL     OW10021   2.182   4.382   4.827
 3041SOL    HW110022   2.114   4.366   4.899
 3041SOL    HW210023   2.201   4.296   4.779
 3042SOL     OW10024   0.103   5.027   3.043
 3042SOL    HW110025   0.181   4.998   2.988
 3042SOL    HW210026   0.111   5.124   3.064
 3043SOL     OW10027   3.036   4.501   0.788
 3043SOL    HW110028   3.103   4.556   0.837
 3043SOL    HW210029   2.947   4.548   0.787
 3044SOL     OW10030   3.265   3.648   5.284
 3044SOL    HW110031   3.242   3.625   5.378
 3044SOL    HW210032   3.199   3.605   5.222
 3045SOL     OW10033   5.313   1.598   2.657
 3045SOL    HW110034   5.402   1.582   2.700
 3045SOL    HW210035   5.245   1.535   2.695
 3046SOL     OW10036   5.689   5.479   0.548
 3046SOL    HW110037   5.755   5.408   0.523
 3046SOL    HW210038   5.738   5.561   0.577
 3047SOL     OW10039   6.413   0.681   6.553
 3047SOL    HW110040   6.405   0.678   6.454
 3047SOL    HW210041   6.335   0.635   6.595
 3048SOL     OW10042   4.011   3.544   1.369
 3048SOL    HW110043   4.004   3.521   1.467
 3048SOL    HW210044   3.982   3.638   1.355
 3049SOL     OW10045   0.911   0.252   4.510
 3049SOL    HW110046   0.848   0.318   4.470
 3049SOL    HW210047   0.972   0.216   4.439
 3050SOL     OW10048   3.081   2.645   1.429
 3050SOL    HW110049   3.017   2.568   1.435
 3050SOL    HW210050   3.061   2.710   1.502
 3051SOL     OW10051   2.434   6.813   4.513
 3051SOL    HW110052   2.479   6.785   4.598
 3051SOL    HW210053   2.495   6.794   4.435
 3052SOL     OW10054   6.099   6.098   2.348
 3052SOL    HW110055   6.069   6.176   2.403
 3052SOL    HW210056   6.161   6.130   2.276
 3053SOL     OW10057   1.663   4.200   0.476
 3053SOL    HW110058   1.643   4.173   0.570
 3053SOL    HW210059   1.662   4.119   0.417
 3054SOL     OW10060   5.799   1.411   3.051
 3054SOL    HW110061   5.790   1.345   3.126
 3054SOL    HW210062   5.787   1.503   3.086
 3055SOL     OW10063   6.383   5.860   6.573
 3055SOL    HW110064   6.409   5.764   6.579
 3055SOL    HW210065   6.285   5.867   6.551
 3056SOL     OW10066   5.011   1.561   6.056
 3056SOL    HW110067   5.101   1.521   6.075
 3056SOL    HW210068   4.997   1.640   6.115
 3057SOL     OW10069   6.197   5.679   3.191
 3057SOL    HW110070   6.230   5.725   3.274
 3057SOL    HW210071   6.132   5.607   3.216
 3058SOL     OW10072   6.340   4.548   0.104
 3058SOL    HW110073   6.418   4.555   0.165
 3058SOL    HW210074   6.302   4.456   0.109
 3059SOL     OW10075   2.509   2.579   4.512
 3059SOL    HW110076   2.546   2.574   4.419
 3059SOL    HW210077   2.416   2.543   4.512
 3060SOL     OW10078   4.365   5.080   5.338
 3060SOL    HW110079   4.418   5.082   5.422
 3060SOL    HW210080   4.353   5.173   5.303
 3061SOL     OW10081   4.887   4.650   5.403
 3061SOL    HW110082   4.956   4.697   5.349
 3061SOL    HW210083   4.796   4.667   5.364
 3062SOL     OW10084   4.658   4.308   1.708
 3062SOL    HW110085   4.563   4.299   1.739
 3062SOL    HW210086   4.720   4.287   1.784
 3063SOL     OW10087   6.871   4.442   1.363
 3063SOL    HW110088   6.829   4.375   1.302
 3063SOL    HW210089   6.944   4.397   1.416
 3064SOL     OW10090   4.065   1.980   6.844
 3064SOL    HW110091   3.993   1.984   6.774
 3064SOL    HW210092   4.031   1.929   6.923
 3065SOL     OW10093   1.069   0.812   6.976
 3065SOL    HW110094   1.053   0.856   6.888
 3065SOL    HW210095   1.136   0.739   6.965
 3066SOL     OW10096   5.326   6.149   6.498
 3066SOL    HW110097   5.362   6.090   6.426
 3066SOL    HW210098   5.388   6.148   6.576
 3067SOL     OW10099   2.722   2.426   6.960
 3067SOL    HW110100   2.752   2.428   0.033
 3067SOL    HW210101   2.763   2.503   6.911
 3068SOL     OW10102   0.596   0.619   1.017
 3068SOL    HW110103   0.624   0.700   0.965
 3068SOL    HW210104   0.514   0.580   0.976
 3069SOL     OW10105   5.309   0.255   2.604
 3069SOL    HW110106   5.243   0.324   2.574
 3069SOL    HW210107   5.265   0.191   2.666
 3070SOL     OW10108   3.230   1.601   1.192
 3070SOL    HW110109   3.171   1.622   1.270
 3070SOL    HW210110   3.309   1.662   1.193
 3071SOL     OW10111   0.285   2.956   3.500
 3071SOL    HW110112   0.227   2.989   3.575
 3071SOL    HW210113   0.231   2.956   3.415
 3072SOL     OW10114   2.570   6.484   6.719
 3072SOL    HW110115   2.470   6.492   6.710
 3072SOL    HW210116   2.614   6.554   6.663
 3073SOL     OW10117   6.006   4.670   0.753
 3073SOL    HW110118   5.939   4.727   0.800
 3073SOL    HW210119   6.093   4.673   0.802
 3074SOL     OW10120   1.740   3.583   1.375
 3074SOL    HW110121   1.798   3.658   1.408
 3074SOL    HW210122   1.790   3.531   1.306
 3075SOL     OW10123   2.151   5.179   3.153
 3075SOL    HW110124   2.068   5.227   3.126
 3075SOL    HW210125   2.224   5.200   3.088
 3076SOL     OW10126   7.000   0.737   4.637
 3076SOL    HW110127   0.039   0.802   4.591
 3076SOL    HW210128   6.927   0.710   4.574
 3077SOL     OW10129   6.488   4.156   1.385
 3077SOL    HW110130   6.390   4.163   1.366
 3077SOL    HW210131   6.503   4.149   1.484
 3078SOL     OW10132   6.510   2.758   1.454
 3078SOL    HW110133   6.573   2.828   1.418
 3078SOL    HW210134   6.562   2.677   1.480
 3079SOL     OW10135   2.139   2.916   5.214
 3079SOL    HW110136   2.156   2.945   5.309
 3079SOL    HW210137   2.217   2.941   5.157
 3080SOL     OW10138   4.533   5.138   1.042
 3080SOL    HW110139   4.623   5.133   0.999
 3080SOL    HW210140   4.543   5.132   1.141
 3081SOL     OW10141   1.540   3.942   0.608
 3081SOL    HW110142   1.575   3.898   0.691
 3081SOL    HW210143   1.522   3.872   0.538
 3082SOL     OW10144   3.986   4.874   4.660
 3082SOL    HW110145   4.076   4.834   4.645
 3082SOL    HW210146   3.952   4.848   4.751
 3083SOL     OW10147   2.368   5.711   2.641
 3083SOL    HW110148   2.411   5.778   2.581
 3083SOL    HW210149   2.418   5.707   2.727
 3084SOL     OW10150   0.815   3.346   3.796
 3084SOL    HW110151   0.846   3.386   3.710
 3084SOL    HW210152   0.854   3.397   3.873
 3085SOL     OW10153   4.772   4.757   0.903
 3085SOL    HW110154   4.778   4.851   0.869
 3085SOL    HW210155   4.775   4.693   0.827
 3086SOL     OW10156   6.630   1.199   6.411
 3086SOL    HW110157   6.589   1.246   6.334
 3086SOL    HW210158   6.727   1.183   6.392
 3087SOL     OW10159   3.128   6.853   1.811
 3087SOL    HW110160   3.117   6.797   1.729
 3087SOL    HW210161   3.042   6.900   1.831
 3088SOL     OW10162   0.908   3.155   5.106
 3088SOL    HW110163   0.839   3.140   5.176
 3088SOL    HW210164   0.865   3.156   5.016
 3089SOL     OW10165   4.879   6.951   5.038
 3089SOL    HW110166   4.959   6.932   5.095
 3089SOL    HW210167   4.899   6.926   4.943
 3090SOL     OW10168   0.706   1.999   1.635
 3090SOL    HW110169   0.739   1.961   1.548
 3090SOL    HW210170   0.631   1.943   1.670
 3091SOL     OW10171   1.573   1.773   0.683
 3091SOL    HW110172   1.619   1.861   0.671
 3091SOL    HW210173   1.520   1.751   0.601
 3092SOL     OW10174   6.375   6.875   2.588
 3092SOL    HW110175   6.374   6.975   2.576
 3092SOL    HW210176   6.437   6.834   2.522
 3093SOL     OW10177   5.740   5.246   6.387
 3093SOL    HW110178   5.710   5.169   6.444
 3093SOL    HW210179   5.800   5.305   6.441
 3094SOL     OW10180   2.564   1.373   5.759
 3094SOL    HW110181   2.504   1.424   5.820
 3094SOL    HW210182   2.514   1.345   5.677
 3095SOL     OW10183   2.133   3.238   5.131
 3095SOL    HW110184   2.131   3.245   5.231
 3095SOL    HW210185   2.211   3.182   5.104
 3096SOL     OW10186   0.745   3.557   4.630
 3096SOL    HW110187   0.753   3.512   4.719
 3096SOL    HW210188   0.724   3.654   4.644
 3097SOL     OW10189   5.434   2.999   6.566
 3097SOL    HW110190   5.404   2.944   6.643
 3097SOL    HW210191   5.435   2.943   6.483
 3098SOL     OW10192   1.626   1.960   2.061
 3098SOL    HW110193   1.550   1.908   2.022
 3098SOL    HW210194   1.653   1.919   2.148
 3099SOL     OW10195   0.754   6.261   3.764
 3099SOL    HW110196   0.689   6.259   3.688
 3099SOL    HW210197   0.841   6.221   3.734
 3100SOL     OW10198   6.251   5.781   2.293
 3100SOL    HW110199   6.266   5.701   2.236
 3100SOL    HW210200   6.183   5.840   2.250
 3101SOL     OW10201   4.198   6.542   5.993
 3101SOL    HW110202   4.260   6.604   5.944
 3101SOL    HW210203   4.103   6.564   5.970
 3102SOL     OW10204   0.349   4.957   0.570
 3102SOL    HW110205   0.384   4.989   0.658
 3102SOL    HW210206   0.249   4.948   0.575
 3103SOL     OW10207   2.998   0.182   1.069
 3103SOL    HW110208   2.928   0.224   1.128
 3103SOL    HW210209   3.068   0.140   1.126
 3104SOL     OW10210   4.724   0.602   5.983
 3104SOL    HW110211   4.698   0.511   5.950
 3104SOL    HW210212   4.733   0.599   6.083
 3105SOL     OW10213   5.245   3.234   0.248
 3105SOL    HW110214   5.235   3.299   0.173
 3105SOL    HW210215   5.260   3.284   0.334
 3106SOL     OW10216   6.048   0.878   4.955
 3106SOL    HW110217   5.956   0.843   4.969
 3106SOL    HW210218   6.114   0.803   4.963
 3107SOL     OW10219   4.063   1.195   5.200
 3107SOL    HW110220   4.069   1.221   5.297
 3107SOL    HW210221   4.062   1.278   5.144
 3108SOL     OW10222   1.898   4.169   4.333
 3108SOL    HW110223   1.914   4.172   4.432
 3108SOL    HW210224   1.865   4.258   4.302
 3109SOL     OW10225   6.564   6.544   3.702
 3109SOL    HW110226   6.472   6.520   3.735
 3109SOL    HW210227   6.615   6.587   3.775
 3110SOL     OW10228   2.002   4.639   3.831
 3110SOL    HW110229   1.971   4.544   3.830
 3110SOL    HW210230   1.923   4.700   3.820
 3111SOL     OW10231   6.395   4.440   4.696
 3111SOL    HW110232   6.324   4.484   4.751
 3111SOL    HW210233   6.484   4.482   4.718
 3112SOL     OW10234   3.714   2.327   0.046
 3112SOL    HW110235   3.685   2.422   0.035
 3112SOL    HW210236   3.796   2.311   7.015
 3113SOL     OW10237   1.760   5.645   3.267
 3113SOL    HW110238   1.814   5.580   3.320
 3113SOL    HW210239   1.773   5.626   3.169
 3114SOL     OW10240   4.164   1.403   0.021
 3114SOL    HW110241   4.232   1.330   0.028
 3114SOL    HW210242   4.091   1.374   6.981
 3115SOL     OW10243   4.110   4.828   5.717
 3115SOL    HW110244   4.091   4.824   5.815
 3115SOL    HW210245   4.037   4.781   5.667
 3116SOL     OW10246   0.430   2.063   0.596
 3116SOL    HW110247   0.468   2.145   0.553
 3116SOL    HW210248   0.503   1.996   0.608
 3117SOL     OW10249   4.904   2.181   5.569
 3117SOL    HW110250   4.819   2.129   5.563
 3117SOL    HW210251   4.897   2.265   5.515
 3118SOL     OW10252   1.796   1.155   2.887
 3118SOL    HW110253   1.809   1.065   2.927
 3118SOL    HW210254   1.842   1.224   2.943
 3119SOL     OW10255   4.021   3.689   6.059
 3119SOL    HW110256   4.106   3.695   6.111
 3119SOL    HW210257   4.037   3.637   5.976
 3120SOL     OW10258   2.592   6.626   5.442
 3120SOL    HW110259   2.538   6.622   5.358
 3120SOL    HW210260   2.687   6.600   5.421
 3121SOL     OW10261   5.049   1.581   4.381
 3121SOL    HW110262   5.085   1.673   4.394
 3121SOL    HW210263   4.985   1.581   4.304
 3122SOL     OW10264   4.398   5.217   4.650
 3122SOL    HW110265   4.323   5.264   4.696
 3122SOL    HW210266   4.424   5.267   4.567
 3123SOL     OW10267   2.475   2.110   3.386
 3123SOL    HW110268   2.561   2.147   3.420
 3123SOL    HW210269   2.491   2.021   3.343
 3124SOL     OW10270   5.351   6.714   4.119
 3124SOL    HW110271   5.303   6.705   4.032
 3124SOL    HW210272   5.415   6.790   4.115
 3125SOL     OW10273   1.418   2.732   5.072
 3125SOL    HW110274   1.437   2.688   4.984
 3125SOL    HW210275   1.470   2.817   5.079
 3126SOL     OW10276   5.472   5.249   4.259
 3126SOL    HW110277   5.571   5.244   4.266
 3126SOL    HW210278   5.439   5.180   4.195
 3127SOL     OW10279   0.588   1.911   4.331
 3127SOL    HW110280   0.588   1.958   4.419
 3127SOL    HW210281   0.620   1.974   4.260
 3128SOL     OW10282   4.513   0.006   6.809
 3128SOL    HW110283   4.527   0.105   6.809
 3128SOL    HW210284   4.600   6.983   6.828
 3129SOL     OW10285   4.792   3.545   0.982
 3129SOL    HW110286   4.790   3.463   0.924
 3129SOL    HW210287   4.869   3.539   1.045
 3130SOL     OW10288   1.668   4.402   1.271
 3130SOL    HW110289   1.622   4.314   1.282
 3130SOL    HW210290   1.764   4.393   1.299
 3131SOL     OW10291   6.531   3.888   2.203
 3131SOL    HW110292   6.565   3.905   2.296
 3131SOL    HW210293   6.605   3.901   2.138
 3132SOL     OW10294   4.069   4.139   0.341
 3132SOL    HW110295   4.149   4.195   0.318
 3132SOL    HW210296   4.085   4.091   0.427
 3133SOL     OW10297   4.276   0.565   3.455
 3133SOL    HW110298   4.318   0.654   3.439
 3133SOL    HW210299   4.306   0.500   3.386
 3134SOL     OW10300   3.507   5.169   2.456
 3134SOL    HW110301   3.605   5.170   2.434
 3134SOL    HW210302   3.455   5.199   2.376
 3135SOL     OW10303   5.387   6.523   5.986
 3135SOL    HW110304   5.318   6.549   6.053
 3135SOL    HW210305   5.402   6.598   5.922
 3136SOL     OW10306   6.178   1.415   2.780
 3136SOL    HW110307   6.208   1.484   2.715
 3136SOL    HW210308   6.137   1.338   2.730
 3137SOL     OW10309   6.324   0.078   0.436
 3137SOL    HW110310   6.322   0.102   0.533
 3137SOL    HW210311   6.336   7.001   0.426
 3138SOL     OW10312   5.424   5.029   4.115
 3138SOL    HW110313   5.480   4.967   4.171
 3138SOL    HW210314   5.455   5.025   4.020
 3139SOL     OW10315   2.608   5.680   1.039
 3139SOL    HW110316   2.641   5.745   0.972
 3139SOL    HW210317   2.546   5.726   1.103
 3140SOL     OW10318   6.618   6.634   5.850
 3140SOL    HW110319   6.647   6.727   5.872
 3140SOL    HW210320   6.582   6.632   5.757
 3141SOL     OW10321   6.879   2.785   6.535
 3141SOL    HW110322   6.822   2.862   6.564
 3141SOL    HW210323   6.828   2.700   6.541
 3142SOL     OW10324   5.517   0.998   2.127
 3142SOL    HW110325   5.488   1.089   2.098
 3142SOL    HW210326   5.518   0.936   2.049
 3143SOL     OW10327   5.995   1.460   6.827
 3143SOL    HW110328   6.000   1.556   6.855
 3143SOL    HW210329   6.016   1.453   6.729
 3144SOL     OW10330   4.189   4.162   6.591
 3144SOL    HW110331   4.176   4.077   6.540
 3144SOL    HW210332   4.249   4.145   6.669
 3145SOL     OW10333   2.023   6.079   1.666
 3145SOL    HW110334   2.102   6.027   1.634
 3145SOL    HW210335   1.996   6.146   1.597
 3146SOL     OW10336   0.422   0.903   5.321
 3146SOL    HW110337   0.375   0.952   5.394
 3146SOL    HW210338   0.513   0.941   5.308
 3147SOL     OW10339   3.905   4.864   6.723
 3147SOL    HW110340   3.820   4.860   6.670
 3147SOL    HW210341   3.882   4.871   6.821
 3148SOL     OW10342   0.574   5.525   2.764
 3148SOL    HW110343   0.505   5.483   2.822
 3148SOL    HW210344   0.665   5.498   2.796
 3149SOL     OW10345   3.026   1.419   1.088
 3149SOL    HW110346   3.017   1.331   1.135
 3149SOL    HW210347   3.100   1.472   1.129
 3150SOL     OW10348   6.568   6.410   4.846
 3150SOL    HW110349   6.497   6.455   4.792
 3150SOL    HW210350   6.618   6.479   4.898
 3151SOL     OW10351   5.775   2.005   6.066
 3151SOL    HW110352   5.834   2.086   6.063
 3151SOL    HW210353   5.769   1.965   5.975
 3152SOL     OW10354   1.570   3.258   6.320
 3152SOL    HW110355   1.651   3.273   6.376
 3152SOL    HW210356   1.590   3.282   6.225
 3153SOL     OW10357   6.721   5.337   0.646
 3153SOL    HW110358   6.634   5.387   0.650
 3153SOL    HW210359   6.718   5.260   0.709
 3154SOL     OW10360   5.621   1.677   1.398
 3154SOL    HW110361   5.707   1.715   1.431
 3154SOL    HW210362   5.629   1.578   1.391
 3155SOL     OW10363   0.042   4.837   0.329
 3155SOL    HW110364   0.019   4.842   0.427
 3155SOL    HW210365   0.039   4.929   0.290
 3156SOL     OW10366   3.634   4.194   2.048
 3156SOL    HW110367   3.706   4.152   2.104
 3156SOL    HW210368   3.624   4.290   2.072
 3157SOL     OW10369   0.708   1.910   5.466
 3157SOL    HW110370   0.636   1.846   5.439
 3157SOL    HW210371   0.670   1.978   5.528
 3158SOL     OW10372   2.994   1.601   5.503
 3158SOL    HW110373   2.978   1.509   5.538
 3158SOL    HW210374   2.909   1.653   5.503
 3159SOL     OW10375   4.974   6.838   0.490
 3159SOL    HW110376   5.057   6.864   0.540
 3159SOL    HW210377   4.945   6.746   0.518
 3160SOL     OW10378   2.481   6.849   6.088
 3160SOL    HW110379   2.565   6.828   6.039
 3160SOL    HW210380   2.473   6.948   6.099
 3161SOL     OW10381   1.713   2.678   3.221
 3161SOL    HW110382   1.641   2.747   3.229
 3161SOL    HW210383   1.694   2.620   3.142
 3162SOL     OW10384   1.808   5.750   0.569
 3162SOL    HW110385   1.773   5.742   0.476
 3162SOL    HW210386   1.733   5.736   0.634
 3163SOL     OW10387   4.414   4.033   0.361
 3163SOL    HW110388   4.490   4.098   0.374
 3163SOL    HW210389   4.343   4.052   0.429
 3164SOL     OW10390   3.106   5.305   3.583
 3164SOL    HW110391   3.160   5.370   3.637
 3164SOL    HW210392   3.011   5.337   3.580
 3165SOL     OW10393   0.952   5.055   6.982
 3165SOL    HW110394   1.012   4.977   6.969
 3165SOL    HW210395   0.893   5.039   0.039
 3166SOL     OW10396   4.114   0.955   5.045
 3166SOL    HW110397   4.111   1.044   5.091
 3166SOL    HW210398   4.030   0.904   5.066
 3167SOL     OW10399   4.812   4.315   0.755
 3167SOL    HW110400   4.790   4.317   0.852
 3167SOL    HW210401   4.763   4.388   0.708
 3168SOL     OW10402   4.615   2.228   0.729
 3168SOL    HW110403   4.547   2.169   0.686
 3168SOL    HW210404   4.579   2.264   0.815
 3169SOL     OW10405   1.110   4.857   2.223
 3169SOL    HW110406   1.199   4.832   2.261
 3169SOL    HW210407   1.073   4.780   2.171
 3170SOL     OW10408   3.810   5.708   3.160
 3170SOL    HW110409   3.742   5.750   3.100
 3170SOL    HW210410   3.849   5.779   3.220
 3171SOL     OW10411   5.627   2.655   3.011
 3171SOL    HW110412   5.672   2.608   3.087
 3171SOL    HW210413   5.537   2.613   2.995
 3172SOL     OW10414   7.009   5.131   0.311
 3172SOL    HW110415   6.933   5.092   0.363
 3172SOL    HW210416   0.050   5.177   0.373
 3173SOL     OW10417   3.412   1.274   0.157
 3173SOL    HW110418   3.397   1.371   0.138
 3173SOL    HW210419   3.456   1.263   0.246
 3174SOL     OW10420   2.430   3.574   5.682
 3174SOL    HW110421   2.359   3.605   5.618
 3174SOL    HW210422   2.433   3.635   5.761
 3175SOL     OW10423   6.291   1.383   3.677
 3175SOL    HW110424   6.292   1.322   3.757
 3175SOL    HW210425   6.266   1.475   3.706
 3176SOL     OW10426   0.415   4.178   5.107
 3176SOL    HW110427   0.393   4.269   5.143
 3176SOL    HW210428   0.499   4.144   5.149
 3177SOL     OW10429   5.728   3.845   3.410
 3177SOL    HW110430   5.667   3.775   3.449
 3177SOL    HW210431   5.780   3.888   3.483
 3178SOL     OW10432   6.033   1.212   0.314
 3178SOL    HW110433   6.105   1.142   0.321
 3178SOL    HW210434   6.039   1.258   0.226
 3179SOL     OW10435   0.892   1.724   2.247
 3179SOL    HW110436   0.794   1.701   2.240
 3179SOL    HW210437   0.903   1.804   2.306
 3180SOL     OW10438   6.628   6.273   6.499
 3180SOL    HW110439   6.537   6.305   6.526
 3180SOL    HW210440   6.651   6.309   6.409
 3181SOL     OW10441   0.658   1.398   4.704
 3181SOL    HW110442   0.657   1.388   4.803
 3181SOL    HW210443   0.638   1.493   4.680
 3182SOL     OW10444   3.136   0.411   0.497
 3182SOL    HW110445   3.163   0.460   0.414
 3182SOL    HW210446   3.193   0.329   0.507
 3183SOL     OW10447   4.576   4.434   2.240
 3183SOL    HW110448   4.608   4.371   2.311
 3183SOL    HW210449   4.525   4.382   2.171
 3184SOL     OW10450   0.825   2.462   4.130
 3184SOL    HW110451   0.795   2.534   4.191
 3184SOL    HW210452   0.913   2.425   4.161
 3185SOL     OW10453   7.007   6.686   5.799
 3185SOL    HW110454   6.944   6.622   5.843
 3185SOL    HW210455   0.013   6.756   5.865
 3186SOL     OW10456   1.304   1.077   6.298
 3186SOL    HW110457   1.273   1.021   6.221
 3186SOL    HW210458   1.347   1.019   6.367
 3187SOL     OW10459   3.968   5.928   2.454
 3187SOL    HW110460   4.039   5.980   2.501
 3187SOL    HW210461   3.917   5.874   2.520
 3188SOL     OW10462   2.450   4.989   5.444
 3188SOL    HW110463   2.443   4.908   5.385
 3188SOL    HW210464   2.371   4.993   5.504
 3189SOL     OW10465   2.558   1.404   0.181
 3189SOL    HW110466   2.459   1.397   0.180
 3189SOL    HW210467   2.591   1.425   0.089
 3190SOL     OW10468   6.396   6.185   4.950
 3190SOL    HW110469   6.461   6.260   4.934
 3190SOL    HW210470   6.309   6.222   4.981
 3191SOL     OW10471   4.657   5.477   2.195
 3191SOL    HW110472   4.725   5.453   2.126
 3191SOL    HW210473   4.682   5.436   2.282
 3192SOL     OW10474   6.483   2.250   1.299
 3192SOL    HW110475   6.446   2.222   1.211
 3192SOL    HW210476   6.577   2.217   1.308
 3193SOL     OW10477   4.614   1.084   5.117
 3193SOL    HW110478   4.547   1.097   5.044
 3193SOL    HW210479   4.628   0.986   5.133
 3194SOL     OW10480   1.361   1.013   5.620
 3194SOL    HW110481   1.403   1.101   5.598
 3194SOL    HW210482   1.261   1.023   5.621
 3195SOL     OW10483   0.124   1.319   1.785
 3195SOL    HW110484   0.076   1.364   1.860
 3195SOL    HW210485   0.175   1.240   1.820
 3196SOL     OW10486   6.572   0.661   5.404
 3196SOL    HW110487   6.665   0.627   5.418
 3196SOL    HW210488   6.575   0.758   5.380
 3197SOL     OW10489   2.388   0.092   6.123
 3197SOL    HW110490   2.310   0.076   6.063
 3197SOL    HW210491   2.356   0.106   6.217
 3198SOL     OW10492   6.838   2.504   3.774
 3198SOL    HW110493   6.783   2.510   3.691
 3198SOL    HW210494   6.916   2.567   3.767
 3199SOL     OW10495   5.682   4.754   2.982
 3199SOL    HW110496   5.595   4.744   2.935
 3199SOL    HW210497   5.689   4.846   3.021
 3200SOL     OW10498   6.031   3.088   3.998
 3200SOL    HW110499   5.971   3.072   3.920
 3200SOL    HW210500   6.126   3.085   3.968
 3201SOL     OW10501   6.160   4.487   2.468
 3201SOL    HW110502   6.135   4.453   2.558
 3201SOL    HW210503   6.090   4.551   2.435
 3202SOL     OW10504   1.150   4.952   0.200
 3202SOL    HW110505   1.121   4.910   0.115
 3202SOL    HW210506   1.239   4.996   0.188
 3203SOL     OW10507   4.152   7.018   1.744
 3203SOL    HW110508   4.064   6.970   1.747
 3203SOL    HW210509   4.174   0.019   1.650
 3204SOL     OW10510   2.617   1.252   3.582
 3204SOL    HW110511   2.699   1.263   3.638
 3204SOL    HW210512   2.542   1.218   3.639
 3205SOL     OW10513   5.813   3.413   5.775
 3205SOL    HW110514   5.725   3.450   5.806
 3205SOL    HW210515   5.879   3.417   5.850
 3206SOL     OW10516   2.524   2.710   1.783
 3206SOL    HW110517   2.478   2.733   1.697
 3206SOL    HW210518   2.457   2.706   1.857
 3207SOL     OW10519   0.837   0.761   5.766
 3207SOL    HW110520   0.739   0.764   5.744
 3207SOL    HW210521   0.878   0.851   5.748
 3208SOL     OW10522   6.151   5.770   5.293
 3208SOL    HW110523   6.232   5.711   5.287
 3208SOL    HW210524   6.116   5.787   5.200
 3209SOL     OW10525   4.713   5.380   5.704
 3209SOL    HW110526   4.622   5.340   5.705
 3209SOL    HW210527   4.768   5.339   5.777
 3210SOL     OW10528   0.290   5.141   1.474
 3210SOL    HW110529   0.300   5.193   1.559
 3210SOL    HW210530   0.353   5.176   1.406
 3211SOL     OW10531   1.471   5.416   0.619
 3211SOL    HW110532   1.541   5.468   0.668
 3211SOL    HW210533   1.513   5.366   0.544
 3212SOL     OW10534   3.274   0.103   2.577
 3212SOL    HW110535   3.231   0.015   2.555
 3212SOL    HW210536   3.280   0.112   2.677
 3213SOL     OW10537   2.337   0.584   6.350
 3213SOL    HW110538   2.278   0.656   6.386
 3213SOL    HW210539   2.280   0.507   6.320
 3214SOL     OW10540   3.706   0.207   3.275
 3214SOL    HW110541   3.731   0.149   3.198
 3214SOL    HW210542   3.728   0.302   3.254
 3215SOL     OW10543   1.174   3.339   0.357
 3215SOL    HW110544   1.100   3.397   0.322
 3215SOL    HW210545   1.216   3.383   0.436
 3216SOL     OW10546   5.103   4.665   1.257
 3216SOL    HW110547   5.109   4.571   1.223
 3216SOL    HW210548   5.070   4.725   1.184
 3217SOL     OW10549   7.002   5.027   2.750
 3217SOL    HW110550   6.962   5.064   2.834
 3217SOL    HW210551   0.061   5.079   2.726
 3218SOL     OW10552   6.595   2.096   3.438
 3218SOL    HW110553   6.623   2.078   3.532
 3218SOL    HW210554   6.578   2.009   3.391
 3219SOL     OW10555   6.838   0.917   4.959
 3219SOL    HW110556   6.744   0.884   4.962
 3219SOL    HW210557   6.848   0.984   4.885
 3220SOL     OW10558   7.017   5.659   6.511
 3220SOL    HW110559   0.042   5.648   6.423
 3220SOL    HW210560   6.966   5.745   6.511
 3221SOL     OW10561   3.990   0.762   2.348
 3221SOL    HW110562   4.084   0.733   2.328
 3221SOL    HW210563   3.967   0.736   2.442
 3222SOL     OW10564   3.079   1.344   3.174
 3222SOL    HW110565   3.089   1.349   3.074
 3222SOL    HW210566   2.983   1.354   3.199
 3223SOL     OW10567   1.738   6.561   0.580
 3223SOL    HW110568   1.818   6.514   0.614
 3223SOL    HW210569   1.766   6.646   0.534
 3224SOL     OW10570   4.691   2.895   5.224
 3224SOL    HW110571   4.630   2.969   5.252
 3224SOL    HW210572   4.758   2.930   5.158
 3225SOL     OW10573   4.153   1.093   3.925
 3225SOL    HW110574   4.105   1.009   3.949
 3225SOL    HW210575   4.227   1.072   3.860
 3226SOL     OW10576   1.383   0.041   1.838
 3226SOL    HW110577   1.306   0.098   1.866
 3226SOL    HW210578   1.376   0.020   1.741
 3227SOL     OW10579   3.826   2.442   6.462
 3227SOL    HW110580   3.902   2.378   6.477
 3227SOL    HW210581   3.854   2.512   6.397
 3228SOL     OW10582   0.818   3.982   0.746
 3228SOL    HW110583   0.906   3.935   0.754
 3228SOL    HW210584   0.833   4.079   0.730
 3229SOL     OW10585   2.875   0.675   5.844
 3229SOL    HW110586   2.906   0.733   5.770
 3229SOL    HW210587   2.904   0.581   5.828
 3230SOL     OW10588   2.694   5.440   5.998
 3230SOL    HW110589   2.744   5.373   6.053
 3230SOL    HW210590   2.700   5.530   6.042
 3231SOL     OW10591   3.445   0.954   2.864
 3231SOL    HW110592   3.488   1.003   2.788
 3231SOL    HW210593   3.422   1.018   2.937
 3232SOL     OW10594   4.401   6.155   4.022
 3232SOL    HW110595   4.341   6.076   4.023
 3232SOL    HW210596   4.416   6.187   4.116
 3233SOL     OW10597   0.452   2.281   6.651
 3233SOL    HW110598   0.426   2.197   6.700
 3233SOL    HW210599   0.370   2.333   6.628
 3234SOL     OW10600   1.829   3.020   0.556
 3234SOL    HW110601   1.845   3.042   0.652
 3234SOL    HW210602   1.913   3.036   0.504
 3235SOL     OW10603   6.503   5.700   1.920
 3235SOL    HW110604   6.498   5.717   2.018
 3235SOL    HW210605   6.474   5.606   1.900
 3236SOL     OW10606   2.593   4.056   0.585
 3236SOL    HW110607   2.503   4.014   0.576
 3236SOL    HW210608   2.635   4.028   0.672
 3237SOL     OW10609   6.565   1.461   4.446
 3237SOL    HW110610   6.489   1.400   4.429
 3237SOL    HW210611   6.610   1.435   4.531
 3238SOL     OW10612   6.165   5.360   0.456
 3238SOL    HW110613   6.194   5.378   0.362
 3238SOL    HW210614   6.243   5.329   0.510
 3239SOL     OW10615   0.193   0.152   4.025
 3239SOL    HW110616   0.147   0.080   4.077
 3239SOL    HW210617   0.284   0.120   3.997
 3240SOL     OW10618   0.270   0.556   6.251
 3240SOL    HW110619   0.195   0.499   6.285
 3240SOL    HW210620   0.334   0.499   6.200
 3241SOL     OW10621   4.671   1.685   6.305
 3241SOL    HW110622   4.623   1.695   6.392
 3241SOL    HW210623   4.618   1.624   6.245
 3242SOL     OW10624   5.273   3.990   5.778
 3242SOL    HW110625   5.343   4.062   5.775
 3242SOL    HW210626   5.190   4.027   5.819
 3243SOL     OW10627   3.791   5.474   6.324
 3243SOL    HW110628   3.755   5.463   6.231
 3243SOL    HW210629   3.727   5.433   6.389
 3244SOL     OW10630   5.874   6.273   6.905
 3244SOL    HW110631   5.915   6.358   6.873
 3244SOL    HW210632   5.784   6.261   6.863
 3245SOL     OW10633   4.431   2.096   4.094
 3245SOL    HW110634   4.520   2.136   4.118
 3245SOL    HW210635   4.399   2.040   4.171
 3246SOL     OW10636   0.243   6.779   2.185
 3246SOL    HW110637   0.198   6.786   2.274
 3246SOL    HW210638   0.239   6.867   2.138
 3247SOL     OW10639   0.243   4.372   2.787
 3247SOL    HW110640   0.239   4.438   2.863
 3247SOL    HW210641   0.177   4.299   2.804
 3248SOL     OW10642   5.399   2.509   2.980
 3248SOL    HW110643   5.376   2.472   2.890
 3248SOL    HW210644   5.324   2.566   3.013
 3249SOL     OW10645   4.010   3.254   3.691
 3249SOL    HW110646   3.940   3.321   3.715
 3249SOL    HW210647   3.970   3.162   3.694
 3250SOL     OW10648   5.171   5.976   3.076
 3250SOL    HW110649   5.107   6.029   3.133
 3250SOL    HW210650   5.215   6.037   3.010
 3251SOL     OW10651   2.262   0.597   4.758
 3251SOL    HW110652   2.268   0.504   4.721
 3251SOL    HW210653   2.311   0.602   4.845
 3252SOL     OW10654   2.591   1.194   3.318
 3252SOL    HW110655   2.666   1.191   3.252
 3252SOL    HW210656   2.624   1.232   3.405
 3253SOL     OW10657   5.484   3.594   0.979
 3253SOL    HW110658   5.578   3.581   0.949
 3253SOL    HW210659   5.476   3.571   1.076
 3254SOL     OW10660   5.200   0.453   0.022
 3254SOL    HW110661   5.287   0.496   7.020
 3254SOL    HW210662   5.173   0.389   6.973
 3255SOL     OW10663   6.003   5.738   0.903
 3255SOL    HW110664   5.955   5.680   0.838
 3255SOL    HW210665   6.100   5.742   0.880
 3256SOL     OW10666   4.603   2.025   1.634
 3256SOL    HW110667   4.596   2.026   1.535
 3256SOL    HW210668   4.679   2.083   1.663
 3257SOL     OW10669   3.019   2.082   2.125
 3257SOL    HW110670   3.117   2.098   2.110
 3257SOL    HW210671   2.969   2.167   2.109
 3258SOL     OW10672   3.608   5.510   4.061
 3258SOL    HW110673   3.569   5.441   4.001
 3258SOL    HW210674   3.678   5.562   4.011
 3259SOL     OW10675   5.664   4.877   4.190
 3259SOL    HW110676   5.705   4.833   4.269
 3259SOL    HW210677   5.626   4.807   4.129
 3260SOL     OW10678   1.599   4.172   2.088
 3260SOL    HW110679   1.587   4.090   2.144
 3260SOL    HW210680   1.674   4.157   2.024
 3261SOL     OW10681   5.534   1.015   2.480
 3261SOL    HW110682   5.573   0.924   2.497
 3261SOL    HW210683   5.583   1.083   2.535
 3262SOL     OW10684   4.169   1.933   2.500
 3262SOL    HW110685   4.237   1.980   2.556
 3262SOL    HW210686   4.109   1.878   2.559
 3263SOL     OW10687   2.860   0.972   3.304
 3263SOL    HW110688   2.862   1.051   3.365
 3263SOL    HW210689   2.945   0.968   3.252
 3264SOL     OW10690   1.882   4.733   0.494
 3264SOL    HW110691   1.924   4.683   0.418
 3264SOL    HW210692   1.808   4.679   0.533
 3265SOL     OW10693   6.044   6.214   5.619
 3265SOL    HW110694   6.003   6.283   5.679
 3265SOL    HW210695   6.040   6.125   5.662
 3266SOL     OW10696   2.755   4.214   0.214
 3266SOL    HW110697   2.736   4.274   0.292
 3266SOL    HW210698   2.728   4.260   0.130
 3267SOL     OW10699   4.192   0.885   1.671
 3267SOL    HW110700   4.292   0.885   1.678
 3267SOL    HW210701   4.157   0.977   1.689
 3268SOL     OW10702   1.073   4.797   1.377
 3268SOL    HW110703   1.027   4.885   1.365
 3268SOL    HW210704   1.143   4.805   1.449
 3269SOL     OW10705   0.264   5.504   2.141
 3269SOL    HW110706   0.166   5.520   2.132
 3269SOL    HW210707   0.312   5.592   2.136
 3270SOL     OW10708   1.133   2.942   5.851
 3270SOL    HW110709   1.109   2.846   5.861
 3270SOL    HW210710   1.126   2.969   5.755
 3271SOL     OW10711   6.891   3.476   1.822
 3271SOL    HW110712   6.903   3.439   1.914
 3271SOL    HW210713   6.850   3.567   1.828
 3272SOL     OW10714   4.017   5.800   0.018
 3272SOL    HW110715   4.065   5.888   0.025
 3272SOL    HW210716   3.982   5.773   0.108
 3273SOL     OW10717   4.547   4.071   6.231
 3273SOL    HW110718   4.647   4.078   6.225
 3273SOL    HW210719   4.508   4.068   6.139
 3274SOL     OW10720   6.066   1.011   6.814
 3274SOL    HW110721   6.142   1.055   6.766
 3274SOL    HW210722   6.082   0.913   6.820
 3275SOL     OW10723   4.424   0.721   0.913
 3275SOL    HW110724   4.461   0.691   1.001
 3275SOL    HW210725   4.380   0.810   0.924
 3276SOL     OW10726   4.592   6.236   6.954
 3276SOL    HW110727   4.527   6.308   6.976
 3276SOL    HW210728   4.629   6.197   0.017
 3277SOL     OW10729   3.293   1.481   1.467
 3277SOL    HW110730   3.209   1.523   1.433
 3277SOL    HW210731   3.368   1.547   1.461
 3278SOL     OW10732   0.233   0.819   6.335
 3278SOL    HW110733   0.260   0.724   6.322
 3278SOL    HW210734   0.307   0.869   6.378
 3279SOL     OW10735   4.385   6.582   1.267
 3279SOL    HW110736   4.455   6.595   1.336
 3279SOL    HW210737   4.348   6.489   1.274
 3280SOL     OW10738   5.643   3.745   4.082
 3280SOL    HW110739   5.570   3.738   4.150
 3280SOL    HW210740   5.628   3.678   4.009
 3281SOL     OW10741   6.757   4.832   1.358
 3281SOL    HW110742   6.741   4.750   1.414
 3281SOL    HW210743   6.803   4.806   1.273
 3282SOL     OW10744   0.608   3.824   5.082
 3282SOL    HW110745   0.644   3.732   5.102
 3282SOL    HW210746   0.674   3.875   5.028
 3283SOL     OW10747   3.685   1.474   1.648
 3283SOL    HW110748   3.593   1.469   1.687
 3283SOL    HW210749   3.734   1.390   1.668
 3284SOL     OW10750   1.581   5.409   4.584
 3284SOL    HW110751   1.582   5.460   4.670
 3284SOL    HW210752   1.611   5.469   4.510
 3285SOL     OW10753   5.653   1.650   4.684
 3285SOL    HW110754   5.683   1.660   4.589
 3285SOL    HW210755   5.560   1.615   4.686
 3286SOL     OW10756   3.485   1.871   1.706
 3286SOL    HW110757   3.576   1.902   1.730
 3286SOL    HW210758   3.417   1.923   1.758
 3287SOL     OW10759   0.913   0.167   6.485
 3287SOL    HW110760   0.942   0.135   6.395
 3287SOL    HW210761   0.902   0.089   6.546
 3288SOL     OW10762   1.788   6.582   0.203
 3288SOL    HW110763   1.712   6.647   0.210
 3288SOL    HW210764   1.778   6.512   0.274
 3289SOL     OW10765   3.429   1.847   6.843
 3289SOL    HW110766   3.370   1.926   6.826
 3289SOL    HW210767   3.498   1.872   6.911
 3290SOL     OW10768   6.431   5.459   0.276
 3290SOL    HW110769   6.456   5.428   0.184
 3290SOL    HW210770   6.512   5.491   0.324
 3291SOL     OW10771   4.182   0.127   6.341
 3291SOL    HW110772   4.280   0.129   6.361
 3291SOL    HW210773   4.136   0.199   6.392
 3292SOL     OW10774   0.408   1.277   0.879
 3292SOL    HW110775   0.320   1.309   0.844
 3292SOL    HW210776   0.446   1.345   0.941
 3293SOL     OW10777   6.901   4.427   2.768
 3293SOL    HW110778   6.817   4.401   2.817
 3293SOL    HW210779   6.976   4.368   2.798
 3294SOL     OW10780   5.428   2.519   5.548
 3294SOL    HW110781   5.407   2.513   5.450
 3294SOL    HW210782   5.450   2.613   5.572
 3295SOL     OW10783   1.614   3.015   0.771
 3295SOL    HW110784   1.683   2.950   0.742
 3295SOL    HW210785   1.546   2.969   0.828
 3296SOL     OW10786   6.502   6.845   5.285
 3296SOL    HW110787   6.581   6.898   5.255
 3296SOL    HW210788   6.431   6.906   5.319
 3297SOL     OW10789   3.412   1.751   5.275
 3297SOL    HW110790   3.327   1.726   5.320
 3297SOL    HW210791   3.489   1.738   5.338
 3298SOL     OW10792   6.440   3.739   5.274
 3298SOL    HW110793   6.445   3.640   5.262
 3298SOL    HW210794   6.435   3.784   5.184
 3299SOL     OW10795   3.993   5.343   3.634
 3299SOL    HW110796   4.044   5.353   3.719
 3299SOL    HW210797   4.050   5.373   3.557
 3300SOL     OW10798   2.292   0.100   5.506
 3300SOL    HW110799   2.369   0.074   5.447
 3300SOL    HW210800   2.237   0.019   5.526
 3301SOL     OW10801   1.437   3.137   2.863
 3301SOL    HW110802   1.516   3.101   2.911
 3301SOL    HW210803   1.397   3.066   2.805
 3302SOL     OW10804   1.214   4.733   6.494
 3302SOL    HW110805   1.297   4.717   6.546
 3302SOL    HW210806   1.182   4.647   6.454
 3303SOL     OW10807   3.646   2.935   0.318
 3303SOL    HW110808   3.731   2.925   0.370
 3303SOL    HW210809   3.625   3.032   0.307
 3304SOL     OW10810   1.948   4.314   6.400
 3304SOL    HW110811   1.856   4.277   6.411
 3304SOL    HW210812   1.944   4.414   6.398
 3305SOL     OW10813   3.370   0.649   0.988
 3305SOL    HW110814   3.424   0.727   1.021
 3305SOL    HW210815   3.411   0.613   0.904
 3306SOL     OW10816   1.608   5.954   6.660
 3306SOL    HW110817   1.676   5.897   6.613
 3306SOL    HW210818   1.634   5.965   6.756
 3307SOL     OW10819   1.244   6.958   6.130
 3307SOL    HW110820   1.222   0.024   6.090
 3307SOL    HW210821   1.233   6.886   6.060
 3308SOL     OW10822   3.920   4.697   1.435
 3308SOL    HW110823   3.874   4.664   1.518
 3308SOL    HW210824   4.015   4.668   1.436
 3309SOL     OW10825   4.979   4.589   3.912
 3309SOL    HW110826   5.026   4.655   3.970
 3309SOL    HW210827   4.982   4.499   3.954
 3310SOL     OW10828   0.905   4.765   4.795
 3310SOL    HW110829   0.999   4.777   4.829
 3310SOL    HW210830   0.851   4.845   4.818
 3311SOL     OW10831   3.702   3.672   1.265
 3311SOL    HW110832   3.651   3.586   1.256
 3311SOL    HW210833   3.640   3.745   1.293
 3312SOL     OW10834   4.186   2.887   5.858
 3312SOL    HW110835   4.252   2.815   5.878
 3312SOL    HW210836   4.226   2.951   5.792
 3313SOL     OW10837   0.706   0.575   3.380
 3313SOL    HW110838   0.659   0.617   3.458
 3313SOL    HW210839   0.782   0.633   3.351
 3314SOL     OW10840   2.386   0.345   3.192
 3314SOL    HW110841   2.353   0.434   3.225
 3314SOL    HW210842   2.339   0.322   3.107
 3315SOL     OW10843   0.736   4.427   5.090
 3315SOL    HW110844   0.728   4.327   5.098
 3315SOL    HW210845   0.754   4.451   4.995
 3316SOL     OW10846   3.164   0.584   6.168
 3316SOL    HW110847   3.078   0.573   6.118
 3316SOL    HW210848   3.197   0.494   6.197
 3317SOL     OW10849   5.651   2.326   2.246
 3317SOL    HW110850   5.653   2.351   2.342
 3317SOL    HW210851   5.743   2.334   2.207
 3318SOL     OW10852   2.775   1.707   6.553
 3318SOL    HW110853   2.727   1.710   6.465
 3318SOL    HW210854   2.828   1.791   6.565
 3319SOL     OW10855   0.144   0.108   2.811
 3319SOL    HW110856   0.147   0.133   2.714
 3319SOL    HW210857   0.219   0.044   2.830
 3320SOL     OW10858   6.390   0.441   0.137
 3320SOL    HW110859   6.342   0.376   0.196
 3320SOL    HW210860   6.405   0.527   0.185
 3321SOL     OW10861   5.534   1.638   0.757
 3321SOL    HW110862   5.586   1.702   0.700
 3321SOL    HW210863   5.442   1.675   0.773
 3322SOL     OW10864   6.809   3.306   0.603
 3322SOL    HW110865   6.878   3.262   0.661
 3322SOL    HW210866   6.823   3.405   0.606
 3323SOL     OW10867   2.980   1.461   1.778
 3323SOL    HW110868   2.886   1.454   1.813
 3323SOL    HW210869   2.986   1.409   1.693
 3324SOL     OW10870   4.619   5.619   5.877
 3324SOL    HW110871   4.662   5.575   5.799
 3324SOL    HW210872   4.641   5.717   5.877
 3325SOL     OW10873   0.713   3.332   6.814
 3325SOL    HW110874   0.674   3.250   6.855
 3325SOL    HW210875   0.756   3.309   6.726
 3326SOL     OW10876   4.945   0.870   2.656
 3326SOL    HW110877   4.877   0.917   2.712
 3326SOL    HW210878   5.006   0.818   2.715
 3327SOL     OW10879   2.242   6.227   1.766
 3327SOL    HW110880   2.260   6.129   1.772
 3327SOL    HW210881   2.179   6.254   1.838
 3328SOL     OW10882   3.788   2.093   1.301
 3328SOL    HW110883   3.748   2.094   1.210
 3328SOL    HW210884   3.716   2.076   1.369
 3329SOL     OW10885   6.067   7.012   5.573
 3329SOL    HW110886   6.023   6.937   5.622
 3329SOL    HW210887   6.013   0.013   5.492
 3330SOL     OW10888   7.013   3.541   2.061
 3330SOL    HW110889   6.967   3.539   2.150
 3330SOL    HW210890   0.062   3.611   2.063
 3331SOL     OW10891   1.878   2.398   1.312
 3331SOL    HW110892   1.975   2.421   1.313
 3331SOL    HW210893   1.856   2.341   1.391
 3332SOL     OW10894   5.523   5.610   0.368
 3332SOL    HW110895   5.531   5.559   0.282
 3332SOL    HW210896   5.592   5.578   0.432
 3333SOL     OW10897   4.291   5.030   6.425
 3333SOL    HW110898   4.275   5.017   6.523
 3333SOL    HW210899   4.240   5.110   6.392
 3334SOL     OW10900   3.337   3.626   1.348
 3334SOL    HW110901   3.330   3.529   1.369
 3334SOL    HW210902   3.356   3.638   1.250
 3335SOL     OW10903   4.793   5.079   5.523
 3335SOL    HW110904   4.877   5.025   5.527
 3335SOL    HW210905   4.814   5.171   5.491
 3336SOL     OW10906   3.140   5.517   5.814
 3336SOL    HW110907   3.082   5.438   5.833
 3336SOL    HW210908   3.093   5.578   5.750
 3337SOL     OW10909   3.879   2.336   1.407
 3337SOL    HW110910   3.845   2.247   1.377
 3337SOL    HW210911   3.906   2.332   1.503
 3338SOL     OW10912   6.031   3.615   1.311
 3338SOL    HW110913   6.040   3.673   1.392
 3338SOL    HW210914   6.122   3.592   1.277
 3339SOL     OW10915   6.798   6.308   6.707
 3339SOL    HW110916   6.748   6.271   6.628
 3339SOL    HW210917   6.792   6.244   6.783
 3340SOL     OW10918   3.372   6.924   1.904
 3340SOL    HW110919   3.369   7.019   1.935
 3340SOL    HW210920   3.279   6.892   1.886
 3341SOL     OW10921   0.508   6.953   3.126
 3341SOL    HW110922   0.564   6.898   3.064
 3341SOL    HW210923   0.526   0.028   3.108
 3342SOL     OW10924   1.981   6.732   4.066
 3342SOL    HW110925   2.039   6.809   4.039
 3342SOL    HW210926   1.968   6.733   4.165
 3343SOL     OW10927   4.971   3.306   0.671
 3343SOL    HW110928   4.991   3.235   0.604
 3343SOL    HW210929   4.988   3.396   0.630
 3344SOL     OW10930   5.122   3.690   4.861
 3344SOL    HW110931   5.159   3.658   4.774
 3344SOL    HW210932   5.031   3.729   4.846
 3345SOL     OW10933   2.958   3.312   6.106
 3345SOL    HW110934   2.910   3.287   6.021
 3345SOL    HW210935   3.056   3.316   6.089
 3346SOL     OW10936   0.589   1.262   2.183
 3346SOL    HW110937   0.579   1.314   2.268
 3346SOL    HW210938   0.684   1.234   2.172
 3347SOL     OW10939   6.802   4.369   3.396
 3347SOL    HW110940   6.822   4.309   3.473
 3347SOL    HW210941   6.814   4.318   3.310
 3348SOL     OW10942   3.628   3.315   3.593
 3348SOL    HW110943   3.558   3.267   3.646
 3348SOL    HW210944   3.690   3.363   3.655
 3349SOL     OW10945   6.942   4.806   4.400
 3349SOL    HW110946   6.851   4.796   4.359
 3349SOL    HW210947   7.005   4.742   4.357
 3350SOL     OW10948   2.100   1.296   6.939
 3350SOL    HW110949   2.005   1.329   6.937
 3350SOL    HW210950   2.107   1.213   6.883
 3351SOL     OW10951   5.877   0.499   1.055
 3351SOL    HW110952   5.909   0.568   0.989
 3351SOL    HW210953   5.858   0.544   1.142
 3352SOL     OW10954   0.603   3.870   0.234
 3352SOL    HW110955   0.556   3.922   0.163
 3352SOL    HW210956   0.537   3.837   0.301
 3353SOL     OW10957   1.701   0.210   0.438
 3353SOL    HW110958   1.667   0.263   0.360
 3353SOL    HW210959   1.681   0.260   0.523
 3354SOL     OW10960   6.610   2.198   3.724
 3354SOL    HW110961   6.677   2.235   3.787
 3354SOL    HW210962   6.535   2.262   3.713
 3355SOL     OW10963   0.168   2.006   0.473
 3355SOL    HW110964   0.115   1.952   0.539
 3355SOL    HW210965   0.246   2.048   0.518
 3356SOL     OW10966   2.998   2.916   0.238
 3356SOL    HW110967   2.991   3.007   0.197
 3356SOL    HW210968   2.969   2.920   0.334
 3357SOL     OW10969   2.195   4.570   1.296
 3357SOL    HW110970   2.126   4.612   1.355
 3357SOL    HW210971   2.277   4.629   1.295
 3358SOL     OW10972   5.144   6.362   2.061
 3358SOL    HW110973   5.079   6.320   1.997
 3358SOL    HW210974   5.101   6.442   2.104
 3359SOL     OW10975   0.345   0.429   3.057
 3359SOL    HW110976   0.368   0.521   3.088
 3359SOL    HW210977   0.263   0.433   2.999
 3360SOL     OW10978   0.339   0.875   0.454
 3360SOL    HW110979   0.330   0.949   0.521
 3360SOL    HW210980   0.431   0.877   0.415
 3361SOL     OW10981   6.379   5.845   3.066
 3361SOL    HW110982   6.467   5.806   3.089
 3361SOL    HW210983   6.308   5.805   3.125
 3362SOL     OW10984   2.891   1.565   4.986
 3362SOL    HW110985   2.891   1.477   4.938
 3362SOL    HW210986   2.941   1.632   4.931
 3363SOL     OW10987   0.679   0.918   6.351
 3363SOL    HW110988   0.710   0.883   6.439
 3363SOL    HW210989   0.640   0.844   6.296
 3364SOL     OW10990   1.128   5.910   5.789
 3364SOL    HW110991   1.065   5.854   5.735
 3364SOL    HW210992   1.180   5.970   5.729
 3365SOL     OW10993   0.879   1.895   4.568
 3365SOL    HW110994   0.788   1.938   4.563
 3365SOL    HW210995   0.917   1.890   4.476
 3366SOL     OW10996   5.640   1.265   5.039
 3366SOL    HW110997   5.639   1.177   5.085
 3366SOL    HW210998   5.569   1.325   5.078
 3367SOL     OW10999   2.054   2.555   1.852
 3367SOL    HW111000   2.023   2.529   1.943
 3367SOL    HW211001   2.154   2.554   1.849
 3368SOL     OW11002   6.749   5.265   5.935
 3368SOL    HW111003   6.779   5.325   5.860
 3368SOL    HW211004   6.692   5.317   5.999
 3369SOL     OW11005   3.691   1.223   0.289
 3369SOL    HW111006   3.629   1.203   0.365
 3369SOL    HW211007   3.765   1.156   0.289
 3370SOL     OW11008   6.673   6.824   4.736
 3370SOL    HW111009   6.575   6.845   4.735
 3370SOL    HW211010   6.725   6.908   4.744
 3371SOL     OW11011   1.328   3.974   2.156
 3371SOL    HW111012   1.335   3.975   2.056
 3371SOL    HW211013   1.418   3.953   2.195
 3372SOL     OW11014   0.269   1.362   2.056
 3372SOL    HW111015   0.326   1.430   2.103
 3372SOL    HW211016   0.321   1.277   2.047
 3373SOL     OW11017   6.272   0.909   4.015
 3373SOL    HW111018   6.281   0.924   3.917
 3373SOL    HW211019   6.180   0.934   4.044
 3374SOL     OW11020   3.730   5.953   5.251
 3374SOL    HW111021   3.784   5.973   5.333
 3374SOL    HW211022   3.748   6.023   5.182
 3375SOL     OW11023   4.354   4.779   4.878
 3375SOL    HW111024   4.354   4.867   4.925
 3375SOL    HW211025   4.303   4.712   4.932
 3376SOL     OW11026   4.100   3.278   2.776
 3376SOL    HW111027   4.140   3.337   2.706
 3376SOL    HW211028   4.019   3.232   2.739
 3377SOL     OW11029   1.307   6.326   4.964
 3377SOL    HW111030   1.274   6.352   4.874
 3377SOL    HW211031   1.262   6.382   5.034
 3378SOL     OW11032   6.944   0.954   0.763
 3378SOL    HW111033   6.870   0.917   0.820
 3378SOL    HW211034   7.020   0.889   0.762
 3379SOL     OW11035   0.521   4.377   6.026
 3379SOL    HW111036   0.459   4.328   5.965
 3379SOL    HW211037   0.576   4.441   5.972
 3380SOL     OW11038   6.867   5.009   5.921
 3380SOL    HW111039   6.825   5.096   5.945
 3380SOL    HW211040   6.889   5.009   5.823
 3381SOL     OW11041   2.580   1.999   0.344
 3381SOL    HW111042   2.522   2.080   0.337
 3381SOL    HW211043   2.574   1.962   0.437
 3382SOL     OW11044   6.998   1.339   0.098
 3382SOL    HW111045   7.010   1.309   0.004
 3382SOL    HW211046   7.022   1.264   0.160
 3383SOL     OW11047   6.191   4.937   2.602
 3383SOL    HW111048   6.111   4.996   2.609
 3383SOL    HW211049   6.217   4.906   2.694
 3384SOL     OW11050   3.293   2.904   4.854
 3384SOL    HW111051   3.245   2.832   4.805
 3384SOL    HW211052   3.233   2.944   4.923
 3385SOL     OW11053   6.653   3.897   3.900
 3385SOL    HW111054   6.700   3.960   3.962
 3385SOL    HW211055   6.555   3.917   3.901
 3386SOL     OW11056   6.079   3.963   5.271
 3386SOL    HW111057   6.135   3.914   5.337
 3386SOL    HW211058   5.986   3.926   5.272
 3387SOL     OW11059   2.517   2.201   2.448
 3387SOL    HW111060   2.543   2.262   2.522
 3387SOL    HW211061   2.579   2.214   2.370
 3388SOL     OW11062   5.713   3.180   0.800
 3388SOL    HW111063   5.632   3.220   0.757
 3388SOL    HW211064   5.795   3.230   0.772
 3389SOL     OW11065   4.618   4.392   4.376
 3389SOL    HW111066   4.652   4.455   4.447
 3389SOL    HW211067   4.664   4.304   4.386
 3390SOL     OW11068   5.184   3.253   6.097
 3390SOL    HW111069   5.247   3.324   6.068
 3390SOL    HW211070   5.117   3.292   6.160
 3391SOL     OW11071   4.116   1.645   4.939
 3391SOL    HW111072   4.031   1.698   4.946
 3391SOL    HW211073   4.151   1.650   4.846
 3392SOL     OW11074   2.562   0.811   4.021
 3392SOL    HW111075   2.558   0.758   4.106
 3392SOL    HW211076   2.648   0.791   3.974
 3393SOL     OW11077   6.550   6.818   0.598
 3393SOL    HW111078   6.457   6.829   0.633
 3393SOL    HW211079   6.586   6.728   0.626
 3394SOL     OW11080   5.567   3.195   1.032
 3394SOL    HW111081   5.494   3.128   1.049
 3394SOL    HW211082   5.595   3.190   0.937
 3395SOL     OW11083   5.997   3.492   4.003
 3395SOL    HW111084   6.075   3.430   4.012
 3395SOL    HW211085   5.994   3.555   4.080
 3396SOL     OW11086   0.492   3.189   3.479
 3396SOL    HW111087   0.494   3.241   3.564
 3396SOL    HW211088   0.442   3.104   3.493
 3397SOL     OW11089   3.778   1.096   5.398
 3397SOL    HW111090   3.807   1.167   5.462
 3397SOL    HW211091   3.792   1.006   5.439
 3398SOL     OW11092   0.746   0.194   4.108
 3398SOL    HW111093   0.647   0.204   4.096
 3398SOL    HW211094   0.789   0.180   4.019
 3399SOL     OW11095   4.394   4.566   3.985
 3399SOL    HW111096   4.390   4.590   3.888
 3399SOL    HW211097   4.326   4.619   4.036
 3400SOL     OW11098   4.359   1.697   6.211
 3400SOL    HW111099   4.399   1.608   6.188
 3400SOL    HW211100   4.407   1.736   6.290
 3401SOL     OW11101   6.796   4.054   0.837
 3401SOL    HW111102   6.840   4.006   0.913
 3401SOL    HW211103   6.801   4.152   0.851
 3402SOL     OW11104   5.553   5.828   1.436
 3402SOL    HW111105   5.478   5.860   1.493
 3402SOL    HW211106   5.518   5.760   1.371
 3403SOL     OW11107   3.856   0.468   5.076
 3403SOL    HW111108   3.799   0.543   5.043
 3403SOL    HW211109   3.949   0.479   5.041
 3404SOL     OW11110   4.313   1.615   0.356
 3404SOL    HW111111   4.303   1.538   0.419
 3404SOL    HW211112   4.226   1.664   0.350
 3405SOL     OW11113   6.454   3.676   5.722
 3405SOL    HW111114   6.439   3.595   5.667
 3405SOL    HW211115   6.524   3.734   5.680
 3406SOL     OW11116   2.096   4.486   1.930
 3406SOL    HW111117   2.055   4.407   1.975
 3406SOL    HW211118   2.194   4.473   1.923
 3407SOL     OW11119   1.347   5.542   1.734
 3407SOL    HW111120   1.315   5.607   1.665
 3407SOL    HW211121   1.280   5.535   1.807
 3408SOL     OW11122   4.837   3.929   4.049
 3408SOL    HW111123   4.865   3.837   4.074
 3408SOL    HW211124   4.918   3.983   4.028
 3409SOL     OW11125   4.268   0.170   5.829
 3409SOL    HW111126   4.270   0.075   5.798
 3409SOL    HW211127   4.360   0.210   5.820
 3410SOL     OW11128   6.121   5.875   6.865
 3410SOL    HW111129   6.135   5.951   6.802
 3410SOL    HW211130   6.182   5.887   6.944
 3411SOL     OW11131   6.278   2.564   2.342
 3411SOL    HW111132   6.255   2.647   2.392
 3411SOL    HW211133   6.355   2.518   2.387
 3412SOL     OW11134   4.236   3.146   0.171
 3412SOL    HW111135   4.199   3.196   0.092
 3412SOL    HW211136   4.285   3.064   0.139
 3413SOL     OW11137   4.146   1.323   2.773
 3413SOL    HW111138   4.134   1.230   2.736
 3413SOL    HW211139   4.159   1.387   2.698
 3414SOL     OW11140   3.086   1.857   4.943
 3414SOL    HW111141   3.061   1.852   4.846
 3414SOL    HW211142   3.158   1.791   4.962
 3415SOL     OW11143   1.063   4.519   4.347
 3415SOL    HW111144   1.119   4.518   4.430
 3415SOL    HW211145   1.107   4.462   4.277
 3416SOL     OW11146   6.974   4.434   5.943
 3416SOL    HW111147   0.029   4.487   5.977
 3416SOL    HW211148   6.900   4.496   5.916
 3417SOL     OW11149   6.106   6.206   2.816
 3417SOL    HW111150   6.181   6.191   2.880
 3417SOL    HW211151   6.086   6.120   2.768
 3418SOL     OW11152   4.566   1.001   4.050
 3418SOL    HW111153   4.649   1.053   4.069
 3418SOL    HW211154   4.531   0.963   4.136
 3419SOL     OW11155   3.517   5.213   6.178
 3419SOL    HW111156   3.474   5.127   6.149
 3419SOL    HW211157   3.566   5.198   6.264
 3420SOL     OW11158   4.924   1.803   3.468
 3420SOL    HW111159   4.945   1.869   3.396
 3420SOL    HW211160   4.977   1.826   3.550
 3421SOL     OW11161   6.450   0.505   5.579
 3421SOL    HW111162   6.491   0.564   5.509
 3421SOL    HW211163   6.378   0.449   5.537
 3422SOL     OW11164   3.680   0.459   1.166
 3422SOL    HW111165   3.615   0.534   1.156
 3422SOL    HW211166   3.631   0.375   1.188
 3423SOL     OW11167   2.077   0.952   0.178
 3423SOL    HW111168   2.043   0.898   0.255
 3423SOL    HW211169   2.136   0.894   0.120
 3424SOL     OW11170   3.965   0.695   2.636
 3424SOL    HW111171   3.869   0.720   2.627
 3424SOL    HW211172   4.022   0.777   2.632
 3425SOL     OW11173   4.882   4.141   2.223
 3425SOL    HW111174   4.865   4.167   2.128
 3425SOL    HW211175   4.817   4.188   2.283
 3426SOL     OW11176   3.313   3.676   0.373
 3426SOL    HW111177   3.341   3.735   0.297
 3426SOL    HW211178   3.232   3.623   0.346
 3427SOL     OW11179   6.436   6.726   0.004
 3427SOL    HW111180   6.525   6.768   7.007
 3427SOL    HW211181   6.449   6.651   0.069
 3428SOL     OW11182   4.080   5.111   1.949
 3428SOL    HW111183   4.027   5.184   1.907
 3428SOL    HW211184   4.020   5.035   1.974
 3429SOL     OW11185   0.728   2.099   6.772
 3429SOL    HW111186   0.707   2.193   6.796
 3429SOL    HW211187   0.740   2.044   6.855
 3430SOL     OW11188   1.115   6.517   6.323
 3430SOL    HW111189   1.150   6.550   6.411
 3430SOL    HW211190   1.180   6.450   6.286
 3431SOL     OW11191   2.352   6.600   0.955
 3431SOL    HW111192   2.395   6.512   0.973
 3431SOL    HW211193   2.314   6.601   0.863
 3432SOL     OW11194   2.730   2.380   5.375
 3432SOL    HW111195   2.783   2.351   5.296
 3432SOL    HW211196   2.641   2.414   5.344
 3433SOL     OW11197   2.186   1.051   6.800
 3433SOL    HW111198   2.142   0.962   6.793
 3433SOL    HW211199   2.254   1.050   6.874
 3434SOL     OW11200   3.172   2.479   0.667
 3434SOL    HW111201   3.262   2.438   0.679
 3434SOL    HW211202   3.107   2.409   0.637
 3435SOL     OW11203   6.919   2.262   1.356
 3435SOL    HW111204   6.821   2.254   1.372
 3435SOL    HW211205   6.967   2.190   1.408
 3436SOL     OW11206   4.484   0.162   5.582
 3436SOL    HW111207   4.512   0.249   5.541
 3436SOL    HW211208   4.422   0.114   5.521
 3437SOL     OW11209   4.417   0.688   6.311
 3437SOL    HW111210   4.368   0.602   6.322
 3437SOL    HW211211   4.447   0.721   6.401
 3438SOL     OW11212   1.504   2.864   6.520
 3438SOL    HW111213   1.443   2.786   6.539
 3438SOL    HW211214   1.556   2.887   6.601
 3439SOL     OW11215   2.870   6.931   5.061
 3439SOL    HW111216   2.924   6.905   5.141
 3439SOL    HW211217   2.810   7.007   5.085
 3440SOL     OW11218   4.805   3.445   1.756
 3440SOL    HW111219   4.717   3.493   1.746
 3440SOL    HW211220   4.845   3.431   1.666
 3441SOL     OW11221   4.882   0.320   2.973
 3441SOL    HW111222   4.961   0.379   2.989
 3441SOL    HW211223   4.830   0.355   2.895
 3442SOL     OW11224   2.283   4.367   3.326
 3442SOL    HW111225   2.262   4.340   3.232
 3442SOL    HW211226   2.372   4.412   3.328
 3443SOL     OW11227   5.504   1.164   3.163
 3443SOL    HW111228   5.416   1.125   3.191
 3443SOL    HW211229   5.491   1.229   3.089
 3444SOL     OW11230   4.970   5.508   6.698
 3444SOL    HW111231   4.875   5.532   6.678
 3444SOL    HW211232   5.031   5.556   6.635
 3445SOL     OW11233   6.256   4.216   4.069
 3445SOL    HW111234   6.219   4.190   4.158
 3445SOL    HW211235   6.210   4.164   3.998
 3446SOL     OW11236   5.358   0.286   2.921
 3446SOL    HW111237   5.435   0.222   2.916
 3446SOL    HW211238   5.286   0.247   2.979
 3447SOL     OW11239   5.214   5.003   7.011
 3447SOL    HW111240   5.219   4.906   6.989
 3447SOL    HW211241   5.192   5.015   0.085
 3448SOL     OW11242   3.785   6.613   1.105
 3448SOL    HW111243   3.735   6.531   1.077
 3448SOL    HW211244   3.881   6.605   1.077
 3449SOL     OW11245   6.028   6.324   2.529
 3449SOL    HW111246   6.003   6.237   2.573
 3449SOL    HW211247   5.999   6.400   2.587
 3450SOL     OW11248   0.581   2.440   0.827
 3450SOL    HW111249   0.634   2.522   0.849
 3450SOL    HW211250   0.597   2.371   0.898
 3451SOL     OW11251   0.838   5.349   3.198
 3451SOL    HW111252   0.865   5.444   3.215
 3451SOL    HW211253   0.866   5.292   3.276
 3452SOL     OW11254   6.311   1.115   7.016
 3452SOL    HW111255   6.327   1.044   6.948
 3452SOL    HW211256   6.381   1.110   0.064
 3453SOL     OW11257   5.908   5.602   5.491
 3453SOL    HW111258   5.927   5.504   5.482
 3453SOL    HW211259   5.952   5.651   5.416
 3454SOL     OW11260   2.143   0.787   6.401
 3454SOL    HW111261   2.060   0.802   6.456
 3454SOL    HW211262   2.184   0.875   6.378
 3455SOL     OW11263   1.205   2.789   4.650
 3455SOL    HW111264   1.200   2.740   4.737
 3455SOL    HW211265   1.247   2.730   4.580
 3456SOL     OW11266   6.067   5.752   1.991
 3456SOL    HW111267   5.998   5.753   1.918
 3456SOL    HW211268   6.134   5.681   1.973
 3457SOL     OW11269   2.667   5.355   4.406
 3457SOL    HW111270   2.743   5.420   4.399
 3457SOL    HW211271   2.702   5.262   4.398
 3458SOL     OW11272   5.335   6.397   6.932
 3458SOL    HW111273   5.334   6.447   6.845
 3458SOL    HW211274   5.242   6.392   6.969
 3459SOL     OW11275   0.577   3.998   3.254
 3459SOL    HW111276   0.655   3.968   3.310
 3459SOL    HW211277   0.605   4.002   3.158
 3460SOL     OW11278   3.377   3.354   0.832
 3460SOL    HW111279   3.340   3.430   0.779
 3460SOL    HW211280   3.318   3.337   0.911
 3461SOL     OW11281   4.208   5.446   4.705
 3461SOL    HW111282   4.246   5.538   4.694
 3461SOL    HW211283   4.118   5.440   4.661
 3462SOL     OW11284   6.054   3.522   2.362
 3462SOL    HW111285   6.097   3.591   2.421
 3462SOL    HW211286   6.123   3.484   2.300
 3463SOL     OW11287   0.861   3.344   2.678
 3463SOL    HW111288   0.769   3.321   2.712
 3463SOL    HW211289   0.899   3.419   2.732
 3464SOL     OW11290   5.666   2.367   6.711
 3464SOL    HW111291   5.688   2.388   6.807
 3464SOL    HW211292   5.604   2.436   6.675
 3465SOL     OW11293   1.623   3.179   2.166
 3465SOL    HW111294   1.588   3.103   2.112
 3465SOL    HW211295   1.578   3.263   2.138
 3466SOL     OW11296   5.629   5.240   5.927
 3466SOL    HW111297   5.554   5.207   5.984
 3466SOL    HW211298   5.713   5.243   5.982
 3467SOL     OW11299   2.870   1.678   0.874
 3467SOL    HW111300   2.926   1.607   0.831
 3467SOL    HW211301   2.799   1.707   0.811
 3468SOL     OW11302   5.512   1.965   2.859
 3468SOL    HW111303   5.546   2.044   2.909
 3468SOL    HW211304   5.412   1.971   2.850
 3469SOL     OW11305   5.269   1.100   5.932
 3469SOL    HW111306   5.196   1.130   5.993
 3469SOL    HW211307   5.339   1.171   5.925
 3470SOL     OW11308   0.416   2.768   1.969
 3470SOL    HW111309   0.513   2.793   1.963
 3470SOL    HW211310   0.365   2.843   2.011
 3471SOL     OW11311   4.744   4.532   3.682
 3471SOL    HW111312   4.740   4.472   3.762
 3471SOL    HW211313   4.738   4.628   3.711
 3472SOL     OW11314   3.602   1.306   2.136
 3472SOL    HW111315   3.568   1.218   2.101
 3472SOL    HW211316   3.649   1.355   2.062
 3473SOL     OW11317   6.779   3.255   3.672
 3473SOL    HW111318   6.737   3.320   3.736
 3473SOL    HW211319   6.856   3.209   3.717
 3474SOL     OW11320   0.495   4.362   3.797
 3474SOL    HW111321   0.506   4.429   3.723
 3474SOL    HW211322   0.517   4.405   3.885
 3475SOL     OW11323   0.978   4.704   4.175
 3475SOL    HW111324   0.894   4.744   4.213
 3475SOL    HW211325   1.016   4.638   4.239
 3476SOL     OW11326   1.015   1.285   3.232
 3476SOL    HW111327   1.077   1.281   3.154
 3476SOL    HW211328   0.999   1.380   3.257
 3477SOL     OW11329   0.875   3.511   0.405
 3477SOL    HW111330   0.895   3.526   0.308
 3477SOL    HW211331   0.797   3.568   0.432
 3478SOL     OW11332   2.966   6.651   6.870
 3478SOL    HW111333   2.929   6.558   6.871
 3478SOL    HW211334   2.904   6.712   6.920
 3479SOL     OW11335   1.013   1.068   3.736
 3479SOL    HW111336   1.060   1.071   3.648
 3479SOL    HW211337   0.937   1.004   3.732
 3480SOL     OW11338   1.033   6.323   5.893
 3480SOL    HW111339   0.958   6.306   5.830
 3480SOL    HW211340   1.115   6.273   5.864
 3481SOL     OW11341   5.007   0.542   0.577
 3481SOL    HW111342   4.967   0.450   0.569
 3481SOL    HW211343   4.951   0.607   0.526
 3482SOL     OW11344   6.013   1.637   2.769
 3482SOL    HW111345   6.016   1.632   2.670
 3482SOL    HW211346   6.080   1.575   2.809
 3483SOL     OW11347   5.626   2.232   3.022
 3483SOL    HW111348   5.531   2.240   3.052
 3483SOL    HW211349   5.687   2.250   3.100
 3484SOL     OW11350   1.587   3.204   6.826
 3484SOL    HW111351   1.610   3.116   6.785
 3484SOL    HW211352   1.581   3.273   6.754
 3485SOL     OW11353   0.978   2.040   5.059
 3485SOL    HW111354   0.944   2.067   4.968
 3485SOL    HW211355   0.936   2.099   5.128
 3486SOL     OW11356   1.781   0.155   3.622
 3486SOL    HW111357   1.842   0.117   3.692
 3486SOL    HW211358   1.689   0.118   3.635
 3487SOL     OW11359   6.384   2.560   0.144
 3487SOL    HW111360   6.347   2.600   0.060
 3487SOL    HW211361   6.319   2.494   0.181
 3488SOL     OW11362   5.475   0.999   5.163
 3488SOL    HW111363   5.430   1.036   5.082
 3488SOL    HW211364   5.480   0.899   5.156
 3489SOL     OW11365   3.515   0.647   1.835
 3489SOL    HW111366   3.568   0.728   1.860
 3489SOL    HW211367   3.485   0.654   1.740
 3490SOL     OW11368   3.214   4.687   1.625
 3490SOL    HW111369   3.244   4.759   1.562
 3490SOL    HW211370   3.130   4.717   1.671
 3491SOL     OW11371   3.785   3.114   5.778
 3491SOL    HW111372   3.864   3.149   5.727
 3491SOL    HW211373   3.750   3.185   5.839
 3492SOL     OW11374   5.969   3.751   1.554
 3492SOL    HW111375   6.019   3.670   1.584
 3492SOL    HW211376   5.890   3.766   1.613
 3493SOL     OW11377   6.204   3.904   4.197
 3493SOL    HW111378   6.201   3.825   4.258
 3493SOL    HW211379   6.197   3.988   4.251
 3494SOL     OW11380   2.774   1.030   1.687
 3494SOL    HW111381   2.786   0.990   1.596
 3494SOL    HW211382   2.726   1.117   1.679
 3495SOL     OW11383   0.652   3.813   2.611
 3495SOL    HW111384   0.696   3.738   2.563
 3495SOL    HW211385   0.681   3.900   2.571
 3496SOL     OW11386   5.689   5.202   1.242
 3496SOL    HW111387   5.651   5.156   1.323
 3496SOL    HW211388   5.710   5.297   1.264
 3497SOL     OW11389   2.589   1.242   4.157
 3497SOL    HW111390   2.581   1.171   4.087
 3497SOL    HW211391   2.541   1.324   4.125
 3498SOL     OW11392   2.971   1.320   2.734
 3498SOL    HW111393   2.976   1.415   2.765
 3498SOL    HW211394   2.997   1.259   2.809
 3499SOL     OW11395   6.707   4.843   4.268
 3499SOL    HW111396   6.746   4.891   4.189
 3499SOL    HW211397   6.635   4.781   4.237
 3500SOL     OW11398   1.891   3.075   3.532
 3500SOL    HW111399   1.798   3.106   3.555
 3500SOL    HW211400   1.922   3.122   3.449
 3501SOL     OW11401   3.218   0.143   6.447
 3501SOL    HW111402   3.212   0.100   6.537
 3501SOL    HW211403   3.302   0.114   6.402
 3502SOL     OW11404   6.691   2.906   1.320
 3502SOL    HW111405   6.632   2.985   1.332
 3502SOL    HW211406   6.784   2.929   1.347
 3503SOL     OW11407   0.083   6.480   5.454
 3503SOL    HW111408   7.015   6.509   5.486
 3503SOL    HW211409   0.150   6.551   5.476
 3504SOL     OW11410   1.884   1.027   2.261
 3504SOL    HW111411   1.925   1.084   2.190
 3504SOL    HW211412   1.949   0.955   2.287
 3505SOL     OW11413   5.721   5.177   4.821
 3505SOL    HW111414   5.696   5.161   4.726
 3505SOL    HW211415   5.639   5.197   4.874
 3506SOL     OW11416   5.676   4.803   4.936
 3506SOL    HW111417   5.616   4.823   4.858
 3506SOL    HW211418   5.737   4.880   4.951
 3507SOL     OW11419   2.682   0.465   0.307
 3507SOL    HW111420   2.649   0.373   0.327
 3507SOL    HW211421   2.745   0.494   0.379
 3508SOL     OW11422   2.881   1.936   6.312
 3508SOL    HW111423   2.910   1.986   6.230
 3508SOL    HW211424   2.783   1.948   6.326
 3509SOL     OW11425   5.946   6.913   6.846
 3509SOL    HW111426   5.936   6.991   6.783
 3509SOL    HW211427   5.862   6.859   6.846
 3510SOL     OW11428   1.464   0.761   1.677
 3510SOL    HW111429   1.377   0.720   1.650
 3510SOL    HW211430   1.537   0.693   1.665
 3511SOL     OW11431   1.869   4.312   1.804
 3511SOL    HW111432   1.901   4.311   1.899
 3511SOL    HW211433   1.779   4.269   1.798
 3512SOL     OW11434   0.593   3.946   0.919
 3512SOL    HW111435   0.661   3.954   0.846
 3512SOL    HW211436   0.640   3.934   1.006
 3513SOL     OW11437   6.041   1.980   0.994
 3513SOL    HW111438   5.989   2.056   1.033
 3513SOL    HW211439   5.978   1.910   0.961
 3514SOL     OW11440   6.410   1.095   2.010
 3514SOL    HW111441   6.317   1.094   1.974
 3514SOL    HW211442   6.475   1.100   1.934
 3515SOL     OW11443   5.276   6.344   3.188
 3515SOL    HW111444   5.293   6.435   3.225
 3515SOL    HW211445   5.317   6.337   3.097
 3516SOL     OW11446   4.384   6.175   1.569
 3516SOL    HW111447   4.470   6.137   1.600
 3516SOL    HW211448   4.317   6.172   1.643
 3517SOL     OW11449   0.163   1.782   0.916
 3517SOL    HW111450   0.089   1.845   0.893
 3517SOL    HW211451   0.251   1.826   0.897
 3518SOL     OW11452   4.952   2.953   5.115
 3518SOL    HW111453   4.963   2.899   5.031
 3518SOL    HW211454   4.992   2.904   5.192
 3519SOL     OW11455   2.082   0.364   5.768
 3519SOL    HW111456   2.092   0.344   5.866
 3519SOL    HW211457   2.151   0.431   5.740
 3520SOL     OW11458   3.204   6.580   0.328
 3520SOL    HW111459   3.172   6.552   0.238
 3520SOL    HW211460   3.227   6.499   0.382
 3521SOL     OW11461   4.214   2.851   0.344
 3521SOL    HW111462   4.311   2.870   0.329
 3521SOL    HW211463   4.185   2.893   0.430
 3522SOL     OW11464   6.440   5.622   6.642
 3522SOL    HW111465   6.349   5.596   6.672
 3522SOL    HW211466   6.488   5.542   6.606
 3523SOL     OW11467   1.965   4.598   5.125
 3523SOL    HW111468   1.908   4.673   5.092
 3523SOL    HW211469   1.955   4.520   5.064
 3524SOL     OW11470   5.259   2.065   1.947
 3524SOL    HW111471   5.293   2.137   2.007
 3524SOL    HW211472   5.210   2.105   1.870
 3525SOL     OW11473   6.251   3.341   4.080
 3525SOL    HW111474   6.337   3.325   4.032
 3525SOL    HW211475   6.231   3.265   4.141
 3526SOL     OW11476   1.784   6.826   3.658
 3526SOL    HW111477   1.738   6.842   3.570
 3526SOL    HW211478   1.725   6.772   3.718
 3527SOL     OW11479   5.420   3.615   6.536
 3527SOL    HW111480   5.473   3.645   6.456
 3527SOL    HW211481   5.339   3.672   6.546
 3528SOL     OW11482   2.076   6.290   4.945
 3528SOL    HW111483   2.137   6.312   4.869
 3528SOL    HW211484   2.110   6.209   4.993
 3529SOL     OW11485   4.299   6.601   0.890
 3529SOL    HW111486   4.201   6.601   0.910
 3529SOL    HW211487   4.350   6.596   0.976
 3530SOL     OW11488   6.697   5.395   1.603
 3530SOL    HW111489   6.629   5.419   1.672
 3530SOL    HW211490   6.685   5.454   1.522
 3531SOL     OW11491   5.276   2.409   0.654
 3531SOL    HW111492   5.290   2.504   0.627
 3531SOL    HW211493   5.201   2.370   0.602
 3532SOL     OW11494   2.953   0.495   1.407
 3532SOL    HW111495   2.963   0.530   1.313
 3532SOL    HW211496   2.857   0.474   1.424
 3533SOL     OW11497   0.627   0.992   2.730
 3533SOL    HW111498   0.541   1.042   2.741
 3533SOL    HW211499   0.609   0.894   2.736
 3534SOL     OW11500   0.756   2.096   0.959
 3534SOL    HW111501   0.749   2.169   1.027
 3534SOL    HW211502   0.755   2.135   0.867
 3535SOL     OW11503   2.327   5.492   6.095
 3535SOL    HW111504   2.262   5.438   6.041
 3535SOL    HW211505   2.395   5.430   6.135
 3536SOL     OW11506   3.361   2.069   3.034
 3536SOL    HW111507   3.404   2.112   2.955
 3536SOL    HW211508   3.270   2.036   3.009
 3537SOL     OW11509   2.267   5.465   2.545
 3537SOL    HW111510   2.184   5.427   2.586
 3537SOL    HW211511   2.282   5.557   2.580
 3538SOL     OW11512   2.524   5.787   5.595
 3538SOL    HW111513   2.431   5.755   5.612
 3538SOL    HW211514   2.589   5.714   5.617
 3539SOL     OW11515   3.527   3.818   4.682
 3539SOL    HW111516   3.617   3.818   4.726
 3539SOL    HW211517   3.518   3.735   4.627
 3540SOL     OW11518   2.269   2.441   4.554
 3540SOL    HW111519   2.263   2.367   4.486
 3540SOL    HW211520   2.296   2.403   4.642
 3541SOL     OW11521   2.857   2.820   5.963
 3541SOL    HW111522   2.797   2.853   5.890
 3541SOL    HW211523   2.875   2.895   6.027
 3542SOL     OW11524   1.187   5.071   3.028
 3542SOL    HW111525   1.258   5.140   3.040
 3542SOL    HW211526   1.225   4.980   3.044
 3543SOL     OW11527   6.806   2.591   4.510
 3543SOL    HW111528   6.893   2.642   4.505
 3543SOL    HW211529   6.811   2.512   4.449
 3544SOL     OW11530   1.299   4.238   6.174
 3544SOL    HW111531   1.227   4.249   6.105
 3544SOL    HW211532   1.380   4.198   6.132
 3545SOL     OW11533   3.738   5.882   6.973
 3545SOL    HW111534   3.666   5.888   6.903
 3545SOL    HW211535   3.795   5.802   6.955
 3546SOL     OW11536   0.881   4.640   3.447
 3546SOL    HW111537   0.800   4.699   3.439
 3546SOL    HW211538   0.873   4.565   3.381
 3547SOL     OW11539   5.298   4.472   3.702
 3547SOL    HW111540   5.303   4.549   3.638
 3547SOL    HW211541   5.307   4.506   3.796
 3548SOL     OW11542   5.615   1.553   5.797
 3548SOL    HW111543   5.524   1.548   5.757
 3548SOL    HW211544   5.680   1.585   5.728
 3549SOL     OW11545   6.677   4.468   4.707
 3549SOL    HW111546   6.672   4.468   4.607
 3549SOL    HW211547   6.718   4.382   4.737
 3550SOL     OW11548   5.612   2.686   2.570
 3550SOL    HW111549   5.669   2.768   2.568
 3550SOL    HW211550   5.516   2.713   2.580
 3551SOL     OW11551   4.128   6.185   2.595
 3551SOL    HW111552   4.155   6.270   2.640
 3551SOL    HW211553   4.144   6.108   2.657
 3552SOL     OW11554   5.141   5.984   1.940
 3552SOL    HW111555   5.157   5.952   2.034
 3552SOL    HW211556   5.156   5.908   1.877
 3553SOL     OW11557   5.745   2.975   1.112
 3553SOL    HW111558   5.732   3.040   1.037
 3553SOL    HW211559   5.691   2.893   1.095
 3554SOL     OW11560   3.819   3.323   1.011
 3554SOL    HW111561   3.821   3.423   1.006
 3554SOL    HW211562   3.726   3.292   1.028
 3555SOL     OW11563   1.267   3.254   3.239
 3555SOL    HW111564   1.195   3.217   3.298
 3555SOL    HW211565   1.285   3.349   3.263
 3556SOL     OW11566   3.997   0.686   4.838
 3556SOL    HW111567   4.051   0.603   4.845
 3556SOL    HW211568   4.039   0.748   4.772
 3557SOL     OW11569   0.481   0.396   3.514
 3557SOL    HW111570   0.406   0.381   3.578
 3557SOL    HW211571   0.505   0.493   3.513
 3558SOL     OW11572   0.708   5.982   1.201
 3558SOL    HW111573   0.643   5.961   1.127
 3558SOL    HW211574   0.753   6.068   1.182
 3559SOL     OW11575   0.193   6.710   4.874
 3559SOL    HW111576   0.260   6.726   4.947
 3559SOL    HW211577   0.163   6.798   4.836
 3560SOL     OW11578   1.322   5.213   0.727
 3560SOL    HW111579   1.374   5.128   0.727
 3560SOL    HW211580   1.367   5.280   0.667
 3561SOL     OW11581   3.993   5.066   5.386
 3561SOL    HW111582   4.061   4.994   5.372
 3561SOL    HW211583   3.902   5.025   5.394
 3562SOL     OW11584   5.000   1.196   4.412
 3562SOL    HW111585   4.981   1.132   4.486
 3562SOL    HW211586   4.925   1.263   4.406
 3563SOL     OW11587   5.416   0.790   1.326
 3563SOL    HW111588   5.501   0.757   1.286
 3563SOL    HW211589   5.340   0.736   1.290
 3564SOL     OW11590   1.209   4.686   3.973
 3564SOL    HW111591   1.294   4.648   4.011
 3564SOL    HW211592   1.134   4.670   4.037
 3565SOL     OW11593   3.901   6.665   4.698
 3565SOL    HW111594   3.975   6.687   4.761
 3565SOL    HW211595   3.917   6.710   4.610
 3566SOL     OW11596   0.123   3.146   6.551
 3566SOL    HW111597   0.177   3.086   6.492
 3566SOL    HW211598   0.155   3.241   6.541
 3567SOL     OW11599   1.346   2.439   0.056
 3567SOL    HW111600   1.281   2.412   7.008
 3567SOL    HW211601   1.320   2.528   0.093
 3568SOL     OW11602   5.298   5.096   3.082
 3568SOL    HW111603   5.215   5.041   3.090
 3568SOL    HW211604   5.342   5.077   2.994
 3569SOL     OW11605   2.918   2.748   5.347
 3569SOL    HW111606   2.821   2.753   5.371
 3569SOL    HW211607   2.956   2.662   5.381
 3570SOL     OW11608   5.435   0.356   5.145
 3570SOL    HW111609   5.434   0.364   5.245
 3570SOL    HW211610   5.482   0.272   5.118
 3571SOL     OW11611   1.785   0.963   5.060
 3571SOL    HW111612   1.706   0.976   5.120
 3571SOL    HW211613   1.842   1.045   5.060
 3572SOL     OW11614   5.550   3.748   2.508
 3572SOL    HW111615   5.569   3.832   2.457
 3572SOL    HW211616   5.451   3.731   2.507
 3573SOL     OW11617   6.618   4.585   2.442
 3573SOL    HW111618   6.702   4.536   2.463
 3573SOL    HW211619   6.549   4.520   2.409
 3574SOL     OW11620   1.606   3.577   6.950
 3574SOL    HW111621   1.607   3.535   6.859
 3574SOL    HW211622   1.584   3.507   7.018
 3575SOL     OW11623   5.170   5.748   1.757
 3575SOL    HW111624   5.074   5.776   1.750
 3575SOL    HW211625   5.177   5.650   1.741
 3576SOL     OW11626   6.969   2.410   6.937
 3576SOL    HW111627   6.986   2.412   6.838
 3576SOL    HW211628   6.943   2.502   6.967
 3577SOL     OW11629   2.814   2.976   5.661
 3577SOL    HW111630   2.859   2.887   5.670
 3577SOL    HW211631   2.853   3.025   5.582
 3578SOL     OW11632   4.332   2.743   1.355
 3578SOL    HW111633   4.292   2.831   1.331
 3578SOL    HW211634   4.366   2.698   1.272
 3579SOL     OW11635   0.150   3.021   3.286
 3579SOL    HW111636   0.066   3.019   3.232
 3579SOL    HW211637   0.218   3.077   3.240
 3580SOL     OW11638   6.780   3.668   1.101
 3580SOL    HW111639   6.773   3.570   1.119
 3580SOL    HW211640   6.783   3.684   1.002
 3581SOL     OW11641   0.446   6.346   2.848
 3581SOL    HW111642   0.525   6.374   2.904
 3581SOL    HW211643   0.371   6.411   2.862
 3582SOL     OW11644   3.124   5.012   5.923
 3582SOL    HW111645   3.119   5.039   5.827
 3582SOL    HW211646   3.040   5.037   5.969
 3583SOL     OW11647   1.498   4.288   6.990
 3583SOL    HW111648   1.456   4.217   0.024
 3583SOL    HW211649   1.595   4.296   7.012
 3584SOL     OW11650   5.549   5.046   5.739
 3584SOL    HW111651   5.499   4.967   5.774
 3584SOL    HW211652   5.573   5.107   5.814
 3585SOL     OW11653   3.290   2.040   4.661
 3585SOL    HW111654   3.209   2.087   4.626
 3585SOL    HW211655   3.365   2.052   4.595
 3586SOL     OW11656   6.859   2.739   4.775
 3586SOL    HW111657   6.873   2.640   4.781
 3586SOL    HW211658   6.784   2.758   4.712
 3587SOL     OW11659   3.299   5.245   6.518
 3587SOL    HW111660   3.344   5.248   6.607
 3587SOL    HW211661   3.310   5.333   6.472
 3588SOL     OW11662   6.767   3.949   4.419
 3588SOL    HW111663   6.698   3.978   4.352
 3588SOL    HW211664   6.858   3.961   4.379
 3589SOL     OW11665   6.252   6.825   6.293
 3589SOL    HW111666   6.262   6.728   6.316
 3589SOL    HW211667   6.309   6.879   6.355
 3590SOL     OW11668   0.146   3.542   1.000
 3590SOL    HW111669   0.126   3.524   0.904
 3590SOL    HW211670   0.213   3.615   1.007
 3591SOL     OW11671   5.685   2.922   0.740
 3591SOL    HW111672   5.707   3.014   0.773
 3591SOL    HW211673   5.660   2.926   0.643
 3592SOL     OW11674   0.562   0.161   2.347
 3592SOL    HW111675   0.538   0.211   2.430
 3592SOL    HW211676   0.543   0.064   2.360
 3593SOL     OW11677   0.546   4.760   5.734
 3593SOL    HW111678   0.611   4.686   5.752
 3593SOL    HW211679   0.468   4.751   5.796
 3594SOL     OW11680   4.709   0.148   4.833
 3594SOL    HW111681   4.791   0.201   4.856
 3594SOL    HW211682   4.628   0.198   4.864
 3595SOL     OW11683   6.307   6.284   0.139
 3595SOL    HW111684   6.287   6.293   0.042
 3595SOL    HW211685   6.256   6.207   0.177
 3596SOL     OW11686   4.367   2.285   3.456
 3596SOL    HW111687   4.278   2.329   3.460
 3596SOL    HW211688   4.380   2.228   3.537
 3597SOL     OW11689   2.035   3.537   5.340
 3597SOL    HW111690   2.099   3.578   5.274
 3597SOL    HW211691   1.945   3.580   5.330
 3598SOL     OW11692   2.228   6.066   5.495
 3598SOL    HW111693   2.293   5.992   5.476
 3598SOL    HW211694   2.137   6.040   5.461
 3599SOL     OW11695   4.949   1.705   6.297
 3599SOL    HW111696   4.977   1.777   6.360
 3599SOL    HW211697   4.849   1.693   6.303
 3600SOL     OW11698   1.530   3.266   1.289
 3600SOL    HW111699   1.504   3.194   1.224
 3600SOL    HW211700   1.612   3.313   1.255
 3601SOL     OW11701   5.397   2.059   5.599
 3601SOL    HW111702   5.315   2.044   5.655
 3601SOL    HW211703   5.389   2.006   5.514
 3602SOL     OW11704   2.233   3.036   0.972
 3602SOL    HW111705   2.301   3.076   1.033
 3602SOL    HW211706   2.201   3.105   0.908
 3603SOL     OW11707   3.227   0.841   6.064
 3603SOL    HW111708   3.281   0.806   5.987
 3603SOL    HW211709   3.194   0.764   6.118
 3604SOL     OW11710   6.078   0.764   3.629
 3604SOL    HW111711   6.177   0.779   3.630
 3604SOL    HW211712   6.055   0.693   3.563
 3605SOL     OW11713   0.842   5.089   4.157
 3605SOL    HW111714   0.812   5.130   4.244
 3605SOL    HW211715   0.942   5.078   4.159
 3606SOL     OW11716   1.645   6.489   2.018
 3606SOL    HW111717   1.637   6.506   1.920
 3606SOL    HW211718   1.554   6.477   2.057
 3607SOL     OW11719   5.107   2.796   2.454
 3607SOL    HW111720   5.008   2.801   2.466
 3607SOL    HW211721   5.131   2.715   2.401
 3608SOL     OW11722   5.481   1.753   4.169
 3608SOL    HW111723   5.389   1.792   4.181
 3608SOL    HW211724   5.484   1.661   4.209
 3609SOL     OW11725   2.082   6.494   4.302
 3609SOL    HW111726   2.125   6.445   4.378
 3609SOL    HW211727   2.044   6.580   4.334
 3610SOL     OW11728   1.996   0.314   5.485
 3610SOL    HW111729   1.932   0.390   5.501
 3610SOL    HW211730   2.068   0.316   5.554
 3611SOL     OW11731   4.568   4.400   4.111
 3611SOL    HW111732   4.498   4.454   4.064
 3611SOL    HW211733   4.546   4.395   4.208
 3612SOL     OW11734   6.253   1.626   6.575
 3612SOL    HW111735   6.273   1.616   6.672
 3612SOL    HW211736   6.338   1.619   6.522
 3613SOL     OW11737   4.835   5.141   1.889
 3613SOL    HW111738   4.785   5.121   1.805
 3613SOL    HW211739   4.822   5.066   1.954
 3614SOL     OW11740   3.316   3.290   6.687
 3614SOL    HW111741   3.308   3.276   6.786
 3614SOL    HW211742   3.322   3.388   6.668
 3615SOL     OW11743   6.054   3.069   6.001
 3615SOL    HW111744   6.002   2.984   5.988
 3615SOL    HW211745   6.138   3.050   6.052
 3616SOL     OW11746   1.717   1.598   5.964
 3616SOL    HW111747   1.797   1.607   5.905
 3616SOL    HW211748   1.742   1.552   6.049
 3617SOL     OW11749   4.768   6.749   5.596
 3617SOL    HW111750   4.752   6.744   5.498
 3617SOL    HW211751   4.682   6.736   5.645
 3618SOL     OW11752   2.153   3.547   5.050
 3618SOL    HW111753   2.233   3.568   4.993
 3618SOL    HW211754   2.162   3.454   5.086
 3619SOL     OW11755   5.309   3.363   0.505
 3619SOL    HW111756   5.243   3.430   0.542
 3619SOL    HW211757   5.345   3.307   0.580
 3620SOL     OW11758   6.454   5.850   4.483
 3620SOL    HW111759   6.465   5.948   4.498
 3620SOL    HW211760   6.374   5.817   4.533
 3621SOL     OW11761   3.845   2.977   4.238
 3621SOL    HW111762   3.751   2.947   4.224
 3621SOL    HW211763   3.888   2.921   4.309
 3622SOL     OW11764   1.006   0.644   1.228
 3622SOL    HW111765   1.011   0.684   1.137
 3622SOL    HW211766   0.910   0.638   1.256
 3623SOL     OW11767   0.862   5.891   5.120
 3623SOL    HW111768   0.821   5.981   5.130
 3623SOL    HW211769   0.861   5.844   5.209
 3624SOL     OW11770   1.624   6.991   1.527
 3624SOL    HW111771   1.702   6.981   1.589
 3624SOL    HW211772   1.539   6.989   1.579
 3625SOL     OW11773   0.008   2.960   6.931
 3625SOL    HW111774   6.950   2.922   6.977
 3625SOL    HW211775   7.003   3.041   6.878
 3626SOL     OW11776   0.138   3.854   4.565
 3626SOL    HW111777   0.055   3.805   4.539
 3626SOL    HW211778   0.129   3.950   4.540
 3627SOL     OW11779   5.035   3.016   1.567
 3627SOL    HW111780   4.979   3.053   1.493
 3627SOL    HW211781   5.006   2.922   1.587
 3628SOL     OW11782   1.225   1.629   2.031
 3628SOL    HW111783   1.140   1.671   1.999
 3628SOL    HW211784   1.204   1.542   2.075
 3629SOL     OW11785   1.104   0.332   3.542
 3629SOL    HW111786   1.168   0.385   3.598
 3629SOL    HW211787   1.148   0.308   3.455
 3630SOL     OW11788   6.926   2.792   3.027
 3630SOL    HW111789   7.014   2.746   3.039
 3630SOL    HW211790   6.929   2.882   3.071
 3631SOL     OW11791   2.031   6.928   3.708
 3631SOL    HW111792   1.941   6.908   3.670
 3631SOL    HW211793   2.042   0.005   3.716
 3632SOL     OW11794   4.325   4.090   1.166
 3632SOL    HW111795   4.290   4.077   1.073
 3632SOL    HW211796   4.388   4.016   1.189
 3633SOL     OW11797   3.402   2.606   5.545
 3633SOL    HW111798   3.362   2.659   5.469
 3633SOL    HW211799   3.342   2.529   5.566
 3634SOL     OW11800   2.416   6.219   6.062
 3634SOL    HW111801   2.371   6.259   5.982
 3634SOL    HW211802   2.509   6.191   6.037
 3635SOL     OW11803   2.486   1.349   1.320
 3635SOL    HW111804   2.412   1.380   1.260
 3635SOL    HW211805   2.540   1.280   1.273
 3636SOL     OW11806   6.982   5.396   0.619
 3636SOL    HW111807   6.889   5.363   0.635
 3636SOL    HW211808   6.992   5.423   0.523
 3637SOL     OW11809   1.198   2.969   0.190
 3637SOL    HW111810   1.164   2.964   0.097
 3637SOL    HW211811   1.139   3.027   0.245
 3638SOL     OW11812   6.854   4.013   2.820
 3638SOL    HW111813   6.841   3.980   2.913
 3638SOL    HW211814   6.768   4.050   2.784
 3639SOL     OW11815   3.774   4.209   5.083
 3639SOL    HW111816   3.714   4.209   5.003
 3639SOL    HW211817   3.868   4.187   5.054
 3640SOL     OW11818   5.301   2.686   0.675
 3640SOL    HW111819   5.259   2.752   0.613
 3640SOL    HW211820   5.347   2.735   0.749
 3641SOL     OW11821   5.691   4.024   1.235
 3641SOL    HW111822   5.608   4.070   1.268
 3641SOL    HW211823   5.678   3.925   1.241
 3642SOL     OW11824   5.618   2.669   6.312
 3642SOL    HW111825   5.526   2.709   6.319
 3642SOL    HW211826   5.664   2.676   6.400
 3643SOL     OW11827   4.101   6.619   6.270
 3643SOL    HW111828   4.155   6.587   6.192
 3643SOL    HW211829   4.038   6.546   6.298
 3644SOL     OW11830   2.879   0.868   1.494
 3644SOL    HW111831   2.850   0.802   1.425
 3644SOL    HW211832   2.877   0.826   1.585
 3645SOL     OW11833   1.276   3.678   4.085
 3645SOL    HW111834   1.372   3.648   4.088
 3645SOL    HW211835   1.216   3.599   4.073
 3646SOL     OW11836   2.844   5.073   4.704
 3646SOL    HW111837   2.924   5.128   4.677
 3646SOL    HW211838   2.874   4.983   4.734
 3647SOL     OW11839   2.618   7.006   6.846
 3647SOL    HW111840   2.648   0.043   6.921
 3647SOL    HW211841   2.533   0.018   6.808
 3648SOL     OW11842   4.949   6.085   3.375
 3648SOL    HW111843   4.970   6.179   3.351
 3648SOL    HW211844   4.937   6.077   3.474
 3649SOL     OW11845   5.569   3.942   6.719
 3649SOL    HW111846   5.600   3.924   6.812
 3649SOL    HW211847   5.490   4.003   6.720
 3650SOL     OW11848   5.255   4.086   0.574
 3650SOL    HW111849   5.164   4.113   0.604
 3650SOL    HW211850   5.284   4.004   0.624
 3651SOL     OW11851   2.080   2.230   5.554
 3651SOL    HW111852   2.027   2.267   5.477
 3651SOL    HW211853   2.066   2.131   5.559
 3652SOL     OW11854   5.281   1.063   2.381
 3652SOL    HW111855   5.216   0.987   2.394
 3652SOL    HW211856   5.366   1.042   2.431
 3653SOL     OW11857   0.903   0.454   2.371
 3653SOL    HW111858   0.932   0.511   2.448
 3653SOL    HW211859   0.804   0.465   2.356
 3654SOL     OW11860   4.671   5.895   1.224
 3654SOL    HW111861   4.670   5.839   1.308
 3654SOL    HW211862   4.578   5.925   1.203
 3655SOL     OW11863   3.056   1.071   4.003
 3655SOL    HW111864   3.130   1.110   3.948
 3655SOL    HW211865   2.970   1.117   3.980
 3656SOL     OW11866   0.955   5.665   2.167
 3656SOL    HW111867   0.936   5.613   2.084
 3656SOL    HW211868   0.870   5.680   2.217
 3657SOL     OW11869   4.495   5.997   5.327
 3657SOL    HW111870   4.589   6.025   5.342
 3657SOL    HW211871   4.443   6.007   5.413
 3658SOL     OW11872   1.413   5.536   6.431
 3658SOL    HW111873   1.469   5.458   6.457
 3658SOL    HW211874   1.406   5.541   6.331
 3659SOL     OW11875   0.183   1.425   6.450
 3659SOL    HW111876   0.146   1.338   6.482
 3659SOL    HW211877   0.134   1.500   6.494
 3660SOL     OW11878   5.732   6.081   5.720
 3660SOL    HW111879   5.793   6.116   5.649
 3660SOL    HW211880   5.747   5.982   5.731
 3661SOL     OW11881   6.922   0.868   4.332
 3661SOL    HW111882   7.014   0.896   4.359
 3661SOL    HW211883   6.854   0.916   4.388
 3662SOL     OW11884   3.754   0.921   5.637
 3662SOL    HW111885   3.809   0.958   5.711
 3662SOL    HW211886   3.658   0.918   5.664
 3663SOL     OW11887   2.006   2.485   6.991
 3663SOL    HW111888   1.982   2.464   0.063
 3663SOL    HW211889   1.931   2.457   6.931
 3664SOL     OW11890   4.618   1.663   2.222
 3664SOL    HW111891   4.551   1.703   2.158
 3664SOL    HW211892   4.701   1.720   2.222
 3665SOL     OW11893   0.524   6.454   5.513
 3665SOL    HW111894   0.529   6.455   5.413
 3665SOL    HW211895   0.610   6.490   5.550
 3666SOL     OW11896   1.512   2.306   3.537
 3666SOL    HW111897   1.434   2.338   3.591
 3666SOL    HW211898   1.483   2.289   3.443
 3667SOL     OW11899   1.176   1.675   2.966
 3667SOL    HW111900   1.105   1.605   2.955
 3667SOL    HW211901   1.260   1.633   3.000
 3668SOL     OW11902   1.232   0.253   1.890
 3668SOL    HW111903   1.301   0.323   1.909
 3668SOL    HW211904   1.145   0.297   1.865
 3669SOL     OW11905   6.095   2.146   4.518
 3669SOL    HW111906   6.094   2.046   4.511
 3669SOL    HW211907   6.189   2.178   4.525
 3670SOL     OW11908   3.218   5.386   1.573
 3670SOL    HW111909   3.299   5.440   1.597
 3670SOL    HW211910   3.212   5.307   1.633
 3671SOL     OW11911   6.308   0.982   3.291
 3671SOL    HW111912   6.216   1.020   3.292
 3671SOL    HW211913   6.375   1.056   3.300
 3672SOL     OW11914   5.437   1.348   2.463
 3672SOL    HW111915   5.396   1.432   2.500
 3672SOL    HW211916   5.365   1.283   2.440
 3673SOL     OW11917   5.069   6.111   0.389
 3673SOL    HW111918   5.164   6.084   0.375
 3673SOL    HW211919   5.063   6.171   0.469
 3674SOL     OW11920   1.513   6.161   6.101
 3674SOL    HW111921   1.461   6.095   6.046
 3674SOL    HW211922   1.550   6.116   6.182
 3675SOL     OW11923   0.702   1.983   3.918
 3675SOL    HW111924   0.642   1.903   3.913
 3675SOL    HW211925   0.713   2.023   3.827
 3676SOL     OW11926   5.043   2.838   3.076
 3676SOL    HW111927   5.071   2.914   3.017
 3676SOL    HW211928   4.947   2.816   3.059
 3677SOL     OW11929   2.087   0.993   4.391
 3677SOL    HW111930   2.130   0.944   4.316
 3677SOL    HW211931   2.111   0.949   4.478
 3678SOL     OW11932   1.381   0.086   3.414
 3678SOL    HW111933   1.391   0.184   3.431
 3678SOL    HW211934   1.284   0.061   3.419
 3679SOL     OW11935   5.980   0.206   3.134
 3679SOL    HW111936   6.051   0.272   3.110
 3679SOL    HW211937   5.908   0.208   3.064
 3680SOL     OW11938   4.607   1.213   3.268
 3680SOL    HW111939   4.627   1.243   3.362
 3680SOL    HW211940   4.508   1.204   3.257
 3681SOL     OW11941   1.388   0.742   5.448
 3681SOL    HW111942   1.385   0.833   5.490
 3681SOL    HW211943   1.458   0.686   5.494
 3682SOL     OW11944   5.273   2.492   1.228
 3682SOL    HW111945   5.236   2.543   1.151
 3682SOL    HW211946   5.353   2.440   1.198
 3683SOL     OW11947   0.099   0.483   4.607
 3683SOL    HW111948   0.136   0.502   4.516
 3683SOL    HW211949   0.022   0.544   4.625
 3684SOL     OW11950   2.119   6.717   5.804
 3684SOL    HW111951   2.080   6.796   5.851
 3684SOL    HW211952   2.171   6.661   5.869
 3685SOL     OW11953   2.582   5.890   5.322
 3685SOL    HW111954   2.543   5.852   5.406
 3685SOL    HW211955   2.633   5.819   5.274
 3686SOL     OW11956   6.607   3.547   3.461
 3686SOL    HW111957   6.539   3.586   3.523
 3686SOL    HW211958   6.572   3.553   3.367
 3687SOL     OW11959   4.883   6.545   3.204
 3687SOL    HW111960   4.935   6.460   3.214
 3687SOL    HW211961   4.802   6.528   3.148
 3688SOL     OW11962   5.882   3.103   0.179
 3688SOL    HW111963   5.973   3.066   0.160
 3688SOL    HW211964   5.879   3.199   0.150
 3689SOL     OW11965   2.214   1.372   5.231
 3689SOL    HW111966   2.303   1.334   5.204
 3689SOL    HW211967   2.181   1.434   5.160
 3690SOL     OW11968   4.973   5.421   0.852
 3690SOL    HW111969   5.036   5.488   0.892
 3690SOL    HW211970   4.999   5.330   0.883
 3691SOL     OW11971   2.941   1.914   5.784
 3691SOL    HW111972   2.843   1.896   5.778
 3691SOL    HW211973   2.979   1.926   5.692
 3692SOL     OW11974   0.090   4.062   5.896
 3692SOL    HW111975   7.015   4.081   5.884
 3692SOL    HW211976   0.101   3.985   5.960
 3693SOL     OW11977   0.495   1.845   2.884
 3693SOL    HW111978   0.558   1.921   2.873
 3693SOL    HW211979   0.520   1.792   2.965
 3694SOL     OW11980   0.890   0.779   1.509
 3694SOL    HW111981   0.883   0.705   1.442
 3694SOL    HW211982   0.828   0.853   1.484
 3695SOL     OW11983   6.732   2.616   2.784
 3695SOL    HW111984   6.793   2.647   2.712
 3695SOL    HW211985   6.771   2.535   2.828
 3696SOL     OW11986   5.065   1.155   4.972
 3696SOL    HW111987   5.105   1.213   5.043
 3696SOL    HW211988   4.994   1.098   5.013
 3697SOL     OW11989   6.489   6.085   3.272
 3697SOL    HW111990   6.396   6.062   3.302
 3697SOL    HW211991   6.552   6.078   3.350
 3698SOL     OW11992   1.741   0.871   3.441
 3698SOL    HW111993   1.654   0.839   3.403
 3698SOL    HW211994   1.774   0.806   3.510
 3699SOL     OW11995   2.358   2.361   4.179
 3699SOL    HW111996   2.315   2.312   4.254
 3699SOL    HW211997   2.345   2.310   4.094
 3700SOL     OW11998   1.759   5.258   4.894
 3700SOL    HW111999   1.857   5.276   4.903
 3700SOL    HW212000   1.733   5.266   4.797
 3701SOL     OW12001   1.160   6.335   2.470
 3701SOL    HW112002   1.236   6.390   2.434
 3701SOL    HW212003   1.144   6.257   2.410
 3702SOL     OW12004   5.857   5.754   4.116
 3702SOL    HW112005   5.772   5.790   4.078
 3702SOL    HW212006   5.862   5.775   4.214
 3703SOL     OW12007   0.967   1.249   6.007
 3703SOL    HW112008   0.935   1.305   6.083
 3703SOL    HW212009   1.066   1.239   6.012
 3704SOL     OW12010   5.822   2.702   0.857
 3704SOL    HW112011   5.917   2.726   0.877
 3704SOL    HW212012   5.781   2.773   0.798
 3705SOL     OW12013   5.223   5.009   3.539
 3705SOL    HW112014   5.202   5.044   3.630
 3705SOL    HW212015   5.322   5.007   3.526
 3706SOL     OW12016   0.979   3.567   0.656
 3706SOL    HW112017   0.933   3.537   0.740
 3706SOL    HW212018   0.926   3.537   0.576
 3707SOL     OW12019   3.605   4.886   4.155
 3707SOL    HW112020   3.568   4.864   4.065
 3707SOL    HW212021   3.627   4.984   4.160
 3708SOL     OW12022   3.582   6.648   1.339
 3708SOL    HW112023   3.639   6.613   1.265
 3708SOL    HW212024   3.619   6.735   1.372
 3709SOL     OW12025   2.211   0.530   1.749
 3709SOL    HW112026   2.143   0.519   1.676
 3709SOL    HW212027   2.246   0.624   1.749
 3710SOL     OW12028   0.580   5.250   5.023
 3710SOL    HW112029   0.579   5.245   4.923
 3710SOL    HW212030   0.567   5.158   5.060
 3711SOL     OW12031   1.794   6.204   5.239
 3711SOL    HW112032   1.873   6.234   5.291
 3711SOL    HW212033   1.823   6.176   5.147
 3712SOL     OW12034   2.378   5.383   6.575
 3712SOL    HW112035   2.282   5.397   6.599
 3712SOL    HW212036   2.417   5.314   6.636
 3713SOL     OW12037   6.854   6.745   4.539
 3713SOL    HW112038   6.795   6.749   4.620
 3713SOL    HW212039   6.864   6.649   4.511
 3714SOL     OW12040   0.889   4.642   6.860
 3714SOL    HW112041   0.838   4.580   6.919
 3714SOL    HW212042   0.833   4.670   6.783
 3715SOL     OW12043   0.055   5.983   3.592
 3715SOL    HW112044   0.014   6.074   3.598
 3715SOL    HW212045   0.041   5.946   3.500
 3716SOL     OW12046   6.356   5.892   3.918
 3716SOL    HW112047   6.266   5.860   3.888
 3716SOL    HW212048   6.420   5.815   3.920
 3717SOL     OW12049   4.914   1.027   0.463
 3717SOL    HW112050   4.854   1.107   0.458
 3717SOL    HW212051   5.009   1.056   0.461
 3718SOL     OW12052   0.468   6.871   6.568
 3718SOL    HW112053   0.400   6.880   6.496
 3718SOL    HW212054   0.450   6.789   6.622
 3719SOL     OW12055   3.861   3.265   6.087
 3719SOL    HW112056   3.866   3.194   6.157
 3719SOL    HW212057   3.767   3.271   6.053
 3720SOL     OW12058   5.516   3.569   1.240
 3720SOL    HW112059   5.598   3.626   1.239
 3720SOL    HW212060   5.538   3.480   1.280
 3721SOL     OW12061   6.226   5.323   0.013
 3721SOL    HW112062   6.258   5.258   0.081
 3721SOL    HW212063   6.165   5.390   0.056
 3722SOL     OW12064   4.588   6.685   1.398
 3722SOL    HW112065   4.556   6.653   1.488
 3722SOL    HW212066   4.669   6.743   1.410
 3723SOL     OW12067   4.311   5.256   0.615
 3723SOL    HW112068   4.372   5.334   0.603
 3723SOL    HW212069   4.358   5.186   0.670
 3724SOL     OW12070   1.740   5.059   5.618
 3724SOL    HW112071   1.773   4.970   5.585
 3724SOL    HW212072   1.791   5.132   5.572
 3725SOL     OW12073   0.281   6.352   0.045
 3725SOL    HW112074   0.267   6.258   0.013
 3725SOL    HW212075   0.378   6.372   0.049
 3726SOL     OW12076   5.190   4.471   4.345
 3726SOL    HW112077   5.244   4.411   4.405
 3726SOL    HW212078   5.224   4.565   4.352
 3727SOL     OW12079   0.299   3.007   4.336
 3727SOL    HW112080   0.377   2.958   4.374
 3727SOL    HW212081   0.293   3.098   4.377
 3728SOL     OW12082   3.181   3.309   0.538
 3728SOL    HW112083   3.252   3.360   0.585
 3728SOL    HW212084   3.199   3.211   0.547
 3729SOL     OW12085   0.742   0.592   5.274
 3729SOL    HW112086   0.651   0.556   5.254
 3729SOL    HW212087   0.779   0.636   5.192
 3730SOL     OW12088   4.531   6.752   5.717
 3730SOL    HW112089   4.557   6.733   5.811
 3730SOL    HW212090   4.432   6.752   5.708
 3731SOL     OW12091   0.470   1.373   6.540
 3731SOL    HW112092   0.492   1.373   6.637
 3731SOL    HW212093   0.372   1.389   6.528
 3732SOL     OW12094   1.933   1.658   0.167
 3732SOL    HW112095   1.882   1.707   0.097
 3732SOL    HW212096   1.968   1.572   0.128
 3733SOL     OW12097   1.786   2.831   3.861
 3733SOL    HW112098   1.704   2.788   3.822
 3733SOL    HW212099   1.859   2.762   3.868
 3734SOL     OW12100   3.994   0.406   1.464
 3734SOL    HW112101   3.969   0.479   1.528
 3734SOL    HW212102   4.082   0.367   1.491
 3735SOL     OW12103   4.126   6.819   2.253
 3735SOL    HW112104   4.116   6.896   2.316
 3735SOL    HW212105   4.052   6.823   2.185
 3736SOL     OW12106   6.264   0.834   0.688
 3736SOL    HW112107   6.320   0.818   0.769
 3736SOL    HW212108   6.167   0.826   0.712
 3737SOL     OW12109   6.226   2.435   3.520
 3737SOL    HW112110   6.250   2.531   3.533
 3737SOL    HW212111   6.290   2.392   3.457
 3738SOL     OW12112   6.799   5.690   0.788
 3738SOL    HW112113   6.888   5.726   0.814
 3738SOL    HW212114   6.756   5.646   0.867
 3739SOL     OW12115   2.668   4.746   1.807
 3739SOL    HW112116   2.703   4.761   1.715
 3739SOL    HW212117   2.728   4.682   1.856
 3740SOL     OW12118   6.114   5.926   6.485
 3740SOL    HW112119   6.095   5.894   6.392
 3740SOL    HW212120   6.092   6.023   6.493
 3741SOL     OW12121   5.258   2.599   0.338
 3741SOL    HW112122   5.208   2.611   0.252
 3741SOL    HW212123   5.241   2.677   0.398
 3742SOL     OW12124   4.661   5.778   0.402
 3742SOL    HW112125   4.742   5.795   0.347
 3742SOL    HW212126   4.623   5.865   0.433
 3743SOL     OW12127   4.361   4.168   1.426
 3743SOL    HW112128   4.282   4.213   1.467
 3743SOL    HW212129   4.345   4.154   1.328
 3744SOL     OW12130   1.360   6.617   1.858
 3744SOL    HW112131   1.332   6.550   1.788
 3744SOL    HW212132   1.456   6.643   1.842
 3745SOL     OW12133   4.917   3.425   2.297
 3745SOL    HW112134   4.904   3.435   2.198
 3745SOL    HW212135   4.831   3.395   2.338
 3746SOL     OW12136   6.578   0.101   3.261
 3746SOL    HW112137   6.597   0.177   3.324
 3746SOL    HW212138   6.536   0.025   3.312
 3747SOL     OW12139   4.541   6.712   5.993
 3747SOL    HW112140   4.488   6.793   6.019
 3747SOL    HW212141   4.604   6.689   6.066
 3748SOL     OW12142   5.851   1.282   2.391
 3748SOL    HW112143   5.792   1.343   2.338
 3748SOL    HW212144   5.795   1.210   2.431
 3749SOL     OW12145   1.028   5.256   2.476
 3749SOL    HW112146   1.087   5.328   2.439
 3749SOL    HW212147   1.068   5.219   2.560
 3750SOL     OW12148   5.593   4.498   0.750
 3750SOL    HW112149   5.540   4.441   0.687
 3750SOL    HW212150   5.688   4.468   0.751
 3751SOL     OW12151   1.247   2.907   1.137
 3751SOL    HW112152   1.184   2.978   1.105
 3751SOL    HW212153   1.250   2.907   1.237
 3752SOL     OW12154   0.260   0.615   6.580
 3752SOL    HW112155   0.341   0.558   6.593
 3752SOL    HW212156   0.178   0.563   6.604
 3753SOL     OW12157   0.796   6.709   4.801
 3753SOL    HW112158   0.741   6.660   4.734
 3753SOL    HW212159   0.884   6.734   4.760
 3754SOL     OW12160   5.455   6.369   1.147
 3754SOL    HW112161   5.468   6.466   1.127
 3754SOL    HW212162   5.358   6.349   1.156
 3755SOL     OW12163   5.453   5.508   4.104
 3755SOL    HW112164   5.402   5.559   4.173
 3755SOL    HW212165   5.503   5.434   4.149
 3756SOL     OW12166   1.998   1.265   6.251
 3756SOL    HW112167   2.023   1.279   6.347
 3756SOL    HW212168   1.900   1.277   6.240
 3757SOL     OW12169   3.524   5.959   5.519
 3757SOL    HW112170   3.611   6.004   5.497
 3757SOL    HW212171   3.460   5.973   5.443
 3758SOL     OW12172   2.324   1.020   4.602
 3758SOL    HW112173   2.312   1.098   4.539
 3758SOL    HW212174   2.272   1.037   4.685
 3759SOL     OW12175   4.874   5.362   5.482
 3759SOL    HW112176   4.963   5.360   5.528
 3759SOL    HW212177   4.802   5.380   5.549
 3760SOL     OW12178   1.318   3.461   3.537
 3760SOL    HW112179   1.324   3.514   3.622
 3760SOL    HW212180   1.294   3.366   3.559
 3761SOL     OW12181   0.772   6.654   5.357
 3761SOL    HW112182   0.820   6.664   5.270
 3761SOL    HW212183   0.676   6.632   5.339
 3762SOL     OW12184   1.175   4.228   0.161
 3762SOL    HW112185   1.268   4.191   0.152
 3762SOL    HW212186   1.175   4.325   0.137
 3763SOL     OW12187   6.897   4.301   6.998
 3763SOL    HW112188   6.809   4.347   7.005
 3763SOL    HW212189   6.889   4.208   0.010
 3764SOL     OW12190   2.015   0.727   4.711
 3764SOL    HW112191   1.953   0.717   4.789
 3764SOL    HW212192   2.102   0.683   4.731
 3765SOL     OW12193   4.733   0.905   3.414
 3765SOL    HW112194   4.724   0.883   3.317
 3765SOL    HW212195   4.795   0.983   3.425
 3766SOL     OW12196   0.605   0.693   3.879
 3766SOL    HW112197   0.636   0.768   3.937
 3766SOL    HW212198   0.683   0.651   3.833
 3767SOL     OW12199   1.616   4.934   0.311
 3767SOL    HW112200   1.689   4.926   0.243
 3767SOL    HW212201   1.603   4.847   0.358
 3768SOL     OW12202   4.041   6.397   6.732
 3768SOL    HW112203   4.046   6.402   6.632
 3768SOL    HW212204   3.971   6.332   6.758
 3769SOL     OW12205   5.834   5.892   5.253
 3769SOL    HW112206   5.914   5.845   5.215
 3769SOL    HW212207   5.750   5.849   5.218
 3770SOL     OW12208   2.400   0.907   5.999
 3770SOL    HW112209   2.423   0.844   6.073
 3770SOL    HW212210   2.302   0.924   5.998
 3771SOL     OW12211   5.386   2.105   0.488
 3771SOL    HW112212   5.382   2.182   0.424
 3771SOL    HW212213   5.465   2.047   0.465
 3772SOL     OW12214   6.279   1.071   0.938
 3772SOL    HW112215   6.185   1.099   0.916
 3772SOL    HW212216   6.278   0.978   0.974
 3773SOL     OW12217   5.665   3.177   5.749
 3773SOL    HW112218   5.668   3.092   5.696
 3773SOL    HW212219   5.706   3.251   5.695
 3774SOL     OW12220   1.414   6.914   6.363
 3774SOL    HW112221   1.356   6.949   6.289
 3774SOL    HW212222   1.362   6.909   6.448
 3775SOL     OW12223   5.463   3.978   2.842
 3775SOL    HW112224   5.501   3.909   2.780
 3775SOL    HW212225   5.364   3.965   2.848
 3776SOL     OW12226   2.366   1.881   1.945
 3776SOL    HW112227   2.291   1.900   1.881
 3776SOL    HW212228   2.332   1.824   2.020
 3777SOL     OW12229   3.088   4.844   4.775
 3777SOL    HW112230   3.140   4.760   4.761
 3777SOL    HW212231   2.999   4.822   4.815
 3778SOL     OW12232   2.500   5.879   2.477
 3778SOL    HW112233   2.554   5.810   2.429
 3778SOL    HW212234   2.551   5.910   2.558
 3779SOL     OW12235   2.626   4.650   0.190
 3779SOL    HW112236   2.666   4.601   0.267
 3779SOL    HW212237   2.696   4.664   0.119
 3780SOL     OW12238   3.971   5.395   4.621
 3780SOL    HW112239   3.944   5.415   4.527
 3780SOL    HW212240   3.958   5.297   4.640
 3781SOL     OW12241   2.058   6.499   3.852
 3781SOL    HW112242   1.982   6.440   3.825
 3781SOL    HW212243   2.023   6.584   3.892
 3782SOL     OW12244   2.647   2.194   4.464
 3782SOL    HW112245   2.679   2.250   4.388
 3782SOL    HW212246   2.663   2.242   4.550
 3783SOL     OW12247   6.769   6.925   5.255
 3783SOL    HW112248   6.759   0.001   5.272
 3783SOL    HW212249   6.850   6.891   5.303
 3784SOL     OW12250   5.419   1.631   3.775
 3784SOL    HW112251   5.474   1.548   3.780
 3784SOL    HW212252   5.478   1.711   3.776
 3785SOL     OW12253   2.637   1.776   0.746
 3785SOL    HW112254   2.570   1.780   0.820
 3785SOL    HW212255   2.650   1.867   0.707
 3786SOL     OW12256   3.264   4.903   4.175
 3786SOL    HW112257   3.332   4.973   4.197
 3786SOL    HW212258   3.310   4.825   4.132
 3787SOL     OW12259   5.508   0.595   4.424
 3787SOL    HW112260   5.580   0.579   4.357
 3787SOL    HW212261   5.549   0.618   4.513
 3788SOL     OW12262   6.269   3.385   3.700
 3788SOL    HW112263   6.208   3.452   3.656
 3788SOL    HW212264   6.333   3.433   3.760
 3789SOL     OW12265   1.344   4.138   4.189
 3789SOL    HW112266   1.302   4.050   4.211
 3789SOL    HW212267   1.444   4.129   4.189
 3790SOL     OW12268   2.078   3.918   4.642
 3790SOL    HW112269   2.052   3.905   4.546
 3790SOL    HW212270   2.110   3.831   4.680
 3791SOL     OW12271   5.371   6.822   1.238
 3791SOL    HW112272   5.343   6.763   1.314
 3791SOL    HW212273   5.316   6.906   1.239
 3792SOL     OW12274   6.600   0.569   4.964
 3792SOL    HW112275   6.655   0.554   5.046
 3792SOL    HW212276   6.564   0.663   4.964
 3793SOL     OW12277   2.157   1.056   2.810
 3793SOL    HW112278   2.110   1.079   2.725
 3793SOL    HW212279   2.153   1.135   2.871
 3794SOL     OW12280   3.826   5.453   2.114
 3794SOL    HW112281   3.903   5.418   2.168
 3794SOL    HW212282   3.757   5.381   2.104
 3795SOL     OW12283   4.770   6.944   6.846
 3795SOL    HW112284   4.829   6.883   6.898
 3795SOL    HW212285   4.796   6.942   6.749
 3796SOL     OW12286   1.433   1.608   1.784
 3796SOL    HW112287   1.390   1.679   1.729
 3796SOL    HW212288   1.377   1.587   1.864
 3797SOL     OW12289   6.813   5.589   2.158
 3797SOL    HW112290   6.739   5.656   2.150
 3797SOL    HW212291   6.794   5.528   2.235
 3798SOL     OW12292   2.608   4.573   3.116
 3798SOL    HW112293   2.660   4.580   3.031
 3798SOL    HW212294   2.535   4.505   3.106
 3799SOL     OW12295   1.338   1.434   4.950
 3799SOL    HW112296   1.385   1.447   5.037
 3799SOL    HW212297   1.400   1.392   4.884
 3800SOL     OW12298   5.015   2.535   4.952
 3800SOL    HW112299   5.011   2.534   5.052
 3800SOL    HW212300   4.984   2.624   4.919
 3801SOL     OW12301   6.294   6.091   5.363
 3801SOL    HW112302   6.250   6.178   5.384
 3801SOL    HW212303   6.225   6.026   5.329
 3802SOL     OW12304   1.088   2.337   5.199
 3802SOL    HW112305   1.111   2.249   5.242
 3802SOL    HW212306   1.124   2.412   5.255
 3803SOL     OW12307   4.503   0.630   2.340
 3803SOL    HW112308   4.584   0.686   2.356
 3803SOL    HW212309   4.524   0.534   2.362
 3804SOL     OW12310   4.381   1.887   4.901
 3804SOL    HW112311   4.403   1.932   4.815
 3804SOL    HW212312   4.288   1.911   4.929
 3805SOL     OW12313   3.262   4.053   1.670
 3805SOL    HW112314   3.295   4.068   1.763
 3805SOL    HW212315   3.260   3.955   1.650
 3806SOL     OW12316   2.892   2.637   6.898
 3806SOL    HW112317   2.922   2.645   6.993
 3806SOL    HW212318   2.951   2.571   6.850
 3807SOL     OW12319   1.225   0.431   4.532
 3807SOL    HW112320   1.292   0.400   4.600
 3807SOL    HW212321   1.218   0.531   4.536
 3808SOL     OW12322   3.363   0.408   2.590
 3808SOL    HW112323   3.306   0.326   2.589
 3808SOL    HW212324   3.336   0.469   2.516
 3809SOL     OW12325   6.023   2.138   6.786
 3809SOL    HW112326   6.095   2.092   6.839
 3809SOL    HW212327   5.935   2.097   6.806
 3810SOL     OW12328   3.679   3.680   5.638
 3810SOL    HW112329   3.618   3.627   5.579
 3810SOL    HW212330   3.682   3.775   5.606
 3811SOL     OW12331   0.462   4.069   4.391
 3811SOL    HW112332   0.444   4.081   4.488
 3811SOL    HW212333   0.379   4.036   4.346
 3812SOL     OW12334   6.132   1.835   5.960
 3812SOL    HW112335   6.131   1.881   6.049
 3812SOL    HW212336   6.055   1.866   5.905
 3813SOL     OW12337   3.896   5.064   1.291
 3813SOL    HW112338   3.980   5.047   1.343
 3813SOL    HW212339   3.841   4.981   1.290
 3814SOL     OW12340   0.191   5.894   1.094
 3814SOL    HW112341   0.137   5.977   1.080
 3814SOL    HW212342   0.182   5.863   1.188
 3815SOL     OW12343   4.922   2.076   1.007
 3815SOL    HW112344   4.977   2.141   1.059
 3815SOL    HW212345   4.833   2.064   1.052
 3816SOL     OW12346   6.688   6.344   1.877
 3816SOL    HW112347   6.746   6.277   1.830
 3816SOL    HW212348   6.727   6.435   1.865
 3817SOL     OW12349   4.624   2.264   4.211
 3817SOL    HW112350   4.668   2.221   4.290
 3817SOL    HW212351   4.584   2.351   4.238
 3818SOL     OW12352   4.535   6.647   2.556
 3818SOL    HW112353   4.585   6.695   2.628
 3818SOL    HW212354   4.437   6.645   2.578
 3819SOL     OW12355   5.889   5.637   0.239
 3819SOL    HW112356   5.862   5.684   0.323
 3819SOL    HW212357   5.810   5.624   0.180
 3820SOL     OW12358   6.063   5.927   3.691
 3820SOL    HW112359   6.084   6.017   3.654
 3820SOL    HW212360   6.010   5.875   3.625
 3821SOL     OW12361   1.828   3.542   1.851
 3821SOL    HW112362   1.773   3.470   1.808
 3821SOL    HW212363   1.922   3.536   1.817
 3822SOL     OW12364   1.736   5.262   2.142
 3822SOL    HW112365   1.711   5.192   2.075
 3822SOL    HW212366   1.782   5.219   2.219
 3823SOL     OW12367   3.845   2.064   5.011
 3823SOL    HW112368   3.751   2.047   4.980
 3823SOL    HW212369   3.856   2.030   5.105
 3824SOL     OW12370   6.000   2.149   5.843
 3824SOL    HW112371   6.048   2.172   5.928
 3824SOL    HW212372   6.063   2.102   5.781
 3825SOL     OW12373   6.749   0.402   6.979
 3825SOL    HW112374   6.717   0.361   0.042
 3825SOL    HW212375   6.673   0.448   6.934
 3826SOL     OW12376   0.182   3.797   0.694
 3826SOL    HW112377   0.248   3.766   0.763
 3826SOL    HW212378   0.230   3.819   0.610
 3827SOL     OW12379   3.733   4.372   0.939
 3827SOL    HW112380   3.822   4.416   0.923
 3827SOL    HW212381   3.699   4.333   0.854
 3828SOL     OW12382   4.650   2.103   1.069
 3828SOL    HW112383   4.601   2.190   1.071
 3828SOL    HW212384   4.599   2.037   1.014
 3829SOL     OW12385   2.379   5.255   3.571
 3829SOL    HW112386   2.424   5.258   3.660
 3829SOL    HW212387   2.397   5.167   3.527
 3830SOL     OW12388   1.721   0.416   5.137
 3830SOL    HW112389   1.691   0.336   5.189
 3830SOL    HW212390   1.774   0.477   5.196
 3831SOL     OW12391   3.830   1.608   2.430
 3831SOL    HW112392   3.741   1.565   2.421
 3831SOL    HW212393   3.899   1.551   2.385
 3832SOL     OW12394   6.437   1.182   1.674
 3832SOL    HW112395   6.503   1.257   1.680
 3832SOL    HW212396   6.477   1.100   1.715
 3833SOL     OW12397   0.739   4.806   0.435
 3833SOL    HW112398   0.669   4.742   0.467
 3833SOL    HW212399   0.698   4.897   0.421
 3834SOL     OW12400   2.729   2.009   0.628
 3834SOL    HW112401   2.704   2.088   0.572
 3834SOL    HW212402   2.828   2.005   0.638
 3835SOL     OW12403   3.806   5.678   5.590
 3835SOL    HW112404   3.821   5.777   5.583
 3835SOL    HW212405   3.852   5.633   5.513
 3836SOL     OW12406   1.933   3.980   5.798
 3836SOL    HW112407   1.946   3.900   5.740
 3836SOL    HW212408   1.940   4.063   5.743
 3837SOL     OW12409   4.454   3.589   0.142
 3837SOL    HW112410   4.398   3.540   0.075
 3837SOL    HW212411   4.491   3.524   0.208
 3838SOL     OW12412   5.255   2.311   4.318
 3838SOL    HW112413   5.258   2.263   4.406
 3838SOL    HW212414   5.313   2.262   4.253
 3839SOL     OW12415   5.893   6.961   5.384
 3839SOL    HW112416   5.839   6.908   5.450
 3839SOL    HW212417   5.926   6.900   5.311
 3840SOL     OW12418   1.190   0.956   4.785
 3840SOL    HW112419   1.261   1.002   4.730
 3840SOL    HW212420   1.105   1.008   4.780
 3841SOL     OW12421   1.076   4.163   4.941
 3841SOL    HW112422   1.109   4.239   4.886
 3841SOL    HW212423   1.120   4.078   4.912
 3842SOL     OW12424   0.483   5.356   6.926
 3842SOL    HW112425   0.456   5.272   6.878
 3842SOL    HW212426   0.553   5.333   6.994
 3843SOL     OW12427   6.649   3.242   0.396
 3843SOL    HW112428   6.705   3.249   0.478
 3843SOL    HW212429   6.702   3.270   0.316
 3844SOL     OW12430   1.832   5.417   5.801
 3844SOL    HW112431   1.769   5.341   5.818
 3844SOL    HW212432   1.845   5.428   5.702
 3845SOL     OW12433   3.914   2.979   3.305
 3845SOL    HW112434   3.976   2.901   3.308
 3845SOL    HW212435   3.910   3.014   3.211
 3846SOL     OW12436   6.776   4.532   3.974
 3846SOL    HW112437   6.808   4.622   3.943
 3846SOL    HW212438   6.842   4.462   3.947
 3847SOL     OW12439   6.713   0.877   6.360
 3847SOL    HW112440   6.729   0.976   6.354
 3847SOL    HW212441   6.793   0.828   6.327
 3848SOL     OW12442   2.203   5.265   2.275
 3848SOL    HW112443   2.235   5.334   2.341
 3848SOL    HW212444   2.146   5.310   2.206
 3849SOL     OW12445   0.722   1.450   5.428
 3849SOL    HW112446   0.634   1.497   5.430
 3849SOL    HW212447   0.725   1.390   5.348
 3850SOL     OW12448   2.959   3.812   1.981
 3850SOL    HW112449   3.010   3.744   1.929
 3850SOL    HW212450   2.957   3.787   2.078
 3851SOL     OW12451   2.145   3.712   3.323
 3851SOL    HW112452   2.176   3.780   3.258
 3851SOL    HW212453   2.168   3.741   3.416
 3852SOL     OW12454   4.745   1.213   4.787
 3852SOL    HW112455   4.660   1.164   4.807
 3852SOL    HW212456   4.796   1.228   4.872
 3853SOL     OW12457   1.077   3.251   2.220
 3853SOL    HW112458   1.006   3.186   2.193
 3853SOL    HW212459   1.124   3.216   2.302
 3854SOL     OW12460   1.154   3.174   4.256
 3854SOL    HW112461   1.186   3.261   4.294
 3854SOL    HW212462   1.084   3.135   4.317
 3855SOL     OW12463   6.150   4.456   5.755
 3855SOL    HW112464   6.153   4.377   5.695
 3855SOL    HW212465   6.056   4.489   5.761
 3856SOL     OW12466   6.723   0.153   6.043
 3856SOL    HW112467   6.780   0.140   5.962
 3856SOL    HW212468   6.677   0.241   6.037
 3857SOL     OW12469   0.702   6.511   5.006
 3857SOL    HW112470   0.680   6.557   4.920
 3857SOL    HW212471   0.760   6.432   4.988
 3858SOL     OW12472   1.336   5.864   6.188
 3858SOL    HW112473   1.358   5.881   6.092
 3858SOL    HW212474   1.343   5.766   6.207
 3859SOL     OW12475   0.133   2.733   3.532
 3859SOL    HW112476   0.131   2.668   3.455
 3859SOL    HW212477   0.220   2.782   3.531
 3860SOL     OW12478   2.250   5.711   5.677
 3860SOL    HW112479   2.293   5.679   5.761
 3860SOL    HW212480   2.191   5.639   5.640
 3861SOL     OW12481   4.857   4.735   1.593
 3861SOL    HW112482   4.800   4.725   1.674
 3861SOL    HW212483   4.903   4.648   1.573
 3862SOL     OW12484   0.792   6.724   5.967
 3862SOL    HW112485   0.868   6.673   6.007
 3862SOL    HW212486   0.728   6.751   6.039
 3863SOL     OW12487   3.373   3.661   1.078
 3863SOL    HW112488   3.339   3.727   1.011
 3863SOL    HW212489   3.321   3.576   1.070
 3864SOL     OW12490   3.708   1.607   6.403
 3864SOL    HW112491   3.746   1.693   6.369
 3864SOL    HW212492   3.776   1.560   6.459
 3865SOL     OW12493   3.916   0.532   2.008
 3865SOL    HW112494   3.983   0.573   1.946
 3865SOL    HW212495   3.964   0.479   2.078
 3866SOL     OW12496   3.668   6.863   1.085
 3866SOL    HW112497   3.702   6.771   1.102
 3866SOL    HW212498   3.578   6.859   1.041
 3867SOL     OW12499   2.092   3.498   3.173
 3867SOL    HW112500   2.140   3.567   3.227
 3867SOL    HW212501   2.116   3.407   3.206
 3868SOL     OW12502   2.803   6.951   1.838
 3868SOL    HW112503   2.805   6.854   1.863
 3868SOL    HW212504   2.775   7.005   1.917
 3869SOL     OW12505   0.460   2.765   3.449
 3869SOL    HW112506   0.418   2.846   3.491
 3869SOL    HW212507   0.478   2.696   3.520
 3870SOL     OW12508   2.978   5.432   0.058
 3870SOL    HW112509   3.049   5.363   0.054
 3870SOL    HW212510   2.994   5.501   7.010
 3871SOL     OW12511   3.170   6.888   2.989
 3871SOL    HW112512   3.182   6.934   2.901
 3871SOL    HW212513   3.134   6.952   3.056
 3872SOL     OW12514   4.066   4.053   1.221
 3872SOL    HW112515   4.156   4.083   1.190
 3872SOL    HW212516   4.045   4.097   1.309
 3873SOL     OW12517   5.447   4.932   1.647
 3873SOL    HW112518   5.444   4.832   1.643
 3873SOL    HW212519   5.354   4.968   1.643
 3874SOL     OW12520   3.831   6.551   0.410
 3874SOL    HW112521   3.926   6.574   0.430
 3874SOL    HW212522   3.827   6.479   0.340
 3875SOL     OW12523   1.566   4.167   1.368
 3875SOL    HW112524   1.494   4.132   1.428
 3875SOL    HW212525   1.594   4.096   1.304
 3876SOL     OW12526   5.554   4.261   4.623
 3876SOL    HW112527   5.563   4.251   4.722
 3876SOL    HW212528   5.457   4.263   4.598
 3877SOL     OW12529   6.129   1.166   2.683
 3877SOL    HW112530   6.199   1.135   2.747
 3877SOL    HW212531   6.096   1.088   2.629
 3878SOL     OW12532   4.030   6.872   6.326
 3878SOL    HW112533   4.070   6.785   6.298
 3878SOL    HW212534   4.070   6.946   6.274
 3879SOL     OW12535   3.971   5.331   1.836
 3879SOL    HW112536   3.911   5.313   1.759
 3879SOL    HW212537   3.924   5.390   1.902
 3880SOL     OW12538   5.768   3.279   3.166
 3880SOL    HW112539   5.795   3.234   3.081
 3880SOL    HW212540   5.765   3.212   3.240
 3881SOL     OW12541   1.034   4.540   0.667
 3881SOL    HW112542   1.006   4.632   0.695
 3881SOL    HW212543   0.957   4.477   0.678
 3882SOL     OW12544   6.715   1.329   5.724
 3882SOL    HW112545   6.731   1.413   5.671
 3882SOL    HW212546   6.617   1.308   5.723
 3883SOL     OW12547   4.054   0.670   4.474
 3883SOL    HW112548   4.126   0.601   4.484
 3883SOL    HW212549   3.973   0.628   4.432
 3884SOL     OW12550   1.708   5.844   5.567
 3884SOL    HW112551   1.800   5.810   5.549
 3884SOL    HW212552   1.689   5.922   5.506
 3885SOL     OW12553   6.558   1.008   3.692
 3885SOL    HW112554   6.633   1.000   3.626
 3885SOL    HW212555   6.591   0.984   3.783
 3886SOL     OW12556   6.949   7.014   4.962
 3886SOL    HW112557   6.937   6.978   5.055
 3886SOL    HW212558   0.020   6.999   4.932
 3887SOL     OW12559   4.408   1.832   5.729
 3887SOL    HW112560   4.351   1.798   5.804
 3887SOL    HW212561   4.503   1.808   5.746
 3888SOL     OW12562   6.638   1.418   0.870
 3888SOL    HW112563   6.548   1.412   0.828
 3888SOL    HW212564   6.645   1.354   0.946
 3889SOL     OW12565   0.815   6.334   6.431
 3889SOL    HW112566   0.827   6.300   6.337
 3889SOL    HW212567   0.808   6.434   6.429
 3890SOL     OW12568   5.942   5.110   3.290
 3890SOL    HW112569   5.999   5.166   3.230
 3890SOL    HW212570   5.884   5.050   3.234
 3891SOL     OW12571   5.327   5.107   5.042
 3891SOL    HW112572   5.399   5.171   5.069
 3891SOL    HW212573   5.331   5.092   4.943
 3892SOL     OW12574   5.630   6.650   2.889
 3892SOL    HW112575   5.616   6.592   2.809
 3892SOL    HW212576   5.726   6.679   2.892
 3893SOL     OW12577   3.413   5.697   4.486
 3893SOL    HW112578   3.337   5.734   4.433
 3893SOL    HW212579   3.461   5.628   4.431
 3894SOL     OW12580   4.545   3.844   0.199
 3894SOL    HW112581   4.507   3.895   0.276
 3894SOL    HW212582   4.476   3.782   0.163
 3895SOL     OW12583   2.675   1.934   5.759
 3895SOL    HW112584   2.612   1.862   5.787
 3895SOL    HW212585   2.636   2.023   5.783
 3896SOL     OW12586   6.954   3.082   5.504
 3896SOL    HW112587   0.018   3.069   5.457
 3896SOL    HW212588   6.971   3.121   5.595
 3897SOL     OW12589   3.691   0.074   2.094
 3897SOL    HW112590   3.719   0.101   2.186
 3897SOL    HW212591   3.610   0.128   2.067
 3898SOL     OW12592   4.047   3.844   3.950
 3898SOL    HW112593   4.100   3.929   3.944
 3898SOL    HW212594   4.029   3.824   4.047
 3899SOL     OW12595   4.672   1.760   5.711
 3899SOL    HW112596   4.730   1.744   5.631
 3899SOL    HW212597   4.729   1.788   5.789
 3900SOL     OW12598   6.374   2.470   3.198
 3900SOL    HW112599   6.333   2.555   3.166
 3900SOL    HW212600   6.456   2.450   3.144
 3901SOL     OW12601   1.715   6.921   5.395
 3901SOL    HW112602   1.625   6.923   5.350
 3901SOL    HW212603   1.739   7.013   5.425
 3902SOL     OW12604   4.276   5.043   1.334
 3902SOL    HW112605   4.204   5.034   1.403
 3902SOL    HW212606   4.281   4.959   1.280
 3903SOL     OW12607   4.420   2.927   6.690
 3903SOL    HW112608   4.374   2.907   6.776
 3903SOL    HW212609   4.506   2.875   6.685
 3904SOL     OW12610   1.193   6.113   0.694
 3904SOL    HW112611   1.194   6.061   0.609
 3904SOL    HW212612   1.204   6.051   0.772
 3905SOL     OW12613   6.838   0.519   5.472
 3905SOL    HW112614   6.843   0.588   5.544
 3905SOL    HW212615   6.818   0.430   5.512
 3906SOL     OW12616   1.743   4.819   4.126
 3906SOL    HW112617   1.767   4.799   4.031
 3906SOL    HW212618   1.825   4.847   4.176
 3907SOL     OW12619   6.858   1.418   3.635
 3907SOL    HW112620   6.880   1.431   3.732
 3907SOL    HW212621   6.766   1.382   3.626
 3908SOL     OW12622   1.226   0.516   5.090
 3908SOL    HW112623   1.170   0.435   5.107
 3908SOL    HW212624   1.217   0.543   4.995
 3909SOL     OW12625   5.719   3.071   6.641
 3909SOL    HW112626   5.624   3.087   6.615
 3909SOL    HW212627   5.729   3.085   6.740
 3910SOL     OW12628   3.393   1.857   0.168
 3910SOL    HW112629   3.417   1.790   0.239
 3910SOL    HW212630   3.319   1.820   0.112
 3911SOL     OW12631   6.703   0.867   0.876
 3911SOL    HW112632   6.687   0.845   0.973
 3911SOL    HW212633   6.693   0.966   0.862
 3912SOL     OW12634   4.199   1.463   0.669
 3912SOL    HW112635   4.194   1.481   0.767
 3912SOL    HW212636   4.223   1.368   0.653
 3913SOL     OW12637   4.986   5.112   0.467
 3913SOL    HW112638   4.990   5.208   0.494
 3913SOL    HW212639   4.996   5.054   0.548
 3914SOL     OW12640   5.981   1.264   0.592
 3914SOL    HW112641   5.995   1.231   0.498
 3914SOL    HW212642   6.064   1.310   0.623
 3915SOL     OW12643   4.375   5.343   6.663
 3915SOL    HW112644   4.339   5.397   6.588
 3915SOL    HW212645   4.300   5.317   6.724
 3916SOL     OW12646   1.895   1.810   2.006
 3916SOL    HW112647   1.955   1.731   2.013
 3916SOL    HW212648   1.802   1.780   1.983
 3917SOL     OW12649   2.873   5.190   0.948
 3917SOL    HW112650   2.805   5.133   0.996
 3917SOL    HW212651   2.938   5.228   1.014
 3918SOL     OW12652   5.168   0.543   0.797
 3918SOL    HW112653   5.249   0.601   0.807
 3918SOL    HW212654   5.127   0.558   0.707
 3919SOL     OW12655   3.386   0.659   2.091
 3919SOL    HW112656   3.412   0.588   2.156
 3919SOL    HW212657   3.426   0.639   2.001
 3920SOL     OW12658   2.980   1.338   5.586
 3920SOL    HW112659   2.931   1.254   5.609
 3920SOL    HW212660   3.077   1.326   5.605
 3921SOL     OW12661   0.427   2.895   6.084
 3921SOL    HW112662   0.486   2.869   6.008
 3921SOL    HW212663   0.427   2.994   6.094
 3922SOL     OW12664   5.448   4.551   3.051
 3922SOL    HW112665   5.413   4.645   3.044
 3922SOL    HW212666   5.409   4.495   2.978
 3923SOL     OW12667   5.802   1.023   1.223
 3923SOL    HW112668   5.869   0.996   1.293
 3923SOL    HW212669   5.849   1.070   1.148
 3924SOL     OW12670   5.629   5.058   4.587
 3924SOL    HW112671   5.638   4.973   4.536
 3924SOL    HW212672   5.541   5.100   4.567
 3925SOL     OW12673   4.649   3.714   0.823
 3925SOL    HW112674   4.691   3.649   0.887
 3925SOL    HW212675   4.624   3.797   0.872
 3926SOL     OW12676   0.612   6.807   6.183
 3926SOL    HW112677   0.649   6.784   6.273
 3926SOL    HW212678   0.568   6.897   6.187
 3927SOL     OW12679   5.972   2.994   5.038
 3927SOL    HW112680   5.993   3.081   5.082
 3927SOL    HW212681   5.898   3.007   4.971
 3928SOL     OW12682   2.584   6.307   2.256
 3928SOL    HW112683   2.491   6.271   2.262
 3928SOL    HW212684   2.644   6.256   2.318
 3929SOL     OW12685   0.286   2.396   5.063
 3929SOL    HW112686   0.254   2.425   4.972
 3929SOL    HW212687   0.210   2.354   5.113
 3930SOL     OW12688   0.470   4.080   3.704
 3930SOL    HW112689   0.465   4.167   3.755
 3930SOL    HW212690   0.564   4.045   3.707
 3931SOL     OW12691   1.828   2.231   1.531
 3931SOL    HW112692   1.870   2.283   1.605
 3931SOL    HW212693   1.736   2.202   1.559
 3932SOL     OW12694   2.306   5.530   4.081
 3932SOL    HW112695   2.320   5.629   4.078
 3932SOL    HW212696   2.380   5.488   4.134
 3933SOL     OW12697   2.157   5.333   1.355
 3933SOL    HW112698   2.250   5.298   1.352
 3933SOL    HW212699   2.096   5.263   1.393
 3934SOL     OW12700   0.720   1.409   0.996
 3934SOL    HW112701   0.771   1.427   1.081
 3934SOL    HW212702   0.638   1.465   0.994
 3935SOL     OW12703   6.170   3.442   6.830
 3935SOL    HW112704   6.155   3.450   6.731
 3935SOL    HW212705   6.248   3.500   6.856
 3936SOL     OW12706   0.837   4.985   5.301
 3936SOL    HW112707   0.769   4.942   5.242
 3936SOL    HW212708   0.797   5.004   5.391
 3937SOL     OW12709   0.063   0.020   2.283
 3937SOL    HW112710   6.997   7.019   2.243
 3937SOL    HW212711   0.134   0.010   2.213
 3938SOL     OW12712   0.442   4.194   2.694
 3938SOL    HW112713   0.390   4.277   2.712
 3938SOL    HW212714   0.477   4.157   2.781
 3939SOL     OW12715   1.461   1.118   2.174
 3939SOL    HW112716   1.505   1.180   2.109
 3939SOL    HW212717   1.362   1.132   2.171
 3940SOL     OW12718   3.465   5.487   1.938
 3940SOL    HW112719   3.457   5.572   1.990
 3940SOL    HW212720   3.461   5.507   1.840
 3941SOL     OW12721   5.321   6.577   3.296
 3941SOL    HW112722   5.412   6.606   3.267
 3941SOL    HW212723   5.303   6.613   3.388
 3942SOL     OW12724   6.881   5.779   5.578
 3942SOL    HW112725   6.967   5.742   5.543
 3942SOL    HW212726   6.887   5.792   5.676
 3943SOL     OW12727   1.573   2.416   6.865
 3943SOL    HW112728   1.527   2.488   6.918
 3943SOL    HW212729   1.609   2.347   6.928
 3944SOL     OW12730   5.719   2.393   6.983
 3944SOL    HW112731   5.819   2.389   6.981
 3944SOL    HW212732   5.689   2.485   7.008
 3945SOL     OW12733   6.279   0.390   3.452
 3945SOL    HW112734   6.255   0.376   3.548
 3945SOL    HW212735   6.374   0.420   3.445
 3946SOL     OW12736   1.093   2.914   0.720
 3946SOL    HW112737   1.137   2.824   0.726
 3946SOL    HW212738   0.994   2.903   0.728
 3947SOL     OW12739   5.637   4.890   2.175
 3947SOL    HW112740   5.716   4.924   2.125
 3947SOL    HW212741   5.556   4.894   2.117
 3948SOL     OW12742   1.106   2.492   6.058
 3948SOL    HW112743   1.180   2.516   6.121
 3948SOL    HW212744   1.077   2.398   6.075
 3949SOL     OW12745   5.787   6.556   2.265
 3949SOL    HW112746   5.872   6.566   2.214
 3949SOL    HW212747   5.802   6.582   2.361
 3950SOL     OW12748   2.873   4.574   1.589
 3950SOL    HW112749   2.874   4.532   1.680
 3950SOL    HW212750   2.814   4.519   1.528
 3951SOL     OW12751   0.784   2.738   5.372
 3951SOL    HW112752   0.726   2.817   5.393
 3951SOL    HW212753   0.737   2.654   5.398
 3952SOL     OW12754   5.870   3.626   6.119
 3952SOL    HW112755   5.844   3.679   6.199
 3952SOL    HW212756   5.935   3.555   6.145
 3953SOL     OW12757   3.476   4.042   6.599
 3953SOL    HW112758   3.457   3.994   6.513
 3953SOL    HW212759   3.467   4.140   6.585
 3954SOL     OW12760   0.586   3.286   5.446
 3954SOL    HW112761   0.664   3.321   5.395
 3954SOL    HW212762   0.507   3.278   5.385
 3955SOL     OW12763   6.483   4.857   0.152
 3955SOL    HW112764   6.527   4.936   0.195
 3955SOL    HW212765   6.534   4.774   0.173
 3956SOL     OW12766   1.105   3.077   5.546
 3956SOL    HW112767   1.097   2.999   5.484
 3956SOL    HW212768   1.014   3.101   5.582
 3957SOL     OW12769   1.086   1.169   2.471
 3957SOL    HW112770   1.119   1.123   2.553
 3957SOL    HW212771   1.002   1.220   2.493
 3958SOL     OW12772   5.395   6.650   5.278
 3958SOL    HW112773   5.463   6.714   5.314
 3958SOL    HW212774   5.303   6.689   5.288
 3959SOL     OW12775   2.261   4.912   0.480
 3959SOL    HW112776   2.356   4.891   0.504
 3959SOL    HW212777   2.201   4.890   0.558
 3960SOL     OW12778   4.240   3.329   0.366
 3960SOL    HW112779   4.226   3.275   0.283
 3960SOL    HW212780   4.153   3.365   0.398
 3961SOL     OW12781   5.789   1.001   2.220
 3961SOL    HW112782   5.817   1.097   2.216
 3961SOL    HW212783   5.689   0.995   2.210
 3962SOL     OW12784   0.541   0.307   6.421
 3962SOL    HW112785   0.627   0.349   6.393
 3962SOL    HW212786   0.560   0.222   6.471
 3963SOL     OW12787   5.290   5.924   3.324
 3963SOL    HW112788   5.253   5.958   3.237
 3963SOL    HW212789   5.356   5.851   3.305
 3964SOL     OW12790   5.597   6.406   5.214
 3964SOL    HW112791   5.543   6.418   5.297
 3964SOL    HW212792   5.632   6.312   5.210
 3965SOL     OW12793   4.017   3.529   7.020
 3965SOL    HW112794   3.948   3.511   0.068
 3965SOL    HW212795   3.994   3.613   6.972
 3966SOL     OW12796   5.601   3.618   5.151
 3966SOL    HW112797   5.551   3.583   5.072
 3966SOL    HW212798   5.594   3.553   5.226
 3967SOL     OW12799   0.622   5.549   6.185
 3967SOL    HW112800   0.552   5.545   6.113
 3967SOL    HW212801   0.711   5.525   6.146
 3968SOL     OW12802   5.915   0.305   1.657
 3968SOL    HW112803   5.836   0.365   1.672
 3968SOL    HW212804   5.943   0.265   1.744
 3969SOL     OW12805   0.247   5.286   1.763
 3969SOL    HW112806   0.191   5.266   1.844
 3969SOL    HW212807   0.188   5.308   1.686
 3970SOL     OW12808   4.977   4.697   3.252
 3970SOL    HW112809   4.955   4.619   3.312
 3970SOL    HW212810   4.995   4.778   3.308
 3971SOL     OW12811   1.541   5.352   3.765
 3971SOL    HW112812   1.635   5.331   3.738
 3971SOL    HW212813   1.486   5.367   3.682
 3972SOL     OW12814   1.462   6.818   0.383
 3972SOL    HW112815   1.459   6.802   0.481
 3972SOL    HW212816   1.494   6.736   0.336
 3973SOL     OW12817   2.934   3.454   3.859
 3973SOL    HW112818   2.985   3.393   3.798
 3973SOL    HW212819   2.843   3.471   3.821
 3974SOL     OW12820   6.029   1.804   6.577
 3974SOL    HW112821   5.942   1.774   6.538
 3974SOL    HW212822   6.098   1.733   6.566
 3975SOL     OW12823   6.968   1.201   5.946
 3975SOL    HW112824   6.905   1.226   5.873
 3975SOL    HW212825   0.028   1.160   5.906
 3976SOL     OW12826   0.987   3.497   0.151
 3976SOL    HW112827   1.023   3.451   0.070
 3976SOL    HW212828   0.925   3.571   0.124
 3977SOL     OW12829   3.993   6.017   6.543
 3977SOL    HW112830   4.004   6.047   6.638
 3977SOL    HW212831   3.904   6.046   6.509
 3978SOL     OW12832   5.881   3.339   6.564
 3978SOL    HW112833   5.892   3.267   6.495
 3978SOL    HW212834   5.853   3.297   6.651
 3979SOL     OW12835   0.877   6.837   3.103
 3979SOL    HW112836   0.786   6.806   3.075
 3979SOL    HW212837   0.946   6.779   3.062
 3980SOL     OW12838   5.153   2.779   4.182
 3980SOL    HW112839   5.172   2.869   4.221
 3980SOL    HW212840   5.056   2.774   4.155
 3981SOL     OW12841   6.624   2.203   6.459
 3981SOL    HW112842   6.683   2.125   6.434
 3981SOL    HW212843   6.544   2.204   6.399
 3982SOL     OW12844   2.500   1.907   3.839
 3982SOL    HW112845   2.420   1.855   3.867
 3982SOL    HW212846   2.549   1.941   3.920
 3983SOL     OW12847   3.299   6.191   4.331
 3983SOL    HW112848   3.261   6.219   4.243
 3983SOL    HW212849   3.224   6.175   4.396
 3984SOL     OW12850   1.727   6.590   1.728
 3984SOL    HW112851   1.748   6.612   1.633
 3984SOL    HW212852   1.709   6.674   1.779
 3985SOL     OW12853   2.019   2.740   1.651
 3985SOL    HW112854   2.012   2.674   1.726
 3985SOL    HW212855   2.098   2.800   1.667
 3986SOL     OW12856   0.615   2.484   1.943
 3986SOL    HW112857   0.536   2.538   1.915
 3986SOL    HW212858   0.607   2.391   1.907
 3987SOL     OW12859   2.512   4.479   6.791
 3987SOL    HW112860   2.481   4.396   6.745
 3987SOL    HW212861   2.468   4.486   6.880
 3988SOL     OW12862   3.696   2.746   0.651
 3988SOL    HW112863   3.678   2.661   0.601
 3988SOL    HW212864   3.725   2.817   0.588
 3989SOL     OW12865   5.118   6.772   6.562
 3989SOL    HW112866   5.033   6.743   6.518
 3989SOL    HW212867   5.099   6.801   6.656
 3990SOL     OW12868   0.994   2.959   3.644
 3990SOL    HW112869   0.903   3.002   3.640
 3990SOL    HW212870   1.039   2.983   3.730
 3991SOL     OW12871   0.415   1.680   4.248
 3991SOL    HW112872   0.481   1.755   4.254
 3991SOL    HW212873   0.441   1.620   4.173
 3992SOL     OW12874   4.311   3.730   6.517
 3992SOL    HW112875   4.322   3.768   6.609
 3992SOL    HW212876   4.291   3.632   6.524
 3993SOL     OW12877   2.541   2.407   2.666
 3993SOL    HW112878   2.492   2.456   2.739
 3993SOL    HW212879   2.589   2.473   2.608
 3994SOL     OW12880   2.389   2.741   3.613
 3994SOL    HW112881   2.445   2.728   3.695
 3994SOL    HW212882   2.307   2.684   3.619
 3995SOL     OW12883   2.092   3.600   2.434
 3995SOL    HW112884   2.100   3.631   2.528
 3995SOL    HW212885   2.083   3.500   2.432
 3996SOL     OW12886   6.014   0.717   3.145
 3996SOL    HW112887   6.081   0.645   3.163
 3996SOL    HW212888   6.053   0.784   3.082
 3997SOL     OW12889   5.770   3.936   2.813
 3997SOL    HW112890   5.684   3.988   2.812
 3997SOL    HW212891   5.750   3.840   2.791
 3998SOL     OW12892   6.235   1.845   3.050
 3998SOL    HW112893   6.141   1.813   3.044
 3998SOL    HW212894   6.253   1.910   2.976
 3999SOL     OW12895   5.385   3.211   2.639
 3999SOL    HW112896   5.315   3.150   2.602
 3999SOL    HW212897   5.454   3.230   2.569
 4000SOL     OW12898   2.882   5.838   2.089
 4000SOL    HW112899   2.850   5.857   1.996
 4000SOL    HW212900   2.831   5.894   2.154
 4001SOL     OW12901   2.313   4.134   5.302
 4001SOL    HW112902   2.376   4.209   5.283
 4001SOL    HW212903   2.335   4.057   5.241
 4002SOL     OW12904   3.503   3.144   4.132
 4002SOL    HW112905   3.512   3.239   4.101
 4002SOL    HW212906   3.407   3.126   4.156
 4003SOL     OW12907   1.972   0.718   5.320
 4003SOL    HW112908   1.873   0.705   5.309
 4003SOL    HW212909   1.993   0.816   5.317
 4004SOL     OW12910   0.293   3.883   3.589
 4004SOL    HW112911   0.339   3.941   3.656
 4004SOL    HW212912   0.217   3.836   3.632
 4005SOL     OW12913   4.244   3.673   1.303
 4005SOL    HW112914   4.148   3.699   1.308
 4005SOL    HW212915   4.291   3.733   1.238
 4006SOL     OW12916   4.974   5.449   3.246
 4006SOL    HW112917   5.038   5.486   3.313
 4006SOL    HW212918   5.024   5.392   3.180
 4007SOL     OW12919   0.018   1.436   2.657
 4007SOL    HW112920   0.109   1.477   2.658
 4007SOL    HW212921   0.021   1.351   2.604
 4008SOL     OW12922   2.236   0.086   0.565
 4008SOL    HW112923   2.216   0.030   0.645
 4008SOL    HW212924   2.308   0.043   0.511
 4009SOL     OW12925   4.399   2.107   0.641
 4009SOL    HW112926   4.302   2.129   0.647
 4009SOL    HW212927   4.424   2.091   0.546
 4010SOL     OW12928   2.470   5.097   1.581
 4010SOL    HW112929   2.506   5.076   1.672
 4010SOL    HW212930   2.461   5.196   1.571
 4011SOL     OW12931   6.495   6.158   0.599
 4011SOL    HW112932   6.476   6.081   0.538
 4011SOL    HW212933   6.593   6.160   0.621
 4012SOL     OW12934   3.725   6.883   2.443
 4012SOL    HW112935   3.709   6.812   2.511
 4012SOL    HW212936   3.729   6.841   2.352
 4013SOL     OW12937   1.447   1.304   0.787
 4013SOL    HW112938   1.366   1.287   0.843
 4013SOL    HW212939   1.434   1.263   0.697
 4014SOL     OW12940   2.689   5.313   3.958
 4014SOL    HW112941   2.656   5.331   3.865
 4014SOL    HW212942   2.695   5.215   3.973
 4015SOL     OW12943   4.551   5.012   6.367
 4015SOL    HW112944   4.454   5.024   6.391
 4015SOL    HW212945   4.583   4.924   6.404
 4016SOL     OW12946   3.970   6.075   6.101
 4016SOL    HW112947   3.882   6.063   6.146
 4016SOL    HW212948   3.968   6.155   6.042
 4017SOL     OW12949   0.845   5.617   5.755
 4017SOL    HW112950   0.931   5.610   5.704
 4017SOL    HW212951   0.773   5.648   5.693
 4018SOL     OW12952   3.991   6.061   2.125
 4018SOL    HW112953   4.081   6.103   2.120
 4018SOL    HW212954   3.990   5.976   2.072
 4019SOL     OW12955   4.952   3.154   2.788
 4019SOL    HW112956   4.935   3.251   2.802
 4019SOL    HW212957   4.998   3.140   2.700
 4020SOL     OW12958   6.852   4.229   4.762
 4020SOL    HW112959   6.880   4.293   4.833
 4020SOL    HW212960   6.808   4.150   4.803
 4021SOL     OW12961   3.529   3.807   5.881
 4021SOL    HW112962   3.463   3.843   5.815
 4021SOL    HW212963   3.604   3.762   5.833
 4022SOL     OW12964   2.693   0.300   0.661
 4022SOL    HW112965   2.597   0.278   0.680
 4022SOL    HW212966   2.747   0.294   0.745
 4023SOL     OW12967   0.114   2.513   5.653
 4023SOL    HW112968   0.198   2.473   5.689
 4023SOL    HW212969   0.134   2.564   5.569
 4024SOL     OW12970   0.915   4.987   3.703
 4024SOL    HW112971   0.869   4.900   3.718
 4024SOL    HW212972   0.955   5.019   3.789
 4025SOL     OW12973   1.107   5.980   4.141
 4025SOL    HW112974   1.176   6.047   4.113
 4025SOL    HW212975   1.046   5.961   4.064
 4026SOL     OW12976   7.000   6.251   4.051
 4026SOL    HW112977   0.063   6.210   4.082
 4026SOL    HW212978   6.968   6.317   4.119
 4027SOL     OW12979   2.324   3.153   6.122
 4027SOL    HW112980   2.370   3.108   6.045
 4027SOL    HW212981   2.389   3.211   6.171
 4028SOL     OW12982   5.046   1.631   2.958
 4028SOL    HW112983   5.017   1.536   2.967
 4028SOL    HW212984   5.028   1.663   2.865
 4029SOL     OW12985   2.972   4.548   6.618
 4029SOL    HW112986   3.038   4.488   6.661
 4029SOL    HW212987   2.932   4.502   6.538
 4030SOL     OW12988   7.021   0.979   1.976
 4030SOL    HW112989   0.014   1.075   1.998
 4030SOL    HW212990   6.925   0.966   1.949
 4031SOL     OW12991   5.545   0.044   2.016
 4031SOL    HW112992   5.482   0.013   2.087
 4031SOL    HW212993   5.620   7.001   2.007
 4032SOL     OW12994   6.234   6.761   1.548
 4032SOL    HW112995   6.137   6.772   1.573
 4032SOL    HW212996   6.242   6.689   1.479
 4033SOL     OW12997   3.288   2.141   2.423
 4033SOL    HW112998   3.292   2.165   2.326
 4033SOL    HW212999   3.193   2.145   2.455
 4034SOL     OW13000   0.116   2.855   5.179
 4034SOL    HW113001   0.069   2.768   5.191
 4034SOL    HW213002   0.134   2.870   5.082
 4035SOL     OW13003   6.522   2.338   0.889
 4035SOL    HW113004   6.433   2.310   0.927
 4035SOL    HW213005   6.595   2.306   0.948
 4036SOL     OW13006   3.489   5.114   3.363
 4036SOL    HW113007   3.518   5.204   3.394
 4036SOL    HW213008   3.417   5.124   3.295
 4037SOL     OW13009   2.656   1.028   5.919
 4037SOL    HW113010   2.713   1.058   5.995
 4037SOL    HW213011   2.587   0.963   5.953
 4038SOL     OW13012   4.055   3.776   6.688
 4038SOL    HW113013   4.078   3.692   6.639
 4038SOL    HW213014   4.045   3.851   6.623
 4039SOL     OW13015   5.392   5.180   1.978
 4039SOL    HW113016   5.375   5.113   2.050
 4039SOL    HW213017   5.310   5.189   1.920
 4040SOL     OW13018   3.694   5.287   5.161
 4040SOL    HW113019   3.644   5.205   5.133
 4040SOL    HW213020   3.792   5.271   5.152
 4041SOL     OW13021   1.974   6.860   1.530
 4041SOL    HW113022   2.064   6.838   1.570
 4041SOL    HW213023   1.933   6.776   1.495
 4042SOL     OW13024   6.075   0.080   2.875
 4042SOL    HW113025   5.984   0.113   2.902
 4042SOL    HW213026   6.074   0.053   2.779
 4043SOL     OW13027   6.367   3.014   6.958
 4043SOL    HW113028   6.399   2.951   0.006
 4043SOL    HW213029   6.280   3.055   6.987
 4044SOL     OW13030   3.984   4.818   2.951
 4044SOL    HW113031   3.998   4.914   2.927
 4044SOL    HW213032   4.044   4.794   3.027
 4045SOL     OW13033   5.179   0.019   6.492
 4045SOL    HW113034   5.199   6.945   6.477
 4045SOL    HW213035   5.092   0.042   6.449
 4046SOL     OW13036   0.800   1.128   3.162
 4046SOL    HW113037   0.738   1.133   3.240
 4046SOL    HW213038   0.893   1.152   3.193
 4047SOL     OW13039   2.351   3.032   6.749
 4047SOL    HW113040   2.374   3.091   6.826
 4047SOL    HW213041   2.341   3.086   6.666
 4048SOL     OW13042   4.923   1.213   2.183
 4048SOL    HW113043   4.851   1.163   2.135
 4048SOL    HW213044   4.916   1.310   2.160
 4049SOL     OW13045   3.780   5.586   6.624
 4049SOL    HW113046   3.854   5.520   6.636
 4049SOL    HW213047   3.809   5.658   6.562
 4050SOL     OW13048   0.922   5.996   2.482
 4050SOL    HW113049   0.967   5.908   2.464
 4050SOL    HW213050   0.972   6.069   2.437
 4051SOL     OW13051   5.172   0.991   6.408
 4051SOL    HW113052   5.078   0.985   6.441
 4051SOL    HW213053   5.204   1.085   6.412
 4052SOL     OW13054   6.751   2.039   2.989
 4052SOL    HW113055   6.751   1.949   2.944
 4052SOL    HW213056   6.795   2.031   3.079
 4053SOL     OW13057   1.280   5.980   4.676
 4053SOL    HW113058   1.280   6.080   4.675
 4053SOL    HW213059   1.369   5.947   4.710
 4054SOL     OW13060   4.795   3.918   1.314
 4054SOL    HW113061   4.811   3.823   1.341
 4054SOL    HW213062   4.779   3.973   1.395
 4055SOL     OW13063   1.532   3.651   2.086
 4055SOL    HW113064   1.626   3.668   2.114
 4055SOL    HW213065   1.499   3.568   2.130
 4056SOL     OW13066   5.727   3.652   0.760
 4056SOL    HW113067   5.704   3.749   0.751
 4056SOL    HW213068   5.750   3.632   0.855
 4057SOL     OW13069   6.589   3.238   6.664
 4057SOL    HW113070   6.601   3.199   6.756
 4057SOL    HW213071   6.536   3.175   6.608
 4058SOL     OW13072   2.702   5.704   5.171
 4058SOL    HW113073   2.666   5.615   5.143
 4058SOL    HW213074   2.714   5.762   5.091
 4059SOL     OW13075   0.620   2.901   4.140
 4059SOL    HW113076   0.641   2.966   4.067
 4059SOL    HW213077   0.624   2.808   4.103
 4060SOL     OW13078   6.172   5.916   4.625
 4060SOL    HW113079   6.187   5.850   4.699
 4060SOL    HW213080   6.175   5.869   4.537
 4061SOL     OW13081   2.192   4.863   2.129
 4061SOL    HW113082   2.239   4.911   2.202
 4061SOL    HW213083   2.242   4.875   2.043
 4062SOL     OW13084   2.618   1.243   1.796
 4062SOL    HW113085   2.643   1.334   1.828
 4062SOL    HW213086   2.539   1.210   1.848
 4063SOL     OW13087   5.720   6.464   1.077
 4063SOL    HW113088   5.775   6.419   1.006
 4063SOL    HW213089   5.687   6.396   1.142
 4064SOL     OW13090   2.093   1.762   4.899
 4064SOL    HW113091   2.038   1.709   4.835
 4064SOL    HW213092   2.043   1.772   4.985
 4065SOL     OW13093   1.363   6.966   0.143
 4065SOL    HW113094   1.374   6.892   0.210
 4065SOL    HW213095   1.411   6.942   0.059
 4066SOL     OW13096   6.187   4.125   2.500
 4066SOL    HW113097   6.202   4.197   2.569
 4066SOL    HW213098   6.138   4.048   2.543
 4067SOL     OW13099   6.182   4.255   2.733
 4067SOL    HW113100   6.246   4.303   2.794
 4067SOL    HW213101   6.135   4.183   2.784
 4068SOL     OW13102   1.770   2.625   4.539
 4068SOL    HW113103   1.759   2.603   4.636
 4068SOL    HW213104   1.810   2.717   4.530
 4069SOL     OW13105   3.692   6.017   6.508
 4069SOL    HW113106   3.599   6.045   6.532
 4069SOL    HW213107   3.695   5.918   6.499
 4070SOL     OW13108   1.182   3.110   3.019
 4070SOL    HW113109   1.204   3.131   3.115
 4070SOL    HW213110   1.265   3.119   2.964
 4071SOL     OW13111   1.637   0.328   4.425
 4071SOL    HW113112   1.554   0.322   4.369
 4071SOL    HW213113   1.714   0.289   4.373
 4072SOL     OW13114   1.452   4.967   4.295
 4072SOL    HW113115   1.412   4.933   4.210
 4072SOL    HW213116   1.502   5.052   4.278
 4073SOL     OW13117   1.727   5.193   6.724
 4073SOL    HW113118   1.826   5.199   6.712
 4073SOL    HW213119   1.704   5.107   6.769
 4074SOL     OW13120   1.434   4.861   1.299
 4074SOL    HW113121   1.461   4.957   1.311
 4074SOL    HW213122   1.343   4.847   1.338
 4075SOL     OW13123   5.277   1.724   0.832
 4075SOL    HW113124   5.251   1.816   0.864
 4075SOL    HW213125   5.237   1.655   0.892
 4076SOL     OW13126   3.604   3.630   5.302
 4076SOL    HW113127   3.689   3.581   5.280
 4076SOL    HW213128   3.535   3.564   5.332
 4077SOL     OW13129   4.859   1.174   1.478
 4077SOL    HW113130   4.957   1.182   1.496
 4077SOL    HW213131   4.835   1.228   1.398
 4078SOL     OW13132   2.883   4.822   2.366
 4078SOL    HW113133   2.821   4.742   2.371
 4078SOL    HW213134   2.905   4.852   2.459
 4079SOL     OW13135   1.736   1.773   4.253
 4079SOL    HW113136   1.643   1.779   4.216
 4079SOL    HW213137   1.742   1.695   4.315
 4080SOL     OW13138   5.118   2.319   4.835
 4080SOL    HW113139   5.053   2.245   4.816
 4080SOL    HW213140   5.073   2.390   4.889
 4081SOL     OW13141   1.764   2.887   4.292
 4081SOL    HW113142   1.821   2.872   4.373
 4081SOL    HW213143   1.669   2.900   4.320
 4082SOL     OW13144   1.422   2.842   0.881
 4082SOL    HW113145   1.492   2.841   0.952
 4082SOL    HW213146   1.331   2.835   0.923
 4083SOL     OW13147   5.821   2.936   3.392
 4083SOL    HW113148   5.890   2.977   3.451
 4083SOL    HW213149   5.867   2.877   3.325
 4084SOL     OW13150   6.099   1.810   4.138
 4084SOL    HW113151   6.173   1.800   4.071
 4084SOL    HW213152   6.014   1.777   4.097
 4085SOL     OW13153   4.267   6.267   1.094
 4085SOL    HW113154   4.203   6.343   1.080
 4085SOL    HW213155   4.295   6.264   1.190
 4086SOL     OW13156   1.950   5.786   1.451
 4086SOL    HW113157   1.884   5.849   1.493
 4086SOL    HW213158   1.968   5.710   1.514
 4087SOL     OW13159   2.418   2.597   3.149
 4087SOL    HW113160   2.509   2.592   3.190
 4087SOL    HW213161   2.351   2.618   3.220
 4088SOL     OW13162   6.793   1.633   0.764
 4088SOL    HW113163   6.745   1.712   0.802
 4088SOL    HW213164   6.760   1.550   0.808
 4089SOL     OW13165   0.069   6.454   3.257
 4089SOL    HW113166   0.043   6.531   3.199
 4089SOL    HW213167   7.010   6.418   3.302
 4090SOL     OW13168   2.745   4.097   5.831
 4090SOL    HW113169   2.806   4.105   5.752
 4090SOL    HW213170   2.709   4.004   5.837
 4091SOL     OW13171   5.957   6.525   6.815
 4091SOL    HW113172   6.039   6.572   6.845
 4091SOL    HW213173   5.876   6.578   6.841
 4092SOL     OW13174   6.932   2.660   5.274
 4092SOL    HW113175   6.858   2.630   5.214
 4092SOL    HW213176   6.917   2.755   5.302
 4093SOL     OW13177   4.843   0.278   3.899
 4093SOL    HW113178   4.773   0.346   3.881
 4093SOL    HW213179   4.902   0.269   3.818
 4094SOL     OW13180   2.291   4.998   5.010
 4094SOL    HW113181   2.239   4.923   5.052
 4094SOL    HW213182   2.357   5.034   5.075
 4095SOL     OW13183   0.917   3.819   6.256
 4095SOL    HW113184   0.931   3.727   6.219
 4095SOL    HW213185   0.985   3.837   6.326
 4096SOL     OW13186   4.669   5.561   0.596
 4096SOL    HW113187   4.739   5.600   0.654
 4096SOL    HW213188   4.659   5.616   0.513
 4097SOL     OW13189   3.134   4.137   5.907
 4097SOL    HW113190   3.231   4.151   5.890
 4097SOL    HW213191   3.081   4.205   5.855
 4098SOL     OW13192   0.352   3.115   2.426
 4098SOL    HW113193   0.281   3.115   2.496
 4098SOL    HW213194   0.434   3.160   2.462
 4099SOL     OW13195   2.864   5.113   1.368
 4099SOL    HW113196   2.959   5.142   1.358
 4099SOL    HW213197   2.861   5.016   1.392
 4100SOL     OW13198   5.607   5.822   4.003
 4100SOL    HW113199   5.575   5.893   3.940
 4100SOL    HW213200   5.567   5.734   3.977
 4101SOL     OW13201   5.559   0.830   0.008
 4101SOL    HW113202   5.574   0.826   6.931
 4101SOL    HW213203   5.647   0.817   0.055
 4102SOL     OW13204   6.879   0.473   1.370
 4102SOL    HW113205   6.895   0.477   1.469
 4102SOL    HW213206   6.867   0.566   1.335
 4103SOL     OW13207   0.679   0.701   1.923
 4103SOL    HW113208   0.595   0.650   1.946
 4103SOL    HW213209   0.660   0.799   1.925
 4104SOL     OW13210   1.424   4.639   2.218
 4104SOL    HW113211   1.384   4.660   2.129
 4104SOL    HW213212   1.357   4.589   2.273
 4105SOL     OW13213   4.204   5.720   1.218
 4105SOL    HW113214   4.155   5.645   1.262
 4105SOL    HW213215   4.185   5.805   1.267
 4106SOL     OW13216   0.435   3.803   4.614
 4106SOL    HW113217   0.431   3.712   4.572
 4106SOL    HW213218   0.352   3.854   4.593
 4107SOL     OW13219   1.073   6.510   0.887
 4107SOL    HW113220   0.999   6.447   0.868
 4107SOL    HW213221   1.079   6.526   0.986
 4108SOL     OW13222   0.338   4.696   5.926
 4108SOL    HW113223   0.257   4.755   5.922
 4108SOL    HW213224   0.317   4.616   5.983
 4109SOL     OW13225   4.656   6.562   4.477
 4109SOL    HW113226   4.593   6.547   4.553
 4109SOL    HW213227   4.728   6.493   4.479
 4110SOL     OW13228   4.326   3.727   6.823
 4110SOL    HW113229   4.233   3.759   6.841
 4110SOL    HW213230   4.390   3.803   6.835
 4111SOL     OW13231   3.191   2.770   6.904
 4111SOL    HW113232   3.222   2.676   6.892
 4111SOL    HW213233   3.203   2.797   6.999
 4112SOL     OW13234   5.084   1.903   5.391
 4112SOL    HW113235   5.176   1.876   5.362
 4112SOL    HW213236   5.083   1.915   5.491
 4113SOL     OW13237   4.018   6.027   4.800
 4113SOL    HW113238   4.082   5.968   4.750
 4113SOL    HW213239   3.934   5.976   4.820
 4114SOL     OW13240   3.413   2.106   3.767
 4114SOL    HW113241   3.427   2.164   3.687
 4114SOL    HW213242   3.501   2.089   3.812
 4115SOL     OW13243   5.038   5.951   2.211
 4115SOL    HW113244   4.965   6.018   2.199
 4115SOL    HW213245   5.002   5.870   2.257
 4116SOL     OW13246   4.353   2.160   1.654
 4116SOL    HW113247   4.375   2.228   1.584
 4116SOL    HW213248   4.434   2.105   1.674
 4117SOL     OW13249   0.445   4.824   1.582
 4117SOL    HW113250   0.527   4.860   1.538
 4117SOL    HW213251   0.399   4.898   1.632
 4118SOL     OW13252   1.453   6.520   0.948
 4118SOL    HW113253   1.460   6.451   0.875
 4118SOL    HW213254   1.397   6.596   0.916
 4119SOL     OW13255   4.316   1.462   3.922
 4119SOL    HW113256   4.382   1.488   3.992
 4119SOL    HW213257   4.311   1.363   3.916
 4120SOL     OW13258   4.710   6.158   1.856
 4120SOL    HW113259   4.741   6.142   1.762
 4120SOL    HW213260   4.665   6.246   1.862
 4121SOL     OW13261   6.342   1.710   4.992
 4121SOL    HW113262   6.352   1.810   4.993
 4121SOL    HW213263   6.416   1.670   4.937
 4122SOL     OW13264   0.872   6.406   5.401
 4122SOL    HW113265   0.837   6.495   5.429
 4122SOL    HW213266   0.963   6.417   5.362
 4123SOL     OW13267   5.333   4.642   5.479
 4123SOL    HW113268   5.333   4.707   5.403
 4123SOL    HW213269   5.418   4.651   5.531
 4124SOL     OW13270   6.224   5.516   5.158
 4124SOL    HW113271   6.296   5.465   5.111
 4124SOL    HW213272   6.135   5.480   5.131
 4125SOL     OW13273   4.962   0.504   1.803
 4125SOL    HW113274   4.983   0.584   1.746
 4125SOL    HW213275   4.877   0.462   1.771
 4126SOL     OW13276   1.388   4.209   3.901
 4126SOL    HW113277   1.451   4.184   3.827
 4126SOL    HW213278   1.370   4.128   3.958
 4127SOL     OW13279   5.321   3.896   4.106
 4127SOL    HW113280   5.244   3.836   4.129
 4127SOL    HW213281   5.358   3.937   4.189
 4128SOL     OW13282   1.862   4.002   2.331
 4128SOL    HW113283   1.959   4.027   2.329
 4128SOL    HW213284   1.819   4.044   2.411
 4129SOL     OW13285   5.332   2.039   6.235
 4129SOL    HW113286   5.244   2.007   6.271
 4129SOL    HW213287   5.354   2.128   6.275
 4130SOL     OW13288   0.028   3.487   5.992
 4130SOL    HW113289   0.045   3.462   5.896
 4130SOL    HW213290   6.989   3.565   5.995
 4131SOL     OW13291   0.847   5.748   3.715
 4131SOL    HW113292   0.873   5.669   3.770
 4131SOL    HW213293   0.753   5.737   3.681
 4132SOL     OW13294   6.095   4.022   3.929
 4132SOL    HW113295   6.080   3.956   4.003
 4132SOL    HW213296   6.084   3.975   3.841
 4133SOL     OW13297   2.649   6.921   1.458
 4133SOL    HW113298   2.658   6.948   1.362
 4133SOL    HW213299   2.715   6.972   1.513
 4134SOL     OW13300   1.621   2.017   0.269
 4134SOL    HW113301   1.697   2.082   0.272
 4134SOL    HW213302   1.630   1.958   0.189
 4135SOL     OW13303   2.028   0.499   2.362
 4135SOL    HW113304   2.032   0.559   2.282
 4135SOL    HW213305   1.968   0.539   2.430
 4136SOL     OW13306   0.739   2.099   4.171
 4136SOL    HW113307   0.735   2.061   4.079
 4136SOL    HW213308   0.746   2.199   4.167
 4137SOL     OW13309   1.968   3.749   0.944
 4137SOL    HW113310   2.014   3.683   1.004
 4137SOL    HW213311   1.904   3.701   0.884
 4138SOL     OW13312   3.827   5.091   3.988
 4138SOL    HW113313   3.847   5.039   3.905
 4138SOL    HW213314   3.787   5.179   3.964
 4139SOL     OW13315   2.031   2.257   6.025
 4139SOL    HW113316   2.052   2.160   6.024
 4139SOL    HW213317   1.992   2.284   5.937
 4140SOL     OW13318   3.262   0.362   5.328
 4140SOL    HW113319   3.310   0.422   5.392
 4140SOL    HW213320   3.163   0.373   5.339
 4141SOL     OW13321   5.360   5.423   1.231
 4141SOL    HW113322   5.398   5.402   1.321
 4141SOL    HW213323   5.383   5.350   1.167
 4142SOL     OW13324   6.608   5.604   0.960
 4142SOL    HW113325   6.666   5.528   0.988
 4142SOL    HW213326   6.528   5.610   1.019
 4143SOL     OW13327   0.097   3.506   0.735
 4143SOL    HW113328   0.164   3.488   0.663
 4143SOL    HW213329   0.074   3.603   0.736
 4144SOL     OW13330   5.498   2.353   0.963
 4144SOL    HW113331   5.457   2.268   0.929
 4144SOL    HW213332   5.559   2.391   0.894
 4145SOL     OW13333   6.930   6.132   1.696
 4145SOL    HW113334   6.889   6.118   1.607
 4145SOL    HW213335   6.985   6.052   1.721
 4146SOL     OW13336   5.935   0.871   6.020
 4146SOL    HW113337   6.008   0.816   5.979
 4146SOL    HW213338   5.850   0.819   6.018
 4147SOL     OW13339   3.607   1.701   5.460
 4147SOL    HW113340   3.588   1.633   5.531
 4147SOL    HW213341   3.597   1.793   5.499
 4148SOL     OW13342   0.507   6.880   3.960
 4148SOL    HW113343   0.466   6.945   4.024
 4148SOL    HW213344   0.553   6.930   3.886
 4149SOL     OW13345   0.532   3.467   0.265
 4149SOL    HW113346   0.577   3.505   0.346
 4149SOL    HW213347   0.575   3.504   0.183
 4150SOL     OW13348   5.657   0.766   6.076
 4150SOL    HW113349   5.640   0.764   6.174
 4150SOL    HW213350   5.573   0.787   6.027
 4151SOL     OW13351   5.582   5.893   0.328
 4151SOL    HW113352   5.577   5.793   0.332
 4151SOL    HW213353   5.676   5.923   0.346
 4152SOL     OW13354   3.046   5.020   1.711
 4152SOL    HW113355   3.083   5.103   1.755
 4152SOL    HW213356   3.041   4.947   1.779
 4153SOL     OW13357   5.304   5.663   6.225
 4153SOL    HW113358   5.267   5.572   6.240
 4153SOL    HW213359   5.258   5.728   6.286
 4154SOL     OW13360   6.628   3.837   5.574
 4154SOL    HW113361   6.704   3.852   5.637
 4154SOL    HW213362   6.664   3.806   5.486
 4155SOL     OW13363   0.160   3.437   3.272
 4155SOL    HW113364   0.064   3.455   3.251
 4155SOL    HW213365   0.217   3.503   3.223
 4156SOL     OW13366   5.689   0.226   4.964
 4156SOL    HW113367   5.759   0.155   4.954
 4156SOL    HW213368   5.643   0.241   4.876
 4157SOL     OW13369   3.648   0.317   3.932
 4157SOL    HW113370   3.650   0.355   4.024
 4157SOL    HW213371   3.600   0.229   3.933
 4158SOL     OW13372   1.111   5.117   3.882
 4158SOL    HW113373   1.152   5.207   3.894
 4158SOL    HW213374   1.126   5.062   3.965
 4159SOL     OW13375   1.835   3.245   4.186
 4159SOL    HW113376   1.787   3.209   4.106
 4159SOL    HW213377   1.768   3.273   4.255
 4160SOL     OW13378   6.331   0.632   1.124
 4160SOL    HW113379   6.310   0.598   1.216
 4160SOL    HW213380   6.257   0.692   1.093
 4161SOL     OW13381   2.238   0.408   6.870
 4161SOL    HW113382   2.271   0.319   6.902
 4161SOL    HW213383   2.313   0.459   6.828
 4162SOL     OW13384   6.131   0.420   4.905
 4162SOL    HW113385   6.216   0.452   4.863
 4162SOL    HW213386   6.138   0.323   4.924
 4163SOL     OW13387   6.079   1.506   3.174
 4163SOL    HW113388   6.000   1.562   3.152
 4163SOL    HW213389   6.157   1.565   3.195
 4164SOL     OW13390   1.797   0.361   6.647
 4164SOL    HW113391   1.756   0.349   6.737
 4164SOL    HW213392   1.880   0.415   6.655
 4165SOL     OW13393   4.520   6.688   1.055
 4165SOL    HW113394   4.481   6.662   1.143
 4165SOL    HW213395   4.493   6.781   1.032
 4166SOL     OW13396   4.633   2.570   1.404
 4166SOL    HW113397   4.725   2.562   1.365
 4166SOL    HW213398   4.609   2.666   1.413
 4167SOL     OW13399   2.358   3.323   1.121
 4167SOL    HW113400   2.424   3.272   1.176
 4167SOL    HW213401   2.407   3.387   1.061
 4168SOL     OW13402   0.126   4.612   1.153
 4168SOL    HW113403   0.155   4.589   1.245
 4168SOL    HW213404   0.202   4.655   1.103
 4169SOL     OW13405   5.125   3.974   4.703
 4169SOL    HW113406   5.085   3.967   4.612
 4169SOL    HW213407   5.062   3.935   4.770
 4170SOL     OW13408   4.187   3.132   5.264
 4170SOL    HW113409   4.149   3.100   5.351
 4170SOL    HW213410   4.223   3.225   5.275
 4171SOL     OW13411   5.222   4.023   0.875
 4171SOL    HW113412   5.279   3.961   0.929
 4171SOL    HW213413   5.281   4.078   0.815
 4172SOL     OW13414   7.019   2.394   6.643
 4172SOL    HW113415   0.086   2.436   6.629
 4172SOL    HW213416   6.947   2.463   6.633
 4173SOL     OW13417   5.235   3.271   5.328
 4173SOL    HW113418   5.237   3.367   5.302
 4173SOL    HW213419   5.295   3.256   5.407
 4174SOL     OW13420   4.969   1.001   4.073
 4174SOL    HW113421   5.038   1.058   4.118
 4174SOL    HW213422   4.934   0.934   4.138
 4175SOL     OW13423   3.158   6.688   4.614
 4175SOL    HW113424   3.241   6.650   4.572
 4175SOL    HW213425   3.121   6.621   4.679
 4176SOL     OW13426   4.075   0.411   2.194
 4176SOL    HW113427   4.030   0.382   2.278
 4176SOL    HW213428   4.148   0.346   2.170
 4177SOL     OW13429   0.232   4.925   5.143
 4177SOL    HW113430   0.262   5.019   5.161
 4177SOL    HW213431   0.229   4.910   5.044
 4178SOL     OW13432   3.783   1.066   5.091
 4178SOL    HW113433   3.830   1.115   5.164
 4178SOL    HW213434   3.802   0.968   5.098
 4179SOL     OW13435   5.908   3.275   4.199
 4179SOL    HW113436   5.998   3.314   4.219
 4179SOL    HW213437   5.919   3.186   4.154
 4180SOL     OW13438   5.561   4.320   1.976
 4180SOL    HW113439   5.465   4.337   1.998
 4180SOL    HW213440   5.618   4.349   2.053
 4181SOL     OW13441   1.395   2.016   6.187
 4181SOL    HW113442   1.333   2.093   6.174
 4181SOL    HW213443   1.458   2.037   6.262
 4182SOL     OW13444   0.182   0.579   2.408
 4182SOL    HW113445   0.155   0.490   2.369
 4182SOL    HW213446   0.104   0.619   2.456
 4183SOL     OW13447   2.584   1.588   1.641
 4183SOL    HW113448   2.623   1.540   1.562
 4183SOL    HW213449   2.544   1.675   1.610
 4184SOL     OW13450   3.829   5.347   1.371
 4184SOL    HW113451   3.863   5.262   1.333
 4184SOL    HW213452   3.776   5.328   1.454
 4185SOL     OW13453   0.646   5.795   3.352
 4185SOL    HW113454   0.719   5.863   3.346
 4185SOL    HW213455   0.617   5.785   3.447
 4186SOL     OW13456   2.099   4.169   6.858
 4186SOL    HW113457   2.063   4.078   6.841
 4186SOL    HW213458   2.060   4.233   6.792
 4187SOL     OW13459   3.619   3.321   5.589
 4187SOL    HW113460   3.710   3.288   5.567
 4187SOL    HW213461   3.570   3.343   5.505
 4188SOL     OW13462   4.502   0.920   4.321
 4188SOL    HW113463   4.576   0.860   4.352
 4188SOL    HW213464   4.479   0.985   4.393
 4189SOL     OW13465   2.954   1.877   4.195
 4189SOL    HW113466   2.915   1.841   4.110
 4189SOL    HW213467   2.929   1.974   4.204
 4190SOL     OW13468   2.890   0.190   6.465
 4190SOL    HW113469   2.989   0.183   6.457
 4190SOL    HW213470   2.865   0.284   6.486
 4191SOL     OW13471   5.579   3.374   2.951
 4191SOL    HW113472   5.607   3.293   2.901
 4191SOL    HW213473   5.630   3.379   3.037
 4192SOL     OW13474   6.502   1.769   3.042
 4192SOL    HW113475   6.554   1.800   3.121
 4192SOL    HW213476   6.406   1.792   3.054
 4193SOL     OW13477   2.283   6.537   2.091
 4193SOL    HW113478   2.302   6.494   2.179
 4193SOL    HW213479   2.317   6.631   2.091
 4194SOL     OW13480   6.650   1.947   4.441
 4194SOL    HW113481   6.723   1.880   4.458
 4194SOL    HW213482   6.615   1.981   4.528
 4195SOL     OW13483   3.943   0.365   1.192
 4195SOL    HW113484   3.844   0.373   1.198
 4195SOL    HW213485   3.984   0.383   1.281
 4196SOL     OW13486   6.018   2.676   3.985
 4196SOL    HW113487   5.998   2.631   4.072
 4196SOL    HW213488   5.933   2.699   3.939
 4197SOL     OW13489   5.408   4.152   4.304
 4197SOL    HW113490   5.472   4.228   4.312
 4197SOL    HW213491   5.450   4.069   4.340
 4198SOL     OW13492   6.105   3.700   0.114
 4198SOL    HW113493   6.156   3.684   0.030
 4198SOL    HW213494   6.143   3.642   0.187
 4199SOL     OW13495   3.102   3.064   5.036
 4199SOL    HW113496   3.019   3.112   5.063
 4199SOL    HW213497   3.181   3.124   5.047
 4200SOL     OW13498   2.489   6.659   6.288
 4200SOL    HW113499   2.488   6.730   6.217
 4200SOL    HW213500   2.412   6.596   6.272
 4201SOL     OW13501   6.229   6.423   3.172
 4201SOL    HW113502   6.296   6.430   3.245
 4201SOL    HW213503   6.138   6.447   3.207
 4202SOL     OW13504   5.047   4.390   6.000
 4202SOL    HW113505   4.988   4.469   5.984
 4202SOL    HW213506   5.049   4.332   5.919
 4203SOL     OW13507   4.721   6.019   2.967
 4203SOL    HW113508   4.757   5.972   2.886
 4203SOL    HW213509   4.704   6.115   2.944
 4204SOL     OW13510   3.063   2.934   1.865
 4204SOL    HW113511   3.081   3.022   1.823
 4204SOL    HW213512   3.118   2.926   1.949
 4205SOL     OW13513   3.538   4.917   4.432
 4205SOL    HW113514   3.474   4.990   4.408
 4205SOL    HW213515   3.555   4.859   4.352
 4206SOL     OW13516   4.532   0.810   5.949
 4206SOL    HW113517   4.588   0.729   5.964
 4206SOL    HW213518   4.437   0.783   5.932
 4207SOL     OW13519   1.978   1.171   2.040
 4207SOL    HW113520   1.905   1.223   1.995
 4207SOL    HW213521   2.015   1.104   1.977
 4208SOL     OW13522   1.793   2.546   1.062
 4208SOL    HW113523   1.849   2.502   1.133
 4208SOL    HW213524   1.829   2.522   0.972
 4209SOL     OW13525   1.378   0.372   4.739
 4209SOL    HW113526   1.467   0.393   4.779
 4209SOL    HW213527   1.308   0.430   4.782
 4210SOL     OW13528   3.612   3.520   1.601
 4210SOL    HW113529   3.649   3.613   1.599
 4210SOL    HW213530   3.599   3.487   1.507
 4211SOL     OW13531   4.684   5.048   5.237
 4211SOL    HW113532   4.738   5.049   5.322
 4211SOL    HW213533   4.741   5.017   5.162
 4212SOL     OW13534   6.582   1.608   2.608
 4212SOL    HW113535   6.567   1.599   2.707
 4212SOL    HW213536   6.677   1.632   2.591
 4213SOL     OW13537   2.354   1.063   2.279
 4213SOL    HW113538   2.358   1.158   2.310
 4213SOL    HW213539   2.426   1.011   2.324
 4214SOL     OW13540   0.733   3.354   6.318
 4214SOL    HW113541   0.647   3.399   6.294
 4214SOL    HW213542   0.809   3.414   6.293
 4215SOL     OW13543   1.020   5.452   4.332
 4215SOL    HW113544   1.051   5.359   4.349
 4215SOL    HW213545   1.093   5.517   4.356
 4216SOL     OW13546   1.185   1.841   3.938
 4216SOL    HW113547   1.263   1.814   3.881
 4216SOL    HW213548   1.207   1.827   4.034
 4217SOL     OW13549   0.484   6.944   2.466
 4217SOL    HW113550   0.521   6.942   2.559
 4217SOL    HW213551   0.389   6.914   2.467
 4218SOL     OW13552   4.800   0.281   1.580
 4218SOL    HW113553   4.814   0.219   1.657
 4218SOL    HW213554   4.768   0.369   1.614
 4219SOL     OW13555   3.508   4.812   5.421
 4219SOL    HW113556   3.424   4.774   5.381
 4219SOL    HW213557   3.491   4.906   5.450
 4220SOL     OW13558   6.510   3.214   3.352
 4220SOL    HW113559   6.418   3.250   3.362
 4220SOL    HW213560   6.536   3.166   3.436
 4221SOL     OW13561   5.381   5.958   6.719
 4221SOL    HW113562   5.448   6.023   6.753
 4221SOL    HW213563   5.418   5.909   6.640
 4222SOL     OW13564   6.099   2.352   2.363
 4222SOL    HW113565   6.178   2.413   2.354
 4222SOL    HW213566   6.121   2.278   2.426
 4223SOL     OW13567   3.208   3.378   2.756
 4223SOL    HW113568   3.119   3.424   2.746
 4223SOL    HW213569   3.223   3.319   2.677
 4224SOL     OW13570   4.601   2.757   4.894
 4224SOL    HW113571   4.572   2.801   4.979
 4224SOL    HW213572   4.567   2.663   4.893
 4225SOL     OW13573   5.778   0.848   5.052
 4225SOL    HW113574   5.843   0.846   5.128
 4225SOL    HW213575   5.726   0.763   5.050
 4226SOL     OW13576   1.612   0.743   3.929
 4226SOL    HW113577   1.636   0.840   3.935
 4226SOL    HW213578   1.517   0.734   3.901
 4227SOL     OW13579   4.094   4.708   0.376
 4227SOL    HW113580   4.145   4.787   0.410
 4227SOL    HW213581   4.093   4.636   0.445
 4228SOL     OW13582   5.636   6.484   3.943
 4228SOL    HW113583   5.617   6.410   4.008
 4228SOL    HW213584   5.659   6.567   3.994
 4229SOL     OW13585   4.150   4.827   6.560
 4229SOL    HW113586   4.059   4.827   6.603
 4229SOL    HW213587   4.216   4.867   6.623
 4230SOL     OW13588   2.756   0.158   5.190
 4230SOL    HW113589   2.699   0.239   5.185
 4230SOL    HW213590   2.852   0.185   5.197
 4231SOL     OW13591   5.067   6.404   5.358
 4231SOL    HW113592   5.071   6.428   5.455
 4231SOL    HW213593   5.078   6.305   5.348
 4232SOL     OW13594   0.988   5.571   1.571
 4232SOL    HW113595   0.987   5.471   1.575
 4232SOL    HW213596   1.076   5.602   1.537
 4233SOL     OW13597   6.105   0.347   6.423
 4233SOL    HW113598   6.170   0.273   6.405
 4233SOL    HW213599   6.123   0.423   6.361
 4234SOL     OW13600   2.971   4.965   6.214
 4234SOL    HW113601   3.035   5.035   6.246
 4234SOL    HW213602   3.009   4.874   6.232
 4235SOL     OW13603   6.430   4.675   5.583
 4235SOL    HW113604   6.369   4.667   5.661
 4235SOL    HW213605   6.456   4.770   5.570
 4236SOL     OW13606   0.431   2.669   3.724
 4236SOL    HW113607   0.376   2.737   3.772
 4236SOL    HW213608   0.409   2.577   3.758
 4237SOL     OW13609   5.484   3.893   4.384
 4237SOL    HW113610   5.580   3.869   4.400
 4237SOL    HW213611   5.433   3.884   4.470
 4238SOL     OW13612   4.120   5.511   3.987
 4238SOL    HW113613   4.090   5.422   3.951
 4238SOL    HW213614   4.042   5.571   3.998
 4239SOL     OW13615   4.802   6.660   4.966
 4239SOL    HW113616   4.761   6.727   4.904
 4239SOL    HW213617   4.766   6.674   5.058
 4240SOL     OW13618   2.502   5.171   0.002
 4240SOL    HW113619   2.577   5.231   0.032
 4240SOL    HW213620   2.471   5.116   0.079
 4241SOL     OW13621   5.192   0.072   1.256
 4241SOL    HW113622   5.271   0.128   1.281
 4241SOL    HW213623   5.129   0.067   1.334
 4242SOL     OW13624   2.251   6.829   2.738
 4242SOL    HW113625   2.199   6.778   2.806
 4242SOL    HW213626   2.302   6.765   2.680
 4243SOL     OW13627   1.042   3.694   2.005
 4243SOL    HW113628   1.078   3.651   2.088
 4243SOL    HW213629   1.115   3.700   1.937
 4244SOL     OW13630   4.932   6.025   1.226
 4244SOL    HW113631   4.838   5.991   1.215
 4244SOL    HW213632   4.946   6.051   1.321
 4245SOL     OW13633   6.647   2.996   0.211
 4245SOL    HW113634   6.691   2.940   0.281
 4245SOL    HW213635   6.634   3.089   0.246
 4246SOL     OW13636   5.294   2.341   2.787
 4246SOL    HW113637   5.204   2.302   2.804
 4246SOL    HW213638   5.313   2.340   2.689
 4247SOL     OW13639   2.023   5.152   4.623
 4247SOL    HW113640   2.054   5.079   4.685
 4247SOL    HW213641   1.932   5.183   4.650
 4248SOL     OW13642   1.757   0.624   2.421
 4248SOL    HW113643   1.725   0.591   2.332
 4248SOL    HW213644   1.680   0.663   2.471
 4249SOL     OW13645   0.348   1.385   4.468
 4249SOL    HW113646   0.257   1.425   4.454
 4249SOL    HW213647   0.379   1.404   4.561
 4250SOL     OW13648   0.683   5.651   4.071
 4250SOL    HW113649   0.658   5.562   4.108
 4250SOL    HW213650   0.602   5.698   4.036
 4251SOL     OW13651   5.929   2.567   6.663
 4251SOL    HW113652   5.989   2.541   6.587
 4251SOL    HW213653   5.834   2.545   6.639
 4252SOL     OW13654   6.151   6.305   5.400
 4252SOL    HW113655   6.182   6.399   5.416
 4252SOL    HW213656   6.098   6.273   5.478
 4253SOL     OW13657   3.773   6.083   2.309
 4253SOL    HW113658   3.841   6.043   2.370
 4253SOL    HW213659   3.785   6.047   2.216
 4254SOL     OW13660   2.393   3.171   6.978
 4254SOL    HW113661   2.356   3.086   7.016
 4254SOL    HW213662   2.460   3.210   0.019
 4255SOL     OW13663   0.883   4.298   2.594
 4255SOL    HW113664   0.788   4.310   2.623
 4255SOL    HW213665   0.942   4.358   2.648
 4256SOL     OW13666   0.757   4.558   1.681
 4256SOL    HW113667   0.719   4.645   1.710
 4256SOL    HW213668   0.805   4.569   1.593
 4257SOL     OW13669   6.103   1.274   4.808
 4257SOL    HW113670   6.034   1.251   4.877
 4257SOL    HW213671   6.114   1.196   4.745
 4258SOL     OW13672   3.281   5.566   0.639
 4258SOL    HW113673   3.231   5.508   0.702
 4258SOL    HW213674   3.379   5.561   0.660
 4259SOL     OW13675   1.479   6.546   1.376
 4259SOL    HW113676   1.440   6.492   1.301
 4259SOL    HW213677   1.557   6.599   1.343
 4260SOL     OW13678   5.056   6.652   4.961
 4260SOL    HW113679   5.078   6.735   4.910
 4260SOL    HW213680   4.956   6.645   4.971
 4261SOL     OW13681   2.461   0.110   4.647
 4261SOL    HW113682   2.532   0.097   4.578
 4261SOL    HW213683   2.497   0.086   4.737
 4262SOL     OW13684   1.301   4.966   6.287
 4262SOL    HW113685   1.329   4.962   6.191
 4262SOL    HW213686   1.252   4.883   6.311
 4263SOL     OW13687   2.724   2.399   3.551
 4263SOL    HW113688   2.730   2.306   3.514
 4263SOL    HW213689   2.791   2.457   3.506
 4264SOL     OW13690   5.560   1.330   4.511
 4264SOL    HW113691   5.574   1.321   4.609
 4264SOL    HW213692   5.626   1.274   4.462
 4265SOL     OW13693   2.778   0.221   1.230
 4265SOL    HW113694   2.732   0.302   1.265
 4265SOL    HW213695   2.843   0.187   1.298
 4266SOL     OW13696   1.085   6.970   0.026
 4266SOL    HW113697   1.029   6.992   0.105
 4266SOL    HW213698   1.179   6.951   0.056
 4267SOL     OW13699   2.093   3.839   3.945
 4267SOL    HW113700   2.143   3.918   3.908
 4267SOL    HW213701   2.001   3.836   3.906
 4268SOL     OW13702   1.580   5.156   6.119
 4268SOL    HW113703   1.626   5.227   6.064
 4268SOL    HW213704   1.649   5.098   6.161
 4269SOL     OW13705   3.186   1.727   4.244
 4269SOL    HW113706   3.269   1.746   4.297
 4269SOL    HW213707   3.111   1.783   4.277
 4270SOL     OW13708   3.812   3.128   0.654
 4270SOL    HW113709   3.739   3.194   0.671
 4270SOL    HW213710   3.889   3.147   0.716
 4271SOL     OW13711   6.355   0.422   0.947
 4271SOL    HW113712   6.389   0.439   0.854
 4271SOL    HW213713   6.327   0.508   0.989
 4272SOL     OW13714   6.712   3.509   5.836
 4272SOL    HW113715   6.782   3.530   5.768
 4272SOL    HW213716   6.657   3.591   5.853
 4273SOL     OW13717   4.791   6.094   4.581
 4273SOL    HW113718   4.772   6.105   4.484
 4273SOL    HW213719   4.804   6.184   4.623
 4274SOL     OW13720   6.837   6.838   1.634
 4274SOL    HW113721   6.740   6.838   1.658
 4274SOL    HW213722   6.891   6.862   1.714
 4275SOL     OW13723   0.874   2.295   3.665
 4275SOL    HW113724   0.887   2.324   3.570
 4275SOL    HW213725   0.940   2.222   3.686
 4276SOL     OW13726   2.676   5.727   4.316
 4276SOL    HW113727   2.602   5.685   4.369
 4276SOL    HW213728   2.656   5.719   4.219
 4277SOL     OW13729   6.193   5.523   4.336
 4277SOL    HW113730   6.134   5.486   4.264
 4277SOL    HW213731   6.177   5.621   4.344
 4278SOL     OW13732   0.583   6.526   2.099
 4278SOL    HW113733   0.535   6.454   2.148
 4278SOL    HW213734   0.625   6.589   2.164
 4279SOL     OW13735   1.363   1.692   2.338
 4279SOL    HW113736   1.402   1.772   2.292
 4279SOL    HW213737   1.385   1.610   2.285
 4280SOL     OW13738   6.744   0.198   6.753
 4280SOL    HW113739   6.700   0.258   6.686
 4280SOL    HW213740   6.773   0.253   6.832
 4281SOL     OW13741   4.661   5.434   3.952
 4281SOL    HW113742   4.727   5.462   3.882
 4281SOL    HW213743   4.568   5.446   3.917
 4282SOL     OW13744   3.040   4.262   1.101
 4282SOL    HW113745   3.070   4.176   1.143
 4282SOL    HW213746   3.004   4.243   1.010
 4283SOL     OW13747   4.883   0.707   3.814
 4283SOL    HW113748   4.933   0.793   3.808
 4283SOL    HW213749   4.815   0.714   3.887
 4284SOL     OW13750   4.896   5.744   6.919
 4284SOL    HW113751   4.920   5.670   6.856
 4284SOL    HW213752   4.952   5.824   6.899
 4285SOL     OW13753   3.126   0.728   6.461
 4285SOL    HW113754   3.096   0.669   6.536
 4285SOL    HW213755   3.112   0.681   6.374
 4286SOL     OW13756   6.467   1.006   6.581
 4286SOL    HW113757   6.438   1.003   6.486
 4286SOL    HW213758   6.561   1.039   6.586
 4287SOL     OW13759   4.368   0.508   0.034
 4287SOL    HW113760   4.460   0.541   0.018
 4287SOL    HW213761   4.309   0.535   6.981
 4288SOL     OW13762   6.575   6.129   2.030
 4288SOL    HW113763   6.628   6.199   1.982
 4288SOL    HW213764   6.637   6.066   2.077
 4289SOL     OW13765   0.864   2.793   4.957
 4289SOL    HW113766   0.859   2.693   4.955
 4289SOL    HW213767   0.954   2.820   4.992
 4290SOL     OW13768   0.381   0.763   3.216
 4290SOL    HW113769   0.474   0.745   3.183
 4290SOL    HW213770   0.351   0.853   3.186
 4291SOL     OW13771   4.741   3.045   5.856
 4291SOL    HW113772   4.723   3.096   5.772
 4291SOL    HW213773   4.835   3.009   5.853
 4292SOL     OW13774   5.177   2.014   0.603
 4292SOL    HW113775   5.165   1.915   0.595
 4292SOL    HW213776   5.258   2.043   0.552
 4293SOL     OW13777   4.827   4.132   6.554
 4293SOL    HW113778   4.841   4.158   6.458
 4293SOL    HW213779   4.825   4.032   6.560
 4294SOL     OW13780   3.156   2.099   6.230
 4294SOL    HW113781   3.247   2.129   6.200
 4294SOL    HW213782   3.098   2.085   6.150
 4295SOL     OW13783   4.350   6.707   2.154
 4295SOL    HW113784   4.397   6.767   2.089
 4295SOL    HW213785   4.297   6.762   2.219
 4296SOL     OW13786   2.725   6.549   0.685
 4296SOL    HW113787   2.629   6.551   0.715
 4296SOL    HW213788   2.783   6.524   0.762
 4297SOL     OW13789   6.293   5.227   1.205
 4297SOL    HW113790   6.343   5.167   1.142
 4297SOL    HW213791   6.197   5.199   1.209
 4298SOL     OW13792   3.348   6.303   1.382
 4298SOL    HW113793   3.400   6.218   1.377
 4298SOL    HW213794   3.252   6.282   1.403
 4299SOL     OW13795   0.587   2.649   6.971
 4299SOL    HW113796   0.514   2.581   6.962
 4299SOL    HW213797   0.656   2.616   0.013
 4300SOL     OW13798   4.047   0.822   0.855
 4300SOL    HW113799   3.973   0.772   0.900
 4300SOL    HW213800   4.105   0.758   0.805
 4301SOL     OW13801   3.163   6.554   1.952
 4301SOL    HW113802   3.165   6.620   2.027
 4301SOL    HW213803   3.153   6.602   1.865
 4302SOL     OW13804   1.565   6.360   6.609
 4302SOL    HW113805   1.614   6.295   6.551
 4302SOL    HW213806   1.468   6.361   6.583
 4303SOL     OW13807   6.179   4.472   4.406
 4303SOL    HW113808   6.211   4.481   4.500
 4303SOL    HW213809   6.117   4.394   4.398
 4304SOL     OW13810   3.223   3.625   1.618
 4304SOL    HW113811   3.310   3.673   1.632
 4304SOL    HW213812   3.241   3.535   1.580
 4305SOL     OW13813   6.951   0.081   5.808
 4305SOL    HW113814   6.872   0.019   5.809
 4305SOL    HW213815   0.006   0.035   5.764
 4306SOL     OW13816   4.861   3.730   4.590
 4306SOL    HW113817   4.847   3.763   4.683
 4306SOL    HW213818   4.866   3.630   4.590
 4307SOL     OW13819   6.084   2.401   5.568
 4307SOL    HW113820   6.019   2.476   5.553
 4307SOL    HW213821   6.046   2.316   5.531
 4308SOL     OW13822   5.240   4.726   1.751
 4308SOL    HW113823   5.227   4.636   1.791
 4308SOL    HW213824   5.217   4.724   1.654
 4309SOL     OW13825   0.750   3.200   0.790
 4309SOL    HW113826   0.683   3.225   0.722
 4309SOL    HW213827   0.772   3.102   0.781
 4310SOL     OW13828   0.113   1.696   2.044
 4310SOL    HW113829   0.147   1.604   2.063
 4310SOL    HW213830   0.020   1.705   2.081
 4311SOL     OW13831   1.066   6.142   2.292
 4311SOL    HW113832   1.072   6.049   2.255
 4311SOL    HW213833   1.083   6.208   2.219
 4312SOL     OW13834   0.650   5.003   2.084
 4312SOL    HW113835   0.648   5.090   2.034
 4312SOL    HW213836   0.561   4.959   2.077
 4313SOL     OW13837   5.706   1.803   0.619
 4313SOL    HW113838   5.772   1.731   0.598
 4313SOL    HW213839   5.698   1.865   0.540
 4314SOL     OW13840   6.813   2.903   5.346
 4314SOL    HW113841   6.868   2.971   5.395
 4314SOL    HW213842   6.716   2.926   5.354
 4315SOL     OW13843   2.327   1.621   3.944
 4315SOL    HW113844   2.286   1.711   3.959
 4315SOL    HW213845   2.370   1.619   3.854
 4316SOL     OW13846   5.731   0.233   2.207
 4316SOL    HW113847   5.657   0.265   2.148
 4316SOL    HW213848   5.741   0.134   2.198
 4317SOL     OW13849   4.826   1.224   5.777
 4317SOL    HW113850   4.860   1.304   5.727
 4317SOL    HW213851   4.745   1.249   5.830
 4318SOL     OW13852   0.305   1.095   3.638
 4318SOL    HW113853   0.343   1.095   3.730
 4318SOL    HW213854   0.270   1.004   3.617
 4319SOL     OW13855   1.415   3.379   2.179
 4319SOL    HW113856   1.338   3.437   2.205
 4319SOL    HW213857   1.419   3.372   2.079
 4320SOL     OW13858   3.508   6.179   0.571
 4320SOL    HW113859   3.447   6.141   0.641
 4320SOL    HW213860   3.562   6.105   0.530
 4321SOL     OW13861   6.254   6.476   2.329
 4321SOL    HW113862   6.183   6.460   2.398
 4321SOL    HW213863   6.343   6.452   2.366
 4322SOL     OW13864   0.423   2.542   5.260
 4322SOL    HW113865   0.442   2.631   5.219
 4322SOL    HW213866   0.376   2.484   5.194
 4323SOL     OW13867   4.363   5.313   0.060
 4323SOL    HW113868   4.445   5.339   0.112
 4323SOL    HW213869   4.387   5.301   6.986
 4324SOL     OW13870   0.159   3.781   6.019
 4324SOL    HW113871   0.231   3.791   5.950
 4324SOL    HW213872   0.200   3.759   6.107
 4325SOL     OW13873   2.797   0.780   2.969
 4325SOL    HW113874   2.806   0.727   3.053
 4325SOL    HW213875   2.707   0.766   2.929
 4326SOL     OW13876   5.160   2.706   2.089
 4326SOL    HW113877   5.168   2.797   2.048
 4326SOL    HW213878   5.081   2.705   2.150
 4327SOL     OW13879   3.863   5.557   4.390
 4327SOL    HW113880   3.822   5.640   4.352
 4327SOL    HW213881   3.792   5.501   4.434
 4328SOL     OW13882   6.442   5.674   5.305
 4328SOL    HW113883   6.447   5.726   5.220
 4328SOL    HW213884   6.406   5.582   5.287
 4329SOL     OW13885   5.872   2.776   5.741
 4329SOL    HW113886   5.899   2.773   5.837
 4329SOL    HW213887   5.887   2.868   5.705
 4330SOL     OW13888   2.570   5.470   5.517
 4330SOL    HW113889   2.472   5.479   5.501
 4330SOL    HW213890   2.597   5.374   5.506
 4331SOL     OW13891   6.025   0.514   1.536
 4331SOL    HW113892   6.099   0.502   1.603
 4331SOL    HW213893   5.959   0.440   1.544
 4332SOL     OW13894   0.025   4.038   2.318
 4332SOL    HW113895   7.007   3.992   2.397
 4332SOL    HW213896   0.036   4.135   2.337
 4333SOL     OW13897   4.190   2.122   4.997
 4333SOL    HW113898   4.179   2.104   4.899
 4333SOL    HW213899   4.127   2.064   5.049
 4334SOL     OW13900   1.126   2.803   3.091
 4334SOL    HW113901   1.213   2.844   3.119
 4334SOL    HW213902   1.054   2.872   3.096
 4335SOL     OW13903   3.347   3.104   1.073
 4335SOL    HW113904   3.291   3.092   0.992
 4335SOL    HW213905   3.387   3.017   1.100
 4336SOL     OW13906   2.142   5.742   6.072
 4336SOL    HW113907   2.123   5.766   6.167
 4336SOL    HW213908   2.240   5.753   6.054
 4337SOL     OW13909   1.198   5.702   2.332
 4337SOL    HW113910   1.225   5.624   2.276
 4337SOL    HW213911   1.103   5.726   2.312
 4338SOL     OW13912   5.617   0.658   5.380
 4338SOL    HW113913   5.621   0.713   5.464
 4338SOL    HW213914   5.590   0.565   5.404
 4339SOL     OW13915   4.365   2.492   6.235
 4339SOL    HW113916   4.395   2.480   6.140
 4339SOL    HW213917   4.308   2.574   6.242
 4340SOL     OW13918   6.314   3.992   1.058
 4340SOL    HW113919   6.370   3.958   1.134
 4340SOL    HW213920   6.373   4.010   0.979
 4341SOL     OW13921   1.034   5.941   2.127
 4341SOL    HW113922   0.956   5.984   2.083
 4341SOL    HW213923   1.005   5.855   2.170
 4342SOL     OW13924   4.994   3.802   2.655
 4342SOL    HW113925   5.013   3.705   2.641
 4342SOL    HW213926   4.976   3.845   2.566
 4343SOL     OW13927   4.074   0.582   5.778
 4343SOL    HW113928   4.022   0.506   5.816
 4343SOL    HW213929   4.076   0.575   5.678
 4344SOL     OW13930   0.376   2.747   4.137
 4344SOL    HW113931   0.329   2.817   4.084
 4344SOL    HW213932   0.457   2.716   4.086
 4345SOL     OW13933   2.998   3.186   2.514
 4345SOL    HW113934   2.962   3.103   2.558
 4345SOL    HW213935   3.096   3.194   2.532
 4346SOL     OW13936   2.481   2.609   2.429
 4346SOL    HW113937   2.435   2.534   2.383
 4346SOL    HW213938   2.550   2.649   2.368
 4347SOL     OW13939   5.839   5.138   1.628
 4347SOL    HW113940   5.798   5.157   1.539
 4347SOL    HW213941   5.771   5.097   1.689
 4348SOL     OW13942   6.880   5.905   3.922
 4348SOL    HW113943   6.807   5.865   3.978
 4348SOL    HW213944   6.969   5.875   3.956
 4349SOL     OW13945   0.078   3.776   3.741
 4349SOL    HW113946   0.141   3.718   3.792
 4349SOL    HW213947   0.067   3.864   3.788
 4350SOL     OW13948   5.330   1.828   4.714
 4350SOL    HW113949   5.235   1.857   4.729
 4350SOL    HW213950   5.335   1.729   4.719
 4351SOL     OW13951   1.459   0.010   1.153
 4351SOL    HW113952   1.538   0.053   1.109
 4351SOL    HW213953   1.400   0.080   1.194
 4352SOL     OW13954   4.255   4.012   0.921
 4352SOL    HW113955   4.351   3.984   0.914
 4352SOL    HW213956   4.196   3.932   0.918
 4353SOL     OW13957   3.168   3.392   6.934
 4353SOL    HW113958   3.097   3.451   6.895
 4353SOL    HW213959   3.126   3.310   6.972
 4354SOL     OW13960   6.544   0.337   3.690
 4354SOL    HW113961   6.542   0.245   3.730
 4354SOL    HW213962   6.460   0.386   3.716
 4355SOL     OW13963   1.133   6.974   3.422
 4355SOL    HW113964   1.089   6.990   3.334
 4355SOL    HW213965   1.066   6.989   3.495
 4356SOL     OW13966   4.862   2.975   6.326
 4356SOL    HW113967   4.816   3.001   6.411
 4356SOL    HW213968   4.946   3.029   6.316
 4357SOL     OW13969   6.684   0.477   1.935
 4357SOL    HW113970   6.744   0.539   1.884
 4357SOL    HW213971   6.740   0.416   1.991
 4358SOL     OW13972   0.871   0.644   0.356
 4358SOL    HW113973   0.842   0.548   0.356
 4358SOL    HW213974   0.859   0.683   0.265
 4359SOL     OW13975   2.560   0.773   0.197
 4359SOL    HW113976   2.570   0.800   0.292
 4359SOL    HW213977   2.591   0.678   0.186
 4360SOL     OW13978   1.444   2.731   3.440
 4360SOL    HW113979   1.423   2.768   3.349
 4360SOL    HW213980   1.374   2.665   3.466
 4361SOL     OW13981   1.014   1.962   0.973
 4361SOL    HW113982   1.087   1.994   0.913
 4361SOL    HW213983   0.946   2.035   0.984
 4362SOL     OW13984   1.186   5.891   4.427
 4362SOL    HW113985   1.130   5.899   4.509
 4362SOL    HW213986   1.244   5.973   4.418
 4363SOL     OW13987   4.625   0.837   2.652
 4363SOL    HW113988   4.649   0.849   2.556
 4363SOL    HW213989   4.694   0.781   2.697
 4364SOL     OW13990   3.281   3.793   2.748
 4364SOL    HW113991   3.297   3.866   2.815
 4364SOL    HW213992   3.353   3.795   2.679
 4365SOL     OW13993   3.005   2.087   1.752
 4365SOL    HW113994   3.010   2.180   1.790
 4365SOL    HW213995   2.940   2.033   1.807
 4366SOL     OW13996   5.233   5.954   5.240
 4366SOL    HW113997   5.249   6.026   5.307
 4366SOL    HW213998   5.268   5.867   5.275
 4367SOL     OW13999   2.964   5.468   3.870
 4367SOL    HW114000   2.898   5.403   3.907
 4367SOL    HW214001   3.036   5.486   3.937
 4368SOL     OW14002   4.629   5.064   2.534
 4368SOL    HW114003   4.627   5.164   2.528
 4368SOL    HW214004   4.620   5.035   2.629
 4369SOL     OW14005   4.382   5.084   2.823
 4369SOL    HW114006   4.475   5.050   2.808
 4369SOL    HW214007   4.367   5.099   2.921
 4370SOL     OW14008   3.992   4.735   1.833
 4370SOL    HW114009   3.931   4.704   1.760
 4370SOL    HW214010   3.952   4.813   1.880
 4371SOL     OW14011   2.437   0.656   1.344
 4371SOL    HW114012   2.390   0.649   1.432
 4371SOL    HW214013   2.378   0.701   1.277
 4372SOL     OW14014   2.181   2.721   4.653
 4372SOL    HW114015   2.137   2.634   4.630
 4372SOL    HW214016   2.273   2.704   4.687
 4373SOL     OW14017   4.606   1.045   6.086
 4373SOL    HW114018   4.585   1.040   6.184
 4373SOL    HW214019   4.592   0.955   6.044
 4374SOL     OW14020   2.653   2.079   1.281
 4374SOL    HW114021   2.554   2.075   1.294
 4374SOL    HW214022   2.697   2.013   1.341
 4375SOL     OW14023   3.531   0.568   3.403
 4375SOL    HW114024   3.511   0.475   3.372
 4375SOL    HW214025   3.451   0.606   3.449
 4376SOL     OW14026   6.712   6.583   1.341
 4376SOL    HW114027   6.744   6.618   1.253
 4376SOL    HW214028   6.660   6.655   1.388
 4377SOL     OW14029   6.358   6.290   6.566
 4377SOL    HW114030   6.260   6.273   6.575
 4377SOL    HW214031   6.378   6.383   6.598
 4378SOL     OW14032   1.900   6.074   2.950
 4378SOL    HW114033   1.867   6.168   2.944
 4378SOL    HW214034   1.955   6.053   2.869
 4379SOL     OW14035   1.386   0.910   1.464
 4379SOL    HW114036   1.428   0.865   1.542
 4379SOL    HW214037   1.333   0.844   1.411
 4380SOL     OW14038   2.011   5.992   5.364
 4380SOL    HW114039   1.926   6.041   5.386
 4380SOL    HW214040   2.009   5.964   5.269
 4381SOL     OW14041   4.257   6.481   4.530
 4381SOL    HW114042   4.188   6.520   4.591
 4381SOL    HW214043   4.242   6.382   4.523
 4382SOL     OW14044   5.004   3.906   4.422
 4382SOL    HW114045   5.036   3.854   4.343
 4382SOL    HW214046   4.936   3.853   4.472
 4383SOL     OW14047   1.546   2.317   6.012
 4383SOL    HW114048   1.605   2.249   5.970
 4383SOL    HW214049   1.579   2.409   5.991
 4384SOL     OW14050   3.683   6.296   1.212
 4384SOL    HW114051   3.623   6.262   1.140
 4384SOL    HW214052   3.723   6.219   1.262
 4385SOL     OW14053   0.171   1.385   3.743
 4385SOL    HW114054   0.072   1.370   3.739
 4385SOL    HW214055   0.194   1.468   3.693
 4386SOL     OW14056   0.669   3.851   6.844
 4386SOL    HW114057   0.579   3.865   6.886
 4386SOL    HW214058   0.697   3.756   6.854
 4387SOL     OW14059   6.545   3.114   1.420
 4387SOL    HW114060   6.564   3.212   1.411
 4387SOL    HW214061   6.471   3.089   1.357
 4388SOL     OW14062   3.192   0.307   5.958
 4388SOL    HW114063   3.255   0.234   5.984
 4388SOL    HW214064   3.141   0.280   5.876
 4389SOL     OW14065   5.679   2.992   1.734
 4389SOL    HW114066   5.632   2.915   1.777
 4389SOL    HW214067   5.730   2.959   1.654
 4390SOL     OW14068   5.117   2.172   1.738
 4390SOL    HW114069   5.145   2.112   1.663
 4390SOL    HW214070   5.139   2.267   1.714
 4391SOL     OW14071   0.948   5.868   0.159
 4391SOL    HW114072   0.937   5.865   0.060
 4391SOL    HW214073   1.023   5.930   0.183
 4392SOL     OW14074   5.095   3.045   4.242
 4392SOL    HW114075   5.075   3.131   4.196
 4392SOL    HW214076   5.154   3.061   4.321
 4393SOL     OW14077   5.170   0.393   3.310
 4393SOL    HW114078   5.117   0.411   3.392
 4393SOL    HW214079   5.213   0.303   3.317
 4394SOL     OW14080   5.632   6.230   2.717
 4394SOL    HW114081   5.657   6.218   2.813
 4394SOL    HW214082   5.579   6.151   2.686
 4395SOL     OW14083   4.520   1.267   2.094
 4395SOL    HW114084   4.529   1.288   1.997
 4395SOL    HW214085   4.464   1.338   2.138
 4396SOL     OW14086   0.866   0.897   4.299
 4396SOL    HW114087   0.943   0.961   4.294
 4396SOL    HW214088   0.781   0.949   4.310
 4397SOL     OW14089   6.896   1.106   4.779
 4397SOL    HW114090   6.977   1.091   4.723
 4397SOL    HW214091   6.877   1.204   4.784
 4398SOL     OW14092   0.886   4.298   4.369
 4398SOL    HW114093   0.901   4.325   4.464
 4398SOL    HW214094   0.935   4.360   4.308
 4399SOL     OW14095   2.084   1.466   0.380
 4399SOL    HW114096   2.073   1.462   0.479
 4399SOL    HW214097   2.178   1.442   0.356
 4400SOL     OW14098   2.587   6.607   4.167
 4400SOL    HW114099   2.595   6.650   4.077
 4400SOL    HW214100   2.577   6.508   4.156
 4401SOL     OW14101   5.837   5.868   4.670
 4401SOL    HW114102   5.891   5.817   4.737
 4401SOL    HW214103   5.863   5.965   4.674
 4402SOL     OW14104   0.919   5.731   3.077
 4402SOL    HW114105   0.936   5.666   3.003
 4402SOL    HW214106   0.934   5.686   3.165
 4403SOL     OW14107   7.010   0.227   3.147
 4403SOL    HW114108   0.076   0.189   3.172
 4403SOL    HW214109   7.020   0.324   3.124
 4404SOL     OW14110   0.739   4.274   3.589
 4404SOL    HW114111   0.817   4.326   3.555
 4404SOL    HW214112   0.693   4.326   3.661
 4405SOL     OW14113   3.143   4.737   5.953
 4405SOL    HW114114   3.211   4.705   6.019
 4405SOL    HW214115   3.155   4.835   5.939
 4406SOL     OW14116   5.134   4.473   1.875
 4406SOL    HW114117   5.171   4.385   1.905
 4406SOL    HW214118   5.070   4.507   1.944
 4407SOL     OW14119   6.821   6.248   0.350
 4407SOL    HW114120   6.771   6.334   0.359
 4407SOL    HW214121   6.761   6.179   0.310
 4408SOL     OW14122   4.834   0.322   0.514
 4408SOL    HW114123   4.830   0.366   0.425
 4408SOL    HW214124   4.791   0.232   0.510
 4409SOL     OW14125   4.000   1.898   2.157
 4409SOL    HW114126   4.035   1.929   2.069
 4409SOL    HW214127   3.913   1.851   2.145
 4410SOL     OW14128   2.370   4.788   1.316
 4410SOL    HW114129   2.358   4.815   1.220
 4410SOL    HW214130   2.461   4.815   1.347
 4411SOL     OW14131   3.564   3.209   2.756
 4411SOL    HW114132   3.538   3.126   2.805
 4411SOL    HW214133   3.526   3.207   2.664
 4412SOL     OW14134   3.510   1.045   6.015
 4412SOL    HW114135   3.444   0.969   6.014
 4412SOL    HW214136   3.465   1.128   5.983
 4413SOL     OW14137   3.883   5.623   4.043
 4413SOL    HW114138   3.875   5.581   4.133
 4413SOL    HW214139   3.889   5.723   4.054
 4414SOL     OW14140   4.059   4.746   2.437
 4414SOL    HW114141   4.096   4.742   2.529
 4414SOL    HW214142   3.975   4.693   2.432
 4415SOL     OW14143   5.252   4.040   6.126
 4415SOL    HW114144   5.290   4.129   6.103
 4415SOL    HW214145   5.153   4.040   6.108
 4416SOL     OW14146   2.688   1.425   4.497
 4416SOL    HW114147   2.684   1.325   4.489
 4416SOL    HW214148   2.731   1.463   4.416
 4417SOL     OW14149   0.367   4.968   1.822
 4417SOL    HW114150   0.331   5.061   1.810
 4417SOL    HW214151   0.383   4.951   1.919
 4418SOL     OW14152   4.487   6.511   3.761
 4418SOL    HW114153   4.443   6.584   3.708
 4418SOL    HW214154   4.575   6.544   3.796
 4419SOL     OW14155   6.320   5.219   0.637
 4419SOL    HW114156   6.329   5.255   0.730
 4419SOL    HW214157   6.408   5.185   0.606
 4420SOL     OW14158   4.217   0.646   0.773
 4420SOL    HW114159   4.229   0.550   0.751
 4420SOL    HW214160   4.301   0.682   0.814
 4421SOL     OW14161   1.824   1.834   2.750
 4421SOL    HW114162   1.921   1.856   2.735
 4421SOL    HW214163   1.769   1.917   2.736
 4422SOL     OW14164   2.883   3.739   6.629
 4422SOL    HW114165   2.976   3.763   6.599
 4422SOL    HW214166   2.817   3.771   6.561
 4423SOL     OW14167   1.014   2.048   6.377
 4423SOL    HW114168   1.039   2.014   6.467
 4423SOL    HW214169   1.061   1.994   6.307
 4424SOL     OW14170   5.280   6.185   3.443
 4424SOL    HW114171   5.268   6.261   3.379
 4424SOL    HW214172   5.278   6.099   3.392
 4425SOL     OW14173   3.613   5.837   5.918
 4425SOL    HW114174   3.558   5.810   5.839
 4425SOL    HW214175   3.709   5.818   5.900
 4426SOL     OW14176   6.957   1.077   5.153
 4426SOL    HW114177   0.023   1.032   5.158
 4426SOL    HW214178   6.902   1.035   5.081
 4427SOL     OW14179   0.556   0.230   3.186
 4427SOL    HW114180   0.528   0.326   3.195
 4427SOL    HW214181   0.583   0.195   3.276
 4428SOL     OW14182   2.629   4.869   4.410
 4428SOL    HW114183   2.553   4.853   4.346
 4428SOL    HW214184   2.622   4.804   4.485
 4429SOL     OW14185   2.740   6.390   3.444
 4429SOL    HW114186   2.663   6.441   3.405
 4429SOL    HW214187   2.710   6.299   3.471
 4430SOL     OW14188   3.943   1.781   2.637
 4430SOL    HW114189   3.870   1.841   2.669
 4430SOL    HW214190   3.908   1.722   2.564
 4431SOL     OW14191   2.843   1.673   3.614
 4431SOL    HW114192   2.939   1.691   3.637
 4431SOL    HW214193   2.839   1.608   3.538
 4432SOL     OW14194   3.249   3.272   3.117
 4432SOL    HW114195   3.319   3.202   3.104
 4432SOL    HW214196   3.202   3.289   3.031
 4433SOL     OW14197   5.441   6.448   2.975
 4433SOL    HW114198   5.513   6.517   2.966
 4433SOL    HW214199   5.393   6.438   2.888
 4434SOL     OW14200   5.139   1.663   3.835
 4434SOL    HW114201   5.100   1.582   3.791
 4434SOL    HW214202   5.238   1.651   3.846
 4435SOL     OW14203   3.603   3.390   1.329
 4435SOL    HW114204   3.561   3.369   1.241
 4435SOL    HW214205   3.641   3.306   1.369
 4436SOL     OW14206   3.163   1.992   0.354
 4436SOL    HW114207   3.242   2.048   0.329
 4436SOL    HW214208   3.159   1.983   0.453
 4437SOL     OW14209   4.334   0.771   4.536
 4437SOL    HW114210   4.344   0.782   4.635
 4437SOL    HW214211   4.294   0.854   4.497
 4438SOL     OW14212   4.185   2.244   6.698
 4438SOL    HW114213   4.182   2.337   6.663
 4438SOL    HW214214   4.127   2.237   6.780
 4439SOL     OW14215   0.665   5.473   1.829
 4439SOL    HW114216   0.659   5.382   1.870
 4439SOL    HW214217   0.590   5.486   1.764
 4440SOL     OW14218   1.829   6.123   7.017
 4440SOL    HW114219   1.866   6.142   0.086
 4440SOL    HW214220   1.901   6.082   6.961
 4441SOL     OW14221   6.517   2.860   2.498
 4441SOL    HW114222   6.588   2.885   2.562
 4441SOL    HW214223   6.447   2.805   2.545
 4442SOL     OW14224   4.003   6.511   3.476
 4442SOL    HW114225   3.985   6.504   3.574
 4442SOL    HW214226   3.920   6.538   3.428
 4443SOL     OW14227   2.426   2.259   6.174
 4443SOL    HW114228   2.362   2.188   6.202
 4443SOL    HW214229   2.382   2.349   6.180
 4444SOL     OW14230   4.406   6.260   1.317
 4444SOL    HW114231   4.385   6.225   1.408
 4444SOL    HW214232   4.502   6.284   1.312
 4445SOL     OW14233   1.311   0.887   6.047
 4445SOL    HW114234   1.232   0.842   6.006
 4445SOL    HW214235   1.379   0.819   6.073
 4446SOL     OW14236   6.020   0.036   2.562
 4446SOL    HW114237   6.082   0.089   2.503
 4446SOL    HW214238   5.930   0.032   2.519
 4447SOL     OW14239   5.774   3.331   6.223
 4447SOL    HW114240   5.798   3.276   6.142
 4447SOL    HW214241   5.676   3.349   6.223
 4448SOL     OW14242   2.578   3.382   0.921
 4448SOL    HW114243   2.598   3.453   0.854
 4448SOL    HW214244   2.591   3.292   0.879
 4449SOL     OW14245   2.840   0.626   5.097
 4449SOL    HW114246   2.766   0.692   5.106
 4449SOL    HW214247   2.858   0.609   5.000
 4450SOL     OW14248   3.487   2.886   3.170
 4450SOL    HW114249   3.403   2.924   3.210
 4450SOL    HW214250   3.548   2.855   3.244
 4451SOL     OW14251   6.678   4.217   2.227
 4451SOL    HW114252   6.707   4.138   2.281
 4451SOL    HW214253   6.580   4.232   2.240
 4452SOL     OW14254   5.879   6.387   5.810
 4452SOL    HW114255   5.786   6.421   5.827
 4452SOL    HW214256   5.945   6.450   5.852
 4453SOL     OW14257   5.719   2.743   1.862
 4453SOL    HW114258   5.785   2.694   1.918
 4453SOL    HW214259   5.729   2.715   1.766
 4454SOL     OW14260   5.205   2.718   1.050
 4454SOL    HW114261   5.113   2.747   1.023
 4454SOL    HW214262   5.273   2.761   0.990
 4455SOL     OW14263   3.416   6.683   2.312
 4455SOL    HW114264   3.439   6.707   2.218
 4455SOL    HW214265   3.430   6.585   2.326
 4456SOL     OW14266   1.951   5.633   2.632
 4456SOL    HW114267   1.857   5.663   2.652
 4456SOL    HW214268   2.002   5.708   2.591
 4457SOL     OW14269   4.212   2.268   6.254
 4457SOL    HW114270   4.255   2.356   6.233
 4457SOL    HW214271   4.282   2.196   6.254
 4458SOL     OW14272   2.493   2.815   6.332
 4458SOL    HW114273   2.577   2.798   6.280
 4458SOL    HW214274   2.516   2.859   6.419
 4459SOL     OW14275   4.622   6.910   4.811
 4459SOL    HW114276   4.540   6.884   4.862
 4459SOL    HW214277   4.656   6.998   4.845
 4460SOL     OW14278   2.613   3.632   7.004
 4460SOL    HW114279   2.514   3.615   7.010
 4460SOL    HW214280   2.646   3.607   6.913
 4461SOL     OW14281   1.255   0.280   2.249
 4461SOL    HW114282   1.351   0.264   2.228
 4461SOL    HW214283   1.231   0.375   2.228
 4462SOL     OW14284   6.210   4.985   0.844
 4462SOL    HW114285   6.130   5.040   0.866
 4462SOL    HW214286   6.282   5.003   0.911
 4463SOL     OW14287   1.873   3.247   6.211
 4463SOL    HW114288   1.829   3.296   6.136
 4463SOL    HW214289   1.886   3.309   6.288
 4464SOL     OW14290   5.839   4.635   6.270
 4464SOL    HW114291   5.855   4.558   6.208
 4464SOL    HW214292   5.852   4.605   6.365
 4465SOL     OW14293   1.953   6.214   2.170
 4465SOL    HW114294   1.896   6.295   2.185
 4465SOL    HW214295   1.917   6.162   2.092
 4466SOL     OW14296   0.610   1.456   2.377
 4466SOL    HW114297   0.649   1.527   2.435
 4466SOL    HW214298   0.605   1.488   2.282
 4467SOL     OW14299   1.328   6.663   3.099
 4467SOL    HW114300   1.237   6.677   3.061
 4467SOL    HW214301   1.327   6.684   3.197
 4468SOL     OW14302   0.966   2.260   6.662
 4468SOL    HW114303   1.028   2.239   6.738
 4468SOL    HW214304   0.949   2.177   6.609
 4469SOL     OW14305   3.205   0.384   1.415
 4469SOL    HW114306   3.272   0.410   1.345
 4469SOL    HW214307   3.123   0.440   1.403
 4470SOL     OW14308   4.827   3.841   1.806
 4470SOL    HW114309   4.742   3.891   1.787
 4470SOL    HW214310   4.866   3.873   1.892
 4471SOL     OW14311   0.315   2.578   1.342
 4471SOL    HW114312   0.270   2.655   1.388
 4471SOL    HW214313   0.321   2.597   1.244
 4472SOL     OW14314   1.857   4.343   2.295
 4472SOL    HW114315   1.764   4.380   2.291
 4472SOL    HW214316   1.923   4.417   2.280
 4473SOL     OW14317   0.305   0.094   4.717
 4473SOL    HW114318   0.295   0.187   4.752
 4473SOL    HW214319   0.273   0.091   4.622
 4474SOL     OW14320   4.037   0.272   2.453
 4474SOL    HW114321   3.994   0.300   2.539
 4474SOL    HW214322   3.995   0.186   2.422
 4475SOL     OW14323   1.678   3.840   0.849
 4475SOL    HW114324   1.618   3.845   0.929
 4475SOL    HW214325   1.773   3.858   0.876
 4476SOL     OW14326   5.421   6.380   2.033
 4476SOL    HW114327   5.475   6.419   2.108
 4476SOL    HW214328   5.324   6.382   2.058
 4477SOL     OW14329   1.849   1.233   6.702
 4477SOL    HW114330   1.854   1.332   6.714
 4477SOL    HW214331   1.781   1.196   6.766
 4478SOL     OW14332   2.426   6.675   2.581
 4478SOL    HW114333   2.390   6.729   2.504
 4478SOL    HW214334   2.517   6.641   2.558
 4479SOL     OW14335   0.981   0.708   6.015
 4479SOL    HW114336   0.960   0.696   5.918
 4479SOL    HW214337   0.931   0.788   6.050
 4480SOL     OW14338   1.412   4.064   4.767
 4480SOL    HW114339   1.446   4.067   4.861
 4480SOL    HW214340   1.488   4.049   4.704
 4481SOL     OW14341   1.286   6.523   4.108
 4481SOL    HW114342   1.204   6.490   4.061
 4481SOL    HW214343   1.326   6.599   4.055
 4482SOL     OW14344   1.149   4.381   4.132
 4482SOL    HW114345   1.060   4.345   4.105
 4482SOL    HW214346   1.220   4.313   4.115
 4483SOL     OW14347   6.605   2.657   1.216
 4483SOL    HW114348   6.652   2.746   1.213
 4483SOL    HW214349   6.535   2.660   1.288
 4484SOL     OW14350   3.863   2.687   5.518
 4484SOL    HW114351   3.886   2.730   5.430
 4484SOL    HW214352   3.786   2.624   5.505
 4485SOL     OW14353   4.911   1.998   6.518
 4485SOL    HW114354   4.968   2.041   6.588
 4485SOL    HW214355   4.890   1.904   6.545
 4486SOL     OW14356   0.178   4.210   4.977
 4486SOL    HW114357   0.173   4.259   5.064
 4486SOL    HW214358   0.270   4.173   4.964
 4487SOL     OW14359   2.670   3.612   6.735
 4487SOL    HW114360   2.595   3.572   6.683
 4487SOL    HW214361   2.736   3.654   6.672
 4488SOL     OW14362   5.747   2.408   5.173
 4488SOL    HW114363   5.767   2.336   5.239
 4488SOL    HW214364   5.649   2.426   5.172
 4489SOL     OW14365   5.371   5.390   4.649
 4489SOL    HW114366   5.299   5.452   4.621
 4489SOL    HW214367   5.458   5.438   4.651
 4490SOL     OW14368   5.962   1.499   1.836
 4490SOL    HW114369   5.892   1.429   1.846
 4490SOL    HW214370   6.052   1.457   1.826
 4491SOL     OW14371   1.569   3.859   2.877
 4491SOL    HW114372   1.612   3.796   2.812
 4491SOL    HW214373   1.568   3.951   2.838
 4492SOL     OW14374   5.136   2.142   0.162
 4492SOL    HW114375   5.213   2.101   0.114
 4492SOL    HW214376   5.093   2.074   0.221
 4493SOL     OW14377   4.934   5.412   5.022
 4493SOL    HW114378   4.889   5.501   5.019
 4493SOL    HW214379   4.880   5.345   4.972
 4494SOL     OW14380   0.068   3.456   5.541
 4494SOL    HW114381   7.017   3.515   5.575
 4494SOL    HW214382   0.061   3.448   5.442
 4495SOL     OW14383   5.524   6.508   2.226
 4495SOL    HW114384   5.473   6.592   2.246
 4495SOL    HW214385   5.617   6.531   2.198
 4496SOL     OW14386   5.920   4.604   6.557
 4496SOL    HW114387   5.987   4.646   6.618
 4496SOL    HW214388   5.846   4.564   6.611
 4497SOL     OW14389   5.127   5.953   6.613
 4497SOL    HW114390   5.065   5.943   6.691
 4497SOL    HW214391   5.211   5.998   6.643
 4498SOL     OW14392   0.221   4.275   6.421
 4498SOL    HW114393   0.297   4.316   6.472
 4498SOL    HW214394   0.164   4.347   6.383
 4499SOL     OW14395   0.108   3.136   4.750
 4499SOL    HW114396   0.103   3.227   4.791
 4499SOL    HW214397   0.069   3.068   4.813
 4500SOL     OW14398   2.959   3.691   4.038
 4500SOL    HW114399   2.971   3.600   3.999
 4500SOL    HW214400   2.942   3.757   3.963
 4501SOL     OW14401   1.152   3.978   5.615
 4501SOL    HW114402   1.079   3.914   5.593
 4501SOL    HW214403   1.117   4.047   5.679
 4502SOL     OW14404   1.573   2.751   6.259
 4502SOL    HW114405   1.550   2.788   6.349
 4502SOL    HW214406   1.663   2.783   6.231
 4503SOL     OW14407   2.132   1.158   3.273
 4503SOL    HW114408   2.091   1.067   3.278
 4503SOL    HW214409   2.223   1.155   3.315
 4504SOL     OW14410   5.925   2.627   5.509
 4504SOL    HW114411   6.000   2.686   5.477
 4504SOL    HW214412   5.898   2.655   5.601
 4505SOL     OW14413   0.569   6.203   5.101
 4505SOL    HW114414   0.516   6.277   5.142
 4505SOL    HW214415   0.519   6.165   5.024
 4506SOL     OW14416   3.625   1.508   4.868
 4506SOL    HW114417   3.623   1.485   4.771
 4506SOL    HW214418   3.609   1.606   4.880
 4507SOL     OW14419   4.873   4.841   1.148
 4507SOL    HW114420   4.826   4.802   1.069
 4507SOL    HW214421   4.968   4.862   1.122
 4508SOL     OW14422   1.918   3.684   0.051
 4508SOL    HW114423   2.004   3.693   0.001
 4508SOL    HW214424   1.844   3.726   7.021
 4509SOL     OW14425   4.147   2.002   4.686
 4509SOL    HW114426   4.185   2.047   4.606
 4509SOL    HW214427   4.068   2.053   4.719
 4510SOL     OW14428   5.961   0.763   5.235
 4510SOL    HW114429   6.007   0.710   5.165
 4510SOL    HW214430   5.929   0.703   5.308
 4511SOL     OW14431   0.037   3.001   0.574
 4511SOL    HW114432   0.002   2.913   0.606
 4511SOL    HW214433   0.024   3.070   0.645
 4512SOL     OW14434   2.762   6.798   6.940
 4512SOL    HW114435   2.697   6.860   6.895
 4512SOL    HW214436   2.745   6.797   0.016
 4513SOL     OW14437   4.405   6.481   1.633
 4513SOL    HW114438   4.335   6.414   1.659
 4513SOL    HW214439   4.369   6.574   1.647
 4514SOL     OW14440   3.587   1.184   4.403
 4514SOL    HW114441   3.515   1.225   4.460
 4514SOL    HW214442   3.654   1.139   4.462
 4515SOL     OW14443   6.726   4.507   6.980
 4515SOL    HW114444   6.672   4.556   6.912
 4515SOL    HW214445   6.816   4.550   6.989
 4516SOL     OW14446   1.415   1.329   5.899
 4516SOL    HW114447   1.383   1.421   5.920
 4516SOL    HW214448   1.469   1.330   5.814
 4517SOL     OW14449   3.513   0.101   6.821
 4517SOL    HW114450   3.439   0.098   6.889
 4517SOL    HW214451   3.550   0.194   6.817
 4518SOL     OW14452   0.907   1.696   3.966
 4518SOL    HW114453   0.880   1.695   4.062
 4518SOL    HW214454   0.988   1.753   3.954
 4519SOL     OW14455   0.515   1.786   3.518
 4519SOL    HW114456   0.532   1.816   3.424
 4519SOL    HW214457   0.469   1.697   3.517
 4520SOL     OW14458   6.045   4.683   2.265
 4520SOL    HW114459   6.119   4.748   2.276
 4520SOL    HW214460   6.064   4.621   2.189
 4521SOL     OW14461   4.849   2.470   6.010
 4521SOL    HW114462   4.852   2.502   6.105
 4521SOL    HW214463   4.877   2.374   6.006
 4522SOL     OW14464   5.529   6.866   3.898
 4522SOL    HW114465   5.505   6.900   3.989
 4522SOL    HW214466   5.628   6.850   3.893
 4523SOL     OW14467   2.537   5.242   0.378
 4523SOL    HW114468   2.602   5.258   0.304
 4523SOL    HW214469   2.501   5.330   0.410
 4524SOL     OW14470   5.374   1.860   5.351
 4524SOL    HW114471   5.388   1.774   5.400
 4524SOL    HW214472   5.411   1.853   5.258
 4525SOL     OW14473   6.547   1.702   4.252
 4525SOL    HW114474   6.586   1.791   4.276
 4525SOL    HW214475   6.611   1.630   4.277
 4526SOL     OW14476   5.007   6.705   1.475
 4526SOL    HW114477   4.970   6.614   1.492
 4526SOL    HW214478   4.967   6.769   1.541
 4527SOL     OW14479   3.996   0.792   3.057
 4527SOL    HW114480   4.045   0.713   3.095
 4527SOL    HW214481   3.947   0.839   3.130
 4528SOL     OW14482   5.369   0.137   0.136
 4528SOL    HW114483   5.385   0.164   0.231
 4528SOL    HW214484   5.438   0.070   0.109
 4529SOL     OW14485   2.525   0.713   3.118
 4529SOL    HW114486   2.439   0.664   3.128
 4529SOL    HW214487   2.530   0.751   3.025
 4530SOL     OW14488   0.649   3.069   5.648
 4530SOL    HW114489   0.600   3.134   5.591
 4530SOL    HW214490   0.584   3.019   5.705
 4531SOL     OW14491   0.899   3.640   3.284
 4531SOL    HW114492   0.985   3.613   3.327
 4531SOL    HW214493   0.892   3.596   3.194
 4532SOL     OW14494   6.685   1.248   1.063
 4532SOL    HW114495   6.741   1.176   1.101
 4532SOL    HW214496   6.614   1.274   1.129
 4533SOL     OW14497   2.003   6.388   3.151
 4533SOL    HW114498   2.062   6.339   3.087
 4533SOL    HW214499   2.058   6.425   3.227
 4534SOL     OW14500   6.001   3.624   5.361
 4534SOL    HW114501   5.946   3.606   5.443
 4534SOL    HW214502   6.077   3.684   5.385
 4535SOL     OW14503   4.886   2.811   1.967
 4535SOL    HW114504   4.945   2.820   1.887
 4535SOL    HW214505   4.835   2.896   1.981
 4536SOL     OW14506   5.350   1.078   4.939
 4536SOL    HW114507   5.254   1.105   4.940
 4536SOL    HW214508   5.369   1.028   4.854
 4537SOL     OW14509   3.897   3.265   6.599
 4537SOL    HW114510   3.882   3.323   6.679
 4537SOL    HW214511   3.972   3.202   6.617
 4538SOL     OW14512   3.614   1.647   3.481
 4538SOL    HW114513   3.711   1.637   3.461
 4538SOL    HW214514   3.591   1.596   3.564
 4539SOL     OW14515   2.722   2.147   3.490
 4539SOL    HW114516   2.693   2.063   3.536
 4539SOL    HW214517   2.790   2.125   3.420
 4540SOL     OW14518   3.535   3.618   4.481
 4540SOL    HW114519   3.583   3.688   4.427
 4540SOL    HW214520   3.576   3.528   4.462
 4541SOL     OW14521   5.062   1.077   0.184
 4541SOL    HW114522   5.139   1.132   0.217
 4541SOL    HW214523   4.986   1.137   0.161
 4542SOL     OW14524   6.264   6.107   1.440
 4542SOL    HW114525   6.250   6.174   1.514
 4542SOL    HW214526   6.183   6.048   1.433
 4543SOL     OW14527   4.849   1.651   0.825
 4543SOL    HW114528   4.855   1.560   0.783
 4543SOL    HW214529   4.842   1.721   0.754
 4544SOL     OW14530   2.443   6.144   6.937
 4544SOL    HW114531   2.484   6.065   6.892
 4544SOL    HW214532   2.437   6.127   0.013
 4545SOL     OW14533   4.088   2.195   5.301
 4545SOL    HW114534   4.026   2.269   5.278
 4545SOL    HW214535   4.091   2.183   5.400
 4546SOL     OW14536   1.008   6.575   6.050
 4546SOL    HW114537   1.022   6.486   6.007
 4546SOL    HW214538   1.005   6.564   6.149
 4547SOL     OW14539   5.603   2.488   1.178
 4547SOL    HW114540   5.611   2.420   1.251
 4547SOL    HW214541   5.588   2.441   1.091
 4548SOL     OW14542   0.414   4.714   3.796
 4548SOL    HW114543   0.411   4.672   3.887
 4548SOL    HW214544   0.322   4.715   3.757
 4549SOL     OW14545   6.998   3.256   2.953
 4549SOL    HW114546   6.968   3.351   2.937
 4549SOL    HW214547   6.935   3.194   2.908
 4550SOL     OW14548   0.955   6.137   3.634
 4550SOL    HW114549   1.012   6.167   3.711
 4550SOL    HW214550   0.966   6.039   3.620
 4551SOL     OW14551   0.554   2.806   5.059
 4551SOL    HW114552   0.643   2.807   5.013
 4551SOL    HW214553   0.505   2.723   5.033
 4552SOL     OW14554   0.369   3.281   5.285
 4552SOL    HW114555   0.335   3.307   5.194
 4552SOL    HW214556   0.360   3.182   5.296
 4553SOL     OW14557   4.835   4.939   0.180
 4553SOL    HW114558   4.865   5.028   0.216
 4553SOL    HW214559   4.839   4.941   0.080
 4554SOL     OW14560   4.305   0.219   2.475
 4554SOL    HW114561   4.285   0.153   2.547
 4554SOL    HW214562   4.220   0.259   2.441
 4555SOL     OW14563   4.667   2.247   6.626
 4555SOL    HW114564   4.578   2.235   6.669
 4555SOL    HW214565   4.657   2.302   6.543
 4556SOL     OW14566   3.882   0.567   3.883
 4556SOL    HW114567   3.946   0.569   3.807
 4556SOL    HW214568   3.791   0.595   3.851
 4557SOL     OW14569   5.213   0.372   4.991
 4557SOL    HW114570   5.291   0.366   5.054
 4557SOL    HW214571   5.181   0.466   4.988
 4558SOL     OW14572   6.558   3.795   6.590
 4558SOL    HW114573   6.636   3.743   6.556
 4558SOL    HW214574   6.498   3.818   6.513
 4559SOL     OW14575   1.294   6.004   1.367
 4559SOL    HW114576   1.269   5.969   1.457
 4559SOL    HW214577   1.384   6.048   1.372
 4560SOL     OW14578   4.879   3.490   3.321
 4560SOL    HW114579   4.867   3.426   3.244
 4560SOL    HW214580   4.819   3.462   3.396
 4561SOL     OW14581   3.129   1.271   0.341
 4561SOL    HW114582   3.034   1.242   0.353
 4561SOL    HW214583   3.146   1.355   0.393
 4562SOL     OW14584   3.407   5.835   5.724
 4562SOL    HW114585   3.460   5.891   5.660
 4562SOL    HW214586   3.366   5.758   5.675
 4563SOL     OW14587   5.881   2.491   0.275
 4563SOL    HW114588   5.912   2.546   0.353
 4563SOL    HW214589   5.796   2.444   0.298
 4564SOL     OW14590   0.860   5.239   0.504
 4564SOL    HW114591   0.947   5.189   0.507
 4564SOL    HW214592   0.785   5.174   0.491
 4565SOL     OW14593   0.707   1.950   4.850
 4565SOL    HW114594   0.674   1.949   4.944
 4565SOL    HW214595   0.794   1.998   4.846
 4566SOL     OW14596   0.193   0.004   6.943
 4566SOL    HW114597   0.278   0.050   6.915
 4566SOL    HW214598   0.145   0.060   7.010
 4567SOL     OW14599   0.097   0.571   0.697
 4567SOL    HW114600   0.123   0.668   0.695
 4567SOL    HW214601   0.042   0.553   0.779
 4568SOL     OW14602   2.856   4.937   5.401
 4568SOL    HW114603   2.868   4.985   5.488
 4568SOL    HW214604   2.819   4.846   5.418
 4569SOL     OW14605   1.081   1.429   4.325
 4569SOL    HW114606   1.024   1.447   4.405
 4569SOL    HW214607   1.083   1.330   4.308
 4570SOL     OW14608   0.009   5.852   3.360
 4570SOL    HW114609   6.964   5.778   3.371
 4570SOL    HW214610   0.100   5.812   3.354
 4571SOL     OW14611   3.095   3.353   4.680
 4571SOL    HW114612   3.112   3.254   4.684
 4571SOL    HW214613   3.171   3.402   4.722
 4572SOL     OW14614   0.134   6.809   0.948
 4572SOL    HW114615   0.056   6.783   0.892
 4572SOL    HW214616   0.114   6.789   1.044
 4573SOL     OW14617   5.904   6.101   1.386
 4573SOL    HW114618   5.930   6.197   1.375
 4573SOL    HW214619   5.852   6.072   1.306
 4574SOL     OW14620   6.876   4.646   1.190
 4574SOL    HW114621   6.855   4.564   1.244
 4574SOL    HW214622   6.974   4.647   1.168
 4575SOL     OW14623   6.243   1.883   0.445
 4575SOL    HW114624   6.330   1.911   0.404
 4575SOL    HW214625   6.240   1.913   0.540
 4576SOL     OW14626   2.667   5.579   6.797
 4576SOL    HW114627   2.701   5.485   6.801
 4576SOL    HW214628   2.661   5.609   6.702
 4577SOL     OW14629   0.607   3.465   3.156
 4577SOL    HW114630   0.527   3.453   3.214
 4577SOL    HW214631   0.595   3.546   3.098
 4578SOL     OW14632   0.543   3.562   3.889
 4578SOL    HW114633   0.528   3.512   3.974
 4578SOL    HW214634   0.631   3.609   3.893
 4579SOL     OW14635   4.730   1.700   2.873
 4579SOL    HW114636   4.797   1.711   2.800
 4579SOL    HW214637   4.767   1.735   2.959
 4580SOL     OW14638   5.981   5.431   0.841
 4580SOL    HW114639   6.034   5.468   0.765
 4580SOL    HW214640   5.888   5.410   0.810
 4581SOL     OW14641   3.159   4.897   3.329
 4581SOL    HW114642   3.145   4.984   3.376
 4581SOL    HW214643   3.233   4.847   3.374
 4582SOL     OW14644   5.205   6.614   3.888
 4582SOL    HW114645   5.191   6.709   3.861
 4582SOL    HW214646   5.268   6.570   3.823
 4583SOL     OW14647   3.056   2.037   5.151
 4583SOL    HW114648   3.056   2.124   5.101
 4583SOL    HW214649   3.069   1.962   5.088
 4584SOL     OW14650   0.227   5.909   5.759
 4584SOL    HW114651   0.215   5.816   5.724
 4584SOL    HW214652   0.318   5.943   5.733
 4585SOL     OW14653   3.322   6.386   2.849
 4585SOL    HW114654   3.232   6.364   2.811
 4585SOL    HW214655   3.382   6.307   2.841
 4586SOL     OW14656   3.132   5.245   1.345
 4586SOL    HW114657   3.098   5.294   1.265
 4586SOL    HW214658   3.168   5.311   1.412
 4587SOL     OW14659   4.026   3.406   1.609
 4587SOL    HW114660   3.983   3.355   1.684
 4587SOL    HW214661   4.108   3.357   1.578
 4588SOL     OW14662   3.803   3.806   4.764
 4588SOL    HW114663   3.772   3.711   4.774
 4588SOL    HW214664   3.868   3.828   4.836
 4589SOL     OW14665   6.197   2.344   2.865
 4589SOL    HW114666   6.149   2.301   2.942
 4589SOL    HW214667   6.191   2.444   2.874
 4590SOL     OW14668   4.196   5.955   2.746
 4590SOL    HW114669   4.280   5.902   2.757
 4590SOL    HW214670   4.160   5.980   2.835
 4591SOL     OW14671   6.517   6.133   5.532
 4591SOL    HW114672   6.454   6.107   5.459
 4591SOL    HW214673   6.478   6.206   5.587
 4592SOL     OW14674   4.184   3.334   0.688
 4592SOL    HW114675   4.101   3.279   0.691
 4592SOL    HW214676   4.263   3.277   0.712
 4593SOL     OW14677   4.064   5.572   3.046
 4593SOL    HW114678   4.128   5.582   2.970
 4593SOL    HW214679   3.977   5.615   3.022
 4594SOL     OW14680   3.670   1.874   2.405
 4594SOL    HW114681   3.590   1.832   2.362
 4594SOL    HW214682   3.746   1.808   2.405
 4595SOL     OW14683   3.683   2.892   6.402
 4595SOL    HW114684   3.770   2.934   6.375
 4595SOL    HW214685   3.670   2.808   6.348
 4596SOL     OW14686   5.992   6.235   2.116
 4596SOL    HW114687   5.981   6.162   2.049
 4596SOL    HW214688   5.999   6.196   2.208
 4597SOL     OW14689   5.292   5.323   6.653
 4597SOL    HW114690   5.379   5.362   6.684
 4597SOL    HW214691   5.240   5.393   6.602
 4598SOL     OW14692   1.919   5.153   6.304
 4598SOL    HW114693   1.857   5.088   6.259
 4598SOL    HW214694   2.005   5.107   6.327
 4599SOL     OW14695   1.073   3.655   1.268
 4599SOL    HW114696   1.016   3.650   1.186
 4599SOL    HW214697   1.154   3.597   1.256
 4600SOL     OW14698   3.106   4.984   6.490
 4600SOL    HW114699   3.009   4.974   6.514
 4600SOL    HW214700   3.162   4.972   6.572
 4601SOL     OW14701   1.327   0.970   5.014
 4601SOL    HW114702   1.260   0.947   4.944
 4601SOL    HW214703   1.391   0.895   5.025
 4602SOL     OW14704   1.675   6.727   1.261
 4602SOL    HW114705   1.679   6.827   1.266
 4602SOL    HW214706   1.674   6.699   1.165
 4603SOL     OW14707   3.419   6.511   1.866
 4603SOL    HW114708   3.436   6.467   1.778
 4603SOL    HW214709   3.320   6.525   1.879
 4604SOL     OW14710   3.736   0.436   1.847
 4604SOL    HW114711   3.797   0.471   1.918
 4604SOL    HW214712   3.658   0.498   1.837
 4605SOL     OW14713   4.860   0.791   4.246
 4605SOL    HW114714   4.818   0.750   4.327
 4605SOL    HW214715   4.954   0.756   4.236
 4606SOL     OW14716   0.074   6.803   3.960
 4606SOL    HW114717   0.027   6.718   3.937
 4606SOL    HW214718   0.060   6.870   3.887
 4607SOL     OW14719   2.515   2.320   1.404
 4607SOL    HW114720   2.570   2.357   1.329
 4607SOL    HW214721   2.482   2.229   1.378
 4608SOL     OW14722   1.986   4.908   5.280
 4608SOL    HW114723   1.895   4.869   5.263
 4608SOL    HW214724   1.988   5.003   5.250
 4609SOL     OW14725   4.444   5.711   6.517
 4609SOL    HW114726   4.535   5.751   6.509
 4609SOL    HW214727   4.408   5.727   6.609
 4610SOL     OW14728   6.631   2.686   0.258
 4610SOL    HW114729   6.553   2.625   0.244
 4610SOL    HW214730   6.635   2.715   0.353
 4611SOL     OW14731   0.031   3.921   0.183
 4611SOL    HW114732   0.082   3.990   0.235
 4611SOL    HW214733   0.095   3.867   0.128
 4612SOL     OW14734   2.073   5.844   6.752
 4612SOL    HW114735   2.039   5.937   6.764
 4612SOL    HW214736   2.172   5.843   6.764
 4613SOL     OW14737   2.628   4.917   2.820
 4613SOL    HW114738   2.562   4.941   2.749
 4613SOL    HW214739   2.659   4.823   2.805
 4614SOL     OW14740   1.740   5.756   6.889
 4614SOL    HW114741   1.836   5.735   6.904
 4614SOL    HW214742   1.707   5.704   6.810
 4615SOL     OW14743   1.386   1.465   0.184
 4615SOL    HW114744   1.407   1.548   0.132
 4615SOL    HW214745   1.310   1.417   0.138
 4616SOL     OW14746   6.095   0.721   6.849
 4616SOL    HW114747   6.059   0.635   6.885
 4616SOL    HW214748   6.167   0.703   6.782
 4617SOL     OW14749   0.940   2.179   2.801
 4617SOL    HW114750   1.027   2.140   2.771
 4617SOL    HW214751   0.883   2.199   2.722
 4618SOL     OW14752   1.350   2.550   5.734
 4618SOL    HW114753   1.255   2.539   5.706
 4618SOL    HW214754   1.404   2.473   5.700
 4619SOL     OW14755   4.130   0.340   3.708
 4619SOL    HW114756   4.105   0.436   3.692
 4619SOL    HW214757   4.203   0.335   3.776
 4620SOL     OW14758   3.619   4.383   0.059
 4620SOL    HW114759   3.595   4.286   0.059
 4620SOL    HW214760   3.718   4.393   0.048
 4621SOL     OW14761   6.670   1.702   4.991
 4621SOL    HW114762   6.616   1.676   4.911
 4621SOL    HW214763   6.654   1.637   5.065
 4622SOL     OW14764   1.536   2.432   0.999
 4622SOL    HW114765   1.625   2.469   1.027
 4622SOL    HW214766   1.465   2.471   1.057
 4623SOL     OW14767   6.715   4.630   0.744
 4623SOL    HW114768   6.697   4.532   0.737
 4623SOL    HW214769   6.811   4.648   0.722
 4624SOL     OW14770   4.517   0.902   3.669
 4624SOL    HW114771   4.569   0.910   3.584
 4624SOL    HW214772   4.579   0.906   3.747
 4625SOL     OW14773   1.514   4.633   6.960
 4625SOL    HW114774   1.545   4.642   6.866
 4625SOL    HW214775   1.494   4.537   6.980
 4626SOL     OW14776   6.288   4.426   1.753
 4626SOL    HW114777   6.343   4.510   1.747
 4626SOL    HW214778   6.229   4.420   1.672
 4627SOL     OW14779   3.933   6.383   5.587
 4627SOL    HW114780   3.964   6.386   5.493
 4627SOL    HW214781   3.908   6.475   5.617
 4628SOL     OW14782   6.218   5.050   2.131
 4628SOL    HW114783   6.176   5.001   2.055
 4628SOL    HW214784   6.246   4.984   2.201
 4629SOL     OW14785   2.145   4.868   6.076
 4629SOL    HW114786   2.145   4.938   6.005
 4629SOL    HW214787   2.237   4.830   6.086
 4630SOL     OW14788   2.719   5.797   3.564
 4630SOL    HW114789   2.674   5.781   3.476
 4630SOL    HW214790   2.760   5.712   3.596
 4631SOL     OW14791   1.951   6.353   3.475
 4631SOL    HW114792   2.033   6.398   3.440
 4631SOL    HW214793   1.871   6.409   3.456
 4632SOL     OW14794   4.345   5.686   4.435
 4632SOL    HW114795   4.270   5.637   4.392
 4632SOL    HW214796   4.386   5.750   4.370
 4633SOL     OW14797   6.398   1.998   5.515
 4633SOL    HW114798   6.383   2.094   5.538
 4633SOL    HW214799   6.347   1.975   5.432
 4634SOL     OW14800   2.753   4.569   0.404
 4634SOL    HW114801   2.846   4.593   0.373
 4634SOL    HW214802   2.759   4.503   0.478
 4635SOL     OW14803   5.949   3.566   2.731
 4635SOL    HW114804   5.935   3.558   2.830
 4635SOL    HW214805   5.860   3.574   2.685
 4636SOL     OW14806   2.441   5.508   0.396
 4636SOL    HW114807   2.416   5.575   0.466
 4636SOL    HW214808   2.479   5.556   0.317
 4637SOL     OW14809   0.999   0.770   6.534
 4637SOL    HW114810   1.019   0.814   6.447
 4637SOL    HW214811   0.974   0.674   6.518
 4638SOL     OW14812   3.851   2.964   5.997
 4638SOL    HW114813   3.838   3.002   5.905
 4638SOL    HW214814   3.766   2.919   6.026
 4639SOL     OW14815   0.738   4.071   5.883
 4639SOL    HW114816   0.708   4.038   5.972
 4639SOL    HW214817   0.662   4.115   5.836
 4640SOL     OW14818   4.791   4.790   3.832
 4640SOL    HW114819   4.872   4.731   3.840
 4640SOL    HW214820   4.737   4.785   3.916
 4641SOL     OW14821   2.722   5.102   4.458
 4641SOL    HW114822   2.749   5.089   4.553
 4641SOL    HW214823   2.690   5.015   4.420
 4642SOL     OW14824   6.452   5.310   4.769
 4642SOL    HW114825   6.497   5.397   4.749
 4642SOL    HW214826   6.476   5.243   4.699
 4643SOL     OW14827   4.451   2.345   1.457
 4643SOL    HW114828   4.520   2.418   1.453
 4643SOL    HW214829   4.364   2.379   1.422
 4644SOL     OW14830   1.329   5.241   4.814
 4644SOL    HW114831   1.239   5.225   4.775
 4644SOL    HW214832   1.369   5.324   4.775
 4645SOL     OW14833   1.920   6.575   4.692
 4645SOL    HW114834   1.902   6.480   4.667
 4645SOL    HW214835   2.017   6.587   4.711
 4646SOL     OW14836   3.096   0.336   2.328
 4646SOL    HW114837   3.153   0.261   2.292
 4646SOL    HW214838   3.131   0.423   2.293
 4647SOL     OW14839   0.772   6.918   3.375
 4647SOL    HW114840   0.682   6.876   3.375
 4647SOL    HW214841   0.814   6.905   3.285
 4648SOL     OW14842   3.311   6.660   2.572
 4648SOL    HW114843   3.389   6.712   2.609
 4648SOL    HW214844   3.325   6.645   2.474
 4649SOL     OW14845   4.944   1.022   5.581
 4649SOL    HW114846   4.879   1.056   5.650
 4649SOL    HW214847   5.038   1.039   5.613
 4650SOL     OW14848   4.264   6.394   3.125
 4650SOL    HW114849   4.198   6.321   3.147
 4650SOL    HW214850   4.341   6.389   3.189
 4651SOL     OW14851   0.300   2.321   1.936
 4651SOL    HW114852   0.295   2.351   2.032
 4651SOL    HW214853   0.279   2.399   1.877
 4652SOL     OW14854   0.583   0.152   3.516
 4652SOL    HW114855   0.679   0.170   3.495
 4652SOL    HW214856   0.536   0.239   3.533
 4653SOL     OW14857   6.591   6.380   6.949
 4653SOL    HW114858   6.613   6.447   6.878
 4653SOL    HW214859   6.566   6.428   0.011
 4654SOL     OW14860   0.919   6.724   0.295
 4654SOL    HW114861   0.916   6.821   0.320
 4654SOL    HW214862   0.975   6.714   0.212
 4655SOL     OW14863   0.409   4.757   2.774
 4655SOL    HW114864   0.391   4.675   2.720
 4655SOL    HW214865   0.412   4.734   2.871
 4656SOL     OW14866   0.947   0.451   3.142
 4656SOL    HW114867   0.911   0.457   3.049
 4656SOL    HW214868   0.945   0.541   3.185
 4657SOL     OW14869   4.914   6.739   1.215
 4657SOL    HW114870   4.934   6.719   1.311
 4657SOL    HW214871   4.937   6.834   1.194
 4658SOL     OW14872   4.108   0.164   3.035
 4658SOL    HW114873   4.037   0.123   2.977
 4658SOL    HW214874   4.087   0.145   3.131
 4659SOL     OW14875   1.639   3.177   4.984
 4659SOL    HW114876   1.623   3.129   5.070
 4659SOL    HW214877   1.732   3.213   4.982
 4660SOL     OW14878   0.684   1.964   5.184
 4660SOL    HW114879   0.641   1.874   5.184
 4660SOL    HW214880   0.742   1.974   5.265
 4661SOL     OW14881   3.480   4.119   4.292
 4661SOL    HW114882   3.416   4.168   4.351
 4661SOL    HW214883   3.567   4.109   4.339
 4662SOL     OW14884   5.160   0.392   5.475
 4662SOL    HW114885   5.136   0.478   5.430
 4662SOL    HW214886   5.101   0.319   5.441
 4663SOL     OW14887   7.003   1.848   1.753
 4663SOL    HW114888   0.025   1.932   1.784
 4663SOL    HW214889   6.943   1.814   1.825
 4664SOL     OW14890   2.073   2.659   6.526
 4664SOL    HW114891   2.145   2.697   6.585
 4664SOL    HW214892   2.033   2.732   6.470
 4665SOL     OW14893   5.563   0.424   6.145
 4665SOL    HW114894   5.625   0.345   6.147
 4665SOL    HW214895   5.545   0.455   6.238
 4666SOL     OW14896   2.468   1.878   6.861
 4666SOL    HW114897   2.423   1.830   6.936
 4666SOL    HW214898   2.552   1.921   6.895
 4667SOL     OW14899   0.026   5.023   6.391
 4667SOL    HW114900   0.093   4.970   6.339
 4667SOL    HW214901   0.069   5.105   6.427
 4668SOL     OW14902   6.860   1.780   4.525
 4668SOL    HW114903   6.836   1.727   4.607
 4668SOL    HW214904   6.892   1.718   4.454
 4669SOL     OW14905   1.800   6.358   0.371
 4669SOL    HW114906   1.845   6.309   0.295
 4669SOL    HW214907   1.701   6.342   0.366
 4670SOL     OW14908   3.186   0.835   4.642
 4670SOL    HW114909   3.142   0.876   4.563
 4670SOL    HW214910   3.164   0.888   4.724
 4671SOL     OW14911   6.287   2.818   1.624
 4671SOL    HW114912   6.354   2.782   1.559
 4671SOL    HW214913   6.232   2.742   1.659
 4672SOL     OW14914   1.540   4.112   6.099
 4672SOL    HW114915   1.535   4.027   6.151
 4672SOL    HW214916   1.588   4.095   6.012
 4673SOL     OW14917   3.631   0.463   1.532
 4673SOL    HW114918   3.573   0.530   1.487
 4673SOL    HW214919   3.718   0.506   1.557
 4674SOL     OW14920   5.461   5.359   5.413
 4674SOL    HW114921   5.411   5.439   5.379
 4674SOL    HW214922   5.436   5.279   5.358
 4675SOL     OW14923   1.201   3.665   0.880
 4675SOL    HW114924   1.237   3.700   0.794
 4675SOL    HW214925   1.277   3.643   0.942
 4676SOL     OW14926   1.460   6.146   3.819
 4676SOL    HW114927   1.447   6.141   3.720
 4676SOL    HW214928   1.469   6.053   3.855
 4677SOL     OW14929   1.885   1.708   0.440
 4677SOL    HW114930   1.918   1.703   0.346
 4677SOL    HW214931   1.819   1.634   0.456
 4678SOL     OW14932   2.037   3.869   2.730
 4678SOL    HW114933   2.063   3.899   2.638
 4678SOL    HW214934   2.058   3.772   2.740
 4679SOL     OW14935   5.489   6.517   1.813
 4679SOL    HW114936   5.587   6.535   1.815
 4679SOL    HW214937   5.465   6.455   1.888
 4680SOL     OW14938   3.481   1.695   1.487
 4680SOL    HW114939   3.485   1.739   1.576
 4680SOL    HW214940   3.459   1.763   1.417
 4681SOL     OW14941   5.301   4.412   0.228
 4681SOL    HW114942   5.284   4.504   0.263
 4681SOL    HW214943   5.398   4.391   0.235
 4682SOL     OW14944   4.423   3.482   6.515
 4682SOL    HW114945   4.346   3.449   6.461
 4682SOL    HW214946   4.479   3.544   6.460
 4683SOL     OW14947   5.933   4.485   3.520
 4683SOL    HW114948   5.836   4.503   3.535
 4683SOL    HW214949   5.963   4.532   3.437
 4684SOL     OW14950   4.272   5.988   6.929
 4684SOL    HW114951   4.298   5.967   0.001
 4684SOL    HW214952   4.184   6.036   6.928
 4685SOL     OW14953   2.427   3.811   5.825
 4685SOL    HW114954   2.348   3.766   5.867
 4685SOL    HW214955   2.398   3.899   5.786
 4686SOL     OW14956   3.378   6.116   0.806
 4686SOL    HW114957   3.282   6.089   0.797
 4686SOL    HW214958   3.387   6.185   0.878
 4687SOL     OW14959   3.471   1.805   3.172
 4687SOL    HW114960   3.490   1.882   3.233
 4687SOL    HW214961   3.554   1.751   3.159
 4688SOL     OW14962   5.503   2.393   5.910
 4688SOL    HW114963   5.520   2.337   5.829
 4688SOL    HW214964   5.572   2.465   5.915
 4689SOL     OW14965   5.441   0.258   1.351
 4689SOL    HW114966   5.536   0.285   1.335
 4689SOL    HW214967   5.398   0.323   1.414
 4690SOL     OW14968   2.031   1.464   0.833
 4690SOL    HW114969   2.104   1.403   0.865
 4690SOL    HW214970   1.974   1.415   0.767
 4691SOL     OW14971   5.302   4.738   6.927
 4691SOL    HW114972   5.304   4.651   6.975
 4691SOL    HW214973   5.256   4.727   6.839
 4692SOL     OW14974   6.575   4.387   2.655
 4692SOL    HW114975   6.511   4.414   2.583
 4692SOL    HW214976   6.543   4.420   2.743
 4693SOL     OW14977   1.558   0.556   4.123
 4693SOL    HW114978   1.603   0.512   4.200
 4693SOL    HW214979   1.602   0.644   4.104
 4694SOL     OW14980   2.248   1.686   6.982
 4694SOL    HW114981   2.304   1.723   0.034
 4694SOL    HW214982   2.168   1.744   6.970
 4695SOL     OW14983   1.468   5.762   0.883
 4695SOL    HW114984   1.512   5.740   0.970
 4695SOL    HW214985   1.414   5.684   0.852
 4696SOL     OW14986   0.946   5.307   5.760
 4696SOL    HW114987   1.010   5.327   5.834
 4696SOL    HW214988   0.869   5.253   5.795
 4697SOL     OW14989   1.501   3.721   1.352
 4697SOL    HW114990   1.583   3.668   1.372
 4697SOL    HW214991   1.494   3.797   1.417
 4698SOL     OW14992   4.688   0.084   3.252
 4698SOL    HW114993   4.630   0.006   3.274
 4698SOL    HW214994   4.733   0.117   3.335
 4699SOL     OW14995   0.449   0.574   1.963
 4699SOL    HW114996   0.426   0.499   1.901
 4699SOL    HW214997   0.443   0.542   2.058
 4700SOL     OW14998   6.616   2.155   2.583
 4700SOL    HW114999   6.581   2.134   2.492
 4700SOL    HW215000   6.706   2.114   2.596
 4701SOL     OW15001   3.193   1.831   2.294
 4701SOL    HW115002   3.095   1.850   2.300
 4701SOL    HW215003   3.237   1.902   2.239
 4702SOL     OW15004   5.102   4.986   6.761
 4702SOL    HW115005   5.161   5.002   6.840
 4702SOL    HW215006   5.096   5.069   6.706
 4703SOL     OW15007   0.979   5.094   2.250
 4703SOL    HW115008   1.030   5.009   2.236
 4703SOL    HW215009   1.037   5.160   2.298
 4704SOL     OW15010   0.169   6.469   5.803
 4704SOL    HW115011   0.129   6.560   5.793
 4704SOL    HW215012   0.104   6.400   5.772
 4705SOL     OW15013   3.178   2.762   0.850
 4705SOL    HW115014   3.178   2.861   0.834
 4705SOL    HW215015   3.263   2.722   0.816
 4706SOL     OW15016   1.192   6.870   1.094
 4706SOL    HW115017   1.237   6.918   1.169
 4706SOL    HW215018   1.170   6.935   1.021
 4707SOL     OW15019   1.802   6.465   1.092
 4707SOL    HW115020   1.891   6.493   1.129
 4707SOL    HW215021   1.753   6.546   1.059
 4708SOL     OW15022   1.629   1.583   5.000
 4708SOL    HW115023   1.565   1.637   4.944
 4708SOL    HW215024   1.673   1.514   4.943
 4709SOL     OW15025   5.069   5.028   5.120
 4709SOL    HW115026   5.034   5.098   5.183
 4709SOL    HW215027   5.157   5.056   5.084
 4710SOL     OW15028   5.505   6.411   4.537
 4710SOL    HW115029   5.563   6.485   4.503
 4710SOL    HW215030   5.443   6.382   4.464
 4711SOL     OW15031   6.176   3.032   3.249
 4711SOL    HW115032   6.141   2.942   3.224
 4711SOL    HW215033   6.139   3.059   3.338
 4712SOL     OW15034   4.511   4.232   5.988
 4712SOL    HW115035   4.487   4.144   5.948
 4712SOL    HW215036   4.429   4.277   6.022
 4713SOL     OW15037   5.117   4.942   1.085
 4713SOL    HW115038   5.169   4.996   1.151
 4713SOL    HW215039   5.175   4.871   1.045
 4714SOL     OW15040   6.505   1.885   6.623
 4714SOL    HW115041   6.480   1.790   6.603
 4714SOL    HW215042   6.594   1.906   6.584
 4715SOL     OW15043   6.301   1.879   1.798
 4715SOL    HW115044   6.271   1.973   1.781
 4715SOL    HW215045   6.284   1.824   1.716
 4716SOL     OW15046   4.375   5.371   5.292
 4716SOL    HW115047   4.458   5.339   5.247
 4716SOL    HW215048   4.343   5.455   5.249
 4717SOL     OW15049   2.794   5.803   5.912
 4717SOL    HW115050   2.743   5.772   5.992
 4717SOL    HW215051   2.773   5.744   5.834
 4718SOL     OW15052   5.370   2.847   1.247
 4718SOL    HW115053   5.463   2.830   1.279
 4718SOL    HW215054   5.349   2.783   1.173
 4719SOL     OW15055   5.722   3.550   3.210
 4719SOL    HW115056   5.758   3.457   3.207
 4719SOL    HW215057   5.624   3.548   3.228
 4720SOL     OW15058   2.894   5.342   0.434
 4720SOL    HW115059   2.867   5.272   0.500
 4720SOL    HW215060   2.960   5.303   0.369
 4721SOL     OW15061   6.226   3.234   1.481
 4721SOL    HW115062   6.256   3.275   1.568
 4721SOL    HW215063   6.265   3.286   1.405
 4722SOL     OW15064   1.148   4.515   6.932
 4722SOL    HW115065   1.159   4.518   0.008
 4722SOL    HW215066   1.056   4.547   6.907
 4723SOL     OW15067   3.650   4.761   5.700
 4723SOL    HW115068   3.637   4.735   5.796
 4723SOL    HW215069   3.566   4.741   5.649
 4724SOL     OW15070   0.247   6.729   4.162
 4724SOL    HW115071   0.184   6.741   4.239
 4724SOL    HW215072   0.197   6.745   4.077
 4725SOL     OW15073   5.880   5.278   0.454
 4725SOL    HW115074   5.885   5.196   0.511
 4725SOL    HW215075   5.969   5.322   0.450
 4726SOL     OW15076   1.897   2.743   5.618
 4726SOL    HW115077   1.810   2.726   5.572
 4726SOL    HW215078   1.879   2.777   5.711
 4727SOL     OW15079   0.756   5.515   0.208
 4727SOL    HW115080   0.836   5.519   0.148
 4727SOL    HW215081   0.726   5.608   0.229
 4728SOL     OW15082   6.089   1.233   3.220
 4728SOL    HW115083   6.053   1.320   3.187
 4728SOL    HW215084   6.028   1.196   3.290
 4729SOL     OW15085   5.060   0.351   0.243
 4729SOL    HW115086   4.984   0.413   0.261
 4729SOL    HW215087   5.101   0.373   0.154
 4730SOL     OW15088   3.760   6.996   4.520
 4730SOL    HW115089   3.802   0.003   4.434
 4730SOL    HW215090   3.790   6.903   4.542
 4731SOL     OW15091   2.858   0.499   0.506
 4731SOL    HW115092   2.801   0.437   0.559
 4731SOL    HW215093   2.954   0.488   0.534
 4732SOL     OW15094   1.030   3.507   4.919
 4732SOL    HW115095   1.123   3.484   4.891
 4732SOL    HW215096   1.025   3.506   5.019
 4733SOL     OW15097   1.993   4.236   2.729
 4733SOL    HW115098   1.952   4.162   2.781
 4733SOL    HW215099   2.091   4.243   2.752
 4734SOL     OW15100   4.666   3.122   6.476
 4734SOL    HW115101   4.700   3.049   6.535
 4734SOL    HW215102   4.733   3.196   6.472
 4735SOL     OW15103   0.535   6.121   3.941
 4735SOL    HW115104   0.600   6.178   3.891
 4735SOL    HW215105   0.443   6.160   3.935
 4736SOL     OW15106   6.796   2.262   3.889
 4736SOL    HW115107   6.866   2.213   3.838
 4736SOL    HW215108   6.805   2.360   3.873
 4737SOL     OW15109   2.058   4.374   0.701
 4737SOL    HW115110   2.004   4.387   0.784
 4737SOL    HW215111   2.078   4.277   0.688
 4738SOL     OW15112   3.092   6.876   3.815
 4738SOL    HW115113   3.170   6.817   3.838
 4738SOL    HW215114   3.090   6.954   3.877
 4739SOL     OW15115   6.515   2.744   4.840
 4739SOL    HW115116   6.455   2.664   4.849
 4739SOL    HW215117   6.570   2.734   4.757
 4740SOL     OW15118   0.863   0.935   1.074
 4740SOL    HW115119   0.873   0.862   1.005
 4740SOL    HW215120   0.832   1.019   1.029
 4741SOL     OW15121   4.512   4.694   0.986
 4741SOL    HW115122   4.610   4.715   0.996
 4741SOL    HW215123   4.498   4.596   0.999
 4742SOL     OW15124   2.900   5.840   1.730
 4742SOL    HW115125   2.814   5.833   1.780
 4742SOL    HW215126   2.970   5.786   1.777
 4743SOL     OW15127   2.685   1.216   5.383
 4743SOL    HW115128   2.706   1.141   5.445
 4743SOL    HW215129   2.768   1.267   5.362
 4744SOL     OW15130   2.007   2.675   5.228
 4744SOL    HW115131   2.058   2.752   5.190
 4744SOL    HW215132   2.060   2.634   5.302
 4745SOL     OW15133   3.266   5.288   5.702
 4745SOL    HW115134   3.344   5.257   5.758
 4745SOL    HW215135   3.226   5.370   5.744
 4746SOL     OW15136   6.146   5.919   0.512
 4746SOL    HW115137   6.156   5.819   0.509
 4746SOL    HW215138   6.165   5.957   0.422
 4747SOL     OW15139   0.157   2.923   0.153
 4747SOL    HW115140   0.246   2.892   0.120
 4747SOL    HW215141   0.144   3.019   0.129
 4748SOL     OW15142   1.257   0.703   1.341
 4748SOL    HW115143   1.167   0.664   1.324
 4748SOL    HW215144   1.324   0.629   1.352
 4749SOL     OW15145   2.739   6.697   6.678
 4749SOL    HW115146   2.743   6.728   6.773
 4749SOL    HW215147   2.826   6.655   6.654
 4750SOL     OW15148   0.061   1.576   4.610
 4750SOL    HW115149   7.022   1.608   4.682
 4750SOL    HW215150   0.136   1.641   4.599
 4751SOL     OW15151   2.141   4.479   6.820
 4751SOL    HW115152   2.170   4.468   6.725
 4751SOL    HW215153   2.222   4.483   6.879
 4752SOL     OW15154   2.780   6.192   1.195
 4752SOL    HW115155   2.771   6.178   1.097
 4752SOL    HW215156   2.690   6.186   1.238
 4753SOL     OW15157   5.586   6.945   4.849
 4753SOL    HW115158   5.588   6.934   4.949
 4753SOL    HW215159   5.626   6.864   4.806
 4754SOL     OW15160   6.377   0.643   6.265
 4754SOL    HW115161   6.425   0.711   6.211
 4754SOL    HW215162   6.295   0.612   6.216
 4755SOL     OW15163   2.678   0.877   6.334
 4755SOL    HW115164   2.686   0.966   6.289
 4755SOL    HW215165   2.612   0.820   6.286
 4756SOL     OW15166   5.630   2.113   1.937
 4756SOL    HW115167   5.679   2.201   1.939
 4756SOL    HW215168   5.599   2.091   2.030
 4757SOL     OW15169   2.381   2.415   2.264
 4757SOL    HW115170   2.406   2.325   2.301
 4757SOL    HW215171   2.440   2.436   2.186
 4758SOL     OW15172   4.095   5.848   5.605
 4758SOL    HW115173   4.104   5.880   5.699
 4758SOL    HW215174   4.125   5.753   5.598
 4759SOL     OW15175   5.389   5.830   4.999
 4759SOL    HW115176   5.408   5.897   4.928
 4759SOL    HW215177   5.361   5.876   5.083
 4760SOL     OW15178   2.389   1.374   1.584
 4760SOL    HW115179   2.454   1.408   1.653
 4760SOL    HW215180   2.427   1.389   1.493
 4761SOL     OW15181   5.942   0.129   6.679
 4761SOL    HW115182   5.916   0.225   6.682
 4761SOL    HW215183   6.035   0.121   6.643
 4762SOL     OW15184   2.500   4.429   2.288
 4762SOL    HW115185   2.439   4.350   2.303
 4762SOL    HW215186   2.468   4.480   2.208
 4763SOL     OW15187   5.969   5.860   2.862
 4763SOL    HW115188   6.034   5.784   2.860
 4763SOL    HW215189   5.972   5.904   2.951
 4764SOL     OW15190   4.587   3.817   5.333
 4764SOL    HW115191   4.580   3.738   5.272
 4764SOL    HW215192   4.596   3.900   5.278
 4765SOL     OW15193   4.707   6.365   5.054
 4765SOL    HW115194   4.784   6.339   4.995
 4765SOL    HW215195   4.623   6.366   5.000
 4766SOL     OW15196   3.162   0.706   3.476
 4766SOL    HW115197   3.141   0.780   3.412
 4766SOL    HW215198   3.081   0.647   3.487
 4767SOL     OW15199   4.152   6.741   1.275
 4767SOL    HW115200   4.207   6.660   1.253
 4767SOL    HW215201   4.124   6.786   1.190
 4768SOL     OW15202   5.009   1.789   4.728
 4768SOL    HW115203   5.033   1.815   4.821
 4768SOL    HW215204   5.027   1.692   4.715
 4769SOL     OW15205   3.698   5.535   1.744
 4769SOL    HW115206   3.723   5.442   1.772
 4769SOL    HW215207   3.773   5.574   1.690
 4770SOL     OW15208   2.300   0.257   2.963
 4770SOL    HW115209   2.299   0.323   2.888
 4770SOL    HW215210   2.370   0.188   2.945
 4771SOL     OW15211   3.329   4.693   5.741
 4771SOL    HW115212   3.290   4.671   5.830
 4771SOL    HW215213   3.256   4.719   5.678
 4772SOL     OW15214   2.694   0.089   1.006
 4772SOL    HW115215   2.770   0.052   0.952
 4772SOL    HW215216   2.730   0.144   1.081
 4773SOL     OW15217   0.289   5.334   4.212
 4773SOL    HW115218   0.189   5.322   4.217
 4773SOL    HW215219   0.320   5.390   4.288
 4774SOL     OW15220   0.866   3.059   2.128
 4774SOL    HW115221   0.781   3.090   2.171
 4774SOL    HW215222   0.872   2.959   2.134
 4775SOL     OW15223   5.482   0.612   3.239
 4775SOL    HW115224   5.577   0.610   3.206
 4775SOL    HW215225   5.422   0.579   3.166
 4776SOL     OW15226   2.428   6.484   3.144
 4776SOL    HW115227   2.473   6.529   3.067
 4776SOL    HW215228   2.335   6.457   3.117
 4777SOL     OW15229   2.659   4.089   1.373
 4777SOL    HW115230   2.749   4.071   1.334
 4777SOL    HW215231   2.668   4.107   1.471
 4778SOL     OW15232   5.415   2.761   1.826
 4778SOL    HW115233   5.324   2.783   1.862
 4778SOL    HW215234   5.449   2.678   1.871
 4779SOL     OW15235   6.791   0.063   2.581
 4779SOL    HW115236   6.735   0.068   2.664
 4779SOL    HW215237   6.861   0.134   2.583
 4780SOL     OW15238   0.591   0.923   5.929
 4780SOL    HW115239   0.612   0.862   6.006
 4780SOL    HW215240   0.672   0.978   5.908
 4781SOL     OW15241   2.673   6.096   1.632
 4781SOL    HW115242   2.732   6.173   1.654
 4781SOL    HW215243   2.624   6.066   1.714
 4782SOL     OW15244   4.858   0.159   0.141
 4782SOL    HW115245   4.885   0.072   0.180
 4782SOL    HW215246   4.915   0.232   0.178
 4783SOL     OW15247   4.702   4.581   0.668
 4783SOL    HW115248   4.773   4.569   0.598
 4783SOL    HW215249   4.637   4.651   0.637
 4784SOL     OW15250   6.194   4.996   5.620
 4784SOL    HW115251   6.103   5.000   5.661
 4784SOL    HW215252   6.248   5.075   5.651
 4785SOL     OW15253   6.867   6.433   1.038
 4785SOL    HW115254   6.853   6.502   1.108
 4785SOL    HW215255   6.953   6.450   0.991
 4786SOL     OW15256   1.651   2.392   2.734
 4786SOL    HW115257   1.684   2.423   2.645
 4786SOL    HW215258   1.727   2.392   2.799
 4787SOL     OW15259   3.155   2.052   3.603
 4787SOL    HW115260   3.167   2.098   3.516
 4787SOL    HW215261   3.238   2.063   3.659
 4788SOL     OW15262   1.388   5.928   5.936
 4788SOL    HW115263   1.304   5.944   5.883
 4788SOL    HW215264   1.455   5.881   5.879
 4789SOL     OW15265   4.904   0.827   0.170
 4789SOL    HW115266   4.837   0.839   0.096
 4789SOL    HW215267   4.980   0.891   0.156
 4790SOL     OW15268   5.460   3.409   6.867
 4790SOL    HW115269   5.411   3.325   6.891
 4790SOL    HW215270   5.495   3.401   6.774
 4791SOL     OW15271   6.141   0.668   1.970
 4791SOL    HW115272   6.233   0.687   2.004
 4791SOL    HW215273   6.077   0.670   2.047
 4792SOL     OW15274   2.117   3.074   2.900
 4792SOL    HW115275   2.186   3.029   2.957
 4792SOL    HW215276   2.121   3.036   2.808
 4793SOL     OW15277   1.224   0.793   5.779
 4793SOL    HW115278   1.305   0.849   5.766
 4793SOL    HW215279   1.250   0.701   5.808
 4794SOL     OW15280   3.719   0.373   2.688
 4794SOL    HW115281   3.810   0.403   2.715
 4794SOL    HW215282   3.699   0.408   2.596
 4795SOL     OW15283   6.480   2.816   4.345
 4795SOL    HW115284   6.473   2.916   4.344
 4795SOL    HW215285   6.405   2.779   4.400
 4796SOL     OW15286   4.844   2.520   0.191
 4796SOL    HW115287   4.862   2.488   0.098
 4796SOL    HW215288   4.887   2.458   0.257
 4797SOL     OW15289   1.488   5.772   5.738
 4797SOL    HW115290   1.587   5.765   5.739
 4797SOL    HW215291   1.451   5.714   5.665
 4798SOL     OW15292   0.516   4.113   5.353
 4798SOL    HW115293   0.445   4.171   5.393
 4798SOL    HW215294   0.472   4.034   5.308
 4799SOL     OW15295   5.457   1.866   5.100
 4799SOL    HW115296   5.380   1.928   5.084
 4799SOL    HW215297   5.533   1.890   5.040
 4800SOL     OW15298   3.273   3.457   6.340
 4800SOL    HW115299   3.247   3.434   6.246
 4800SOL    HW215300   3.360   3.413   6.363
 4801SOL     OW15301   2.237   2.310   0.085
 4801SOL    HW115302   2.176   2.349   0.155
 4801SOL    HW215303   2.268   2.383   0.025
 4802SOL     OW15304   1.338   6.501   2.366
 4802SOL    HW115305   1.357   6.594   2.398
 4802SOL    HW215306   1.365   6.492   2.271
 4803SOL     OW15307   0.585   6.882   1.094
 4803SOL    HW115308   0.652   6.814   1.124
 4803SOL    HW215309   0.570   6.872   0.996
 4804SOL     OW15310   4.025   5.475   6.661
 4804SOL    HW115311   4.053   5.535   6.736
 4804SOL    HW215312   4.098   5.470   6.593
 4805SOL     OW15313   6.709   0.035   0.645
 4805SOL    HW115314   6.687   0.078   0.732
 4805SOL    HW215315   6.626   7.016   0.607
 4806SOL     OW15316   6.792   3.938   3.680
 4806SOL    HW115317   6.750   3.899   3.762
 4806SOL    HW215318   6.849   3.868   3.636
 4807SOL     OW15319   0.914   5.454   1.208
 4807SOL    HW115320   0.985   5.456   1.137
 4807SOL    HW215321   0.831   5.497   1.173
 4808SOL     OW15322   5.574   3.415   0.686
 4808SOL    HW115323   5.631   3.494   0.708
 4808SOL    HW215324   5.482   3.445   0.661
 4809SOL     OW15325   3.360   4.374   0.150
 4809SOL    HW115326   3.303   4.453   0.127
 4809SOL    HW215327   3.441   4.374   0.092
 4810SOL     OW15328   0.807   4.916   1.112
 4810SOL    HW115329   0.878   4.903   1.042
 4810SOL    HW215330   0.751   4.995   1.089
 4811SOL     OW15331   2.485   5.037   1.874
 4811SOL    HW115332   2.474   5.097   1.953
 4811SOL    HW215333   2.433   4.953   1.888
 4812SOL     OW15334   6.711   5.261   5.029
 4812SOL    HW115335   6.718   5.170   4.989
 4812SOL    HW215336   6.729   5.330   4.959
 4813SOL     OW15337   5.003   1.386   3.056
 4813SOL    HW115338   4.920   1.407   3.107
 4813SOL    HW215339   4.983   1.318   2.986
 4814SOL     OW15340   6.237   4.666   0.883
 4814SOL    HW115341   6.262   4.570   0.877
 4814SOL    HW215342   6.309   4.722   0.842
 4815SOL     OW15343   5.025   5.109   2.762
 4815SOL    HW115344   4.985   5.020   2.737
 4815SOL    HW215345   5.028   5.117   2.862
 4816SOL     OW15346   5.694   5.285   3.398
 4816SOL    HW115347   5.660   5.332   3.317
 4816SOL    HW215348   5.759   5.214   3.371
 4817SOL     OW15349   0.841   2.306   6.081
 4817SOL    HW115350   0.789   2.290   6.165
 4817SOL    HW215351   0.845   2.221   6.029
 4818SOL     OW15352   0.578   6.745   3.540
 4818SOL    HW115353   0.494   6.736   3.593
 4818SOL    HW215354   0.655   6.760   3.602
 4819SOL     OW15355   1.348   3.260   0.175
 4819SOL    HW115356   1.276   3.294   0.236
 4819SOL    HW215357   1.394   3.182   0.218
 4820SOL     OW15358   6.875   3.032   1.690
 4820SOL    HW115359   6.892   3.038   1.591
 4820SOL    HW215360   6.815   3.106   1.718
 4821SOL     OW15361   1.008   5.816   1.862
 4821SOL    HW115362   0.973   5.726   1.889
 4821SOL    HW215363   0.949   5.855   1.791
 4822SOL     OW15364   1.617   4.120   4.158
 4822SOL    HW115365   1.669   4.035   4.153
 4822SOL    HW215366   1.678   4.197   4.138
 4823SOL     OW15367   1.102   2.240   2.540
 4823SOL    HW115368   1.121   2.305   2.466
 4823SOL    HW215369   1.154   2.265   2.621
 4824SOL     OW15370   5.002   1.475   5.086
 4824SOL    HW115371   4.916   1.482   5.035
 4824SOL    HW215372   5.067   1.543   5.051
 4825SOL     OW15373   0.893   0.570   4.181
 4825SOL    HW115374   0.904   0.664   4.213
 4825SOL    HW215375   0.843   0.517   4.249
 4826SOL     OW15376   4.617   0.424   1.362
 4826SOL    HW115377   4.706   0.384   1.343
 4826SOL    HW215378   4.597   0.495   1.293
 4827SOL     OW15379   6.490   1.503   0.268
 4827SOL    HW115380   6.501   1.540   0.360
 4827SOL    HW215381   6.483   1.577   0.202
 4828SOL     OW15382   4.284   0.240   1.775
 4828SOL    HW115383   4.275   0.302   1.853
 4828SOL    HW215384   4.254   0.149   1.801
 4829SOL     OW15385   3.910   0.129   6.217
 4829SOL    HW115386   3.894   0.149   6.313
 4829SOL    HW215387   3.982   0.060   6.208
 4830SOL     OW15388   4.071   5.994   3.681
 4830SOL    HW115389   4.112   5.915   3.636
 4830SOL    HW215390   4.089   6.076   3.627
 4831SOL     OW15391   3.460   5.521   5.843
 4831SOL    HW115392   3.457   5.426   5.873
 4831SOL    HW215393   3.399   5.576   5.900
 4832SOL     OW15394   3.266   3.684   4.580
 4832SOL    HW115395   3.315   3.686   4.492
 4832SOL    HW215396   3.229   3.775   4.600
 4833SOL     OW15397   5.921   2.359   3.902
 4833SOL    HW115398   5.870   2.430   3.853
 4833SOL    HW215399   5.893   2.358   3.998
 4834SOL     OW15400   2.548   5.385   2.510
 4834SOL    HW115401   2.452   5.402   2.491
 4834SOL    HW215402   2.567   5.403   2.607
 4835SOL     OW15403   6.614   3.762   6.245
 4835SOL    HW115404   6.531   3.816   6.255
 4835SOL    HW215405   6.649   3.738   6.336
 4836SOL     OW15406   4.694   1.258   5.303
 4836SOL    HW115407   4.667   1.184   5.242
 4836SOL    HW215408   4.633   1.336   5.290
 4837SOL     OW15409   6.626   3.046   3.536
 4837SOL    HW115410   6.583   2.999   3.614
 4837SOL    HW215411   6.689   3.116   3.570
 4838SOL     OW15412   1.345   4.920   6.015
 4838SOL    HW115413   1.418   4.868   6.060
 4838SOL    HW215414   1.381   4.963   5.932
 4839SOL     OW15415   1.175   2.389   6.837
 4839SOL    HW115416   1.248   2.399   6.769
 4839SOL    HW215417   1.111   2.465   6.829
 4840SOL     OW15418   5.540   4.104   5.180
 4840SOL    HW115419   5.629   4.100   5.135
 4840SOL    HW215420   5.505   4.012   5.193
 4841SOL     OW15421   2.928   4.868   3.580
 4841SOL    HW115422   2.890   4.873   3.488
 4841SOL    HW215423   3.023   4.898   3.579
 4842SOL     OW15424   2.575   5.206   2.970
 4842SOL    HW115425   2.515   5.134   2.937
 4842SOL    HW215426   2.566   5.214   3.069
 4843SOL     OW15427   0.375   2.993   2.168
 4843SOL    HW115428   0.338   3.037   2.086
 4843SOL    HW215429   0.347   3.045   2.249
 4844SOL     OW15430   1.090   4.854   5.389
 4844SOL    HW115431   1.160   4.886   5.325
 4844SOL    HW215432   1.000   4.877   5.352
 4845SOL     OW15433   4.496   4.547   5.239
 4845SOL    HW115434   4.527   4.453   5.229
 4845SOL    HW215435   4.426   4.567   5.170
 4846SOL     OW15436   0.774   2.581   4.415
 4846SOL    HW115437   0.791   2.532   4.500
 4846SOL    HW215438   0.687   2.629   4.420
 4847SOL     OW15439   2.989   6.830   5.558
 4847SOL    HW115440   2.914   6.879   5.604
 4847SOL    HW215441   3.043   6.780   5.626
 4848SOL     OW15442   2.002   1.145   3.937
 4848SOL    HW115443   1.971   1.208   3.865
 4848SOL    HW215444   2.079   1.187   3.986
 4849SOL     OW15445   2.106   1.109   0.460
 4849SOL    HW115446   2.021   1.093   0.410
 4849SOL    HW215447   2.178   1.136   0.396
 4850SOL     OW15448   4.496   0.636   1.232
 4850SOL    HW115449   4.404   0.599   1.220
 4850SOL    HW215450   4.490   0.729   1.271
 4851SOL     OW15451   3.426   5.743   0.071
 4851SOL    HW115452   3.464   5.765   7.004
 4851SOL    HW215453   3.390   5.649   0.070
 4852SOL     OW15454   3.620   5.720   4.931
 4852SOL    HW115455   3.596   5.663   5.009
 4852SOL    HW215456   3.536   5.760   4.892
 4853SOL     OW15457   3.214   0.714   2.964
 4853SOL    HW115458   3.166   0.768   2.895
 4853SOL    HW215459   3.279   0.653   2.918
 4854SOL     OW15460   5.588   6.129   1.510
 4854SOL    HW115461   5.617   6.133   1.414
 4854SOL    HW215462   5.594   6.220   1.550
 4855SOL     OW15463   6.865   4.174   5.181
 4855SOL    HW115464   6.876   4.095   5.120
 4855SOL    HW215465   6.941   4.177   5.245
 4856SOL     OW15466   0.457   3.885   2.769
 4856SOL    HW115467   0.492   3.952   2.834
 4856SOL    HW215468   0.528   3.863   2.703
 4857SOL     OW15469   2.910   2.163   4.272
 4857SOL    HW115470   2.951   2.205   4.352
 4857SOL    HW215471   2.826   2.211   4.248
 4858SOL     OW15472   0.477   0.208   5.532
 4858SOL    HW115473   0.575   0.195   5.545
 4858SOL    HW215474   0.453   0.194   5.436
 4859SOL     OW15475   0.488   5.342   2.108
 4859SOL    HW115476   0.405   5.391   2.135
 4859SOL    HW215477   0.487   5.329   2.009
 4860SOL     OW15478   4.715   5.536   0.238
 4860SOL    HW115479   4.804   5.580   0.242
 4860SOL    HW215480   4.719   5.459   0.174
 4861SOL     OW15481   6.557   4.860   5.844
 4861SOL    HW115482   6.458   4.849   5.837
 4861SOL    HW215483   6.593   4.795   5.911
 4862SOL     OW15484   2.853   4.811   4.886
 4862SOL    HW115485   2.833   4.741   4.954
 4862SOL    HW215486   2.783   4.882   4.889
 4863SOL     OW15487   4.855   2.889   2.792
 4863SOL    HW115488   4.915   2.853   2.720
 4863SOL    HW215489   4.875   2.986   2.807
 4864SOL     OW15490   3.233   1.505   2.046
 4864SOL    HW115491   3.193   1.420   2.010
 4864SOL    HW215492   3.198   1.583   1.994
 4865SOL     OW15493   3.482   5.250   5.871
 4865SOL    HW115494   3.539   5.201   5.805
 4865SOL    HW215495   3.447   5.185   5.939
 4866SOL     OW15496   6.087   5.068   1.706
 4866SOL    HW115497   6.112   5.140   1.771
 4866SOL    HW215498   6.003   5.094   1.658
 4867SOL     OW15499   5.015   5.383   2.755
 4867SOL    HW115500   5.050   5.408   2.845
 4867SOL    HW215501   5.015   5.283   2.746
 4868SOL     OW15502   0.568   5.077   1.085
 4868SOL    HW115503   0.508   5.046   1.158
 4868SOL    HW215504   0.516   5.084   1.000
 4869SOL     OW15505   6.873   1.613   0.162
 4869SOL    HW115506   6.911   1.626   0.253
 4869SOL    HW215507   6.945   1.583   0.099
 4870SOL     OW15508   4.229   6.179   2.097
 4870SOL    HW115509   4.287   6.098   2.084
 4870SOL    HW215510   4.281   6.261   2.076
 4871SOL     OW15511   1.106   2.094   3.427
 4871SOL    HW115512   1.101   2.118   3.330
 4871SOL    HW215513   1.043   2.019   3.447
 4872SOL     OW15514   1.004   0.221   2.645
 4872SOL    HW115515   1.062   0.279   2.588
 4872SOL    HW215516   0.926   0.188   2.592
 4873SOL     OW15517   0.377   5.485   4.417
 4873SOL    HW115518   0.303   5.549   4.394
 4873SOL    HW215519   0.430   5.521   4.494
 4874SOL     OW15520   5.126   3.730   3.401
 4874SOL    HW115521   5.191   3.781   3.458
 4874SOL    HW215522   5.165   3.642   3.377
 4875SOL     OW15523   5.493   1.444   1.242
 4875SOL    HW115524   5.545   1.422   1.160
 4875SOL    HW215525   5.429   1.518   1.223
 4876SOL     OW15526   6.340   1.038   6.210
 4876SOL    HW115527   6.288   1.025   6.294
 4876SOL    HW215528   6.298   1.111   6.155
 4877SOL     OW15529   6.330   1.467   1.069
 4877SOL    HW115530   6.247   1.523   1.077
 4877SOL    HW215531   6.304   1.374   1.045
 4878SOL     OW15532   0.288   1.618   1.860
 4878SOL    HW115533   0.297   1.528   1.902
 4878SOL    HW215534   0.221   1.672   1.911
 4879SOL     OW15535   4.055   4.774   3.526
 4879SOL    HW115536   4.136   4.722   3.496
 4879SOL    HW215537   4.056   4.782   3.625
 4880SOL     OW15538   5.709   1.115   0.093
 4880SOL    HW115539   5.706   1.174   0.173
 4880SOL    HW215540   5.767   1.157   0.023
 4881SOL     OW15541   3.127   6.501   6.188
 4881SOL    HW115542   3.166   6.424   6.238
 4881SOL    HW215543   3.105   6.575   6.251
 4882SOL     OW15544   5.902   1.180   4.968
 4882SOL    HW115545   5.941   1.089   4.983
 4882SOL    HW215546   5.811   1.185   5.008
 4883SOL     OW15547   6.144   4.534   2.062
 4883SOL    HW115548   6.104   4.579   1.982
 4883SOL    HW215549   6.139   4.435   2.050
 4884SOL     OW15550   3.668   6.480   1.572
 4884SOL    HW115551   3.669   6.525   1.482
 4884SOL    HW215552   3.716   6.537   1.638
 4885SOL     OW15553   2.027   6.933   1.108
 4885SOL    HW115554   2.027   6.999   1.183
 4885SOL    HW215555   2.089   6.858   1.130
 4886SOL     OW15556   6.308   0.373   6.915
 4886SOL    HW115557   6.358   0.422   6.987
 4886SOL    HW215558   6.328   0.275   6.922
 4887SOL     OW15559   0.344   2.246   3.428
 4887SOL    HW115560   0.271   2.314   3.440
 4887SOL    HW215561   0.356   2.194   3.512
 4888SOL     OW15562   1.411   5.972   2.950
 4888SOL    HW115563   1.495   6.004   2.908
 4888SOL    HW215564   1.367   6.048   2.998
 4889SOL     OW15565   1.433   1.869   0.416
 4889SOL    HW115566   1.364   1.832   0.353
 4889SOL    HW215567   1.497   1.926   0.365
 4890SOL     OW15568   0.589   0.958   4.395
 4890SOL    HW115569   0.607   1.020   4.471
 4890SOL    HW215570   0.634   0.871   4.412
 4891SOL     OW15571   1.001   4.725   0.336
 4891SOL    HW115572   0.912   4.768   0.353
 4891SOL    HW215573   1.063   4.791   0.294
 4892SOL     OW15574   1.626   5.708   1.482
 4892SOL    HW115575   1.615   5.721   1.581
 4892SOL    HW215576   1.624   5.797   1.436
 4893SOL     OW15577   0.140   3.642   6.511
 4893SOL    HW115578   0.205   3.690   6.570
 4893SOL    HW215579   0.047   3.656   6.546
 4894SOL     OW15580   1.687   0.601   3.159
 4894SOL    HW115581   1.772   0.637   3.196
 4894SOL    HW215582   1.609   0.643   3.206
 4895SOL     OW15583   0.873   2.844   0.257
 4895SOL    HW115584   0.941   2.900   0.306
 4895SOL    HW215585   0.918   2.764   0.218
 4896SOL     OW15586   3.823   4.925   4.421
 4896SOL    HW115587   3.723   4.932   4.424
 4896SOL    HW215588   3.856   4.892   4.510
 4897SOL     OW15589   3.263   5.508   0.054
 4897SOL    HW115590   3.236   5.523   0.149
 4897SOL    HW215591   3.282   5.411   0.040
 4898SOL     OW15592   5.559   2.283   5.649
 4898SOL    HW115593   5.510   2.367   5.623
 4898SOL    HW215594   5.510   2.203   5.615
 4899SOL     OW15595   6.046   4.456   3.033
 4899SOL    HW115596   6.099   4.425   3.112
 4899SOL    HW215597   6.099   4.525   2.982
 4900SOL     OW15598   0.418   6.823   5.951
 4900SOL    HW115599   0.454   6.820   6.044
 4900SOL    HW215600   0.482   6.872   5.891
 4901SOL     OW15601   0.689   6.608   3.843
 4901SOL    HW115602   0.735   6.583   3.758
 4901SOL    HW215603   0.757   6.637   3.911
 4902SOL     OW15604   2.401   4.769   1.874
 4902SOL    HW115605   2.488   4.755   1.828
 4902SOL    HW215606   2.334   4.703   1.840
 4903SOL     OW15607   3.909   6.939   0.165
 4903SOL    HW115608   3.936   6.879   0.090
 4903SOL    HW215609   3.849   6.890   0.228
 4904SOL     OW15610   1.868   5.890   4.037
 4904SOL    HW115611   1.869   5.979   3.992
 4904SOL    HW215612   1.925   5.826   3.985
 4905SOL     OW15613   5.168   2.904   1.843
 4905SOL    HW115614   5.197   2.933   1.752
 4905SOL    HW215615   5.179   2.979   1.907
 4906SOL     OW15616   4.565   0.149   0.482
 4906SOL    HW115617   4.502   0.079   0.515
 4906SOL    HW215618   4.656   0.109   0.468
 4907SOL     OW15619   4.334   6.999   3.966
 4907SOL    HW115620   4.306   0.058   4.018
 4907SOL    HW215621   4.290   6.918   4.005
 4908SOL     OW15622   3.801   5.771   6.414
 4908SOL    HW115623   3.737   5.756   6.339
 4908SOL    HW215624   3.892   5.791   6.377
 4909SOL     OW15625   6.243   6.560   5.499
 4909SOL    HW115626   6.217   6.605   5.585
 4909SOL    HW215627   6.333   6.592   5.470
 4910SOL     OW15628   5.160   0.824   5.205
 4910SOL    HW115629   5.231   0.807   5.137
 4910SOL    HW215630   5.110   0.907   5.182
 4911SOL     OW15631   0.308   2.523   5.997
 4911SOL    HW115632   0.338   2.499   5.905
 4911SOL    HW215633   0.265   2.613   5.996
 4912SOL     OW15634   3.923   2.126   2.593
 4912SOL    HW115635   3.948   2.083   2.506
 4912SOL    HW215636   3.824   2.141   2.595
 4913SOL     OW15637   3.217   3.772   3.470
 4913SOL    HW115638   3.254   3.682   3.493
 4913SOL    HW215639   3.133   3.762   3.416
 4914SOL     OW15640   2.394   0.061   3.802
 4914SOL    HW115641   2.420   0.014   3.718
 4914SOL    HW215642   2.434   0.013   3.880
 4915SOL     OW15643   3.907   6.407   4.665
 4915SOL    HW115644   3.924   6.408   4.567
 4915SOL    HW215645   3.864   6.492   4.692
 4916SOL     OW15646   2.952   2.182   3.207
 4916SOL    HW115647   2.916   2.092   3.182
 4916SOL    HW215648   2.891   2.253   3.172
 4917SOL     OW15649   1.963   3.828   0.524
 4917SOL    HW115650   1.974   3.895   0.450
 4917SOL    HW215651   1.925   3.873   0.605
 4918SOL     OW15652   2.723   0.343   2.269
 4918SOL    HW115653   2.770   0.424   2.305
 4918SOL    HW215654   2.677   0.366   2.184
 4919SOL     OW15655   1.611   1.884   2.402
 4919SOL    HW115656   1.633   1.789   2.425
 4919SOL    HW215657   1.582   1.932   2.485
 4920SOL     OW15658   4.066   1.015   0.704
 4920SOL    HW115659   4.063   0.940   0.770
 4920SOL    HW215660   4.089   0.979   0.614
 4921SOL     OW15661   2.376   4.065   1.794
 4921SOL    HW115662   2.300   4.120   1.761
 4921SOL    HW215663   2.341   3.995   1.857
 4922SOL     OW15664   1.652   3.119   5.266
 4922SOL    HW115665   1.710   3.074   5.334
 4922SOL    HW215666   1.617   3.205   5.303
 4923SOL     OW15667   5.202   0.288   1.675
 4923SOL    HW115668   5.167   0.353   1.742
 4923SOL    HW215669   5.240   0.337   1.597
 4924SOL     OW15670   1.003   3.886   3.871
 4924SOL    HW115671   1.093   3.843   3.871
 4924SOL    HW215672   1.009   3.976   3.828
 4925SOL     OW15673   4.944   6.378   1.194
 4925SOL    HW115674   5.028   6.347   1.149
 4925SOL    HW215675   4.904   6.453   1.142
 4926SOL     OW15676   5.395   2.562   2.128
 4926SOL    HW115677   5.308   2.611   2.123
 4926SOL    HW215678   5.458   2.612   2.186
 4927SOL     OW15679   3.539   2.944   2.919
 4927SOL    HW115680   3.469   2.897   2.866
 4927SOL    HW215681   3.528   2.923   3.016
 4928SOL     OW15682   0.872   6.605   6.910
 4928SOL    HW115683   0.799   6.673   6.911
 4928SOL    HW215684   0.834   6.514   6.892
 4929SOL     OW15685   1.420   4.725   4.459
 4929SOL    HW115686   1.427   4.789   4.383
 4929SOL    HW215687   1.477   4.756   4.535
 4930SOL     OW15688   0.345   1.979   0.221
 4930SOL    HW115689   0.304   1.970   0.312
 4930SOL    HW215690   0.291   1.928   0.154
 4931SOL     OW15691   0.890   0.041   0.206
 4931SOL    HW115692   0.941   0.125   0.223
 4931SOL    HW215693   0.793   0.055   0.229
 4932SOL     OW15694   2.696   2.610   1.448
 4932SOL    HW115695   2.618   2.574   1.500
 4932SOL    HW215696   2.670   2.694   1.402
 4933SOL     OW15697   2.494   1.491   4.126
 4933SOL    HW115698   2.467   1.496   4.222
 4933SOL    HW215699   2.450   1.566   4.076
 4934SOL     OW15700   7.001   5.140   3.711
 4934SOL    HW115701   0.057   5.158   3.769
 4934SOL    HW215702   0.003   5.156   3.615
 4935SOL     OW15703   2.349   1.231   6.616
 4935SOL    HW115704   2.298   1.157   6.659
 4935SOL    HW215705   2.422   1.261   6.677
 4936SOL     OW15706   3.636   5.823   1.738
 4936SOL    HW115707   3.648   5.895   1.806
 4936SOL    HW215708   3.679   5.739   1.770
 4937SOL     OW15709   0.926   3.425   5.941
 4937SOL    HW115710   0.979   3.347   5.976
 4937SOL    HW215711   0.959   3.448   5.849
 4938SOL     OW15712   3.141   4.587   1.140
 4938SOL    HW115713   3.105   4.665   1.088
 4938SOL    HW215714   3.159   4.615   1.235
 4939SOL     OW15715   1.396   1.361   1.690
 4939SOL    HW115716   1.343   1.369   1.605
 4939SOL    HW215717   1.428   1.452   1.718
 4940SOL     OW15718   6.892   2.650   4.086
 4940SOL    HW115719   6.837   2.724   4.046
 4940SOL    HW215720   6.890   2.571   4.025
 4941SOL     OW15721   3.955   2.453   5.341
 4941SOL    HW115722   3.906   2.518   5.400
 4941SOL    HW215723   4.026   2.503   5.290
 4942SOL     OW15724   5.406   3.243   3.467
 4942SOL    HW115725   5.353   3.292   3.537
 4942SOL    HW215726   5.482   3.195   3.511
 4943SOL     OW15727   5.120   3.292   6.567
 4943SOL    HW115728   5.081   3.220   6.623
 4943SOL    HW215729   5.143   3.371   6.625
 4944SOL     OW15730   1.824   4.412   0.872
 4944SOL    HW115731   1.816   4.455   0.961
 4944SOL    HW215732   1.783   4.320   0.875
 4945SOL     OW15733   2.094   1.003   4.746
 4945SOL    HW115734   2.065   0.908   4.752
 4945SOL    HW215735   2.015   1.061   4.727
 4946SOL     OW15736   1.404   4.116   0.380
 4946SOL    HW115737   1.484   4.172   0.403
 4946SOL    HW215738   1.367   4.077   0.464
 4947SOL     OW15739   2.323   0.764   1.676
 4947SOL    HW115740   2.250   0.808   1.623
 4947SOL    HW215741   2.396   0.829   1.694
 4948SOL     OW15742   1.831   2.383   1.814
 4948SOL    HW115743   1.807   2.333   1.897
 4948SOL    HW215744   1.928   2.408   1.817
 4949SOL     OW15745   6.692   3.481   6.165
 4949SOL    HW115746   6.695   3.504   6.068
 4949SOL    HW215747   6.711   3.563   6.220
 4950SOL     OW15748   2.388   4.755   5.298
 4950SOL    HW115749   2.437   4.678   5.257
 4950SOL    HW215750   2.297   4.762   5.257
 4951SOL     OW15751   5.812   6.547   3.730
 4951SOL    HW115752   5.742   6.515   3.795
 4951SOL    HW215753   5.806   6.493   3.646
 4952SOL     OW15754   6.874   0.381   6.170
 4952SOL    HW115755   6.816   0.462   6.179
 4952SOL    HW215756   6.821   0.307   6.129
 4953SOL     OW15757   1.255   2.008   4.923
 4953SOL    HW115758   1.157   2.015   4.942
 4953SOL    HW215759   1.273   2.039   4.830
 4954SOL     OW15760   2.549   3.827   5.306
 4954SOL    HW115761   2.481   3.857   5.240
 4954SOL    HW215762   2.641   3.839   5.268
 4955SOL     OW15763   3.183   5.895   0.049
 4955SOL    HW115764   3.233   5.809   0.050
 4955SOL    HW215765   3.123   5.900   0.128
 4956SOL     OW15766   2.418   0.358   4.749
 4956SOL    HW115767   2.393   0.353   4.845
 4956SOL    HW215768   2.414   0.267   4.708
 4957SOL     OW15769   6.535   4.300   6.678
 4957SOL    HW115770   6.547   4.332   6.584
 4957SOL    HW215771   6.577   4.210   6.688
 4958SOL     OW15772   2.732   0.023   6.041
 4958SOL    HW115773   2.715   0.029   6.139
 4958SOL    HW215774   2.717   6.952   6.010
 4959SOL     OW15775   6.916   2.639   1.645
 4959SOL    HW115776   6.820   2.620   1.626
 4959SOL    HW215777   6.924   2.704   1.721
 4960SOL     OW15778   3.775   4.893   3.493
 4960SOL    HW115779   3.861   4.843   3.486
 4960SOL    HW215780   3.768   4.935   3.583
 4961SOL     OW15781   2.905   0.760   6.786
 4961SOL    HW115782   2.826   0.737   6.842
 4961SOL    HW215783   2.875   0.804   6.701
 4962SOL     OW15784   6.713   3.370   1.118
 4962SOL    HW115785   6.765   3.307   1.060
 4962SOL    HW215786   6.641   3.414   1.063
 4963SOL     OW15787   0.332   4.177   0.554
 4963SOL    HW115788   0.317   4.273   0.533
 4963SOL    HW215789   0.409   4.168   0.618
 4964SOL     OW15790   2.973   6.495   4.499
 4964SOL    HW115791   3.066   6.532   4.497
 4964SOL    HW215792   2.940   6.494   4.594
 4965SOL     OW15793   1.417   6.650   2.769
 4965SOL    HW115794   1.426   6.732   2.825
 4965SOL    HW215795   1.333   6.657   2.714
 4966SOL     OW15796   3.029   6.501   4.775
 4966SOL    HW115797   3.027   6.545   4.865
 4966SOL    HW215798   3.066   6.409   4.784
 4967SOL     OW15799   3.994   4.598   5.338
 4967SOL    HW115800   3.931   4.530   5.376
 4967SOL    HW215801   3.957   4.690   5.355
 4968SOL     OW15802   0.212   0.881   4.148
 4968SOL    HW115803   0.132   0.931   4.116
 4968SOL    HW215804   0.292   0.941   4.143
 4969SOL     OW15805   0.757   6.219   1.540
 4969SOL    HW115806   0.843   6.188   1.499
 4969SOL    HW215807   0.775   6.255   1.632
 4970SOL     OW15808   1.912   1.210   1.687
 4970SOL    HW115809   1.885   1.276   1.617
 4970SOL    HW215810   2.011   1.207   1.694
 4971SOL     OW15811   6.586   6.387   2.808
 4971SOL    HW115812   6.580   6.289   2.826
 4971SOL    HW215813   6.597   6.437   2.894
 4972SOL     OW15814   1.698   4.022   1.137
 4972SOL    HW115815   1.797   4.027   1.152
 4972SOL    HW215816   1.666   3.930   1.156
 4973SOL     OW15817   0.236   0.476   1.411
 4973SOL    HW115818   0.294   0.397   1.388
 4973SOL    HW215819   0.141   0.453   1.391
 4974SOL     OW15820   3.919   3.953   6.532
 4974SOL    HW115821   3.859   4.033   6.534
 4974SOL    HW215822   3.895   3.896   6.453
 4975SOL     OW15823   5.932   3.551   0.559
 4975SOL    HW115824   5.882   3.528   0.476
 4975SOL    HW215825   5.869   3.548   0.637
 4976SOL     OW15826   0.582   0.177   4.562
 4976SOL    HW115827   0.543   0.099   4.513
 4976SOL    HW215828   0.668   0.204   4.517
 4977SOL     OW15829   2.884   4.883   6.627
 4977SOL    HW115830   2.884   4.783   6.627
 4977SOL    HW215831   2.798   4.917   6.666
 4978SOL     OW15832   5.025   4.280   5.545
 4978SOL    HW115833   5.107   4.304   5.493
 4978SOL    HW215834   4.957   4.242   5.483
 4979SOL     OW15835   1.701   6.957   6.429
 4979SOL    HW115836   1.766   6.936   6.356
 4979SOL    HW215837   1.608   6.953   6.393
 4980SOL     OW15838   6.541   4.206   3.113
 4980SOL    HW115839   6.488   4.251   3.185
 4980SOL    HW215840   6.482   4.143   3.063
 4981SOL     OW15841   3.310   4.815   1.869
 4981SOL    HW115842   3.270   4.755   1.800
 4981SOL    HW215843   3.393   4.774   1.905
 4982SOL     OW15844   4.418   1.454   6.708
 4982SOL    HW115845   4.355   1.452   6.630
 4982SOL    HW215846   4.491   1.520   6.690
 4983SOL     OW15847   6.469   5.132   3.935
 4983SOL    HW115848   6.471   5.183   4.021
 4983SOL    HW215849   6.395   5.065   3.938
 4984SOL     OW15850   4.535   4.554   3.371
 4984SOL    HW115851   4.605   4.613   3.412
 4984SOL    HW215852   4.491   4.602   3.295
 4985SOL     OW15853   5.781   5.680   2.622
 4985SOL    HW115854   5.692   5.660   2.582
 4985SOL    HW215855   5.785   5.777   2.646
 4986SOL     OW15856   0.426   4.400   1.851
 4986SOL    HW115857   0.461   4.490   1.878
 4986SOL    HW215858   0.412   4.399   1.752
 4987SOL     OW15859   0.882   6.840   2.539
 4987SOL    HW115860   0.854   6.933   2.516
 4987SOL    HW215861   0.820   6.775   2.497
 4988SOL     OW15862   5.919   0.644   4.061
 4988SOL    HW115863   5.911   0.554   4.104
 4988SOL    HW215864   5.841   0.659   4.001
 4989SOL     OW15865   5.443   0.596   1.685
 4989SOL    HW115866   5.390   0.675   1.653
 4989SOL    HW215867   5.530   0.628   1.724
 4990SOL     OW15868   4.101   1.663   6.693
 4990SOL    HW115869   4.081   1.677   6.790
 4990SOL    HW215870   4.171   1.728   6.663
 4991SOL     OW15871   0.392   5.820   4.260
 4991SOL    HW115872   0.460   5.813   4.333
 4991SOL    HW215873   0.305   5.782   4.291
 4992SOL     OW15874   6.323   0.711   3.407
 4992SOL    HW115875   6.241   0.657   3.388
 4992SOL    HW215876   6.317   0.798   3.359
 4993SOL     OW15877   4.687   6.817   5.204
 4993SOL    HW115878   4.746   6.873   5.146
 4993SOL    HW215879   4.667   6.866   5.288
 4994SOL     OW15880   2.294   5.235   4.850
 4994SOL    HW115881   2.370   5.229   4.785
 4994SOL    HW215882   2.291   5.152   4.905
 4995SOL     OW15883   0.937   0.475   4.677
 4995SOL    HW115884   0.976   0.408   4.614
 4995SOL    HW215885   0.946   0.566   4.637
 4996SOL     OW15886   0.314   1.839   4.460
 4996SOL    HW115887   0.342   1.800   4.373
 4996SOL    HW215888   0.229   1.890   4.448
 4997SOL     OW15889   3.514   2.231   1.164
 4997SOL    HW115890   3.422   2.214   1.129
 4997SOL    HW215891   3.578   2.168   1.121
 4998SOL     OW15892   1.263   3.585   3.092
 4998SOL    HW115893   1.343   3.563   3.037
 4998SOL    HW215894   1.234   3.679   3.072
 4999SOL     OW15895   0.974   3.708   4.764
 4999SOL    HW115896   0.978   3.634   4.831
 4999SOL    HW215897   1.017   3.790   4.802
 5000SOL     OW15898   3.087   6.151   3.579
 5000SOL    HW115899   3.108   6.233   3.526
 5000SOL    HW215900   3.019   6.097   3.530
 5001SOL     OW15901   0.568   5.423   2.496
 5001SOL    HW115902   0.509   5.488   2.448
 5001SOL    HW215903   0.591   5.459   2.586
 5002SOL     OW15904   0.778   4.797   2.168
 5002SOL    HW115905   0.716   4.873   2.145
 5002SOL    HW215906   0.726   4.712   2.168
 5003SOL     OW15907   4.074   5.952   2.986
 5003SOL    HW115908   4.113   5.890   3.053
 5003SOL    HW215909   3.991   5.912   2.948
 5004SOL     OW15910   3.611   5.723   6.170
 5004SOL    HW115911   3.611   5.775   6.085
 5004SOL    HW215912   3.616   5.625   6.150
 5005SOL     OW15913   2.512   3.405   6.635
 5005SOL    HW115914   2.568   3.327   6.608
 5005SOL    HW215915   2.469   3.445   6.554
 5006SOL     OW15916   5.648   1.507   2.287
 5006SOL    HW115917   5.585   1.561   2.231
 5006SOL    HW215918   5.643   1.536   2.382
 5007SOL     OW15919   6.424   0.506   0.658
 5007SOL    HW115920   6.327   0.529   0.644
 5007SOL    HW215921   6.480   0.585   0.635
 5008SOL     OW15922   6.802   6.500   1.587
 5008SOL    HW115923   6.782   6.526   1.492
 5008SOL    HW215924   6.876   6.432   1.588
 5009SOL     OW15925   0.556   2.755   0.287
 5009SOL    HW115926   0.507   2.793   0.209
 5009SOL    HW215927   0.626   2.691   0.255
 5010SOL     OW15928   3.510   2.384   0.843
 5010SOL    HW115929   3.457   2.299   0.837
 5010SOL    HW215930   3.525   2.407   0.939
 5011SOL     OW15931   1.535   3.685   0.451
 5011SOL    HW115932   1.525   3.585   0.447
 5011SOL    HW215933   1.576   3.717   0.365
 5012SOL     OW15934   5.531   2.789   5.400
 5012SOL    HW115935   5.602   2.729   5.363
 5012SOL    HW215936   5.509   2.860   5.333
 5013SOL     OW15937   6.043   0.434   5.510
 5013SOL    HW115938   5.990   0.482   5.440
 5013SOL    HW215939   5.998   0.443   5.599
 5014SOL     OW15940   6.605   4.596   0.240
 5014SOL    HW115941   6.693   4.632   0.210
 5014SOL    HW215942   6.620   4.518   0.301
 5015SOL     OW15943   5.403   0.694   4.786
 5015SOL    HW115944   5.315   0.713   4.828
 5015SOL    HW215945   5.434   0.775   4.736
 5016SOL     OW15946   1.211   3.086   4.853
 5016SOL    HW115947   1.268   3.133   4.786
 5016SOL    HW215948   1.135   3.041   4.806
 5017SOL     OW15949   0.768   2.669   1.342
 5017SOL    HW115950   0.779   2.608   1.421
 5017SOL    HW215951   0.743   2.761   1.374
 5018SOL     OW15952   0.661   4.807   1.767
 5018SOL    HW115953   0.575   4.843   1.728
 5018SOL    HW215954   0.728   4.881   1.773
 5019SOL     OW15955   2.131   5.722   5.329
 5019SOL    HW115956   2.093   5.814   5.314
 5019SOL    HW215957   2.194   5.700   5.255
 5020SOL     OW15958   0.329   6.735   5.183
 5020SOL    HW115959   0.415   6.779   5.157
 5020SOL    HW215960   0.332   6.638   5.160
 5021SOL     OW15961   1.519   0.557   1.349
 5021SOL    HW115962   1.606   0.595   1.382
 5021SOL    HW215963   1.498   0.472   1.399
 5022SOL     OW15964   0.152   2.671   1.569
 5022SOL    HW115965   0.055   2.682   1.593
 5022SOL    HW215966   0.179   2.744   1.507
 5023SOL     OW15967   0.034   3.986   1.573
 5023SOL    HW115968   0.052   4.047   1.650
 5023SOL    HW215969   6.959   3.989   1.550
 5024SOL     OW15970   5.472   4.855   0.674
 5024SOL    HW115971   5.400   4.787   0.659
 5024SOL    HW215972   5.507   4.886   0.585
 5025SOL     OW15973   3.857   1.520   3.862
 5025SOL    HW115974   3.792   1.496   3.790
 5025SOL    HW215975   3.899   1.608   3.842
 5026SOL     OW15976   6.488   5.148   4.559
 5026SOL    HW115977   6.580   5.111   4.549
 5026SOL    HW215978   6.454   5.176   4.469
 5027SOL     OW15979   5.693   0.325   1.322
 5027SOL    HW115980   5.764   0.271   1.366
 5027SOL    HW215981   5.720   0.422   1.320
 5028SOL     OW15982   6.861   1.760   3.176
 5028SOL    HW115983   6.817   1.672   3.192
 5028SOL    HW215984   6.863   1.812   3.261
 5029SOL     OW15985   6.600   3.314   2.442
 5029SOL    HW115986   6.619   3.254   2.364
 5029SOL    HW215987   6.564   3.402   2.409
 5030SOL     OW15988   6.952   5.702   5.836
 5030SOL    HW115989   7.004   5.618   5.849
 5030SOL    HW215990   6.942   5.750   5.923
 5031SOL     OW15991   6.838   1.181   5.377
 5031SOL    HW115992   6.876   1.149   5.290
 5031SOL    HW215993   6.864   1.277   5.391
 5032SOL     OW15994   3.013   2.284   6.356
 5032SOL    HW115995   2.919   2.256   6.337
 5032SOL    HW215996   3.077   2.221   6.311
 5033SOL     OW15997   2.268   1.443   0.083
 5033SOL    HW115998   2.200   1.378   0.051
 5033SOL    HW215999   2.245   1.534   0.050
 5034SOL     OW16000   4.979   6.920   4.224
 5034SOL    HW116001   5.018   6.878   4.306
 5034SOL    HW216002   4.890   6.960   4.246
 5035SOL     OW16003   0.375   3.893   5.230
 5035SOL    HW116004   0.286   3.887   5.186
 5035SOL    HW216005   0.446   3.866   5.165
 5036SOL     OW16006   6.770   4.766   6.022
 5036SOL    HW116007   6.801   4.756   6.117
 5036SOL    HW216008   6.792   4.858   5.990
 5037SOL     OW16009   4.622   4.605   1.266
 5037SOL    HW116010   4.630   4.560   1.177
 5037SOL    HW216011   4.710   4.598   1.314
 5038SOL     OW16012   3.863   3.649   4.405
 5038SOL    HW116013   3.818   3.596   4.333
 5038SOL    HW216014   3.941   3.598   4.440
 5039SOL     OW16015   1.998   3.775   5.650
 5039SOL    HW116016   2.077   3.786   5.590
 5039SOL    HW216017   1.964   3.681   5.643
 5040SOL     OW16018   0.902   5.678   5.323
 5040SOL    HW116019   0.991   5.643   5.294
 5040SOL    HW216020   0.831   5.611   5.304
 5041SOL     OW16021   1.150   2.480   2.414
 5041SOL    HW116022   1.129   2.512   2.507
 5041SOL    HW216023   1.224   2.535   2.376
 5042SOL     OW16024   6.413   3.349   0.217
 5042SOL    HW116025   6.487   3.338   0.284
 5042SOL    HW216026   6.350   3.272   0.224
 5043SOL     OW16027   4.108   1.022   0.133
 5043SOL    HW116028   4.186   1.067   0.177
 5043SOL    HW216029   4.028   1.027   0.193
 5044SOL     OW16030   0.403   5.827   1.517
 5044SOL    HW116031   0.485   5.785   1.478
 5044SOL    HW216032   0.356   5.759   1.574
 5045SOL     OW16033   6.349   5.269   5.747
 5045SOL    HW116034   6.385   5.345   5.693
 5045SOL    HW216035   6.424   5.206   5.771
 5046SOL     OW16036   3.891   3.680   3.459
 5046SOL    HW116037   3.891   3.779   3.450
 5046SOL    HW216038   3.982   3.650   3.489
 5047SOL     OW16039   2.076   3.707   2.988
 5047SOL    HW116040   2.109   3.790   3.032
 5047SOL    HW216041   2.079   3.631   3.052
 5048SOL     OW16042   1.426   0.667   5.187
 5048SOL    HW116043   1.400   0.699   5.278
 5048SOL    HW216044   1.367   0.591   5.160
 5049SOL     OW16045   5.485   1.358   6.455
 5049SOL    HW116046   5.511   1.426   6.524
 5049SOL    HW216047   5.556   1.288   6.448
 5050SOL     OW16048   1.641   1.636   6.677
 5050SOL    HW116049   1.562   1.575   6.668
 5050SOL    HW216050   1.725   1.581   6.677
 5051SOL     OW16051   4.419   4.423   1.015
 5051SOL    HW116052   4.343   4.438   0.950
 5051SOL    HW216053   4.385   4.373   1.095
 5052SOL     OW16054   3.701   2.103   6.233
 5052SOL    HW116055   3.631   2.056   6.286
 5052SOL    HW216056   3.681   2.201   6.230
 5053SOL     OW16057   0.784   4.973   3.163
 5053SOL    HW116058   0.827   5.058   3.192
 5053SOL    HW216059   0.730   4.936   3.239
 5054SOL     OW16060   3.622   4.626   5.934
 5054SOL    HW116061   3.598   4.530   5.949
 5054SOL    HW216062   3.664   4.663   6.016
 5055SOL     OW16063   0.930   2.398   5.679
 5055SOL    HW116064   0.886   2.458   5.745
 5055SOL    HW216065   0.956   2.450   5.598
 5056SOL     OW16066   5.420   3.827   5.227
 5056SOL    HW116067   5.467   3.749   5.186
 5056SOL    HW216068   5.323   3.823   5.204
 5057SOL     OW16069   0.657   6.849   2.254
 5057SOL    HW116070   0.730   6.906   2.218
 5057SOL    HW216071   0.595   6.905   2.309
 5058SOL     OW16072   3.413   4.881   6.975
 5058SOL    HW116073   3.371   4.887   0.043
 5058SOL    HW216074   3.456   4.792   6.964
 5059SOL     OW16075   6.816   0.560   3.376
 5059SOL    HW116076   6.841   0.471   3.415
 5059SOL    HW216077   6.808   0.627   3.450
 5060SOL     OW16078   6.317   1.983   6.406
 5060SOL    HW116079   6.372   1.951   6.482
 5060SOL    HW216080   6.328   2.082   6.395
 5061SOL     OW16081   4.716   2.150   0.004
 5061SOL    HW116082   4.646   2.101   0.055
 5061SOL    HW216083   4.684   2.166   6.933
 5062SOL     OW16084   0.114   0.099   2.531
 5062SOL    HW116085   0.144   0.019   2.583
 5062SOL    HW216086   0.093   0.072   2.437
 5063SOL     OW16087   0.370   6.571   1.770
 5063SOL    HW116088   0.319   6.657   1.773
 5063SOL    HW216089   0.398   6.552   1.676
 5064SOL     OW16090   4.986   3.142   0.423
 5064SOL    HW116091   5.007   3.111   0.330
 5064SOL    HW216092   4.921   3.080   0.466
 5065SOL     OW16093   3.119   0.202   5.720
 5065SOL    HW116094   3.141   0.184   5.624
 5065SOL    HW216095   3.049   0.137   5.750
 5066SOL     OW16096   5.263   3.940   2.097
 5066SOL    HW116097   5.319   3.905   2.023
 5066SOL    HW216098   5.240   3.866   2.161
 5067SOL     OW16099   5.444   1.298   0.689
 5067SOL    HW116100   5.496   1.364   0.742
 5067SOL    HW216101   5.505   1.251   0.625
 5068SOL     OW16102   2.776   4.317   0.804
 5068SOL    HW116103   2.868   4.281   0.816
 5068SOL    HW216104   2.738   4.343   0.893
 5069SOL     OW16105   1.110   4.361   2.172
 5069SOL    HW116106   1.165   4.391   2.250
 5069SOL    HW216107   1.013   4.371   2.194
 5070SOL     OW16108   5.020   3.383   3.929
 5070SOL    HW116109   5.113   3.364   3.898
 5070SOL    HW216110   4.962   3.305   3.908
 5071SOL     OW16111   4.324   2.336   4.780
 5071SOL    HW116112   4.237   2.317   4.735
 5071SOL    HW216113   4.308   2.385   4.865
 5072SOL     OW16114   0.600   5.428   0.442
 5072SOL    HW116115   0.667   5.451   0.372
 5072SOL    HW216116   0.636   5.455   0.532
 5073SOL     OW16117   6.516   6.419   2.409
 5073SOL    HW116118   6.496   6.420   2.507
 5073SOL    HW216119   6.614   6.428   2.395
 5074SOL     OW16120   3.211   4.175   6.972
 5074SOL    HW116121   3.125   4.135   7.003
 5074SOL    HW216122   3.253   4.226   0.025
 5075SOL     OW16123   0.169   1.091   5.771
 5075SOL    HW116124   0.182   0.998   5.803
 5075SOL    HW216125   0.238   1.151   5.812
 5076SOL     OW16126   3.938   1.072   1.289
 5076SOL    HW116127   3.949   0.978   1.320
 5076SOL    HW216128   4.020   1.102   1.240
 5077SOL     OW16129   1.503   2.008   3.614
 5077SOL    HW116130   1.516   2.104   3.588
 5077SOL    HW216131   1.562   1.987   3.692
 5078SOL     OW16132   1.231   1.556   3.498
 5078SOL    HW116133   1.255   1.608   3.580
 5078SOL    HW216134   1.233   1.617   3.418
 5079SOL     OW16135   2.718   5.002   6.159
 5079SOL    HW116136   2.809   4.963   6.172
 5079SOL    HW216137   2.666   4.944   6.096
 5080SOL     OW16138   5.721   6.644   5.120
 5080SOL    HW116139   5.801   6.656   5.178
 5080SOL    HW216140   5.670   6.563   5.150
 5081SOL     OW16141   3.255   3.571   2.920
 5081SOL    HW116142   3.251   3.645   2.852
 5081SOL    HW216143   3.262   3.483   2.873
 5082SOL     OW16144   5.580   6.897   5.423
 5082SOL    HW116145   5.555   6.963   5.494
 5082SOL    HW216146   5.652   6.836   5.458
 5083SOL     OW16147   1.704   6.780   1.942
 5083SOL    HW116148   1.720   6.700   2.001
 5083SOL    HW216149   1.621   6.826   1.971
 5084SOL     OW16150   1.502   4.388   4.091
 5084SOL    HW116151   1.462   4.370   4.181
 5084SOL    HW216152   1.475   4.316   4.027
 5085SOL     OW16153   5.298   1.593   6.617
 5085SOL    HW116154   5.379   1.542   6.645
 5085SOL    HW216155   5.223   1.575   6.680
 5086SOL     OW16156   6.047   4.624   4.207
 5086SOL    HW116157   6.085   4.600   4.118
 5086SOL    HW216158   6.071   4.554   4.274
 5087SOL     OW16159   6.554   6.289   3.960
 5087SOL    HW116160   6.474   6.293   3.901
 5087SOL    HW216161   6.573   6.379   3.998
 5088SOL     OW16162   6.231   1.248   6.089
 5088SOL    HW116163   6.136   1.264   6.116
 5088SOL    HW216164   6.285   1.331   6.107
 5089SOL     OW16165   6.411   3.723   3.568
 5089SOL    HW116166   6.480   3.787   3.533
 5089SOL    HW216167   6.334   3.719   3.505
 5090SOL     OW16168   2.209   4.308   1.435
 5090SOL    HW116169   2.243   4.390   1.390
 5090SOL    HW216170   2.282   4.239   1.438
 5091SOL     OW16171   1.080   6.004   2.790
 5091SOL    HW116172   1.126   5.929   2.743
 5091SOL    HW216173   0.981   5.989   2.787
 5092SOL     OW16174   3.659   2.601   1.775
 5092SOL    HW116175   3.593   2.620   1.702
 5092SOL    HW216176   3.662   2.503   1.792
 5093SOL     OW16177   1.082   2.549   1.732
 5093SOL    HW116178   0.986   2.536   1.756
 5093SOL    HW216179   1.131   2.462   1.738
 5094SOL     OW16180   0.685   0.366   5.821
 5094SOL    HW116181   0.723   0.278   5.791
 5094SOL    HW216182   0.682   0.370   5.920
 5095SOL     OW16183   1.380   0.702   4.681
 5095SOL    HW116184   1.417   0.717   4.773
 5095SOL    HW216185   1.454   0.678   4.619
 5096SOL     OW16186   4.748   3.245   0.821
 5096SOL    HW116187   4.658   3.269   0.784
 5096SOL    HW216188   4.819   3.269   0.755
 5097SOL     OW16189   1.741   0.397   6.004
 5097SOL    HW116190   1.765   0.485   5.963
 5097SOL    HW216191   1.675   0.350   5.945
 5098SOL     OW16192   0.970   0.755   1.772
 5098SOL    HW116193   0.893   0.784   1.829
 5098SOL    HW216194   0.943   0.756   1.676
 5099SOL     OW16195   1.085   0.337   5.702
 5099SOL    HW116196   1.113   0.322   5.607
 5099SOL    HW216197   1.009   0.403   5.704
 5100SOL     OW16198   4.886   0.243   6.102
 5100SOL    HW116199   4.942   0.325   6.110
 5100SOL    HW216200   4.946   0.162   6.098
 5101SOL     OW16201   4.798   6.152   6.722
 5101SOL    HW116202   4.807   6.206   6.638
 5101SOL    HW216203   4.712   6.173   6.767
 5102SOL     OW16204   5.901   0.766   5.665
 5102SOL    HW116205   5.961   0.732   5.738
 5102SOL    HW216206   5.845   0.841   5.700
 5103SOL     OW16207   0.143   0.801   3.849
 5103SOL    HW116208   0.196   0.808   3.764
 5103SOL    HW216209   0.199   0.833   3.925
 5104SOL     OW16210   1.775   0.313   1.305
 5104SOL    HW116211   1.845   0.385   1.307
 5104SOL    HW216212   1.752   0.291   1.210
 5105SOL     OW16213   4.358   4.044   6.875
 5105SOL    HW116214   4.411   4.019   6.794
 5105SOL    HW216215   4.417   4.089   6.941
 5106SOL     OW16216   3.540   0.207   2.538
 5106SOL    HW116217   3.499   0.293   2.568
 5106SOL    HW216218   3.468   0.140   2.518
 5107SOL     OW16219   2.721   0.708   6.986
 5107SOL    HW116220   2.798   0.690   0.025
 5107SOL    HW216221   2.654   0.765   0.011
 5108SOL     OW16222   2.957   3.869   3.824
 5108SOL    HW116223   3.053   3.871   3.794
 5108SOL    HW216224   2.932   3.959   3.860
 5109SOL     OW16225   0.741   1.758   1.362
 5109SOL    HW116226   0.648   1.724   1.344
 5109SOL    HW216227   0.747   1.854   1.334
 5110SOL     OW16228   1.871   6.344   5.785
 5110SOL    HW116229   1.801   6.272   5.775
 5110SOL    HW216230   1.952   6.319   5.732
 5111SOL     OW16231   0.870   0.936   6.076
 5111SOL    HW116232   0.889   0.960   5.980
 5111SOL    HW216233   0.835   1.016   6.124
 5112SOL     OW16234   0.214   6.921   3.587
 5112SOL    HW116235   0.267   6.854   3.640
 5112SOL    HW216236   0.274   6.968   3.523
 5113SOL     OW16237   0.601   0.429   0.657
 5113SOL    HW116238   0.541   0.497   0.699
 5113SOL    HW216239   0.556   0.339   0.659
 5114SOL     OW16240   3.169   4.269   0.309
 5114SOL    HW116241   3.246   4.320   0.271
 5114SOL    HW216242   3.142   4.309   0.396
 5115SOL     OW16243   1.331   4.012   5.872
 5115SOL    HW116244   1.379   4.030   5.958
 5115SOL    HW216245   1.395   4.018   5.796
 5116SOL     OW16246   4.933   5.076   6.264
 5116SOL    HW116247   4.856   5.052   6.206
 5116SOL    HW216248   4.979   4.992   6.296
 5117SOL     OW16249   2.445   4.934   3.378
 5117SOL    HW116250   2.535   4.940   3.420
 5117SOL    HW216251   2.453   4.886   3.290
 5118SOL     OW16252   4.736   6.234   1.024
 5118SOL    HW116253   4.672   6.310   1.016
 5118SOL    HW216254   4.805   6.255   1.094
 5119SOL     OW16255   5.318   0.449   1.498
 5119SOL    HW116256   5.382   0.492   1.561
 5119SOL    HW216257   5.258   0.518   1.458
 5120SOL     OW16258   5.986   1.083   3.019
 5120SOL    HW116259   5.902   1.125   2.985
 5120SOL    HW216260   6.025   1.141   3.091
 5121SOL     OW16261   0.486   3.370   6.173
 5121SOL    HW116262   0.539   3.352   6.090
 5121SOL    HW216263   0.475   3.469   6.184
 5122SOL     OW16264   2.646   0.590   3.471
 5122SOL    HW116265   2.670   0.523   3.401
 5122SOL    HW216266   2.616   0.675   3.427
 5123SOL     OW16267   5.318   3.836   3.579
 5123SOL    HW116268   5.325   3.906   3.508
 5123SOL    HW216269   5.340   3.877   3.668
 5124SOL     OW16270   3.176   6.071   6.640
 5124SOL    HW116271   3.108   6.120   6.586
 5124SOL    HW216272   3.192   5.981   6.598
 5125SOL     OW16273   0.219   3.956   4.265
 5125SOL    HW116274   0.128   3.992   4.285
 5125SOL    HW216275   0.213   3.857   4.251
 5126SOL     OW16276   6.507   5.093   6.261
 5126SOL    HW116277   6.606   5.107   6.261
 5126SOL    HW216278   6.468   5.127   6.175
 5127SOL     OW16279   5.696   3.940   6.964
 5127SOL    HW116280   5.762   4.014   6.972
 5127SOL    HW216281   5.695   3.887   0.027
 5128SOL     OW16282   1.254   0.838   6.633
 5128SOL    HW116283   1.298   0.750   6.649
 5128SOL    HW216284   1.166   0.823   6.588
 5129SOL     OW16285   5.380   0.333   2.256
 5129SOL    HW116286   5.382   0.234   2.274
 5129SOL    HW216287   5.409   0.382   2.338
 5130SOL     OW16288   1.084   5.367   4.826
 5130SOL    HW116289   1.136   5.432   4.770
 5130SOL    HW216290   1.006   5.332   4.774
 5131SOL     OW16291   3.103   4.978   3.881
 5131SOL    HW116292   3.083   4.974   3.783
 5131SOL    HW216293   3.098   4.886   3.919
 5132SOL     OW16294   3.097   1.795   5.993
 5132SOL    HW116295   3.094   1.790   6.092
 5132SOL    HW216296   3.028   1.859   5.960
 5133SOL     OW16297   3.582   5.433   6.519
 5133SOL    HW116298   3.631   5.508   6.563
 5133SOL    HW216299   3.493   5.422   6.563
 5134SOL     OW16300   6.553   6.770   1.452
 5134SOL    HW116301   6.471   6.723   1.418
 5134SOL    HW216302   6.526   6.857   1.494
 5135SOL     OW16303   6.359   3.553   2.564
 5135SOL    HW116304   6.417   3.551   2.483
 5135SOL    HW216305   6.337   3.460   2.592
 5136SOL     OW16306   0.522   0.656   6.349
 5136SOL    HW116307   0.456   0.582   6.360
 5136SOL    HW216308   0.587   0.654   6.426
 5137SOL     OW16309   5.093   2.508   5.215
 5137SOL    HW116310   5.179   2.456   5.216
 5137SOL    HW216311   5.045   2.496   5.302
 5138SOL     OW16312   3.798   4.044   4.092
 5138SOL    HW116313   3.853   3.985   4.152
 5138SOL    HW216314   3.795   4.136   4.130
 5139SOL     OW16315   1.585   0.463   4.898
 5139SOL    HW116316   1.561   0.560   4.889
 5139SOL    HW216317   1.644   0.450   4.978
 5140SOL     OW16318   4.280   1.697   5.946
 5140SOL    HW116319   4.247   1.611   5.907
 5140SOL    HW216320   4.281   1.689   6.046
 5141SOL     OW16321   6.658   2.867   1.803
 5141SOL    HW116322   6.592   2.928   1.761
 5141SOL    HW216323   6.750   2.887   1.770
 5142SOL     OW16324   6.963   6.642   3.635
 5142SOL    HW116325   6.973   6.603   3.727
 5142SOL    HW216326   0.032   6.657   3.595
 5143SOL     OW16327   0.715   4.555   4.455
 5143SOL    HW116328   0.642   4.500   4.495
 5143SOL    HW216329   0.734   4.523   4.362
 5144SOL     OW16330   1.890   3.464   6.588
 5144SOL    HW116331   1.864   3.377   6.548
 5144SOL    HW216332   1.981   3.457   6.629
 5145SOL     OW16333   3.461   6.101   6.644
 5145SOL    HW116334   3.362   6.116   6.647
 5145SOL    HW216335   3.508   6.189   6.635
 5146SOL     OW16336   4.297   4.513   5.411
 5146SOL    HW116337   4.265   4.430   5.365
 5146SOL    HW216338   4.381   4.545   5.368
 5147SOL     OW16339   4.875   3.687   3.755
 5147SOL    HW116340   4.893   3.609   3.696
 5147SOL    HW216341   4.863   3.769   3.699
 5148SOL     OW16342   0.566   0.918   1.634
 5148SOL    HW116343   0.489   0.979   1.614
 5148SOL    HW216344   0.572   0.848   1.562
 5149SOL     OW16345   5.695   4.399   3.936
 5149SOL    HW116346   5.711   4.302   3.949
 5149SOL    HW216347   5.729   4.450   4.015
 5150SOL     OW16348   1.449   4.436   3.641
 5150SOL    HW116349   1.443   4.519   3.696
 5150SOL    HW216350   1.388   4.443   3.562
 5151SOL     OW16351   5.894   4.895   2.079
 5151SOL    HW116352   5.977   4.920   2.029
 5151SOL    HW216353   5.870   4.800   2.058
 5152SOL     OW16354   1.736   0.629   6.448
 5152SOL    HW116355   1.753   0.535   6.477
 5152SOL    HW216356   1.705   0.629   6.353
 5153SOL     OW16357   1.738   1.448   0.806
 5153SOL    HW116358   1.803   1.453   0.883
 5153SOL    HW216359   1.683   1.531   0.804
 5154SOL     OW16360   1.174   2.808   6.650
 5154SOL    HW116361   1.243   2.879   6.664
 5154SOL    HW216362   1.171   2.783   6.553
 5155SOL     OW16363   2.313   1.812   0.589
 5155SOL    HW116364   2.326   1.759   0.505
 5155SOL    HW216365   2.254   1.761   0.652
 5156SOL     OW16366   5.771   5.313   5.447
 5156SOL    HW116367   5.817   5.312   5.536
 5156SOL    HW216368   5.673   5.298   5.460
 5157SOL     OW16369   4.013   1.380   2.179
 5157SOL    HW116370   3.932   1.406   2.125
 5157SOL    HW216371   4.096   1.403   2.128
 5158SOL     OW16372   3.768   1.185   2.354
 5158SOL    HW116373   3.709   1.233   2.289
 5158SOL    HW216374   3.728   1.096   2.375
 5159SOL     OW16375   6.036   3.877   6.526
 5159SOL    HW116376   6.086   3.868   6.440
 5159SOL    HW216377   5.951   3.927   6.510
 5160SOL     OW16378   6.878   6.337   3.354
 5160SOL    HW116379   6.899   6.239   3.351
 5160SOL    HW216380   6.784   6.351   3.386
 5161SOL     OW16381   0.430   2.866   0.050
 5161SOL    HW116382   0.436   2.780   7.022
 5161SOL    HW216383   0.471   2.940   7.018
 5162SOL     OW16384   0.169   6.255   2.509
 5162SOL    HW116385   0.129   6.265   2.418
 5162SOL    HW216386   0.097   6.249   2.578
 5163SOL     OW16387   3.359   6.103   1.701
 5163SOL    HW116388   3.412   6.062   1.627
 5163SOL    HW216389   3.388   6.198   1.714
 5164SOL     OW16390   2.895   3.669   1.054
 5164SOL    HW116391   2.942   3.682   1.142
 5164SOL    HW216392   2.930   3.735   0.988
 5165SOL     OW16393   1.658   4.965   6.870
 5165SOL    HW116394   1.565   4.951   6.902
 5165SOL    HW216395   1.679   4.900   6.797
 5166SOL     OW16396   1.875   5.575   1.638
 5166SOL    HW116397   1.817   5.541   1.564
 5166SOL    HW216398   1.818   5.623   1.705
 5167SOL     OW16399   5.328   3.475   5.789
 5167SOL    HW116400   5.324   3.554   5.728
 5167SOL    HW216401   5.239   3.430   5.792
 5168SOL     OW16402   4.556   2.186   2.082
 5168SOL    HW116403   4.492   2.238   2.138
 5168SOL    HW216404   4.546   2.214   1.986
 5169SOL     OW16405   3.902   0.440   4.133
 5169SOL    HW116406   3.917   0.355   4.083
 5169SOL    HW216407   3.909   0.518   4.070
 5170SOL     OW16408   1.249   3.510   6.263
 5170SOL    HW116409   1.252   3.426   6.208
 5170SOL    HW216410   1.308   3.499   6.343
 5171SOL     OW16411   2.088   5.519   5.619
 5171SOL    HW116412   2.051   5.534   5.710
 5171SOL    HW216413   2.132   5.429   5.615
 5172SOL     OW16414   0.721   4.793   3.742
 5172SOL    HW116415   0.629   4.829   3.757
 5172SOL    HW216416   0.760   4.763   3.829
 5173SOL     OW16417   4.575   3.522   5.907
 5173SOL    HW116418   4.511   3.597   5.894
 5173SOL    HW216419   4.609   3.490   5.818
 5174SOL     OW16420   1.969   6.806   3.341
 5174SOL    HW116421   1.877   6.798   3.380
 5174SOL    HW216422   1.962   6.810   3.242
 5175SOL     OW16423   2.654   4.357   7.020
 5175SOL    HW116424   2.693   4.449   7.018
 5175SOL    HW216425   2.645   4.323   6.926
 5176SOL     OW16426   5.658   5.186   6.798
 5176SOL    HW116427   5.752   5.209   6.822
 5176SOL    HW216428   5.657   5.134   6.713
 5177SOL     OW16429   4.449   0.213   1.244
 5177SOL    HW116430   4.516   0.139   1.244
 5177SOL    HW216431   4.493   0.297   1.276
 5178SOL     OW16432   0.735   3.412   1.847
 5178SOL    HW116433   0.775   3.449   1.764
 5178SOL    HW216434   0.739   3.480   1.920
 5179SOL     OW16435   5.805   4.576   3.130
 5179SOL    HW116436   5.868   4.511   3.088
 5179SOL    HW216437   5.761   4.630   3.059
 5180SOL     OW16438   2.636   6.897   1.164
 5180SOL    HW116439   2.634   6.974   1.100
 5180SOL    HW216440   2.650   6.812   1.112
 5181SOL     OW16441   0.440   0.809   6.707
 5181SOL    HW116442   0.451   0.902   6.673
 5181SOL    HW216443   0.362   0.766   6.660
 5182SOL     OW16444   4.291   4.652   3.489
 5182SOL    HW116445   4.323   4.574   3.435
 5182SOL    HW216446   4.341   4.734   3.461
 5183SOL     OW16447   3.992   1.871   3.599
 5183SOL    HW116448   3.949   1.958   3.619
 5183SOL    HW216449   4.066   1.884   3.534
 5184SOL     OW16450   2.010   1.990   4.089
 5184SOL    HW116451   1.921   1.977   4.133
 5184SOL    HW216452   2.037   2.086   4.095
 5185SOL     OW16453   5.377   0.689   2.040
 5185SOL    HW116454   5.451   0.732   1.988
 5185SOL    HW216455   5.414   0.614   2.095
 5186SOL     OW16456   6.660   3.096   5.717
 5186SOL    HW116457   6.745   3.125   5.761
 5186SOL    HW216458   6.620   3.020   5.769
 5187SOL     OW16459   2.064   4.930   4.834
 5187SOL    HW116460   2.067   4.830   4.821
 5187SOL    HW216461   2.137   4.957   4.897
 5188SOL     OW16462   0.052   6.522   1.695
 5188SOL    HW116463   0.102   6.452   1.746
 5188SOL    HW216464   0.019   6.592   1.758
 5189SOL     OW16465   6.018   0.781   6.397
 5189SOL    HW116466   5.985   0.717   6.327
 5189SOL    HW216467   5.966   0.766   6.481
 5190SOL     OW16468   2.102   3.082   1.962
 5190SOL    HW116469   2.003   3.085   1.952
 5190SOL    HW216470   2.131   3.147   2.032
 5191SOL     OW16471   2.796   5.707   2.383
 5191SOL    HW116472   2.766   5.678   2.291
 5191SOL    HW216473   2.818   5.626   2.437
 5192SOL     OW16474   2.045   5.182   1.540
 5192SOL    HW116475   2.097   5.208   1.622
 5192SOL    HW216476   1.947   5.192   1.558
 5193SOL     OW16477   5.344   0.621   6.637
 5193SOL    HW116478   5.274   0.554   6.612
 5193SOL    HW216479   5.343   0.635   6.736
 5194SOL     OW16480   4.449   1.701   6.950
 5194SOL    HW116481   4.354   1.681   6.973
 5194SOL    HW216482   4.503   1.711   0.011
 5195SOL     OW16483   0.113   0.579   4.019
 5195SOL    HW116484   0.082   0.610   4.108
 5195SOL    HW216485   0.125   0.657   3.958
 5196SOL     OW16486   4.302   0.158   3.415
 5196SOL    HW116487   4.349   0.070   3.409
 5196SOL    HW216488   4.208   0.143   3.448
 5197SOL     OW16489   1.218   4.252   5.900
 5197SOL    HW116490   1.128   4.233   5.862
 5197SOL    HW216491   1.277   4.172   5.887
 5198SOL     OW16492   5.323   5.739   2.814
 5198SOL    HW116493   5.236   5.780   2.843
 5198SOL    HW216494   5.388   5.811   2.790
 5199SOL     OW16495   6.729   5.392   1.074
 5199SOL    HW116496   6.703   5.329   1.148
 5199SOL    HW216497   6.767   5.339   0.998
 5200SOL     OW16498   0.193   4.370   5.224
 5200SOL    HW116499   0.251   4.352   5.303
 5200SOL    HW216500   0.192   4.468   5.204
 5201SOL     OW16501   1.423   5.893   3.940
 5201SOL    HW116502   1.332   5.858   3.918
 5201SOL    HW216503   1.490   5.854   3.876
 5202SOL     OW16504   6.533   3.534   7.007
 5202SOL    HW116505   6.606   3.572   0.040
 5202SOL    HW216506   6.491   3.456   0.033
 5203SOL     OW16507   0.622   2.864   6.736
 5203SOL    HW116508   0.710   2.843   6.695
 5203SOL    HW216509   0.584   2.782   6.780
 5204SOL     OW16510   4.316   4.900   0.486
 5204SOL    HW116511   4.246   4.957   0.530
 5204SOL    HW216512   4.393   4.958   0.459
 5205SOL     OW16513   2.038   0.516   1.533
 5205SOL    HW116514   2.069   0.457   1.459
 5205SOL    HW216515   1.941   0.499   1.551
 5206SOL     OW16516   0.107   4.279   6.751
 5206SOL    HW116517   0.065   4.199   6.709
 5206SOL    HW216518   0.037   4.348   6.770
 5207SOL     OW16519   1.803   5.405   4.099
 5207SOL    HW116520   1.848   5.420   4.187
 5207SOL    HW216521   1.752   5.487   4.073
 5208SOL     OW16522   3.878   0.633   0.585
 5208SOL    HW116523   3.920   0.566   0.524
 5208SOL    HW216524   3.897   0.608   0.680
 5209SOL     OW16525   6.017   6.132   3.397
 5209SOL    HW116526   6.027   6.157   3.301
 5209SOL    HW216527   5.941   6.183   3.437
 5210SOL     OW16528   5.206   3.600   4.626
 5210SOL    HW116529   5.114   3.590   4.587
 5210SOL    HW216530   5.243   3.510   4.648
 5211SOL     OW16531   3.194   3.343   3.720
 5211SOL    HW116532   3.215   3.388   3.634
 5211SOL    HW216533   3.183   3.245   3.705
 5212SOL     OW16534   0.348   2.475   6.983
 5212SOL    HW116535   0.366   2.378   6.969
 5212SOL    HW216536   0.289   2.487   0.040
 5213SOL     OW16537   4.907   2.672   5.768
 5213SOL    HW116538   4.963   2.672   5.685
 5213SOL    HW216539   4.936   2.598   5.828
 5214SOL     OW16540   5.498   2.242   5.343
 5214SOL    HW116541   5.451   2.160   5.377
 5214SOL    HW216542   5.591   2.219   5.317
 5215SOL     OW16543   5.341   4.719   3.602
 5215SOL    HW116544   5.398   4.742   3.681
 5215SOL    HW216545   5.381   4.759   3.519
 5216SOL     OW16546   5.204   4.769   1.478
 5216SOL    HW116547   5.167   4.737   1.391
 5216SOL    HW216548   5.194   4.868   1.483
 5217SOL     OW16549   3.345   5.197   3.787
 5217SOL    HW116550   3.312   5.275   3.734
 5217SOL    HW216551   3.267   5.144   3.820
 5218SOL     OW16552   1.711   0.269   4.092
 5218SOL    HW116553   1.785   0.205   4.113
 5218SOL    HW216554   1.748   0.348   4.044
 5219SOL     OW16555   3.773   0.048   6.893
 5219SOL    HW116556   3.686   0.073   6.850
 5219SOL    HW216557   3.762   0.047   6.992
 5220SOL     OW16558   1.141   5.361   1.985
 5220SOL    HW116559   1.201   5.305   2.042
 5220SOL    HW216560   1.057   5.310   1.967
 5221SOL     OW16561   5.682   1.932   4.290
 5221SOL    HW116562   5.732   1.987   4.223
 5221SOL    HW216563   5.612   1.878   4.244
 5222SOL     OW16564   2.302   0.381   4.069
 5222SOL    HW116565   2.340   0.335   3.989
 5222SOL    HW216566   2.308   0.320   4.148
 5223SOL     OW16567   4.542   6.988   1.244
 5223SOL    HW116568   4.601   6.943   1.311
 5223SOL    HW216569   4.448   6.988   1.278
 5224SOL     OW16570   6.969   2.859   2.739
 5224SOL    HW116571   6.967   2.958   2.726
 5224SOL    HW216572   6.941   2.836   2.832
 5225SOL     OW16573   6.669   0.690   3.188
 5225SOL    HW116574   6.630   0.773   3.228
 5225SOL    HW216575   6.732   0.648   3.253
 5226SOL     OW16576   0.757   6.402   4.466
 5226SOL    HW116577   0.665   6.363   4.472
 5226SOL    HW216578   0.762   6.485   4.522
 5227SOL     OW16579   6.758   5.010   3.707
 5227SOL    HW116580   6.779   4.914   3.725
 5227SOL    HW216581   6.842   5.064   3.709
 5228SOL     OW16582   5.920   2.097   0.686
 5228SOL    HW116583   5.834   2.144   0.669
 5228SOL    HW216584   5.939   2.096   0.784
 5229SOL     OW16585   1.069   4.253   6.894
 5229SOL    HW116586   1.016   4.264   6.810
 5229SOL    HW216587   1.098   4.342   6.927
 5230SOL     OW16588   0.497   0.320   1.427
 5230SOL    HW116589   0.475   0.233   1.383
 5230SOL    HW216590   0.586   0.352   1.395
 5231SOL     OW16591   3.882   3.014   4.578
 5231SOL    HW116592   3.890   2.991   4.675
 5231SOL    HW216593   3.934   3.097   4.558
 5232SOL     OW16594   4.145   1.967   6.392
 5232SOL    HW116595   4.195   1.985   6.308
 5232SOL    HW216596   4.187   2.018   6.467
 5233SOL     OW16597   6.485   6.495   1.599
 5233SOL    HW116598   6.584   6.483   1.602
 5233SOL    HW216599   6.459   6.534   1.511
 5234SOL     OW16600   3.208   0.851   0.746
 5234SOL    HW116601   3.144   0.883   0.676
 5234SOL    HW216602   3.218   0.751   0.738
 5235SOL     OW16603   1.192   2.664   0.713
 5235SOL    HW116604   1.106   2.613   0.705
 5235SOL    HW216605   1.223   2.661   0.808
 5236SOL     OW16606   5.609   2.770   1.333
 5236SOL    HW116607   5.602   2.682   1.286
 5236SOL    HW216608   5.564   2.765   1.422
 5237SOL     OW16609   2.733   2.191   5.577
 5237SOL    HW116610   2.736   2.263   5.507
 5237SOL    HW216611   2.761   2.104   5.537
 5238SOL     OW16612   1.405   5.077   0.189
 5238SOL    HW116613   1.473   5.013   0.223
 5238SOL    HW216614   1.451   5.156   0.148
 5239SOL     OW16615   3.146   3.739   4.226
 5239SOL    HW116616   3.066   3.726   4.169
 5239SOL    HW216617   3.171   3.652   4.269
 5240SOL     OW16618   3.135   2.179   5.363
 5240SOL    HW116619   3.126   2.106   5.296
 5240SOL    HW216620   3.155   2.265   5.315
 5241SOL     OW16621   0.623   6.123   6.737
 5241SOL    HW116622   0.705   6.130   6.794
 5241SOL    HW216623   0.592   6.028   6.735
 5242SOL     OW16624   6.436   1.289   5.670
 5242SOL    HW116625   6.414   1.212   5.731
 5242SOL    HW216626   6.388   1.278   5.583
 5243SOL     OW16627   0.854   6.113   0.844
 5243SOL    HW116628   0.836   6.148   0.936
 5243SOL    HW216629   0.823   6.181   0.777
 5244SOL     OW16630   3.665   4.056   5.951
 5244SOL    HW116631   3.710   4.044   6.039
 5244SOL    HW216632   3.655   3.968   5.905
 5245SOL     OW16633   4.107   4.158   5.882
 5245SOL    HW116634   4.171   4.165   5.958
 5245SOL    HW216635   4.158   4.141   5.797
 5246SOL     OW16636   0.121   3.608   2.779
 5246SOL    HW116637   0.044   3.548   2.800
 5246SOL    HW216638   0.195   3.594   2.845
 5247SOL     OW16639   0.341   6.080   6.973
 5247SOL    HW116640   0.258   6.073   6.918
 5247SOL    HW216641   0.407   6.011   6.944
 5248SOL     OW16642   5.602   0.530   5.849
 5248SOL    HW116643   5.595   0.629   5.855
 5248SOL    HW216644   5.645   0.494   5.932
 5249SOL     OW16645   1.199   5.202   4.328
 5249SOL    HW116646   1.155   5.133   4.270
 5249SOL    HW216647   1.294   5.213   4.298
 5250SOL     OW16648   0.370   1.507   6.278
 5250SOL    HW116649   0.311   1.477   6.353
 5250SOL    HW216650   0.313   1.542   6.203
 5251SOL     OW16651   0.076   3.072   1.177
 5251SOL    HW116652   0.077   3.162   1.135
 5251SOL    HW216653   0.043   3.004   1.111
 5252SOL     OW16654   2.432   5.661   1.275
 5252SOL    HW116655   2.384   5.696   1.355
 5252SOL    HW216656   2.459   5.566   1.290
 5253SOL     OW16657   5.897   3.379   4.669
 5253SOL    HW116658   5.897   3.385   4.769
 5253SOL    HW216659   5.830   3.311   4.639
 5254SOL     OW16660   4.935   1.321   3.696
 5254SOL    HW116661   4.980   1.294   3.781
 5254SOL    HW216662   4.978   1.274   3.619
 5255SOL     OW16663   4.109   0.151   4.690
 5255SOL    HW116664   4.022   0.170   4.644
 5255SOL    HW216665   4.160   0.237   4.700
 5256SOL     OW16666   4.757   1.418   3.160
 5256SOL    HW116667   4.731   1.507   3.197
 5256SOL    HW216668   4.694   1.348   3.193
 5257SOL     OW16669   3.715   6.607   1.824
 5257SOL    HW116670   3.714   6.705   1.804
 5257SOL    HW216671   3.671   6.590   1.912
 5258SOL     OW16672   4.988   4.164   1.824
 5258SOL    HW116673   4.931   4.238   1.861
 5258SOL    HW216674   4.961   4.077   1.866
 5259SOL     OW16675   4.773   5.873   2.053
 5259SOL    HW116676   4.738   5.817   2.128
 5259SOL    HW216677   4.722   5.959   2.049
 5260SOL     OW16678   5.081   3.764   0.958
 5260SOL    HW116679   5.114   3.670   0.950
 5260SOL    HW216680   5.045   3.795   0.870
 5261SOL     OW16681   0.620   2.298   5.028
 5261SOL    HW116682   0.541   2.240   5.044
 5261SOL    HW216683   0.678   2.299   5.110
 5262SOL     OW16684   2.698   6.947   2.540
 5262SOL    HW116685   2.773   7.013   2.548
 5262SOL    HW216686   2.614   6.995   2.516
 5263SOL     OW16687   1.886   0.268   6.228
 5263SOL    HW116688   1.857   0.314   6.144
 5263SOL    HW216689   1.806   0.233   6.276
 5264SOL     OW16690   6.499   1.319   1.226
 5264SOL    HW116691   6.519   1.352   1.318
 5264SOL    HW216692   6.444   1.386   1.177
 5265SOL     OW16693   5.618   4.044   2.556
 5265SOL    HW116694   5.615   4.045   2.456
 5265SOL    HW216695   5.673   4.121   2.589
 5266SOL     OW16696   2.462   6.719   1.308
 5266SOL    HW116697   2.521   6.788   1.267
 5266SOL    HW216698   2.420   6.757   1.391
 5267SOL     OW16699   4.490   4.843   6.057
 5267SOL    HW116700   4.414   4.854   6.120
 5267SOL    HW216701   4.472   4.895   5.973
 5268SOL     OW16702   6.465   5.828   5.079
 5268SOL    HW116703   6.497   5.915   5.115
 5268SOL    HW216704   6.391   5.845   5.013
 5269SOL     OW16705   2.320   5.356   3.838
 5269SOL    HW116706   2.286   5.394   3.752
 5269SOL    HW216707   2.326   5.429   3.907
 5270SOL     OW16708   5.270   2.171   1.307
 5270SOL    HW116709   5.197   2.233   1.280
 5270SOL    HW216710   5.318   2.209   1.386
 5271SOL     OW16711   4.134   5.307   4.967
 5271SOL    HW116712   4.117   5.344   4.875
 5271SOL    HW216713   4.173   5.378   5.025
 5272SOL     OW16714   1.000   5.930   4.647
 5272SOL    HW116715   1.091   5.952   4.682
 5272SOL    HW216716   0.971   6.001   4.582
 5273SOL     OW16717   0.940   2.607   3.949
 5273SOL    HW116718   0.905   2.549   4.022
 5273SOL    HW216719   1.034   2.580   3.926
 5274SOL     OW16720   6.499   4.957   3.605
 5274SOL    HW116721   6.578   4.991   3.657
 5274SOL    HW216722   6.503   4.857   3.602
 5275SOL     OW16723   3.489   0.141   6.370
 5275SOL    HW116724   3.517   0.207   6.440
 5275SOL    HW216725   3.562   0.133   6.302
 5276SOL     OW16726   0.166   6.469   0.727
 5276SOL    HW116727   0.230   6.392   0.727
 5276SOL    HW216728   0.207   6.545   0.676
 5277SOL     OW16729   2.154   1.450   3.222
 5277SOL    HW116730   2.116   1.358   3.229
 5277SOL    HW216731   2.094   1.514   3.270
 5278SOL     OW16732   5.534   6.325   6.084
 5278SOL    HW116733   5.472   6.395   6.048
 5278SOL    HW216734   5.502   6.234   6.056
 5279SOL     OW16735   1.183   5.830   6.588
 5279SOL    HW116736   1.129   5.908   6.619
 5279SOL    HW216737   1.268   5.863   6.547
 5280SOL     OW16738   3.761   6.161   5.054
 5280SOL    HW116739   3.851   6.173   5.096
 5280SOL    HW216740   3.710   6.246   5.059
 5281SOL     OW16741   0.766   0.844   4.765
 5281SOL    HW116742   0.834   0.811   4.699
 5281SOL    HW216743   0.809   0.909   4.828
 5282SOL     OW16744   1.789   0.356   2.568
 5282SOL    HW116745   1.704   0.304   2.583
 5282SOL    HW216746   1.768   0.443   2.525
 5283SOL     OW16747   1.573   0.442   3.857
 5283SOL    HW116748   1.592   0.503   3.934
 5283SOL    HW216749   1.658   0.401   3.825
 5284SOL     OW16750   5.188   2.511   2.405
 5284SOL    HW116751   5.094   2.476   2.409
 5284SOL    HW216752   5.250   2.441   2.441
 5285SOL     OW16753   1.044   3.198   3.396
 5285SOL    HW116754   0.992   3.113   3.386
 5285SOL    HW216755   0.981   3.275   3.400
 5286SOL     OW16756   6.562   3.482   0.931
 5286SOL    HW116757   6.522   3.426   0.857
 5286SOL    HW216758   6.523   3.574   0.928
 5287SOL     OW16759   2.939   5.398   1.837
 5287SOL    HW116760   2.898   5.338   1.768
 5287SOL    HW216761   2.880   5.402   1.918
 5288SOL     OW16762   4.913   0.078   2.585
 5288SOL    HW116763   4.889   0.053   2.491
 5288SOL    HW216764   4.831   0.077   2.642
 5289SOL     OW16765   2.058   5.021   0.153
 5289SOL    HW116766   2.106   4.943   0.113
 5289SOL    HW216767   2.051   5.094   0.084
 5290SOL     OW16768   1.823   4.458   5.335
 5290SOL    HW116769   1.859   4.514   5.261
 5290SOL    HW216770   1.818   4.363   5.305
 5291SOL     OW16771   3.061   4.510   5.735
 5291SOL    HW116772   3.068   4.606   5.706
 5291SOL    HW216773   3.102   4.451   5.665
 5292SOL     OW16774   6.225   3.968   6.070
 5292SOL    HW116775   6.307   3.984   6.015
 5292SOL    HW216776   6.159   4.041   6.054
 5293SOL     OW16777   1.956   5.980   4.465
 5293SOL    HW116778   1.994   6.037   4.392
 5293SOL    HW216779   1.906   5.904   4.424
 5294SOL     OW16780   4.327   1.364   5.744
 5294SOL    HW116781   4.385   1.319   5.812
 5294SOL    HW216782   4.385   1.412   5.679
 5295SOL     OW16783   3.648   0.642   3.753
 5295SOL    HW116784   3.624   0.737   3.735
 5295SOL    HW216785   3.693   0.603   3.673
 5296SOL     OW16786   3.406   3.898   0.238
 5296SOL    HW116787   3.311   3.886   0.211
 5296SOL    HW216788   3.465   3.896   0.156
 5297SOL     OW16789   2.152   3.244   0.830
 5297SOL    HW116790   2.183   3.339   0.828
 5297SOL    HW216791   2.158   3.206   0.738
 5298SOL     OW16792   2.309   6.190   6.670
 5298SOL    HW116793   2.385   6.171   6.609
 5298SOL    HW216794   2.341   6.184   6.765
 5299SOL     OW16795   2.935   2.614   0.807
 5299SOL    HW116796   3.017   2.599   0.752
 5299SOL    HW216797   2.958   2.672   0.886
 5300SOL     OW16798   0.618   5.034   0.728
 5300SOL    HW116799   0.703   5.068   0.768
 5300SOL    HW216800   0.545   5.102   0.743
 5301SOL     OW16801   4.132   0.317   6.902
 5301SOL    HW116802   4.073   0.252   6.854
 5301SOL    HW216803   4.124   0.302   7.001
 5302SOL     OW16804   5.419   6.524   3.774
 5302SOL    HW116805   5.397   6.428   3.761
 5302SOL    HW216806   5.496   6.533   3.837
 5303SOL     OW16807   0.287   5.186   5.171
 5303SOL    HW116808   0.347   5.241   5.229
 5303SOL    HW216809   0.237   5.247   5.109
 5304SOL     OW16810   5.705   0.876   0.460
 5304SOL    HW116811   5.677   0.812   0.389
 5304SOL    HW216812   5.792   0.918   0.434
 5305SOL     OW16813   0.816   5.429   2.864
 5305SOL    HW116814   0.872   5.509   2.844
 5305SOL    HW216815   0.833   5.398   2.958
 5306SOL     OW16816   0.490   4.544   5.515
 5306SOL    HW116817   0.587   4.520   5.526
 5306SOL    HW216818   0.468   4.622   5.574
 5307SOL     OW16819   4.506   1.776   0.251
 5307SOL    HW116820   4.495   1.866   0.291
 5307SOL    HW216821   4.445   1.711   0.297
 5308SOL     OW16822   1.277   4.719   1.967
 5308SOL    HW116823   1.177   4.720   1.969
 5308SOL    HW216824   1.308   4.675   1.882
 5309SOL     OW16825   3.385   5.095   2.203
 5309SOL    HW116826   3.295   5.062   2.176
 5309SOL    HW216827   3.442   5.017   2.229
 5310SOL     OW16828   6.343   3.728   2.161
 5310SOL    HW116829   6.427   3.777   2.187
 5310SOL    HW216830   6.264   3.778   2.195
 5311SOL     OW16831   5.437   6.721   6.600
 5311SOL    HW116832   5.432   6.802   6.659
 5311SOL    HW216833   5.391   6.644   6.645
 5312SOL     OW16834   0.034   5.624   2.024
 5312SOL    HW116835   0.024   5.615   1.925
 5312SOL    HW216836   6.969   5.603   2.068
 5313SOL     OW16837   0.990   4.126   5.768
 5313SOL    HW116838   0.918   4.117   5.837
 5313SOL    HW216839   0.954   4.177   5.690
 5314SOL     OW16840   4.161   6.820   0.341
 5314SOL    HW116841   4.151   6.767   0.425
 5314SOL    HW216842   4.148   6.760   0.262
 5315SOL     OW16843   5.162   3.057   2.959
 5315SOL    HW116844   5.214   3.125   3.012
 5315SOL    HW216845   5.103   3.104   2.894
 5316SOL     OW16846   1.361   3.801   5.576
 5316SOL    HW116847   1.290   3.870   5.589
 5316SOL    HW216848   1.342   3.722   5.635
 5317SOL     OW16849   6.400   1.777   5.960
 5317SOL    HW116850   6.443   1.710   5.900
 5317SOL    HW216851   6.303   1.786   5.937
 5318SOL     OW16852   0.375   2.678   0.531
 5318SOL    HW116853   0.344   2.752   0.590
 5318SOL    HW216854   0.398   2.714   0.440
 5319SOL     OW16855   4.446   5.998   1.146
 5319SOL    HW116856   4.456   6.098   1.143
 5319SOL    HW216857   4.429   5.963   1.054
 5320SOL     OW16858   4.103   5.537   1.051
 5320SOL    HW116859   4.078   5.504   1.143
 5320SOL    HW216860   4.160   5.618   1.060
 5321SOL     OW16861   2.423   4.417   4.997
 5321SOL    HW116862   2.343   4.398   4.939
 5321SOL    HW216863   2.506   4.396   4.946
 5322SOL     OW16864   5.529   6.600   6.977
 5322SOL    HW116865   5.476   6.515   6.966
 5322SOL    HW216866   5.515   6.636   0.047
 5323SOL     OW16867   3.569   1.313   5.314
 5323SOL    HW116868   3.578   1.213   5.320
 5323SOL    HW216869   3.488   1.337   5.261
 5324SOL     OW16870   3.513   2.156   0.431
 5324SOL    HW116871   3.495   2.239   0.484
 5324SOL    HW216872   3.498   2.076   0.490
 5325SOL     OW16873   3.794   0.821   4.631
 5325SOL    HW116874   3.836   0.884   4.566
 5325SOL    HW216875   3.842   0.826   4.718
 5326SOL     OW16876   6.617   5.671   3.181
 5326SOL    HW116877   6.639   5.585   3.135
 5326SOL    HW216878   6.674   5.744   3.143
 5327SOL     OW16879   5.940   2.565   5.038
 5327SOL    HW116880   5.884   2.508   5.099
 5327SOL    HW216881   5.956   2.654   5.082
 5328SOL     OW16882   3.122   4.004   6.292
 5328SOL    HW116883   3.098   3.971   6.200
 5328SOL    HW216884   3.214   4.042   6.291
 5329SOL     OW16885   0.791   5.238   6.882
 5329SOL    HW116886   0.710   5.184   6.861
 5329SOL    HW216887   0.863   5.178   6.916
 5330SOL     OW16888   3.798   4.211   0.290
 5330SOL    HW116889   3.766   4.143   0.224
 5330SOL    HW216890   3.876   4.173   0.341
 5331SOL     OW16891   5.822   1.934   6.325
 5331SOL    HW116892   5.809   1.956   6.229
 5331SOL    HW216893   5.799   2.014   6.381
 5332SOL     OW16894   1.160   3.178   1.546
 5332SOL    HW116895   1.189   3.108   1.612
 5332SOL    HW216896   1.097   3.242   1.589
 5333SOL     OW16897   1.024   1.101   2.909
 5333SOL    HW116898   1.076   1.140   2.984
 5333SOL    HW216899   1.049   1.146   2.823
 5334SOL     OW16900   3.196   0.499   4.489
 5334SOL    HW116901   3.140   0.556   4.550
 5334SOL    HW216902   3.138   0.429   4.447
 5335SOL     OW16903   0.165   5.819   0.602
 5335SOL    HW116904   0.088   5.838   0.541
 5335SOL    HW216905   0.246   5.868   0.569
 5336SOL     OW16906   2.144   3.283   2.652
 5336SOL    HW116907   2.197   3.201   2.630
 5336SOL    HW216908   2.099   3.271   2.741
 5337SOL     OW16909   5.069   4.412   1.201
 5337SOL    HW116910   5.127   4.330   1.199
 5337SOL    HW216911   4.980   4.389   1.241
 5338SOL     OW16912   5.843   1.582   0.504
 5338SOL    HW116913   5.801   1.501   0.462
 5338SOL    HW216914   5.939   1.563   0.525
 5339SOL     OW16915   6.902   1.462   3.899
 5339SOL    HW116916   6.912   1.382   3.959
 5339SOL    HW216917   6.954   1.539   3.937
 5340SOL     OW16918   5.418   4.486   0.947
 5340SOL    HW116919   5.492   4.502   0.882
 5340SOL    HW216920   5.451   4.429   1.023
 5341SOL     OW16921   4.056   2.656   6.506
 5341SOL    HW116922   4.142   2.700   6.480
 5341SOL    HW216923   4.020   2.604   6.428
 5342SOL     OW16924   3.600   0.775   4.367
 5342SOL    HW116925   3.505   0.745   4.357
 5342SOL    HW216926   3.607   0.838   4.444
 5343SOL     OW16927   3.562   3.682   4.012
 5343SOL    HW116928   3.498   3.752   4.043
 5343SOL    HW216929   3.635   3.725   3.959
 5344SOL     OW16930   2.120   2.193   2.497
 5344SOL    HW116931   2.136   2.290   2.514
 5344SOL    HW216932   2.083   2.181   2.404
 5345SOL     OW16933   4.139   6.573   1.970
 5345SOL    HW116934   4.202   6.597   2.043
 5345SOL    HW216935   4.097   6.484   1.990
 5346SOL     OW16936   3.249   6.282   4.091
 5346SOL    HW116937   3.312   6.210   4.063
 5346SOL    HW216938   3.172   6.285   4.028
 5347SOL     OW16939   0.152   2.628   1.919
 5347SOL    HW116940   0.100   2.705   1.883
 5347SOL    HW216941   0.245   2.658   1.942
 5348SOL     OW16942   0.570   1.167   0.593
 5348SOL    HW116943   0.644   1.119   0.642
 5348SOL    HW216944   0.576   1.265   0.613
 5349SOL     OW16945   1.079   2.246   0.148
 5349SOL    HW116946   1.092   2.321   0.083
 5349SOL    HW216947   1.110   2.160   0.107
 5350SOL     OW16948   2.095   7.019   6.175
 5350SOL    HW116949   2.008   7.013   6.224
 5350SOL    HW216950   2.165   0.035   6.235
 5351SOL     OW16951   5.513   5.488   1.894
 5351SOL    HW116952   5.482   5.394   1.904
 5351SOL    HW216953   5.510   5.534   1.982
 5352SOL     OW16954   1.676   5.566   4.404
 5352SOL    HW116955   1.706   5.661   4.408
 5352SOL    HW216956   1.620   5.552   4.322
 5353SOL     OW16957   3.048   5.792   4.698
 5353SOL    HW116958   3.056   5.692   4.705
 5353SOL    HW216959   2.981   5.816   4.629
 5354SOL     OW16960   1.675   5.069   1.934
 5354SOL    HW116961   1.610   5.044   2.005
 5354SOL    HW216962   1.635   5.140   1.875
 5355SOL     OW16963   4.787   2.404   4.023
 5355SOL    HW116964   4.730   2.378   4.102
 5355SOL    HW216965   4.745   2.480   3.975
 5356SOL     OW16966   5.855   4.294   1.494
 5356SOL    HW116967   5.771   4.290   1.548
 5356SOL    HW216968   5.887   4.201   1.476
 5357SOL     OW16969   2.971   6.999   0.910
 5357SOL    HW116970   3.025   6.917   0.933
 5357SOL    HW216971   2.986   0.046   0.979
 5358SOL     OW16972   4.237   1.598   0.940
 5358SOL    HW116973   4.158   1.655   0.916
 5358SOL    HW216974   4.320   1.653   0.935
 5359SOL     OW16975   2.064   1.864   6.918
 5359SOL    HW116976   1.981   1.816   6.890
 5359SOL    HW216977   2.104   1.911   6.839
 5360SOL     OW16978   4.253   6.497   4.845
 5360SOL    HW116979   4.222   6.402   4.850
 5360SOL    HW216980   4.259   6.534   4.938
 5361SOL     OW16981   2.174   6.735   4.581
 5361SOL    HW116982   2.138   6.809   4.638
 5361SOL    HW216983   2.268   6.757   4.554
 5362SOL     OW16984   5.078   4.317   3.639
 5362SOL    HW116985   5.037   4.290   3.726
 5362SOL    HW216986   5.151   4.384   3.657
 5363SOL     OW16987   0.920   6.247   6.142
 5363SOL    HW116988   0.964   6.157   6.144
 5363SOL    HW216989   0.975   6.309   6.086
 5364SOL     OW16990   7.014   5.825   1.463
 5364SOL    HW116991   6.966   5.843   1.549
 5364SOL    HW216992   0.065   5.892   1.451
 5365SOL     OW16993   3.948   3.304   6.886
 5365SOL    HW116994   3.931   3.224   6.945
 5365SOL    HW216995   3.917   3.387   6.933
 5366SOL     OW16996   5.127   5.139   1.859
 5366SOL    HW116997   5.110   5.041   1.849
 5366SOL    HW216998   5.039   5.188   1.866
 5367SOL     OW16999   0.414   5.223   0.754
 5367SOL    HW117000   0.464   5.308   0.767
 5367SOL    HW217001   0.344   5.214   0.825
 5368SOL     OW17002   5.072   0.947   3.114
 5368SOL    HW117003   5.135   0.882   3.069
 5368SOL    HW217004   5.067   1.031   3.060
 5369SOL     OW17005   3.195   6.391   3.453
 5369SOL    HW117006   3.126   6.435   3.510
 5369SOL    HW217007   3.243   6.461   3.399
 5370SOL     OW17008   3.984   3.044   1.366
 5370SOL    HW117009   3.978   3.144   1.366
 5370SOL    HW217010   3.896   3.006   1.337
 5371SOL     OW17011   1.765   3.529   4.030
 5371SOL    HW117012   1.723   3.544   3.941
 5371SOL    HW217013   1.793   3.433   4.037
 5372SOL     OW17014   2.378   5.593   3.164
 5372SOL    HW117015   2.352   5.497   3.174
 5372SOL    HW217016   2.459   5.599   3.105
 5373SOL     OW17017   3.133   5.193   4.205
 5373SOL    HW117018   3.093   5.124   4.144
 5373SOL    HW217019   3.063   5.224   4.270
 5374SOL     OW17020   0.782   3.577   6.879
 5374SOL    HW117021   0.751   3.490   6.840
 5374SOL    HW217022   0.866   3.606   6.832
 5375SOL     OW17023   1.725   4.531   4.780
 5375SOL    HW117024   1.704   4.629   4.780
 5375SOL    HW217025   1.645   4.480   4.750
 5376SOL     OW17026   1.854   2.905   0.847
 5376SOL    HW117027   1.911   2.830   0.813
 5376SOL    HW217028   1.878   2.924   0.943
 5377SOL     OW17029   0.097   6.863   1.538
 5377SOL    HW117030   0.144   6.786   1.494
 5377SOL    HW217031   7.021   6.853   1.524
 5378SOL     OW17032   0.051   0.367   1.186
 5378SOL    HW117033   0.021   0.272   1.191
 5378SOL    HW217034   7.001   0.426   1.222
 5379SOL     OW17035   1.069   5.034   5.156
 5379SOL    HW117036   1.069   5.132   5.135
 5379SOL    HW217037   0.980   5.008   5.193
 5380SOL     OW17038   1.996   0.906   3.306
 5380SOL    HW117039   1.907   0.934   3.341
 5380SOL    HW217040   2.025   0.821   3.350
 5381SOL     OW17041   6.587   4.135   0.612
 5381SOL    HW117042   6.490   4.111   0.602
 5381SOL    HW217043   6.643   4.054   0.598
 5382SOL     OW17044   3.277   0.421   1.951
 5382SOL    HW117045   3.179   0.438   1.947
 5382SOL    HW217046   3.319   0.446   1.864
 5383SOL     OW17047   2.609   2.489   5.119
 5383SOL    HW117048   2.563   2.569   5.158
 5383SOL    HW217049   2.706   2.509   5.107
 5384SOL     OW17050   6.238   0.557   4.150
 5384SOL    HW117051   6.212   0.630   4.213
 5384SOL    HW217052   6.284   0.597   4.070
 5385SOL     OW17053   2.955   3.416   3.022
 5385SOL    HW117054   2.890   3.383   3.092
 5385SOL    HW217055   2.935   3.512   3.002
 5386SOL     OW17056   4.377   0.195   4.333
 5386SOL    HW117057   4.359   0.098   4.318
 5386SOL    HW217058   4.472   0.208   4.361
 5387SOL     OW17059   2.542   5.752   3.343
 5387SOL    HW117060   2.548   5.845   3.307
 5387SOL    HW217061   2.478   5.698   3.288
 5388SOL     OW17062   5.519   7.001   3.275
 5388SOL    HW117063   5.431   0.019   3.299
 5388SOL    HW217064   5.593   0.038   3.306
 5389SOL     OW17065   5.349   0.828   1.598
 5389SOL    HW117066   5.378   0.850   1.505
 5389SOL    HW217067   5.396   0.889   1.663
 5390SOL     OW17068   4.461   4.568   3.704
 5390SOL    HW117069   4.545   4.541   3.657
 5390SOL    HW217070   4.395   4.603   3.636
 5391SOL     OW17071   1.733   2.201   0.616
 5391SOL    HW117072   1.814   2.220   0.671
 5391SOL    HW217073   1.745   2.114   0.568
 5392SOL     OW17074   5.776   3.499   1.027
 5392SOL    HW117075   5.768   3.453   1.115
 5392SOL    HW217076   5.860   3.553   1.025
 5393SOL     OW17077   5.877   6.594   6.332
 5393SOL    HW117078   5.851   6.512   6.282
 5393SOL    HW217079   5.796   6.636   6.372
 5394SOL     OW17080   6.919   4.037   6.787
 5394SOL    HW117081   6.874   4.015   6.873
 5394SOL    HW217082   7.018   4.034   6.799
 5395SOL     OW17083   5.136   1.142   1.925
 5395SOL    HW117084   5.112   1.218   1.985
 5395SOL    HW217085   5.112   1.055   1.969
 5396SOL     OW17086   5.186   3.821   2.843
 5396SOL    HW117087   5.144   3.784   2.926
 5396SOL    HW217088   5.115   3.838   2.775
 5397SOL     OW17089   6.416   2.580   1.781
 5397SOL    HW117090   6.354   2.528   1.840
 5397SOL    HW217091   6.436   2.668   1.825
 5398SOL     OW17092   3.304   1.919   2.560
 5398SOL    HW117093   3.248   1.852   2.512
 5398SOL    HW217094   3.317   1.999   2.502
 5399SOL     OW17095   2.576   5.943   6.825
 5399SOL    HW117096   2.647   5.894   6.875
 5399SOL    HW217097   2.617   5.990   6.746
 5400SOL     OW17098   2.432   3.885   0.832
 5400SOL    HW117099   2.508   3.856   0.891
 5400SOL    HW217100   2.383   3.805   0.798
 5401SOL     OW17101   5.685   3.420   1.800
 5401SOL    HW117102   5.736   3.502   1.826
 5401SOL    HW217103   5.667   3.423   1.701
 5402SOL     OW17104   2.389   5.376   1.650
 5402SOL    HW117105   2.310   5.436   1.664
 5402SOL    HW217106   2.466   5.411   1.703
 5403SOL     OW17107   5.951   3.160   6.340
 5403SOL    HW117108   5.870   3.201   6.300
 5403SOL    HW217109   6.010   3.125   6.267
 5404SOL     OW17110   0.543   1.427   3.168
 5404SOL    HW117111   0.478   1.351   3.173
 5404SOL    HW217112   0.496   1.513   3.186
 5405SOL     OW17113   6.047   5.437   0.172
 5405SOL    HW117114   5.980   5.506   0.199
 5405SOL    HW217115   5.999   5.355   0.139
 5406SOL     OW17116   2.346   1.990   6.609
 5406SOL    HW117117   2.355   2.090   6.609
 5406SOL    HW217118   2.346   1.957   6.703
 5407SOL     OW17119   4.690   3.162   1.109
 5407SOL    HW117120   4.721   3.195   1.020
 5407SOL    HW217121   4.600   3.200   1.129
 5408SOL     OW17122   3.100   1.419   6.386
 5408SOL    HW117123   3.011   1.373   6.393
 5408SOL    HW217124   3.147   1.387   6.304
 5409SOL     OW17125   5.180   0.636   3.706
 5409SOL    HW117126   5.220   0.625   3.615
 5409SOL    HW217127   5.087   0.672   3.697
 5410SOL     OW17128   2.837   2.200   1.569
 5410SOL    HW117129   2.908   2.176   1.635
 5410SOL    HW217130   2.794   2.117   1.534
 5411SOL     OW17131   6.474   5.491   5.639
 5411SOL    HW117132   6.420   5.568   5.606
 5411SOL    HW217133   6.498   5.431   5.563
 5412SOL     OW17134   4.922   1.568   0.527
 5412SOL    HW117135   4.830   1.598   0.501
 5412SOL    HW217136   4.915   1.488   0.587
 5413SOL     OW17137   2.862   1.747   1.303
 5413SOL    HW117138   2.811   1.717   1.223
 5413SOL    HW217139   2.803   1.803   1.361
 5414SOL     OW17140   4.898   2.146   4.791
 5414SOL    HW117141   4.844   2.177   4.870
 5414SOL    HW217142   4.837   2.106   4.723
 5415SOL     OW17143   1.081   5.822   1.074
 5415SOL    HW117144   1.050   5.752   1.010
 5415SOL    HW217145   1.147   5.882   1.029
 5416SOL     OW17146   5.013   5.303   5.782
 5416SOL    HW117147   4.965   5.216   5.789
 5416SOL    HW217148   5.017   5.346   5.872
 5417SOL     OW17149   4.083   6.770   5.346
 5417SOL    HW117150   3.983   6.765   5.351
 5417SOL    HW217151   4.110   6.858   5.306
 5418SOL     OW17152   3.335   6.761   3.898
 5418SOL    HW117153   3.395   6.701   3.953
 5418SOL    HW217154   3.389   6.804   3.826
 5419SOL     OW17155   3.750   5.390   0.500
 5419SOL    HW117156   3.659   5.403   0.460
 5419SOL    HW217157   3.819   5.425   0.438
 5420SOL     OW17158   1.794   2.819   2.745
 5420SOL    HW117159   1.711   2.764   2.752
 5420SOL    HW217160   1.810   2.867   2.831
 5421SOL     OW17161   2.189   2.766   2.209
 5421SOL    HW117162   2.161   2.677   2.245
 5421SOL    HW217163   2.179   2.835   2.281
 5422SOL     OW17164   0.635   5.113   0.414
 5422SOL    HW117165   0.559   5.075   0.466
 5422SOL    HW217166   0.611   5.204   0.380
 5423SOL     OW17167   6.121   2.958   0.134
 5423SOL    HW117168   6.216   2.942   0.162
 5423SOL    HW217169   6.090   2.883   0.075
 5424SOL     OW17170   5.631   3.125   3.582
 5424SOL    HW117171   5.687   3.089   3.507
 5424SOL    HW217172   5.684   3.191   3.634
 5425SOL     OW17173   4.241   0.957   4.214
 5425SOL    HW117174   4.207   1.051   4.212
 5425SOL    HW217175   4.337   0.958   4.244
 5426SOL     OW17176   6.467   5.790   4.221
 5426SOL    HW117177   6.410   5.855   4.170
 5426SOL    HW217178   6.476   5.820   4.316
 5427SOL     OW17179   4.878   4.913   6.911
 5427SOL    HW117180   4.954   4.946   6.856
 5427SOL    HW217181   4.809   4.985   6.920
 5428SOL     OW17182   0.173   6.602   1.459
 5428SOL    HW117183   0.267   6.569   1.462
 5428SOL    HW217184   0.118   6.553   1.527
 5429SOL     OW17185   2.012   2.157   6.320
 5429SOL    HW117186   2.015   2.208   6.234
 5429SOL    HW217187   2.006   2.222   6.396
 5430SOL     OW17188   7.021   2.954   6.275
 5430SOL    HW117189   6.954   2.956   6.349
 5430SOL    HW217190   0.090   2.938   6.313
 5431SOL     OW17191   3.023   6.316   0.250
 5431SOL    HW117192   3.121   6.311   0.233
 5431SOL    HW217193   2.973   6.289   0.168
 5432SOL     OW17194   5.350   6.898   6.798
 5432SOL    HW117195   5.307   6.987   6.811
 5432SOL    HW217196   5.283   6.826   6.813
 5433SOL     OW17197   0.338   1.789   4.711
 5433SOL    HW117198   0.324   1.809   4.614
 5433SOL    HW217199   0.417   1.841   4.744
 5434SOL     OW17200   3.364   0.505   5.537
 5434SOL    HW117201   3.404   0.593   5.511
 5434SOL    HW217202   3.331   0.509   5.631
 5435SOL     OW17203   5.906   0.478   2.268
 5435SOL    HW117204   5.937   0.408   2.203
 5435SOL    HW217205   5.978   0.546   2.280
 5436SOL     OW17206   5.191   3.514   4.331
 5436SOL    HW117207   5.162   3.451   4.404
 5436SOL    HW217208   5.291   3.517   4.328
 5437SOL     OW17209   2.316   4.016   0.060
 5437SOL    HW117210   2.287   4.110   0.075
 5437SOL    HW217211   2.404   4.001   0.104
 5438SOL     OW17212   6.828   3.085   2.842
 5438SOL    HW117213   6.795   3.091   2.748
 5438SOL    HW217214   6.754   3.057   2.902
 5439SOL     OW17215   0.794   2.175   0.675
 5439SOL    HW117216   0.720   2.241   0.660
 5439SOL    HW217217   0.824   2.139   0.587
 5440SOL     OW17218   1.151   1.283   0.935
 5440SOL    HW117219   1.131   1.352   0.865
 5440SOL    HW217220   1.122   1.317   1.024
 5441SOL     OW17221   4.581   2.280   2.983
 5441SOL    HW117222   4.573   2.238   3.073
 5441SOL    HW217223   4.645   2.228   2.927
 5442SOL     OW17224   2.982   5.758   3.892
 5442SOL    HW117225   3.021   5.666   3.887
 5442SOL    HW217226   3.004   5.799   3.980
 5443SOL     OW17227   3.195   0.770   4.087
 5443SOL    HW117228   3.224   0.821   4.006
 5443SOL    HW217229   3.104   0.732   4.072
 5444SOL     OW17230   1.201   0.354   4.270
 5444SOL    HW117231   1.106   0.322   4.261
 5444SOL    HW217232   1.211   0.404   4.356
 5445SOL     OW17233   5.940   3.946   3.567
 5445SOL    HW117234   6.022   3.928   3.621
 5445SOL    HW217235   5.949   4.034   3.521
 5446SOL     OW17236   6.516   4.888   4.953
 5446SOL    HW117237   6.540   4.832   4.873
 5446SOL    HW217238   6.445   4.953   4.928
 5447SOL     OW17239   3.077   2.475   6.772
 5447SOL    HW117240   3.080   2.492   6.673
 5447SOL    HW217241   3.171   2.476   6.808
 5448SOL     OW17242   4.458   2.998   5.343
 5448SOL    HW117243   4.406   3.083   5.344
 5448SOL    HW217244   4.395   2.920   5.347
 5449SOL     OW17245   1.398   3.018   6.209
 5449SOL    HW117246   1.451   3.008   6.294
 5449SOL    HW217247   1.451   3.072   6.143
 5450SOL     OW17248   1.537   0.253   1.402
 5450SOL    HW117249   1.559   0.172   1.456
 5450SOL    HW217250   1.618   0.282   1.350
 5451SOL     OW17251   1.372   6.418   3.333
 5451SOL    HW117252   1.437   6.393   3.404
 5451SOL    HW217253   1.417   6.415   3.243
 5452SOL     OW17254   2.171   4.801   0.057
 5452SOL    HW117255   2.267   4.804   0.032
 5452SOL    HW217256   2.157   4.733   0.130
 5453SOL     OW17257   5.547   4.342   1.167
 5453SOL    HW117258   5.635   4.322   1.122
 5453SOL    HW217259   5.528   4.271   1.234
 5454SOL     OW17260   0.160   3.998   6.774
 5454SOL    HW117261   0.222   4.076   6.779
 5454SOL    HW217262   0.207   3.921   6.730
 5455SOL     OW17263   6.173   3.510   0.301
 5455SOL    HW117264   6.255   3.469   0.260
 5455SOL    HW217265   6.173   3.492   0.400
 5456SOL     OW17266   3.590   6.695   6.832
 5456SOL    HW117267   3.551   6.669   6.921
 5456SOL    HW217268   3.533   6.765   6.789
 5457SOL     OW17269   5.775   2.207   0.172
 5457SOL    HW117270   5.739   2.273   0.107
 5457SOL    HW217271   5.830   2.254   0.241
 5458SOL     OW17272   0.327   4.687   6.841
 5458SOL    HW117273   0.282   4.772   6.867
 5458SOL    HW217274   0.336   4.628   6.922
 5459SOL     OW17275   2.384   4.440   0.014
 5459SOL    HW117276   2.477   4.406   0.031
 5459SOL    HW217277   2.318   4.384   0.065
 5460SOL     OW17278   2.597   6.860   2.786
 5460SOL    HW117279   2.527   6.907   2.733
 5460SOL    HW217280   2.670   6.829   2.725
 5461SOL     OW17281   5.918   6.604   5.279
 5461SOL    HW117282   5.904   6.548   5.360
 5461SOL    HW217283   6.007   6.650   5.284
 5462SOL     OW17284   0.704   0.933   6.849
 5462SOL    HW117285   0.656   0.853   6.813
 5462SOL    HW217286   0.706   1.005   6.779
 5463SOL     OW17287   6.210   2.179   0.186
 5463SOL    HW117288   6.163   2.265   0.165
 5463SOL    HW217289   6.177   2.142   0.272
 5464SOL     OW17290   1.304   0.570   4.104
 5464SOL    HW117291   1.250   0.488   4.127
 5464SOL    HW217292   1.399   0.556   4.132
 5465SOL     OW17293   3.659   6.654   3.626
 5465SOL    HW117294   3.713   6.638   3.544
 5465SOL    HW217295   3.704   6.723   3.683
 5466SOL     OW17296   5.829   4.301   5.379
 5466SOL    HW117297   5.788   4.223   5.425
 5466SOL    HW217298   5.808   4.385   5.430
 5467SOL     OW17299   5.184   2.594   3.131
 5467SOL    HW117300   5.122   2.517   3.145
 5467SOL    HW217301   5.132   2.672   3.095
 5468SOL     OW17302   4.935   2.006   4.325
 5468SOL    HW117303   4.966   2.089   4.279
 5468SOL    HW217304   4.855   1.969   4.277
 5469SOL     OW17305   3.973   4.954   0.011
 5469SOL    HW117306   3.918   4.909   0.080
 5469SOL    HW217307   4.049   4.895   7.007
 5470SOL     OW17308   2.882   5.738   3.157
 5470SOL    HW117309   2.968   5.692   3.136
 5470SOL    HW217310   2.844   5.701   3.242
 5471SOL     OW17311   5.601   6.780   2.119
 5471SOL    HW117312   5.503   6.770   2.137
 5471SOL    HW217313   5.653   6.740   2.195
 5472SOL     OW17314   3.764   3.582   5.982
 5472SOL    HW117315   3.775   3.521   5.904
 5472SOL    HW217316   3.852   3.623   6.005
 5473SOL     OW17317   0.673   3.434   3.445
 5473SOL    HW117318   0.702   3.485   3.364
 5473SOL    HW217319   0.573   3.423   3.443
 5474SOL     OW17320   1.207   4.396   3.810
 5474SOL    HW117321   1.280   4.328   3.820
 5474SOL    HW217322   1.198   4.447   3.896
 5475SOL     OW17323   2.311   2.313   0.694
 5475SOL    HW117324   2.362   2.395   0.721
 5475SOL    HW217325   2.315   2.302   0.595
 5476SOL     OW17326   2.508   3.831   6.138
 5476SOL    HW117327   2.591   3.845   6.194
 5476SOL    HW217328   2.474   3.920   6.106
 5477SOL     OW17329   1.844   3.844   3.487
 5477SOL    HW117330   1.918   3.896   3.531
 5477SOL    HW217331   1.860   3.843   3.388
 5478SOL     OW17332   4.521   5.083   5.560
 5478SOL    HW117333   4.502   5.157   5.625
 5478SOL    HW217334   4.620   5.082   5.541
 5479SOL     OW17335   4.864   1.122   6.029
 5479SOL    HW117336   4.878   1.135   5.931
 5479SOL    HW217337   4.769   1.096   6.047
 5480SOL     OW17338   0.371   3.514   3.482
 5480SOL    HW117339   0.370   3.499   3.580
 5480SOL    HW217340   0.291   3.471   3.440
 5481SOL     OW17341   3.727   0.881   4.116
 5481SOL    HW117342   3.813   0.839   4.088
 5481SOL    HW217343   3.693   0.836   4.198
 5482SOL     OW17344   3.825   4.577   1.661
 5482SOL    HW117345   3.798   4.482   1.646
 5482SOL    HW217346   3.756   4.622   1.718
 5483SOL     OW17347   0.518   2.830   5.774
 5483SOL    HW117348   0.603   2.778   5.762
 5483SOL    HW217349   0.440   2.772   5.750
 5484SOL     OW17350   4.879   0.988   5.093
 5484SOL    HW117351   4.804   1.054   5.097
 5484SOL    HW217352   4.889   0.943   5.181
 5485SOL     OW17353   4.007   0.178   5.368
 5485SOL    HW117354   3.909   0.161   5.378
 5485SOL    HW217355   4.042   0.219   5.452
 5486SOL     OW17356   2.924   5.898   5.669
 5486SOL    HW117357   2.849   5.895   5.736
 5486SOL    HW217358   2.890   5.933   5.582
 5487SOL     OW17359   2.956   4.099   6.645
 5487SOL    HW117360   2.948   4.011   6.692
 5487SOL    HW217361   2.993   4.167   6.707
 5488SOL     OW17362   6.772   0.946   0.536
 5488SOL    HW117363   6.790   1.033   0.489
 5488SOL    HW217364   6.825   0.942   0.621
 5489SOL     OW17365   6.359   3.286   2.213
 5489SOL    HW117366   6.450   3.248   2.203
 5489SOL    HW217367   6.292   3.221   2.177
 5490SOL     OW17368   1.528   0.275   2.188
 5490SOL    HW117369   1.538   0.375   2.183
 5490SOL    HW217370   1.615   0.232   2.165
 5491SOL     OW17371   0.398   2.863   0.869
 5491SOL    HW117372   0.399   2.893   0.774
 5491SOL    HW217373   0.451   2.926   0.925
 5492SOL     OW17374   1.035   3.445   5.687
 5492SOL    HW117375   1.028   3.374   5.617
 5492SOL    HW217376   1.131   3.467   5.703
 5493SOL     OW17377   4.131   3.673   2.040
 5493SOL    HW117378   4.211   3.733   2.034
 5493SOL    HW217379   4.123   3.638   2.134
 5494SOL     OW17380   6.454   3.930   5.076
 5494SOL    HW117381   6.511   3.973   5.146
 5494SOL    HW217382   6.388   3.996   5.041
 5495SOL     OW17383   5.707   0.875   0.843
 5495SOL    HW117384   5.642   0.847   0.773
 5495SOL    HW217385   5.659   0.921   0.917
 5496SOL     OW17386   4.672   0.472   3.863
 5496SOL    HW117387   4.600   0.504   3.801
 5496SOL    HW217388   4.701   0.547   3.922
 5497SOL     OW17389   0.395   1.089   6.010
 5497SOL    HW117390   0.469   1.039   5.964
 5497SOL    HW217391   0.405   1.187   5.990
 5498SOL     OW17392   6.912   4.985   1.738
 5498SOL    HW117393   6.846   5.011   1.667
 5498SOL    HW217394   6.992   4.944   1.694
 5499SOL     OW17395   0.532   0.692   3.577
 5499SOL    HW117396   0.519   0.790   3.563
 5499SOL    HW217397   0.506   0.667   3.670
 5500SOL     OW17398   1.669   0.803   6.997
 5500SOL    HW117399   1.600   0.864   6.959
 5500SOL    HW217400   1.686   0.828   0.070
 5501SOL     OW17401   4.205   2.436   0.333
 5501SOL    HW117402   4.187   2.417   0.430
 5501SOL    HW217403   4.120   2.467   0.290
 5502SOL     OW17404   5.362   4.134   6.426
 5502SOL    HW117405   5.369   4.109   6.329
 5502SOL    HW217406   5.351   4.051   6.481
 5503SOL     OW17407   0.321   4.024   1.000
 5503SOL    HW117408   0.415   4.006   0.973
 5503SOL    HW217409   0.315   4.030   1.100
 5504SOL     OW17410   4.783   1.401   6.049
 5504SOL    HW117411   4.811   1.305   6.055
 5504SOL    HW217412   4.861   1.457   6.022
 5505SOL     OW17413   2.256   4.031   3.782
 5505SOL    HW117414   2.294   4.029   3.690
 5505SOL    HW217415   2.253   4.125   3.815
 5506SOL     OW17416   6.761   3.358   6.853
 5506SOL    HW117417   6.701   3.371   6.775
 5506SOL    HW217418   6.742   3.269   6.895
 5507SOL     OW17419   3.494   0.703   5.950
 5507SOL    HW117420   3.564   0.675   6.015
 5507SOL    HW217421   3.536   0.757   5.877
 5508SOL     OW17422   1.336   0.911   0.405
 5508SOL    HW117423   1.261   0.877   0.348
 5508SOL    HW217424   1.318   1.006   0.430
 5509SOL     OW17425   0.770   5.436   0.677
 5509SOL    HW117426   0.806   5.353   0.634
 5509SOL    HW217427   0.829   5.513   0.657
 5510SOL     OW17428   5.226   5.702   6.774
 5510SOL    HW117429   5.277   5.782   6.742
 5510SOL    HW217430   5.207   5.640   6.698
 5511SOL     OW17431   0.983   1.369   4.914
 5511SOL    HW117432   1.064   1.314   4.935
 5511SOL    HW217433   1.010   1.464   4.900
 5512SOL     OW17434   3.670   0.899   1.325
 5512SOL    HW117435   3.724   0.819   1.352
 5512SOL    HW217436   3.724   0.982   1.339
 5513SOL     OW17437   3.327   5.045   6.087
 5513SOL    HW117438   3.261   5.022   6.015
 5513SOL    HW217439   3.279   5.087   6.163
 5514SOL     OW17440   3.628   6.917   5.018
 5514SOL    HW117441   3.553   6.904   4.954
 5514SOL    HW217442   3.696   6.980   4.979
 5515SOL     OW17443   1.773   5.695   2.238
 5515SOL    HW117444   1.750   5.782   2.195
 5515SOL    HW217445   1.697   5.631   2.227
 5516SOL     OW17446   2.427   2.697   5.146
 5516SOL    HW117447   2.412   2.690   5.047
 5516SOL    HW217448   2.445   2.792   5.170
 5517SOL     OW17449   1.739   3.843   2.516
 5517SOL    HW117450   1.761   3.777   2.588
 5517SOL    HW217451   1.811   3.843   2.447
 5518SOL     OW17452   6.018   4.970   5.917
 5518SOL    HW117453   5.965   4.972   6.002
 5518SOL    HW217454   5.960   5.002   5.841
 5519SOL     OW17455   4.980   2.960   3.569
 5519SOL    HW117456   4.891   2.915   3.570
 5519SOL    HW217457   5.044   2.911   3.629
 5520SOL     OW17458   5.857   6.024   2.496
 5520SOL    HW117459   5.927   5.985   2.436
 5520SOL    HW217460   5.803   6.091   2.445
 5521SOL     OW17461   5.604   5.410   1.634
 5521SOL    HW117462   5.610   5.434   1.731
 5521SOL    HW217463   5.671   5.464   1.582
 5522SOL     OW17464   6.430   5.575   1.156
 5522SOL    HW117465   6.513   5.570   1.212
 5522SOL    HW217466   6.359   5.519   1.197
 5523SOL     OW17467   5.338   0.850   2.964
 5523SOL    HW117468   5.397   0.897   2.899
 5523SOL    HW217469   5.346   0.751   2.951
 5524SOL     OW17470   3.655   0.348   5.507
 5524SOL    HW117471   3.689   0.313   5.420
 5524SOL    HW217472   3.669   0.446   5.512
 5525SOL     OW17473   6.963   2.771   0.650
 5525SOL    HW117474   6.887   2.832   0.674
 5525SOL    HW217475   7.006   2.737   0.734
 5526SOL     OW17476   4.835   3.895   2.834
 5526SOL    HW117477   4.905   3.861   2.771
 5526SOL    HW217478   4.872   3.898   2.927
 5527SOL     OW17479   4.848   3.000   4.364
 5527SOL    HW117480   4.842   2.901   4.370
 5527SOL    HW217481   4.937   3.026   4.326
 5528SOL     OW17482   0.805   1.672   1.728
 5528SOL    HW117483   0.833   1.694   1.822
 5528SOL    HW217484   0.724   1.726   1.705
 5529SOL     OW17485   2.067   0.174   3.699
 5529SOL    HW117486   2.087   0.176   3.601
 5529SOL    HW217487   2.105   0.256   3.742
 5530SOL     OW17488   0.008   2.720   2.266
 5530SOL    HW117489   6.989   2.796   2.217
 5530SOL    HW217490   7.000   2.634   2.225
 5531SOL     OW17491   3.766   4.288   1.243
 5531SOL    HW117492   3.781   4.272   1.145
 5531SOL    HW217493   3.764   4.386   1.261
 5532SOL     OW17494   1.720   2.373   0.351
 5532SOL    HW117495   1.630   2.370   0.307
 5532SOL    HW217496   1.712   2.347   0.447
 5533SOL     OW17497   4.835   1.603   4.182
 5533SOL    HW117498   4.765   1.656   4.135
 5533SOL    HW217499   4.794   1.556   4.261
 5534SOL     OW17500   1.109   1.164   5.517
 5534SOL    HW117501   1.179   1.235   5.507
 5534SOL    HW217502   1.111   1.105   5.436
 5535SOL     OW17503   0.469   1.327   2.605
 5535SOL    HW117504   0.538   1.369   2.547
 5535SOL    HW217505   0.416   1.261   2.551
 5536SOL     OW17506   3.593   0.702   4.738
 5536SOL    HW117507   3.672   0.729   4.683
 5536SOL    HW217508   3.511   0.747   4.703
 5537SOL     OW17509   3.851   1.580   2.932
 5537SOL    HW117510   3.949   1.590   2.916
 5537SOL    HW217511   3.835   1.536   3.020
 5538SOL     OW17512   4.564   5.783   4.783
 5538SOL    HW117513   4.569   5.863   4.843
 5538SOL    HW217514   4.479   5.734   4.801
 5539SOL     OW17515   2.264   2.844   1.219
 5539SOL    HW117516   2.217   2.779   1.278
 5539SOL    HW217517   2.245   2.937   1.249
 5540SOL     OW17518   5.036   4.792   3.547
 5540SOL    HW117519   5.124   4.838   3.541
 5540SOL    HW217520   5.051   4.693   3.549
 5541SOL     OW17521   4.416   2.069   6.265
 5541SOL    HW117522   4.448   2.007   6.193
 5541SOL    HW217523   4.486   2.077   6.336
 5542SOL     OW17524   3.785   4.096   6.208
 5542SOL    HW117525   3.747   4.097   6.300
 5542SOL    HW217526   3.797   4.190   6.176
 5543SOL     OW17527   6.620   4.038   6.706
 5543SOL    HW117528   6.587   3.967   6.644
 5543SOL    HW217529   6.720   4.046   6.697
 5544SOL     OW17530   5.823   1.341   5.878
 5544SOL    HW117531   5.757   1.405   5.840
 5544SOL    HW217532   5.776   1.257   5.907
 5545SOL     OW17533   4.584   2.153   2.405
 5545SOL    HW117534   4.507   2.125   2.348
 5545SOL    HW217535   4.596   2.252   2.399
 5546SOL     OW17536   2.145   5.031   5.869
 5546SOL    HW117537   2.230   5.066   5.906
 5546SOL    HW217538   2.073   5.100   5.877
 5547SOL     OW17539   3.442   5.407   5.543
 5547SOL    HW117540   3.532   5.363   5.539
 5547SOL    HW217541   3.379   5.349   5.595
 5548SOL     OW17542   6.003   3.330   5.581
 5548SOL    HW117543   5.929   3.350   5.645
 5548SOL    HW217544   6.079   3.288   5.630
 5549SOL     OW17545   2.676   4.974   6.805
 5549SOL    HW117546   2.642   4.884   6.779
 5549SOL    HW217547   2.599   5.032   6.834
 5550SOL     OW17548   2.343   6.274   1.138
 5550SOL    HW117549   2.350   6.200   1.204
 5550SOL    HW217550   2.395   6.353   1.170
 5551SOL     OW17551   1.377   1.130   3.282
 5551SOL    HW117552   1.390   1.222   3.318
 5551SOL    HW217553   1.461   1.100   3.237
 5552SOL     OW17554   6.891   1.770   1.134
 5552SOL    HW117555   6.968   1.706   1.131
 5552SOL    HW217556   6.805   1.718   1.136
 5553SOL     OW17557   4.211   6.314   0.235
 5553SOL    HW117558   4.302   6.328   0.274
 5553SOL    HW217559   4.174   6.228   0.269
 5554SOL     OW17560   2.887   2.364   5.147
 5554SOL    HW117561   2.986   2.376   5.141
 5554SOL    HW217562   2.861   2.276   5.107
 5555SOL     OW17563   0.060   5.147   3.409
 5555SOL    HW117564   0.086   5.229   3.460
 5555SOL    HW217565   0.130   5.077   3.423
 5556SOL     OW17566   0.454   2.088   5.103
 5556SOL    HW117567   0.427   2.004   5.054
 5556SOL    HW217568   0.549   2.078   5.134
 5557SOL     OW17569   2.287   6.111   3.661
 5557SOL    HW117570   2.335   6.069   3.585
 5557SOL    HW217571   2.189   6.119   3.638
 5558SOL     OW17572   5.449   2.946   4.733
 5558SOL    HW117573   5.517   2.877   4.758
 5558SOL    HW217574   5.372   2.902   4.687
 5559SOL     OW17575   1.652   0.265   0.702
 5559SOL    HW117576   1.659   0.189   0.767
 5559SOL    HW217577   1.670   0.351   0.750
 5560SOL     OW17578   0.302   1.346   3.971
 5560SOL    HW117579   0.235   1.364   3.900
 5560SOL    HW217580   0.373   1.285   3.936
 5561SOL     OW17581   1.496   3.129   3.190
 5561SOL    HW117582   1.409   3.173   3.167
 5561SOL    HW217583   1.487   3.080   3.276
 5562SOL     OW17584   2.089   3.330   5.771
 5562SOL    HW117585   2.187   3.351   5.767
 5562SOL    HW217586   2.072   3.267   5.847
 5563SOL     OW17587   4.749   6.219   2.600
 5563SOL    HW117588   4.695   6.164   2.537
 5563SOL    HW217589   4.690   6.285   2.646
 5564SOL     OW17590   5.111   3.811   1.763
 5564SOL    HW117591   5.020   3.798   1.802
 5564SOL    HW217592   5.103   3.829   1.665
 5565SOL     OW17593   3.651   2.520   5.450
 5565SOL    HW117594   3.557   2.553   5.450
 5565SOL    HW217595   3.651   2.421   5.437
 5566SOL     OW17596   1.949   4.995   1.356
 5566SOL    HW117597   1.981   5.076   1.405
 5566SOL    HW217598   1.896   4.938   1.419
 5567SOL     OW17599   1.509   5.556   1.295
 5567SOL    HW117600   1.422   5.591   1.259
 5567SOL    HW217601   1.543   5.619   1.365
 5568SOL     OW17602   4.066   1.395   1.501
 5568SOL    HW117603   4.092   1.490   1.521
 5568SOL    HW217604   4.007   1.393   1.420
 5569SOL     OW17605   3.879   1.515   0.538
 5569SOL    HW117606   3.870   1.456   0.618
 5569SOL    HW217607   3.829   1.474   0.461
 5570SOL     OW17608   6.394   4.501   5.385
 5570SOL    HW117609   6.324   4.565   5.355
 5570SOL    HW217610   6.440   4.539   5.466
 5571SOL     OW17611   6.923   5.724   0.390
 5571SOL    HW117612   6.838   5.751   0.436
 5571SOL    HW217613   6.938   5.626   0.401
 5572SOL     OW17614   4.632   2.690   6.430
 5572SOL    HW117615   4.541   2.705   6.393
 5572SOL    HW217616   4.699   2.737   6.373
 5573SOL     OW17617   0.967   3.607   1.015
 5573SOL    HW117618   0.903   3.537   0.985
 5573SOL    HW217619   1.040   3.618   0.947
 5574SOL     OW17620   0.763   6.108   5.250
 5574SOL    HW117621   0.761   6.133   5.347
 5574SOL    HW217622   0.673   6.126   5.210
 5575SOL     OW17623   0.865   1.457   0.768
 5575SOL    HW117624   0.826   1.420   0.852
 5575SOL    HW217625   0.961   1.481   0.783
 5576SOL     OW17626   5.877   6.370   0.545
 5576SOL    HW117627   5.920   6.456   0.519
 5576SOL    HW217628   5.941   6.316   0.601
 5577SOL     OW17629   1.772   4.200   5.254
 5577SOL    HW117630   1.698   4.134   5.263
 5577SOL    HW217631   1.844   4.161   5.197
 5578SOL     OW17632   4.100   2.710   0.137
 5578SOL    HW117633   4.181   2.667   0.097
 5578SOL    HW217634   4.125   2.758   0.221
 5579SOL     OW17635   5.167   3.955   6.708
 5579SOL    HW117636   5.191   3.885   6.641
 5579SOL    HW217637   5.092   3.922   6.766
 5580SOL     OW17638   5.568   1.147   0.499
 5580SOL    HW117639   5.620   1.214   0.446
 5580SOL    HW217640   5.625   1.067   0.516
 5581SOL     OW17641   2.086   1.435   6.073
 5581SOL    HW117642   2.150   1.499   6.115
 5581SOL    HW217643   2.050   1.373   6.142
 5582SOL     OW17644   3.646   3.754   3.593
 5582SOL    HW117645   3.734   3.719   3.561
 5582SOL    HW217646   3.625   3.840   3.545
 5583SOL     OW17647   3.666   0.210   1.360
 5583SOL    HW117648   3.762   0.187   1.374
 5583SOL    HW217649   3.640   0.284   1.423
 5584SOL     OW17650   6.674   3.358   3.110
 5584SOL    HW117651   6.635   3.335   3.022
 5584SOL    HW217652   6.601   3.377   3.176
 5585SOL     OW17653   6.101   0.633   4.696
 5585SOL    HW117654   6.183   0.598   4.650
 5585SOL    HW217655   6.079   0.573   4.773
 5586SOL     OW17656   2.263   1.001   5.744
 5586SOL    HW117657   2.250   1.089   5.789
 5586SOL    HW217658   2.333   0.949   5.793
 5587SOL     OW17659   3.531   0.451   4.175
 5587SOL    HW117660   3.515   0.532   4.231
 5587SOL    HW217661   3.512   0.472   4.079
 5588SOL     OW17662   2.741   6.929   5.613
 5588SOL    HW117663   2.702   6.838   5.630
 5588SOL    HW217664   2.721   6.956   5.519
 5589SOL     OW17665   4.255   2.760   6.212
 5589SOL    HW117666   4.159   2.770   6.185
 5589SOL    HW217667   4.312   2.750   6.130
 5590SOL     OW17668   0.723   5.447   4.484
 5590SOL    HW117669   0.819   5.473   4.481
 5590SOL    HW217670   0.671   5.516   4.534
 5591SOL     OW17671   5.421   0.494   0.457
 5591SOL    HW117672   5.347   0.558   0.478
 5591SOL    HW217673   5.485   0.491   0.534
 5592SOL     OW17674   1.602   3.252   2.608
 5592SOL    HW117675   1.601   3.350   2.591
 5592SOL    HW217676   1.561   3.232   2.697
 5593SOL     OW17677   1.723   2.857   5.804
 5593SOL    HW117678   1.772   2.891   5.884
 5593SOL    HW217679   1.650   2.795   5.833
 5594SOL     OW17680   1.929   0.782   0.330
 5594SOL    HW117681   1.834   0.811   0.324
 5594SOL    HW217682   1.942   0.698   0.276
 5595SOL     OW17683   6.857   2.535   5.905
 5595SOL    HW117684   6.800   2.469   5.955
 5595SOL    HW217685   6.860   2.621   5.955
 5596SOL     OW17686   5.155   0.171   3.037
 5596SOL    HW117687   5.117   0.222   3.114
 5596SOL    HW217688   5.151   0.073   3.056
 5597SOL     OW17689   6.988   0.819   6.320
 5597SOL    HW117690   6.969   0.809   6.223
 5597SOL    HW217691   0.063   0.807   6.337
 5598SOL     OW17692   6.721   1.814   3.937
 5598SOL    HW117693   6.682   1.733   3.894
 5598SOL    HW217694   6.667   1.839   4.017
 5599SOL     OW17695   5.098   3.416   2.955
 5599SOL    HW117696   5.020   3.416   2.892
 5599SOL    HW217697   5.183   3.402   2.903
 5600SOL     OW17698   2.260   1.327   2.401
 5600SOL    HW117699   2.172   1.346   2.444
 5600SOL    HW217700   2.252   1.336   2.302
 5601SOL     OW17701   5.849   3.026   5.334
 5601SOL    HW117702   5.808   2.989   5.251
 5601SOL    HW217703   5.810   3.116   5.354
 5602SOL     OW17704   0.166   2.002   3.086
 5602SOL    HW117705   0.145   2.025   3.181
 5602SOL    HW217706   0.099   1.937   3.051
 5603SOL     OW17707   4.154   2.293   4.570
 5603SOL    HW117708   4.169   2.281   4.471
 5603SOL    HW217709   4.073   2.350   4.584
 5604SOL     OW17710   0.456   0.247   4.144
 5604SOL    HW117711   0.387   0.287   4.084
 5604SOL    HW217712   0.414   0.175   4.199
 5605SOL     OW17713   2.796   5.806   4.551
 5605SOL    HW117714   2.746   5.776   4.469
 5605SOL    HW217715   2.777   5.903   4.567
 5606SOL     OW17716   4.868   2.272   0.790
 5606SOL    HW117717   4.770   2.253   0.784
 5606SOL    HW217718   4.908   2.216   0.863
 5607SOL     OW17719   6.185   3.017   2.019
 5607SOL    HW117720   6.178   3.028   1.920
 5607SOL    HW217721   6.199   2.921   2.041
 5608SOL     OW17722   4.445   1.193   3.615
 5608SOL    HW117723   4.448   1.202   3.714
 5608SOL    HW217724   4.524   1.141   3.584
 5609SOL     OW17725   6.773   6.753   0.867
 5609SOL    HW117726   6.834   6.734   0.791
 5609SOL    HW217727   6.686   6.708   0.852
 5610SOL     OW17728   4.986   4.425   6.807
 5610SOL    HW117729   5.068   4.438   6.863
 5610SOL    HW217730   4.915   4.489   6.838
 5611SOL     OW17731   6.934   4.986   0.893
 5611SOL    HW117732   6.946   4.983   0.993
 5611SOL    HW217733   6.977   4.906   0.852
 5612SOL     OW17734   2.670   1.104   0.864
 5612SOL    HW117735   2.630   1.134   0.777
 5612SOL    HW217736   2.767   1.087   0.851
 5613SOL     OW17737   6.692   5.629   5.403
 5613SOL    HW117738   6.699   5.684   5.487
 5613SOL    HW217739   6.597   5.625   5.374
 5614SOL     OW17740   6.275   2.219   4.203
 5614SOL    HW117741   6.363   2.212   4.156
 5614SOL    HW217742   6.286   2.193   4.299
 5615SOL     OW17743   0.344   3.226   3.256
 5615SOL    HW117744   0.403   3.226   3.336
 5615SOL    HW217745   0.271   3.294   3.267
 5616SOL     OW17746   1.735   3.465   2.939
 5616SOL    HW117747   1.828   3.490   2.913
 5616SOL    HW217748   1.737   3.378   2.988
 5617SOL     OW17749   2.138   5.541   6.343
 5617SOL    HW117750   2.074   5.466   6.332
 5617SOL    HW217751   2.195   5.548   6.261
 5618SOL     OW17752   0.011   5.771   3.752
 5618SOL    HW117753   6.946   5.795   3.794
 5618SOL    HW217754   0.034   5.838   3.683
 5619SOL     OW17755   4.022   3.324   4.605
 5619SOL    HW117756   3.994   3.285   4.517
 5619SOL    HW217757   4.065   3.413   4.590
 5620SOL     OW17758   4.745   4.274   5.800
 5620SOL    HW117759   4.734   4.328   5.716
 5620SOL    HW217760   4.680   4.305   5.869
 5621SOL     OW17761   1.340   2.292   5.422
 5621SOL    HW117762   1.295   2.205   5.400
 5621SOL    HW217763   1.396   2.321   5.344
 5622SOL     OW17764   4.914   5.566   4.667
 5622SOL    HW117765   4.973   5.645   4.685
 5622SOL    HW217766   4.833   5.595   4.617
 5623SOL     OW17767   4.902   6.144   3.964
 5623SOL    HW117768   4.854   6.229   3.985
 5623SOL    HW217769   4.964   6.122   4.039
 5624SOL     OW17770   6.729   5.060   4.444
 5624SOL    HW117771   6.818   5.025   4.472
 5624SOL    HW217772   6.683   4.992   4.387
 5625SOL     OW17773   1.234   6.065   5.090
 5625SOL    HW117774   1.148   6.071   5.039
 5625SOL    HW217775   1.289   6.146   5.071
 5626SOL     OW17776   1.829   4.055   4.751
 5626SOL    HW117777   1.788   4.015   4.833
 5626SOL    HW217778   1.914   4.008   4.729
 5627SOL     OW17779   1.197   5.672   6.890
 5627SOL    HW117780   1.145   5.639   6.811
 5627SOL    HW217781   1.278   5.720   6.859
 5628SOL     OW17782   2.844   2.653   1.166
 5628SOL    HW117783   2.868   2.749   1.183
 5628SOL    HW217784   2.798   2.615   1.247
 5629SOL     OW17785   5.089   3.861   1.510
 5629SOL    HW117786   5.117   3.948   1.551
 5629SOL    HW217787   5.090   3.868   1.411
 5630SOL     OW17788   2.624   4.192   6.750
 5630SOL    HW117789   2.641   4.177   6.652
 5630SOL    HW217790   2.617   4.104   6.796
 5631SOL     OW17791   4.635   1.027   1.617
 5631SOL    HW117792   4.570   1.100   1.640
 5631SOL    HW217793   4.721   1.068   1.588
 5632SOL     OW17794   5.542   0.215   5.843
 5632SOL    HW117795   5.476   0.207   5.918
 5632SOL    HW217796   5.592   0.301   5.851
 5633SOL     OW17797   0.780   5.427   5.407
 5633SOL    HW117798   0.729   5.422   5.493
 5633SOL    HW217799   0.877   5.408   5.426
 5634SOL     OW17800   2.785   6.781   0.189
 5634SOL    HW117801   2.735   6.833   0.259
 5634SOL    HW217802   2.815   6.694   0.227
 5635SOL     OW17803   2.114   0.773   6.970
 5635SOL    HW117804   2.193   0.772   6.909
 5635SOL    HW217805   2.119   0.696   0.011
 5636SOL     OW17806   6.222   1.598   5.406
 5636SOL    HW117807   6.272   1.643   5.480
 5636SOL    HW217808   6.150   1.540   5.445
 5637SOL     OW17809   5.088   6.916   4.839
 5637SOL    HW117810   5.137   6.984   4.893
 5637SOL    HW217811   5.119   6.920   4.744
 5638SOL     OW17812   5.478   5.219   1.073
 5638SOL    HW117813   5.458   5.167   0.990
 5638SOL    HW217814   5.572   5.201   1.102
 5639SOL     OW17815   0.646   0.586   1.580
 5639SOL    HW117816   0.643   0.648   1.659
 5639SOL    HW217817   0.560   0.592   1.530
 5640SOL     OW17818   2.746   5.420   3.143
 5640SOL    HW117819   2.786   5.462   3.225
 5640SOL    HW217820   2.695   5.489   3.093
 5641SOL     OW17821   0.271   4.126   4.000
 5641SOL    HW117822   0.219   4.107   4.084
 5641SOL    HW217823   0.365   4.095   4.012
 5642SOL     OW17824   1.562   4.676   0.422
 5642SOL    HW117825   1.644   4.628   0.453
 5642SOL    HW217826   1.491   4.670   0.492
 5643SOL     OW17827   4.480   2.003   4.671
 5643SOL    HW117828   4.518   1.944   4.599
 5643SOL    HW217829   4.517   2.095   4.661
 5644SOL     OW17830   4.643   1.416   5.017
 5644SOL    HW117831   4.578   1.346   4.986
 5644SOL    HW217832   4.709   1.435   4.944
 5645SOL     OW17833   6.010   5.535   3.760
 5645SOL    HW117834   6.080   5.551   3.691
 5645SOL    HW217835   6.049   5.553   3.851
 5646SOL     OW17836   0.415   6.518   3.904
 5646SOL    HW117837   0.489   6.576   3.871
 5646SOL    HW217838   0.418   6.512   4.003
 5647SOL     OW17839   5.844   5.445   6.539
 5647SOL    HW117840   5.811   5.458   6.633
 5647SOL    HW217841   5.843   5.533   6.491
 5648SOL     OW17842   1.886   1.665   4.067
 5648SOL    HW117843   1.942   1.732   4.019
 5648SOL    HW217844   1.816   1.712   4.120
 5649SOL     OW17845   0.950   1.048   5.084
 5649SOL    HW117846   1.026   1.065   5.021
 5649SOL    HW217847   0.916   0.955   5.070
 5650SOL     OW17848   6.647   4.556   6.719
 5650SOL    HW117849   6.558   4.601   6.707
 5650SOL    HW217850   6.633   4.458   6.736
 5651SOL     OW17851   6.976   1.266   1.998
 5651SOL    HW117852   6.932   1.259   2.088
 5651SOL    HW217853   6.940   1.345   1.950
 5652SOL     OW17854   4.900   5.374   1.644
 5652SOL    HW117855   4.874   5.327   1.728
 5652SOL    HW217856   4.931   5.307   1.577
 5653SOL     OW17857   0.270   5.962   5.364
 5653SOL    HW117858   0.231   6.036   5.420
 5653SOL    HW217859   0.207   5.884   5.364
 5654SOL     OW17860   6.825   0.245   5.592
 5654SOL    HW117861   6.900   0.220   5.653
 5654SOL    HW217862   6.738   0.237   5.641
 5655SOL     OW17863   0.627   3.483   4.196
 5655SOL    HW117864   0.686   3.443   4.266
 5655SOL    HW217865   0.626   3.582   4.206
 5656SOL     OW17866   3.662   3.768   0.490
 5656SOL    HW117867   3.707   3.717   0.563
 5656SOL    HW217868   3.570   3.733   0.477
 5657SOL     OW17869   3.569   0.227   1.739
 5657SOL    HW117870   3.593   0.146   1.685
 5657SOL    HW217871   3.647   0.288   1.745
 5658SOL     OW17872   3.778   0.053   5.680
 5658SOL    HW117873   3.816   0.097   5.762
 5658SOL    HW217874   3.844   7.011   5.642
 5659SOL     OW17875   2.874   3.596   2.532
 5659SOL    HW117876   2.923   3.556   2.453
 5659SOL    HW217877   2.905   3.690   2.545
 5660SOL     OW17878   4.698   0.267   6.967
 5660SOL    HW117879   4.761   0.237   0.017
 5660SOL    HW217880   4.604   0.254   6.997
 5661SOL     OW17881   6.996   6.033   4.227
 5661SOL    HW117882   0.006   5.970   4.156
 5661SOL    HW217883   6.900   6.055   4.210
 5662SOL     OW17884   2.169   4.583   4.028
 5662SOL    HW117885   2.116   4.602   3.945
 5662SOL    HW217886   2.259   4.625   4.021
 5663SOL     OW17887   1.093   3.915   0.798
 5663SOL    HW117888   1.114   3.824   0.835
 5663SOL    HW217889   1.164   3.943   0.734
 5664SOL     OW17890   6.844   4.438   2.492
 5664SOL    HW117891   6.899   4.388   2.424
 5664SOL    HW217892   6.862   4.400   2.583
 5665SOL     OW17893   2.341   3.247   5.468
 5665SOL    HW117894   2.328   3.326   5.408
 5665SOL    HW217895   2.423   3.260   5.523
 5666SOL     OW17896   4.922   5.356   0.548
 5666SOL    HW117897   4.952   5.372   0.642
 5666SOL    HW217898   4.932   5.440   0.495
 5667SOL     OW17899   6.496   5.167   2.900
 5667SOL    HW117900   6.550   5.239   2.855
 5667SOL    HW217901   6.458   5.203   2.985
 5668SOL     OW17902   5.088   2.325   6.225
 5668SOL    HW117903   5.052   2.396   6.286
 5668SOL    HW217904   5.164   2.363   6.171
 5669SOL     OW17905   0.890   4.672   6.300
 5669SOL    HW117906   0.928   4.580   6.295
 5669SOL    HW217907   0.964   4.739   6.303
 5670SOL     OW17908   0.364   3.361   4.095
 5670SOL    HW117909   0.349   3.265   4.072
 5670SOL    HW217910   0.455   3.372   4.135
 5671SOL     OW17911   1.872   0.836   6.498
 5671SOL    HW117912   1.813   0.760   6.473
 5671SOL    HW217913   1.903   0.824   6.592
 5672SOL     OW17914   5.017   4.203   5.799
 5672SOL    HW117915   4.919   4.221   5.807
 5672SOL    HW217916   5.048   4.231   5.708
 5673SOL     OW17917   0.275   0.064   2.119
 5673SOL    HW117918   0.304   0.159   2.131
 5673SOL    HW217919   0.317   0.027   2.036
 5674SOL     OW17920   6.854   3.296   1.461
 5674SOL    HW117921   6.776   3.337   1.412
 5674SOL    HW217922   6.894   3.365   1.522
 5675SOL     OW17923   4.334   2.364   5.399
 5675SOL    HW117924   4.414   2.345   5.456
 5675SOL    HW217925   4.328   2.463   5.382
 5676SOL     OW17926   2.009   0.139   1.668
 5676SOL    HW117927   2.023   0.137   1.569
 5676SOL    HW217928   2.057   0.063   1.711
 5677SOL     OW17929   6.417   0.688   3.962
 5677SOL    HW117930   6.370   0.759   4.015
 5677SOL    HW217931   6.395   0.699   3.865
 5678SOL     OW17932   3.464   0.025   3.029
 5678SOL    HW117933   3.410   0.013   3.112
 5678SOL    HW217934   3.558   7.017   3.046
 5679SOL     OW17935   2.201   6.504   4.744
 5679SOL    HW117936   2.199   6.578   4.677
 5679SOL    HW217937   2.201   6.542   4.836
 5680SOL     OW17938   1.882   5.691   6.290
 5680SOL    HW117939   1.804   5.659   6.235
 5680SOL    HW217940   1.945   5.615   6.305
 5681SOL     OW17941   1.262   2.424   6.584
 5681SOL    HW117942   1.191   2.407   6.515
 5681SOL    HW217943   1.313   2.506   6.559
 5682SOL     OW17944   1.470   2.736   5.899
 5682SOL    HW117945   1.390   2.761   5.954
 5682SOL    HW217946   1.448   2.655   5.845
 5683SOL     OW17947   3.336   2.739   6.393
 5683SOL    HW117948   3.267   2.750   6.464
 5683SOL    HW217949   3.321   2.653   6.344
 5684SOL     OW17950   3.789   3.702   3.863
 5684SOL    HW117951   3.887   3.705   3.846
 5684SOL    HW217952   3.741   3.682   3.778
 5685SOL     OW17953   6.966   4.677   2.788
 5685SOL    HW117954   6.924   4.589   2.765
 5685SOL    HW217955   6.985   4.728   2.704
 5686SOL     OW17956   3.425   6.784   0.965
 5686SOL    HW117957   3.439   6.803   0.868
 5686SOL    HW217958   3.422   6.685   0.979
 5687SOL     OW17959   5.443   4.354   5.269
 5687SOL    HW117960   5.475   4.267   5.232
 5687SOL    HW217961   5.490   4.430   5.224
 5688SOL     OW17962   5.644   2.301   1.364
 5688SOL    HW117963   5.738   2.302   1.399
 5688SOL    HW217964   5.580   2.298   1.442
 5689SOL     OW17965   4.484   1.713   0.942
 5689SOL    HW117966   4.511   1.655   0.864
 5689SOL    HW217967   4.470   1.806   0.910
 5690SOL     OW17968   4.453   5.886   0.891
 5690SOL    HW117969   4.441   5.795   0.930
 5690SOL    HW217970   4.376   5.907   0.831
 5691SOL     OW17971   2.783   0.063   2.143
 5691SOL    HW117972   2.869   0.101   2.179
 5691SOL    HW217973   2.755   7.009   2.201
 5692SOL     OW17974   6.510   2.937   5.929
 5692SOL    HW117975   6.472   3.028   5.944
 5692SOL    HW217976   6.518   2.889   6.017
 5693SOL     OW17977   4.768   2.842   2.512
 5693SOL    HW117978   4.698   2.872   2.577
 5693SOL    HW217979   4.753   2.886   2.424
 5694SOL     OW17980   7.020   0.923   3.440
 5694SOL    HW117981   7.022   0.995   3.371
 5694SOL    HW217982   6.926   0.891   3.452
 5695SOL     OW17983   1.416   2.257   3.261
 5695SOL    HW117984   1.342   2.197   3.289
 5695SOL    HW217985   1.484   2.205   3.209
 5696SOL     OW17986   2.502   1.351   5.087
 5696SOL    HW117987   2.516   1.377   4.991
 5696SOL    HW217988   2.587   1.361   5.137
 5697SOL     OW17989   6.867   2.528   0.584
 5697SOL    HW117990   6.875   2.470   0.666
 5697SOL    HW217991   6.925   2.609   0.596
 5698SOL     OW17992   0.821   2.772   2.120
 5698SOL    HW117993   0.749   2.823   2.073
 5698SOL    HW217994   0.799   2.765   2.217
 5699SOL     OW17995   6.481   1.092   4.598
 5699SOL    HW117996   6.556   1.156   4.612
 5699SOL    HW217997   6.454   1.093   4.501
 5700SOL     OW17998   1.632   6.214   4.952
 5700SOL    HW117999   1.596   6.126   4.984
 5700SOL    HW218000   1.560   6.283   4.956
 5701SOL     OW18001   7.022   5.963   2.155
 5701SOL    HW118002   0.049   5.928   2.234
 5701SOL    HW218003   0.064   5.980   2.080
 5702SOL     OW18004   1.998   6.332   6.341
 5702SOL    HW118005   2.061   6.264   6.379
 5702SOL    HW218006   2.013   6.340   6.242
 5703SOL     OW18007   4.613   4.533   0.335
 5703SOL    HW118008   4.684   4.485   0.387
 5703SOL    HW218009   4.532   4.546   0.393
 5704SOL     OW18010   4.734   5.499   3.400
 5704SOL    HW118011   4.816   5.492   3.343
 5704SOL    HW218012   4.714   5.410   3.441
 5705SOL     OW18013   5.926   0.121   0.909
 5705SOL    HW118014   6.007   0.165   0.871
 5705SOL    HW218015   5.917   0.145   1.005
 5706SOL     OW18016   1.184   1.383   0.031
 5706SOL    HW118017   1.181   1.451   6.981
 5706SOL    HW218018   1.164   1.293   7.016
 5707SOL     OW18019   2.112   0.791   6.115
 5707SOL    HW118020   2.171   0.745   6.049
 5707SOL    HW218021   2.137   0.761   6.207
 5708SOL     OW18022   4.995   0.112   2.202
 5708SOL    HW118023   4.908   0.161   2.188
 5708SOL    HW218024   5.070   0.166   2.162
 5709SOL     OW18025   0.822   6.261   3.428
 5709SOL    HW118026   0.870   6.194   3.485
 5709SOL    HW218027   0.742   6.218   3.387
 5710SOL     OW18028   3.251   3.375   6.062
 5710SOL    HW118029   3.293   3.430   5.989
 5710SOL    HW218030   3.294   3.285   6.065
 5711SOL     OW18031   5.299   1.233   3.782
 5711SOL    HW118032   5.294   1.133   3.783
 5711SOL    HW218033   5.211   1.271   3.812
 5712SOL     OW18034   6.934   6.814   5.564
 5712SOL    HW118035   6.958   6.752   5.639
 5712SOL    HW218036   6.879   6.764   5.496
 5713SOL     OW18037   6.919   2.900   2.105
 5713SOL    HW118038   6.925   2.999   2.093
 5713SOL    HW218039   6.823   2.872   2.104
 5714SOL     OW18040   1.622   0.642   6.203
 5714SOL    HW118041   1.597   0.731   6.165
 5714SOL    HW218042   1.578   0.570   6.151
 5715SOL     OW18043   1.543   6.313   2.401
 5715SOL    HW118044   1.465   6.376   2.395
 5715SOL    HW218045   1.543   6.269   2.491
 5716SOL     OW18046   1.542   3.678   6.007
 5716SOL    HW118047   1.565   3.600   6.065
 5716SOL    HW218048   1.627   3.720   5.973
 5717SOL     OW18049   1.029   4.299   0.954
 5717SOL    HW118050   1.018   4.205   0.987
 5717SOL    HW218051   1.125   4.327   0.966
 5718SOL     OW18052   1.770   4.940   6.181
 5718SOL    HW118053   1.796   4.896   6.095
 5718SOL    HW218054   1.746   4.869   6.248
 5719SOL     OW18055   3.576   0.346   6.517
 5719SOL    HW118056   3.507   0.390   6.576
 5719SOL    HW218057   3.615   0.415   6.456
 5720SOL     OW18058   1.036   5.291   5.072
 5720SOL    HW118059   1.045   5.322   4.977
 5720SOL    HW218060   0.952   5.328   5.111
 5721SOL     OW18061   0.652   2.745   0.577
 5721SOL    HW118062   0.684   2.759   0.483
 5721SOL    HW218063   0.554   2.730   0.578
 5722SOL     OW18064   5.445   0.728   5.121
 5722SOL    HW118065   5.450   0.704   5.218
 5722SOL    HW218066   5.515   0.678   5.070
 5723SOL     OW18067   3.947   5.478   0.312
 5723SOL    HW118068   4.037   5.437   0.323
 5723SOL    HW218069   3.920   5.474   0.216
 5724SOL     OW18070   5.333   2.445   6.124
 5724SOL    HW118071   5.284   2.529   6.100
 5724SOL    HW218072   5.403   2.427   6.054
 5725SOL     OW18073   5.131   5.363   4.346
 5725SOL    HW118074   5.102   5.452   4.312
 5725SOL    HW218075   5.230   5.363   4.360
 5726SOL     OW18076   5.677   3.536   5.961
 5726SOL    HW118077   5.609   3.538   6.034
 5726SOL    HW218078   5.765   3.569   5.995
 5727SOL     OW18079   5.693   2.172   3.294
 5727SOL    HW118080   5.779   2.137   3.331
 5727SOL    HW218081   5.670   2.258   3.340
 5728SOL     OW18082   6.421   1.322   5.277
 5728SOL    HW118083   6.451   1.409   5.318
 5728SOL    HW218084   6.372   1.341   5.192
 5729SOL     OW18085   6.794   1.506   6.293
 5729SOL    HW118086   6.859   1.434   6.269
 5729SOL    HW218087   6.754   1.486   6.383
 5730SOL     OW18088   3.827   6.147   5.623
 5730SOL    HW118089   3.881   6.091   5.560
 5730SOL    HW218090   3.866   6.239   5.629
 5731SOL     OW18091   1.896   0.069   4.141
 5731SOL    HW118092   1.966   0.034   4.078
 5731SOL    HW218093   1.933   0.071   4.233
 5732SOL     OW18094   6.207   4.769   4.635
 5732SOL    HW118095   6.148   4.758   4.555
 5732SOL    HW218096   6.301   4.784   4.605
 5733SOL     OW18097   3.508   0.869   0.193
 5733SOL    HW118098   3.435   0.938   0.195
 5733SOL    HW218099   3.499   0.809   0.272
 5734SOL     OW18100   1.866   6.913   5.686
 5734SOL    HW118101   1.831   7.004   5.664
 5734SOL    HW218102   1.921   6.918   5.769
 5735SOL     OW18103   4.328   0.916   2.597
 5735SOL    HW118104   4.405   0.853   2.610
 5735SOL    HW218105   4.334   0.958   2.506
 5736SOL     OW18106   4.769   4.605   6.618
 5736SOL    HW118107   4.855   4.584   6.572
 5736SOL    HW218108   4.787   4.629   6.713
 5737SOL     OW18109   5.130   5.482   1.419
 5737SOL    HW118110   5.146   5.508   1.323
 5737SOL    HW218111   5.210   5.432   1.453
 5738SOL     OW18112   3.576   1.087   6.496
 5738SOL    HW118113   3.675   1.085   6.504
 5738SOL    HW218114   3.536   1.128   6.578
 5739SOL     OW18115   2.166   0.109   5.741
 5739SOL    HW118116   2.121   0.198   5.750
 5739SOL    HW218117   2.240   0.115   5.674
 5740SOL     OW18118   5.345   3.533   0.777
 5740SOL    HW118119   5.405   3.567   0.850
 5740SOL    HW218120   5.264   3.491   0.818
 5741SOL     OW18121   0.796   4.067   4.203
 5741SOL    HW118122   0.824   4.145   4.258
 5741SOL    HW218123   0.844   3.985   4.234
 5742SOL     OW18124   4.007   0.279   3.466
 5742SOL    HW118125   3.960   0.365   3.448
 5742SOL    HW218126   4.058   0.286   3.552
 5743SOL     OW18127   3.553   4.395   5.458
 5743SOL    HW118128   3.549   4.495   5.464
 5743SOL    HW218129   3.647   4.366   5.441
 5744SOL     OW18130   5.789   0.183   2.912
 5744SOL    HW118131   5.789   0.241   2.831
 5744SOL    HW218132   5.696   0.151   2.930
 5745SOL     OW18133   2.460   2.598   3.850
 5745SOL    HW118134   2.383   2.534   3.848
 5745SOL    HW218135   2.546   2.548   3.845
 5746SOL     OW18136   3.547   0.739   3.212
 5746SOL    HW118137   3.570   0.705   3.121
 5746SOL    HW218138   3.557   0.665   3.278
 5747SOL     OW18139   1.260   5.967   1.631
 5747SOL    HW118140   1.189   5.995   1.694
 5747SOL    HW218141   1.350   5.981   1.673
 5748SOL     OW18142   0.321   5.987   0.448
 5748SOL    HW118143   0.280   6.060   0.394
 5748SOL    HW218144   0.381   5.932   0.391
 5749SOL     OW18145   1.920   6.585   5.214
 5749SOL    HW118146   1.964   6.673   5.233
 5749SOL    HW218147   1.981   6.511   5.239
 5750SOL     OW18148   0.058   4.387   4.361
 5750SOL    HW118149   0.008   4.378   4.447
 5750SOL    HW218150   0.156   4.379   4.378
 5751SOL     OW18151   2.239   4.012   4.223
 5751SOL    HW118152   2.271   3.918   4.235
 5751SOL    HW218153   2.141   4.012   4.203
 5752SOL     OW18154   5.259   7.011   0.808
 5752SOL    HW118155   5.348   6.970   0.826
 5752SOL    HW218156   5.271   0.073   0.755
 5753SOL     OW18157   2.916   3.934   4.964
 5753SOL    HW118158   2.970   4.005   5.009
 5753SOL    HW218159   2.846   3.976   4.907
 5754SOL     OW18160   1.157   6.283   1.619
 5754SOL    HW118161   1.146   6.234   1.532
 5754SOL    HW218162   1.115   6.230   1.693
 5755SOL     OW18163   2.467   2.569   7.007
 5755SOL    HW118164   2.541   2.507   6.979
 5755SOL    HW218165   2.488   2.662   6.975
 5756SOL     OW18166   6.676   6.871   1.960
 5756SOL    HW118167   6.684   6.790   1.902
 5756SOL    HW218168   6.580   6.883   1.987
 5757SOL     OW18169   6.694   6.145   3.775
 5757SOL    HW118170   6.658   6.202   3.849
 5757SOL    HW218171   6.727   6.059   3.813
 5758SOL     OW18172   1.687   6.366   2.761
 5758SOL    HW118173   1.729   6.425   2.831
 5758SOL    HW218174   1.587   6.368   2.772
 5759SOL     OW18175   4.306   6.756   1.625
 5759SOL    HW118176   4.305   6.848   1.586
 5759SOL    HW218177   4.216   6.713   1.613
 5760SOL     OW18178   6.678   3.412   2.089
 5760SOL    HW118179   6.656   3.490   2.031
 5760SOL    HW218180   6.752   3.437   2.152
 5761SOL     OW18181   5.583   5.920   4.755
 5761SOL    HW118182   5.576   6.018   4.772
 5761SOL    HW218183   5.666   5.900   4.704
 5762SOL     OW18184   5.570   4.332   0.174
 5762SOL    HW118185   5.586   4.246   0.221
 5762SOL    HW218186   5.557   4.316   0.076
 5763SOL     OW18187   5.078   0.159   0.497
 5763SOL    HW118188   5.070   0.241   0.440
 5763SOL    HW218189   4.991   0.142   0.544
 5764SOL     OW18190   4.305   5.361   3.600
 5764SOL    HW118191   4.372   5.287   3.613
 5764SOL    HW218192   4.340   5.445   3.641
 5765SOL     OW18193   6.650   5.111   0.875
 5765SOL    HW118194   6.632   5.049   0.799
 5765SOL    HW218195   6.729   5.078   0.927
 5766SOL     OW18196   1.477   1.759   4.881
 5766SOL    HW118197   1.398   1.816   4.903
 5766SOL    HW218198   1.495   1.763   4.782
 5767SOL     OW18199   1.678   0.662   0.528
 5767SOL    HW118200   1.763   0.663   0.476
 5767SOL    HW218201   1.601   0.650   0.465
 5768SOL     OW18202   6.974   0.009   3.441
 5768SOL    HW118203   0.019   6.981   3.496
 5768SOL    HW218204   6.983   7.003   3.345
 5769SOL     OW18205   2.121   5.440   6.612
 5769SOL    HW118206   2.093   5.485   6.696
 5769SOL    HW218207   2.109   5.502   6.535
 5770SOL     OW18208   0.804   6.240   0.303
 5770SOL    HW118209   0.811   6.333   0.267
 5770SOL    HW218210   0.895   6.200   0.313
 5771SOL     OW18211   1.996   5.792   3.768
 5771SOL    HW118212   2.085   5.836   3.755
 5771SOL    HW218213   1.934   5.821   3.696
 5772SOL     OW18214   4.786   0.841   1.757
 5772SOL    HW118215   4.717   0.907   1.728
 5772SOL    HW218216   4.875   0.866   1.719
 5773SOL     OW18217   5.064   2.186   2.565
 5773SOL    HW118218   5.021   2.262   2.517
 5773SOL    HW218219   5.093   2.217   2.656
 5774SOL     OW18220   1.487   6.813   4.579
 5774SOL    HW118221   1.428   6.891   4.598
 5774SOL    HW218222   1.492   6.798   4.480
 5775SOL     OW18223   0.576   5.812   2.793
 5775SOL    HW118224   0.490   5.846   2.831
 5775SOL    HW218225   0.569   5.714   2.776
 5776SOL     OW18226   1.611   0.554   2.879
 5776SOL    HW118227   1.700   0.548   2.834
 5776SOL    HW218228   1.624   0.579   2.975
 5777SOL     OW18229   1.434   0.267   3.154
 5777SOL    HW118230   1.335   0.267   3.165
 5777SOL    HW218231   1.458   0.232   3.064
 5778SOL     OW18232   1.088   1.209   6.824
 5778SOL    HW118233   1.187   1.202   6.834
 5778SOL    HW218234   1.051   1.122   6.791
 5779SOL     OW18235   4.912   2.494   6.964
 5779SOL    HW118236   5.011   2.501   6.974
 5779SOL    HW218237   4.889   2.473   6.869
 5780SOL     OW18238   5.861   5.773   4.392
 5780SOL    HW118239   5.822   5.822   4.470
 5780SOL    HW218240   5.821   5.682   4.387
 5781SOL     OW18241   6.620   4.567   5.208
 5781SOL    HW118242   6.708   4.583   5.253
 5781SOL    HW218243   6.549   4.555   5.278
 5782SOL     OW18244   0.580   1.469   0.373
 5782SOL    HW118245   0.595   1.439   0.467
 5782SOL    HW218246   0.495   1.430   0.339
 5783SOL     OW18247   1.502   1.557   2.150
 5783SOL    HW118248   1.417   1.559   2.097
 5783SOL    HW218249   1.566   1.493   2.108
 5784SOL     OW18250   0.528   5.849   6.736
 5784SOL    HW118251   0.471   5.808   6.665
 5784SOL    HW218252   0.556   5.780   6.802
 5785SOL     OW18253   2.796   1.911   0.208
 5785SOL    HW118254   2.733   1.954   0.273
 5785SOL    HW218255   2.823   1.821   0.242
 5786SOL     OW18256   6.485   4.328   0.391
 5786SOL    HW118257   6.419   4.263   0.428
 5786SOL    HW218258   6.491   4.316   0.292
 5787SOL     OW18259   2.040   1.969   5.675
 5787SOL    HW118260   1.949   1.943   5.642
 5787SOL    HW218261   2.050   1.938   5.770
 5788SOL     OW18262   2.451   1.367   2.630
 5788SOL    HW118263   2.422   1.359   2.725
 5788SOL    HW218264   2.372   1.357   2.570
 5789SOL     OW18265   3.442   5.022   6.481
 5789SOL    HW118266   3.361   5.078   6.499
 5789SOL    HW218267   3.524   5.073   6.506
 5790SOL     OW18268   0.149   3.447   4.231
 5790SOL    HW118269   0.232   3.427   4.179
 5790SOL    HW218270   0.173   3.464   4.326
 5791SOL     OW18271   3.388   0.428   2.233
 5791SOL    HW118272   3.335   0.439   2.149
 5791SOL    HW218273   3.383   0.333   2.263
 5792SOL     OW18274   0.835   2.595   3.054
 5792SOL    HW118275   0.738   2.591   3.028
 5792SOL    HW218276   0.845   2.658   3.131
 5793SOL     OW18277   6.022   1.323   3.559
 5793SOL    HW118278   6.108   1.284   3.591
 5793SOL    HW218279   5.947   1.261   3.581
 5794SOL     OW18280   3.830   2.347   0.536
 5794SOL    HW118281   3.851   2.312   0.444
 5794SOL    HW218282   3.831   2.271   0.601
 5795SOL     OW18283   5.866   5.320   5.695
 5795SOL    HW118284   5.878   5.370   5.781
 5795SOL    HW218285   5.812   5.237   5.712
 5796SOL     OW18286   3.830   0.906   0.076
 5796SOL    HW118287   3.735   0.904   0.045
 5796SOL    HW218288   3.884   0.963   0.014
 5797SOL     OW18289   4.232   1.474   4.592
 5797SOL    HW118290   4.268   1.452   4.502
 5797SOL    HW218291   4.186   1.563   4.589
 5798SOL     OW18292   0.484   3.970   5.723
 5798SOL    HW118293   0.414   4.036   5.751
 5798SOL    HW218294   0.472   3.949   5.626
 5799SOL     OW18295   5.527   0.733   4.135
 5799SOL    HW118296   5.433   0.757   4.113
 5799SOL    HW218297   5.547   0.641   4.101
 5800SOL     OW18298   5.621   6.154   0.922
 5800SOL    HW118299   5.557   6.216   0.877
 5800SOL    HW218300   5.572   6.075   0.958
 5801SOL     OW18301   0.931   1.942   4.299
 5801SOL    HW118302   1.004   1.927   4.232
 5801SOL    HW218303   0.849   1.976   4.252
 5802SOL     OW18304   0.748   4.469   7.022
 5802SOL    HW118305   0.758   4.379   0.042
 5802SOL    HW218306   0.686   4.526   0.054
 5803SOL     OW18307   1.606   5.012   1.487
 5803SOL    HW118308   1.687   4.954   1.497
 5803SOL    HW218309   1.591   5.031   1.390
 5804SOL     OW18310   6.252   4.204   3.724
 5804SOL    HW118311   6.331   4.266   3.715
 5804SOL    HW218312   6.169   4.258   3.738
 5805SOL     OW18313   3.954   4.364   6.972
 5805SOL    HW118314   4.046   4.394   6.947
 5805SOL    HW218315   3.955   4.265   6.990
 5806SOL     OW18316   0.512   6.407   6.667
 5806SOL    HW118317   0.504   6.452   6.578
 5806SOL    HW218318   0.489   6.310   6.658
 5807SOL     OW18319   1.603   3.652   1.723
 5807SOL    HW118320   1.686   3.605   1.694
 5807SOL    HW218321   1.602   3.660   1.822
 5808SOL     OW18322   5.616   4.118   3.191
 5808SOL    HW118323   5.646   4.028   3.160
 5808SOL    HW218324   5.639   4.187   3.122
 5809SOL     OW18325   6.975   2.862   4.534
 5809SOL    HW118326   6.940   2.838   4.624
 5809SOL    HW218327   6.948   2.792   4.468
 5810SOL     OW18328   2.921   0.841   4.082
 5810SOL    HW118329   2.964   0.930   4.067
 5810SOL    HW218330   2.868   0.816   4.002
 5811SOL     OW18331   3.196   0.624   4.831
 5811SOL    HW118332   3.189   0.699   4.765
 5811SOL    HW218333   3.222   0.660   4.920
 5812SOL     OW18334   5.187   0.101   4.580
 5812SOL    HW118335   5.133   0.075   4.500
 5812SOL    HW218336   5.168   0.196   4.604
 5813SOL     OW18337   1.366   1.289   6.470
 5813SOL    HW118338   1.441   1.340   6.427
 5813SOL    HW218339   1.337   1.215   6.410
 5814SOL     OW18340   6.356   4.429   0.732
 5814SOL    HW118341   6.400   4.342   0.713
 5814SOL    HW218342   6.355   4.485   0.649
 5815SOL     OW18343   4.396   2.307   3.795
 5815SOL    HW118344   4.305   2.290   3.759
 5815SOL    HW218345   4.456   2.229   3.772
 5816SOL     OW18346   5.058   6.373   0.598
 5816SOL    HW118347   4.993   6.401   0.669
 5816SOL    HW218348   5.134   6.323   0.640
 5817SOL     OW18349   5.333   3.119   5.869
 5817SOL    HW118350   5.426   3.153   5.881
 5817SOL    HW218351   5.269   3.172   5.924
 5818SOL     OW18352   0.104   6.280   4.600
 5818SOL    HW118353   0.058   6.243   4.681
 5818SOL    HW218354   0.106   6.210   4.528
 5819SOL     OW18355   4.265   0.497   0.272
 5819SOL    HW118356   4.316   0.473   0.354
 5819SOL    HW218357   4.330   0.518   0.198
 5820SOL     OW18358   4.497   7.012   3.739
 5820SOL    HW118359   4.516   0.085   3.716
 5820SOL    HW218360   4.443   7.008   3.822
 5821SOL     OW18361   1.520   0.209   2.615
 5821SOL    HW118362   1.571   0.123   2.617
 5821SOL    HW218363   1.442   0.201   2.553
 5822SOL     OW18364   0.413   1.892   2.045
 5822SOL    HW118365   0.437   1.909   2.141
 5822SOL    HW218366   0.345   1.819   2.039
 5823SOL     OW18367   0.815   1.115   5.523
 5823SOL    HW118368   0.912   1.126   5.544
 5823SOL    HW218369   0.797   1.020   5.498
 5824SOL     OW18370   6.973   6.316   2.717
 5824SOL    HW118371   6.981   6.331   2.815
 5824SOL    HW218372   6.929   6.395   2.674
 5825SOL     OW18373   2.264   2.404   5.659
 5825SOL    HW118374   2.199   2.341   5.617
 5825SOL    HW218375   2.354   2.361   5.664
 5826SOL     OW18376   0.133   5.727   5.417
 5826SOL    HW118377   0.197   5.714   5.493
 5826SOL    HW218378   0.100   5.637   5.386
 5827SOL     OW18379   1.704   4.978   4.440
 5827SOL    HW118380   1.614   4.942   4.415
 5827SOL    HW218381   1.751   5.010   4.358
 5828SOL     OW18382   6.897   3.143   2.030
 5828SOL    HW118383   6.953   3.219   1.997
 5828SOL    HW218384   6.815   3.136   1.972
 5829SOL     OW18385   2.833   1.534   3.074
 5829SOL    HW118386   2.824   1.446   3.028
 5829SOL    HW218387   2.803   1.608   3.013
 5830SOL     OW18388   3.892   0.600   5.335
 5830SOL    HW118389   3.866   0.543   5.257
 5830SOL    HW218390   3.835   0.576   5.414
 5831SOL     OW18391   6.864   0.210   4.385
 5831SOL    HW118392   6.790   0.157   4.425
 5831SOL    HW218393   6.851   0.218   4.287
 5832SOL     OW18394   3.967   4.000   5.647
 5832SOL    HW118395   3.918   4.072   5.696
 5832SOL    HW218396   4.065   4.014   5.657
 5833SOL     OW18397   3.622   3.134   4.568
 5833SOL    HW118398   3.547   3.088   4.519
 5833SOL    HW218399   3.705   3.079   4.558
 5834SOL     OW18400   6.167   1.982   0.743
 5834SOL    HW118401   6.071   1.994   0.719
 5834SOL    HW218402   6.175   1.957   0.840
 5835SOL     OW18403   5.119   2.678   2.724
 5835SOL    HW118404   5.193   2.731   2.768
 5835SOL    HW218405   5.123   2.691   2.625
 5836SOL     OW18406   2.569   6.588   3.360
 5836SOL    HW118407   2.525   6.529   3.293
 5836SOL    HW218408   2.506   6.609   3.434
 5837SOL     OW18409   4.529   4.618   6.214
 5837SOL    HW118410   4.523   4.697   6.153
 5837SOL    HW218411   4.520   4.649   6.309
 5838SOL     OW18412   2.227   1.374   5.654
 5838SOL    HW118413   2.308   1.340   5.606
 5838SOL    HW218414   2.237   1.472   5.671
 5839SOL     OW18415   0.726   2.725   2.424
 5839SOL    HW118416   0.626   2.731   2.425
 5839SOL    HW218417   0.754   2.629   2.432
 5840SOL     OW18418   1.516   5.384   6.797
 5840SOL    HW118419   1.576   5.312   6.763
 5840SOL    HW218420   1.421   5.352   6.796
 5841SOL     OW18421   5.940   2.912   2.268
 5841SOL    HW118422   5.983   2.998   2.295
 5841SOL    HW218423   5.906   2.920   2.174
 5842SOL     OW18424   4.255   3.363   1.275
 5842SOL    HW118425   4.278   3.447   1.324
 5842SOL    HW218426   4.223   3.294   1.340
 5843SOL     OW18427   2.155   3.963   2.515
 5843SOL    HW118428   2.167   3.932   2.421
 5843SOL    HW218429   2.219   4.037   2.534
 5844SOL     OW18430   0.180   6.989   5.713
 5844SOL    HW118431   0.271   0.000   5.739
 5844SOL    HW218432   0.165   6.899   5.753
 5845SOL     OW18433   0.857   0.691   2.763
 5845SOL    HW118434   0.900   0.673   2.674
 5845SOL    HW218435   0.868   0.787   2.786
 5846SOL     OW18436   6.620   3.219   4.868
 5846SOL    HW118437   6.579   3.142   4.819
 5846SOL    HW218438   6.670   3.277   4.804
 5847SOL     OW18439   2.101   1.803   2.431
 5847SOL    HW118440   2.066   1.893   2.404
 5847SOL    HW218441   2.024   1.742   2.448
 5848SOL     OW18442   2.506   4.518   3.408
 5848SOL    HW118443   2.555   4.582   3.349
 5848SOL    HW218444   2.507   4.552   3.502
 5849SOL     OW18445   6.982   0.808   6.056
 5849SOL    HW118446   6.967   0.861   5.972
 5849SOL    HW218447   0.042   0.753   6.047
 5850SOL     OW18448   1.231   3.124   2.019
 5850SOL    HW118449   1.254   3.041   2.069
 5850SOL    HW218450   1.182   3.187   2.079
 5851SOL     OW18451   4.920   3.258   3.108
 5851SOL    HW118452   5.009   3.295   3.082
 5851SOL    HW218453   4.932   3.191   3.181
 5852SOL     OW18454   4.964   6.443   2.793
 5852SOL    HW118455   4.971   6.385   2.712
 5852SOL    HW218456   5.046   6.501   2.798
 5853SOL     OW18457   3.361   6.240   5.660
 5853SOL    HW118458   3.308   6.160   5.688
 5853SOL    HW218459   3.448   6.243   5.708
 5854SOL     OW18460   6.328   3.515   6.262
 5854SOL    HW118461   6.376   3.429   6.278
 5854SOL    HW218462   6.313   3.562   6.349
 5855SOL     OW18463   0.545   0.626   5.020
 5855SOL    HW118464   0.608   0.549   5.029
 5855SOL    HW218465   0.505   0.646   5.110
 5856SOL     OW18466   2.354   5.091   3.893
 5856SOL    HW118467   2.300   5.048   3.821
 5856SOL    HW218468   2.337   5.190   3.893
 5857SOL     OW18469   5.217   2.885   4.938
 5857SOL    HW118470   5.268   2.832   4.871
 5857SOL    HW218471   5.227   2.844   5.029
 5858SOL     OW18472   2.592   2.467   2.111
 5858SOL    HW118473   2.611   2.501   2.019
 5858SOL    HW218474   2.654   2.392   2.132
 5859SOL     OW18475   5.525   6.538   0.877
 5859SOL    HW118476   5.495   6.624   0.918
 5859SOL    HW218477   5.607   6.505   0.925
 5860SOL     OW18478   2.121   3.597   1.783
 5860SOL    HW118479   2.170   3.550   1.856
 5860SOL    HW218480   2.185   3.653   1.730
 5861SOL     OW18481   5.540   1.345   3.751
 5861SOL    HW118482   5.443   1.324   3.755
 5861SOL    HW218483   5.589   1.290   3.818
 5862SOL     OW18484   4.355   5.075   3.119
 5862SOL    HW118485   4.265   5.046   3.151
 5862SOL    HW218486   4.378   5.163   3.160
 5863SOL     OW18487   3.071   0.779   5.258
 5863SOL    HW118488   3.147   0.781   5.193
 5863SOL    HW218489   3.002   0.715   5.227
 5864SOL     OW18490   4.024   4.166   1.702
 5864SOL    HW118491   3.975   4.173   1.789
 5864SOL    HW218492   4.037   4.069   1.679
 5865SOL     OW18493   5.286   0.341   4.064
 5865SOL    HW118494   5.244   0.360   4.153
 5865SOL    HW218495   5.231   0.385   3.992
 5866SOL     OW18496   3.750   6.150   6.264
 5866SOL    HW118497   3.780   6.244   6.281
 5866SOL    HW218498   3.742   6.102   6.351
 5867SOL     OW18499   0.440   3.267   0.845
 5867SOL    HW118500   0.418   3.228   0.756
 5867SOL    HW218501   0.359   3.312   0.883
 5868SOL     OW18502   7.009   0.714   4.911
 5868SOL    HW118503   7.005   0.732   4.813
 5868SOL    HW218504   6.955   0.783   4.960
 5869SOL     OW18505   1.773   5.187   3.646
 5869SOL    HW118506   1.817   5.218   3.730
 5869SOL    HW218507   1.827   5.216   3.567
 5870SOL     OW18508   4.900   5.747   5.212
 5870SOL    HW118509   4.961   5.793   5.277
 5870SOL    HW218510   4.857   5.668   5.255
 5871SOL     OW18511   4.376   3.842   0.647
 5871SOL    HW118512   4.450   3.841   0.714
 5871SOL    HW218513   4.339   3.749   0.636
 5872SOL     OW18514   4.164   5.319   6.875
 5872SOL    HW118515   4.126   5.411   6.865
 5872SOL    HW218516   4.180   5.299   6.972
 5873SOL     OW18517   1.853   2.625   0.638
 5873SOL    HW118518   1.876   2.570   0.719
 5873SOL    HW218519   1.755   2.646   0.639
 5874SOL     OW18520   2.985   2.911   1.198
 5874SOL    HW118521   2.965   3.000   1.240
 5874SOL    HW218522   3.057   2.865   1.249
 5875SOL     OW18523   3.972   1.461   0.257
 5875SOL    HW118524   4.031   1.444   0.178
 5875SOL    HW218525   3.979   1.385   0.321
 5876SOL     OW18526   3.526   2.847   6.617
 5876SOL    HW118527   3.596   2.850   6.546
 5876SOL    HW218528   3.452   2.785   6.587
 5877SOL     OW18529   6.228   6.663   1.113
 5877SOL    HW118530   6.182   6.744   1.079
 5877SOL    HW218531   6.262   6.609   1.035
 5878SOL     OW18532   5.568   6.009   3.141
 5878SOL    HW118533   5.580   6.095   3.092
 5878SOL    HW218534   5.577   6.025   3.239
 5879SOL     OW18535   3.388   2.676   6.004
 5879SOL    HW118536   3.342   2.745   6.059
 5879SOL    HW218537   3.423   2.718   5.920
 5880SOL     OW18538   4.629   4.037   5.785
 5880SOL    HW118539   4.649   3.963   5.849
 5880SOL    HW218540   4.693   4.113   5.799
 5881SOL     OW18541   1.073   6.816   2.741
 5881SOL    HW118542   1.146   6.876   2.709
 5881SOL    HW218543   0.999   6.813   2.673
 5882SOL     OW18544   1.416   6.774   5.847
 5882SOL    HW118545   1.317   6.786   5.856
 5882SOL    HW218546   1.441   6.780   5.750
 5883SOL     OW18547   0.204   2.526   0.183
 5883SOL    HW118548   0.180   2.587   0.258
 5883SOL    HW218549   0.192   2.431   0.213
 5884SOL     OW18550   6.588   0.630   4.433
 5884SOL    HW118551   6.669   0.574   4.454
 5884SOL    HW218552   6.593   0.716   4.484
 5885SOL     OW18553   0.687   5.808   0.287
 5885SOL    HW118554   0.753   5.847   0.223
 5885SOL    HW218555   0.710   5.836   0.380
 5886SOL     OW18556   1.252   3.188   3.596
 5886SOL    HW118557   1.232   3.157   3.689
 5886SOL    HW218558   1.169   3.183   3.540
 5887SOL     OW18559   2.509   1.952   1.725
 5887SOL    HW118560   2.540   2.041   1.694
 5887SOL    HW218561   2.469   1.960   1.816
 5888SOL     OW18562   2.959   0.296   0.804
 5888SOL    HW118563   3.053   0.317   0.776
 5888SOL    HW218564   2.961   0.240   0.887
 5889SOL     OW18565   0.207   1.663   1.405
 5889SOL    HW118566   0.185   1.584   1.348
 5889SOL    HW218567   0.165   1.651   1.495
 5890SOL     OW18568   2.175   6.771   2.237
 5890SOL    HW118569   2.124   6.702   2.289
 5890SOL    HW218570   2.116   6.811   2.168
 5891SOL     OW18571   2.892   3.241   0.519
 5891SOL    HW118572   2.961   3.308   0.543
 5891SOL    HW218573   2.824   3.236   0.593
 5892SOL     OW18574   0.351   4.370   1.097
 5892SOL    HW118575   0.414   4.365   1.019
 5892SOL    HW218576   0.258   4.380   1.063
 5893SOL     OW18577   1.185   5.176   1.007
 5893SOL    HW118578   1.241   5.218   0.935
 5893SOL    HW218579   1.184   5.077   0.993
 5894SOL     OW18580   0.877   5.979   5.617
 5894SOL    HW118581   0.957   5.927   5.586
 5894SOL    HW218582   0.853   6.047   5.548
 5895SOL     OW18583   6.169   3.180   4.309
 5895SOL    HW118584   6.112   3.099   4.297
 5895SOL    HW218585   6.160   3.214   4.402
 5896SOL     OW18586   5.522   1.045   1.609
 5896SOL    HW118587   5.457   1.118   1.631
 5896SOL    HW218588   5.610   1.064   1.653
 5897SOL     OW18589   3.979   1.773   1.769
 5897SOL    HW118590   3.879   1.777   1.762
 5897SOL    HW218591   4.013   1.850   1.822
 5898SOL     OW18592   2.425   2.027   5.854
 5898SOL    HW118593   2.444   2.124   5.834
 5898SOL    HW218594   2.391   1.982   5.772
 5899SOL     OW18595   0.342   5.281   5.812
 5899SOL    HW118596   0.399   5.358   5.842
 5899SOL    HW218597   0.268   5.314   5.754
 5900SOL     OW18598   0.341   5.033   2.838
 5900SOL    HW118599   0.369   4.939   2.817
 5900SOL    HW218600   0.422   5.091   2.842
 5901SOL     OW18601   0.840   0.726   0.097
 5901SOL    HW118602   0.759   0.776   0.067
 5901SOL    HW218603   0.921   0.763   0.052
 5902SOL     OW18604   5.570   3.369   4.813
 5902SOL    HW118605   5.660   3.365   4.858
 5902SOL    HW218606   5.570   3.443   4.746
 5903SOL     OW18607   5.412   3.117   6.919
 5903SOL    HW118608   5.384   3.024   6.892
 5903SOL    HW218609   5.511   3.119   6.935
 5904SOL     OW18610   1.223   4.615   1.227
 5904SOL    HW118611   1.287   4.593   1.300
 5904SOL    HW218612   1.171   4.697   1.251
 5905SOL     OW18613   5.455   0.893   3.592
 5905SOL    HW118614   5.420   0.806   3.558
 5905SOL    HW218615   5.463   0.958   3.516
 5906SOL     OW18616   5.736   1.626   5.081
 5906SOL    HW118617   5.799   1.550   5.064
 5906SOL    HW218618   5.643   1.596   5.061
 5907SOL     OW18619   1.493   0.707   0.328
 5907SOL    HW118620   1.411   0.753   0.361
 5907SOL    HW218621   1.468   0.630   0.270
 5908SOL     OW18622   4.708   3.691   0.364
 5908SOL    HW118623   4.651   3.734   0.294
 5908SOL    HW218624   4.770   3.625   0.321
 5909SOL     OW18625   0.791   4.095   5.325
 5909SOL    HW118626   0.810   4.084   5.227
 5909SOL    HW218627   0.696   4.122   5.337
 5910SOL     OW18628   1.266   4.038   1.229
 5910SOL    HW118629   1.334   4.084   1.171
 5910SOL    HW218630   1.285   3.940   1.230
 5911SOL     OW18631   0.263   5.848   6.158
 5911SOL    HW118632   0.276   5.844   6.257
 5911SOL    HW218633   0.314   5.925   6.121
 5912SOL     OW18634   5.921   3.544   6.892
 5912SOL    HW118635   5.868   3.614   6.846
 5912SOL    HW218636   6.017   3.550   6.863
 5913SOL     OW18637   2.137   2.620   5.490
 5913SOL    HW118638   2.135   2.539   5.548
 5913SOL    HW218639   2.066   2.684   5.520
 5914SOL     OW18640   2.815   5.857   6.969
 5914SOL    HW118641   2.848   5.764   6.951
 5914SOL    HW218642   2.880   5.924   6.933
 5915SOL     OW18643   5.345   2.719   2.541
 5915SOL    HW118644   5.266   2.778   2.528
 5915SOL    HW218645   5.347   2.650   2.468
 5916SOL     OW18646   4.635   0.371   5.875
 5916SOL    HW118647   4.537   0.389   5.868
 5916SOL    HW218648   4.675   0.368   5.784
 5917SOL     OW18649   3.910   3.050   3.995
 5917SOL    HW118650   3.819   3.080   3.967
 5917SOL    HW218651   3.905   3.005   4.083
 5918SOL     OW18652   1.595   3.603   4.438
 5918SOL    HW118653   1.522   3.651   4.487
 5918SOL    HW218654   1.677   3.601   4.495
 5919SOL     OW18655   2.975   2.030   0.856
 5919SOL    HW118656   2.991   2.113   0.911
 5919SOL    HW218657   3.003   1.950   0.909
 5920SOL     OW18658   3.515   6.932   0.095
 5920SOL    HW118659   3.586   6.862   0.102
 5920SOL    HW218660   3.430   6.898   0.135
 5921SOL     OW18661   3.946   5.149   5.134
 5921SOL    HW118662   3.965   5.126   5.229
 5921SOL    HW218663   4.020   5.205   5.097
 5922SOL     OW18664   6.647   4.654   3.038
 5922SOL    HW118665   6.555   4.616   3.040
 5922SOL    HW218666   6.642   4.754   3.038
 5923SOL     OW18667   6.568   0.338   3.396
 5923SOL    HW118668   6.584   0.345   3.495
 5923SOL    HW218669   6.648   0.374   3.347
 5924SOL     OW18670   5.292   2.643   4.859
 5924SOL    HW118671   5.367   2.577   4.851
 5924SOL    HW218672   5.232   2.615   4.933
 5925SOL     OW18673   4.435   5.835   3.091
 5925SOL    HW118674   4.450   5.855   2.994
 5925SOL    HW218675   4.501   5.765   3.121
 5926SOL     OW18676   3.300   5.295   2.018
 5926SOL    HW118677   3.336   5.238   2.091
 5926SOL    HW218678   3.360   5.375   2.005
 5927SOL     OW18679   2.784   5.743   1.441
 5927SOL    HW118680   2.883   5.753   1.451
 5927SOL    HW218681   2.750   5.678   1.508
 5928SOL     OW18682   2.260   0.896   2.063
 5928SOL    HW118683   2.220   0.810   2.094
 5928SOL    HW218684   2.317   0.935   2.135
 5929SOL     OW18685   0.979   6.594   5.639
 5929SOL    HW118686   1.013   6.527   5.705
 5929SOL    HW218687   0.880   6.601   5.648
 5930SOL     OW18688   6.257   1.342   4.153
 5930SOL    HW118689   6.172   1.393   4.139
 5930SOL    HW218690   6.329   1.379   4.095
 5931SOL     OW18691   6.041   5.373   1.911
 5931SOL    HW118692   5.998   5.387   2.000
 5931SOL    HW218693   6.131   5.331   1.924
 5932SOL     OW18694   2.239   6.468   0.695
 5932SOL    HW118695   2.335   6.451   0.715
 5932SOL    HW218696   2.192   6.381   0.679
 5933SOL     OW18697   0.010   3.983   2.038
 5933SOL    HW118698   0.017   4.013   2.134
 5933SOL    HW218699   0.057   3.896   2.028
 5934SOL     OW18700   4.163   3.489   3.000
 5934SOL    HW118701   4.106   3.445   3.069
 5934SOL    HW218702   4.213   3.419   2.949
 5935SOL     OW18703   3.718   4.044   4.587
 5935SOL    HW118704   3.739   3.972   4.654
 5935SOL    HW218705   3.619   4.053   4.578
 5936SOL     OW18706   4.526   4.391   6.906
 5936SOL    HW118707   4.572   4.305   6.930
 5936SOL    HW218708   4.471   4.377   6.824
 5937SOL     OW18709   1.052   3.494   1.630
 5937SOL    HW118710   1.092   3.427   1.692
 5937SOL    HW218711   1.123   3.559   1.601
 5938SOL     OW18712   1.580   4.969   3.564
 5938SOL    HW118713   1.526   4.951   3.646
 5938SOL    HW218714   1.649   5.039   3.585
 5939SOL     OW18715   3.039   0.532   3.043
 5939SOL    HW118716   2.953   0.547   3.092
 5939SOL    HW218717   3.086   0.619   3.031
 5940SOL     OW18718   3.760   6.752   2.200
 5940SOL    HW118719   3.837   6.785   2.144
 5940SOL    HW218720   3.674   6.766   2.150
 5941SOL     OW18721   6.124   4.916   1.926
 5941SOL    HW118722   6.202   4.854   1.918
 5941SOL    HW218723   6.101   4.952   1.836
 5942SOL     OW18724   4.118   3.105   6.763
 5942SOL    HW118725   4.198   3.165   6.775
 5942SOL    HW218726   4.038   3.147   6.806
 5943SOL     OW18727   2.482   6.157   0.516
 5943SOL    HW118728   2.510   6.194   0.428
 5943SOL    HW218729   2.385   6.133   0.512
 5944SOL     OW18730   5.380   1.422   1.526
 5944SOL    HW118731   5.410   1.423   1.430
 5944SOL    HW218732   5.364   1.328   1.555
 5945SOL     OW18733   6.894   4.844   5.312
 5945SOL    HW118734   6.913   4.751   5.342
 5945SOL    HW218735   6.799   4.867   5.332
 5946SOL     OW18736   3.090   3.906   6.017
 5946SOL    HW118737   3.109   3.991   5.967
 5946SOL    HW218738   3.174   3.852   6.021
 5947SOL     OW18739   4.153   3.118   1.817
 5947SOL    HW118740   4.087   3.088   1.748
 5947SOL    HW218741   4.105   3.167   1.890
 5948SOL     OW18742   3.753   5.106   2.778
 5948SOL    HW118743   3.665   5.109   2.826
 5948SOL    HW218744   3.819   5.054   2.833
 5949SOL     OW18745   3.633   4.644   1.041
 5949SOL    HW118746   3.542   4.675   1.015
 5949SOL    HW218747   3.661   4.568   0.981
 5950SOL     OW18748   5.591   2.099   4.521
 5950SOL    HW118749   5.613   2.186   4.477
 5950SOL    HW218750   5.602   2.025   4.455
 5951SOL     OW18751   1.463   6.599   4.738
 5951SOL    HW118752   1.448   6.685   4.688
 5951SOL    HW218753   1.516   6.537   4.681
 5952SOL     OW18754   6.358   6.110   3.759
 5952SOL    HW118755   6.339   6.090   3.663
 5952SOL    HW218756   6.372   6.024   3.808
 5953SOL     OW18757   6.972   3.216   5.134
 5953SOL    HW118758   0.012   3.212   5.212
 5953SOL    HW218759   6.934   3.125   5.117
 5954SOL     OW18760   6.792   4.749   5.668
 5954SOL    HW118761   6.716   4.783   5.724
 5954SOL    HW218762   6.848   4.826   5.638
 5955SOL     OW18763   5.650   5.602   2.127
 5955SOL    HW118764   5.634   5.527   2.191
 5955SOL    HW218765   5.748   5.625   2.127
 5956SOL     OW18766   3.958   1.784   7.009
 5956SOL    HW118767   3.864   1.761   0.012
 5956SOL    HW218768   4.021   1.720   0.030
 5957SOL     OW18769   4.938   6.493   6.008
 5957SOL    HW118770   5.002   6.550   5.956
 5957SOL    HW218771   4.980   6.404   6.027
 5958SOL     OW18772   6.384   6.328   2.075
 5958SOL    HW118773   6.361   6.347   2.171
 5958SOL    HW218774   6.451   6.254   2.071
 5959SOL     OW18775   3.020   2.197   5.632
 5959SOL    HW118776   3.050   2.166   5.542
 5959SOL    HW218777   2.925   2.169   5.647
 5960SOL     OW18778   3.253   0.083   4.285
 5960SOL    HW118779   3.351   0.101   4.287
 5960SOL    HW218780   3.236   7.009   4.264
 5961SOL     OW18781   4.000   0.803   4.000
 5961SOL    HW118782   3.973   0.721   3.950
 5961SOL    HW218783   4.016   0.780   4.096
 5962SOL     OW18784   5.261   5.570   2.475
 5962SOL    HW118785   5.261   5.472   2.499
 5962SOL    HW218786   5.186   5.616   2.522
 5963SOL     OW18787   3.198   3.784   3.743
 5963SOL    HW118788   3.275   3.735   3.786
 5963SOL    HW218789   3.213   3.788   3.645
 5964SOL     OW18790   6.764   5.335   6.526
 5964SOL    HW118791   6.818   5.418   6.540
 5964SOL    HW218792   6.677   5.343   6.574
 5965SOL     OW18793   1.750   2.000   6.734
 5965SOL    HW118794   1.808   2.082   6.734
 5965SOL    HW218795   1.762   1.952   6.647
 5966SOL     OW18796   3.212   5.322   5.023
 5966SOL    HW118797   3.269   5.316   4.941
 5966SOL    HW218798   3.203   5.418   5.051
 5967SOL     OW18799   4.057   6.674   2.485
 5967SOL    HW118800   3.993   6.599   2.463
 5967SOL    HW218801   4.068   6.732   2.405
 5968SOL     OW18802   6.112   2.211   3.117
 5968SOL    HW118803   6.190   2.152   3.133
 5968SOL    HW218804   6.032   2.156   3.094
 5969SOL     OW18805   6.371   2.998   4.802
 5969SOL    HW118806   6.431   2.919   4.818
 5969SOL    HW218807   6.290   2.969   4.751
 5970SOL     OW18808   0.910   3.911   2.137
 5970SOL    HW118809   0.960   3.840   2.087
 5970SOL    HW218810   0.971   3.986   2.160
 5971SOL     OW18811   1.664   0.077   3.265
 5971SOL    HW118812   1.581   0.098   3.317
 5971SOL    HW218813   1.737   0.139   3.293
 5972SOL     OW18814   4.670   6.246   0.684
 5972SOL    HW118815   4.714   6.188   0.753
 5972SOL    HW218816   4.583   6.281   0.720
 5973SOL     OW18817   1.771   5.199   2.413
 5973SOL    HW118818   1.716   5.231   2.490
 5973SOL    HW218819   1.818   5.115   2.439
 5974SOL     OW18820   6.396   3.912   6.399
 5974SOL    HW118821   6.321   3.851   6.376
 5974SOL    HW218822   6.360   4.003   6.420
 5975SOL     OW18823   4.005   2.647   1.055
 5975SOL    HW118824   4.045   2.566   1.011
 5975SOL    HW218825   3.980   2.625   1.149
 5976SOL     OW18826   3.421   3.003   4.425
 5976SOL    HW118827   3.437   2.905   4.409
 5976SOL    HW218828   3.344   3.033   4.368
 5977SOL     OW18829   1.336   4.612   1.716
 5977SOL    HW118830   1.400   4.604   1.639
 5977SOL    HW218831   1.294   4.523   1.733
 5978SOL     OW18832   4.894   4.331   2.875
 5978SOL    HW118833   4.957   4.279   2.932
 5978SOL    HW218834   4.818   4.365   2.930
 5979SOL     OW18835   6.258   0.124   3.367
 5979SOL    HW118836   6.285   0.220   3.375
 5979SOL    HW218837   6.332   0.066   3.401
 5980SOL     OW18838   4.311   4.343   0.165
 5980SOL    HW118839   4.407   4.325   0.140
 5980SOL    HW218840   4.259   4.362   0.082
 5981SOL     OW18841   6.836   1.724   1.976
 5981SOL    HW118842   6.867   1.772   2.058
 5981SOL    HW218843   6.740   1.746   1.959
 5982SOL     OW18844   6.032   2.070   6.530
 5982SOL    HW118845   6.043   1.971   6.536
 5982SOL    HW218846   6.040   2.111   6.621
 5983SOL     OW18847   2.048   1.677   4.288
 5983SOL    HW118848   1.978   1.656   4.220
 5983SOL    HW218849   2.007   1.728   4.363
 5984SOL     OW18850   0.275   6.491   4.690
 5984SOL    HW118851   0.262   6.398   4.657
 5984SOL    HW218852   0.188   6.526   4.726
 5985SOL     OW18853   5.323   2.046   3.541
 5985SOL    HW118854   5.323   2.120   3.473
 5985SOL    HW218855   5.392   1.978   3.516
 5986SOL     OW18856   3.437   3.202   3.730
 5986SOL    HW118857   3.420   3.131   3.662
 5986SOL    HW218858   3.362   3.269   3.727
 5987SOL     OW18859   4.609   0.605   5.173
 5987SOL    HW118860   4.629   0.622   5.270
 5987SOL    HW218861   4.693   0.576   5.127
 5988SOL     OW18862   4.138   6.773   4.782
 5988SOL    HW118863   4.188   6.698   4.825
 5988SOL    HW218864   4.183   6.798   4.696
 5989SOL     OW18865   2.517   6.288   6.528
 5989SOL    HW118866   2.482   6.347   6.455
 5989SOL    HW218867   2.551   6.344   6.603
 5990SOL     OW18868   3.659   4.355   0.617
 5990SOL    HW118869   3.660   4.386   0.521
 5990SOL    HW218870   3.714   4.272   0.626
 5991SOL     OW18871   4.362   5.002   5.024
 5991SOL    HW118872   4.443   5.003   5.083
 5991SOL    HW218873   4.343   5.095   4.992
 5992SOL     OW18874   3.445   1.078   4.186
 5992SOL    HW118875   3.498   1.112   4.263
 5992SOL    HW218876   3.501   1.080   4.103
 5993SOL     OW18877   3.641   6.488   5.322
 5993SOL    HW118878   3.629   6.412   5.386
 5993SOL    HW218879   3.609   6.461   5.231
 5994SOL     OW18880   6.149   2.424   1.919
 5994SOL    HW118881   6.178   2.470   2.003
 5994SOL    HW218882   6.157   2.325   1.930
 5995SOL     OW18883   0.238   5.041   1.161
 5995SOL    HW118884   0.252   5.139   1.151
 5995SOL    HW218885   0.172   5.024   1.234
 5996SOL     OW18886   0.700   5.759   6.521
 5996SOL    HW118887   0.697   5.839   6.582
 5996SOL    HW218888   0.754   5.781   6.440
 5997SOL     OW18889   0.403   6.991   1.902
 5997SOL    HW118890   0.491   6.974   1.946
 5997SOL    HW218891   0.412   0.044   1.837
 5998SOL     OW18892   5.649   2.421   2.516
 5998SOL    HW118893   5.632   2.519   2.526
 5998SOL    HW218894   5.662   2.379   2.605
 5999SOL     OW18895   1.026   1.830   3.344
 5999SOL    HW118896   1.026   1.738   3.383
 5999SOL    HW218897   0.999   1.825   3.248
 6000SOL     OW18898   4.054   5.314   2.237
 6000SOL    HW118899   4.099   5.292   2.151
 6000SOL    HW218900   4.064   5.238   2.301
 6001SOL     OW18901   7.007   3.223   6.784
 6001SOL    HW118902   0.030   3.216   6.695
 6001SOL    HW218903   6.928   3.283   6.777
 6002SOL     OW18904   0.310   6.438   1.203
 6002SOL    HW118905   0.346   6.509   1.263
 6002SOL    HW218906   0.383   6.371   1.183
 6003SOL     OW18907   5.298   3.361   4.729
 6003SOL    HW118908   5.393   3.367   4.762
 6003SOL    HW218909   5.249   3.293   4.783
 6004SOL     OW18910   0.328   3.944   3.322
 6004SOL    HW118911   0.418   3.986   3.307
 6004SOL    HW218912   0.325   3.903   3.413
 6005SOL     OW18913   4.136   5.543   4.300
 6005SOL    HW118914   4.045   5.525   4.335
 6005SOL    HW218915   4.142   5.511   4.205
 6006SOL     OW18916   3.193   0.334   6.828
 6006SOL    HW118917   3.202   0.237   6.806
 6006SOL    HW218918   3.132   0.345   6.907
 6007SOL     OW18919   5.157   3.196   3.597
 6007SOL    HW118920   5.118   3.105   3.612
 6007SOL    HW218921   5.176   3.208   3.500
 6008SOL     OW18922   3.286   5.658   5.548
 6008SOL    HW118923   3.196   5.639   5.588
 6008SOL    HW218924   3.332   5.572   5.528
 6009SOL     OW18925   2.624   1.761   4.894
 6009SOL    HW118926   2.535   1.725   4.866
 6009SOL    HW218927   2.694   1.731   4.830
 6010SOL     OW18928   1.979   4.692   2.418
 6010SOL    HW118929   1.935   4.701   2.329
 6010SOL    HW218930   1.943   4.611   2.465
 6011SOL     OW18931   5.229   2.417   1.730
 6011SOL    HW118932   5.178   2.451   1.809
 6011SOL    HW218933   5.236   2.490   1.662
 6012SOL     OW18934   6.494   2.011   6.860
 6012SOL    HW118935   6.507   1.943   6.787
 6012SOL    HW218936   6.561   2.085   6.849
 6013SOL     OW18937   6.271   1.847   2.099
 6013SOL    HW118938   6.235   1.807   2.015
 6013SOL    HW218939   6.315   1.777   2.154
 6014SOL     OW18940   5.694   1.426   0.761
 6014SOL    HW118941   5.724   1.425   0.666
 6014SOL    HW218942   5.642   1.510   0.778
 6015SOL     OW18943   5.725   2.649   5.272
 6015SOL    HW118944   5.743   2.567   5.217
 6015SOL    HW218945   5.776   2.643   5.358
 6016SOL     OW18946   0.762   1.142   6.221
 6016SOL    HW118947   0.703   1.219   6.248
 6016SOL    HW218948   0.741   1.063   6.278
 6017SOL     OW18949   5.991   5.490   3.320
 6017SOL    HW118950   5.910   5.537   3.353
 6017SOL    HW218951   6.011   5.411   3.379
 6018SOL     OW18952   3.270   3.103   0.106
 6018SOL    HW118953   3.275   3.038   0.181
 6018SOL    HW218954   3.249   3.194   0.142
 6019SOL     OW18955   4.627   1.609   3.319
 6019SOL    HW118956   4.612   1.707   3.335
 6019SOL    HW218957   4.560   1.556   3.373
 6020SOL     OW18958   3.173   6.931   2.401
 6020SOL    HW118959   3.273   6.933   2.398
 6020SOL    HW218960   3.138   6.885   2.319
 6021SOL     OW18961   4.774   0.520   2.810
 6021SOL    HW118962   4.784   0.593   2.878
 6021SOL    HW218963   4.680   0.486   2.811
 6022SOL     OW18964   5.026   1.063   3.567
 6022SOL    HW118965   5.103   1.016   3.525
 6022SOL    HW218966   5.027   1.046   3.666
 6023SOL     OW18967   6.277   1.075   3.602
 6023SOL    HW118968   6.289   1.121   3.690
 6023SOL    HW218969   6.366   1.058   3.560
 6024SOL     OW18970   0.536   4.621   1.928
 6024SOL    HW118971   0.576   4.583   2.011
 6024SOL    HW218972   0.576   4.711   1.910
 6025SOL     OW18973   4.464   0.507   1.559
 6025SOL    HW118974   4.496   0.594   1.597
 6025SOL    HW218975   4.530   0.474   1.492
 6026SOL     OW18976   0.392   4.871   4.609
 6026SOL    HW118977   0.388   4.772   4.602
 6026SOL    HW218978   0.412   4.910   4.519
 6027SOL     OW18979   2.071   4.252   6.134
 6027SOL    HW118980   2.030   4.288   6.218
 6027SOL    HW218981   2.155   4.302   6.113
 6028SOL     OW18982   1.411   4.067   0.118
 6028SOL    HW118983   1.385   3.975   0.088
 6028SOL    HW218984   1.402   4.074   0.217
 6029SOL     OW18985   2.186   6.521   6.972
 6029SOL    HW118986   2.127   6.506   0.028
 6029SOL    HW218987   2.165   6.610   6.931
 6030SOL     OW18988   2.268   0.630   3.089
 6030SOL    HW118989   2.255   0.729   3.074
 6030SOL    HW218990   2.203   0.579   3.033
 6031SOL     OW18991   4.994   5.856   5.473
 6031SOL    HW118992   4.993   5.910   5.557
 6031SOL    HW218993   5.047   5.773   5.488
 6032SOL     OW18994   1.701   3.651   2.712
 6032SOL    HW118995   1.717   3.593   2.792
 6032SOL    HW218996   1.671   3.595   2.635
 6033SOL     OW18997   2.272   2.311   3.435
 6033SOL    HW118998   2.334   2.241   3.401
 6033SOL    HW218999   2.319   2.399   3.440
 6034SOL     OW19000   2.634   4.696   4.635
 6034SOL    HW119001   2.562   4.732   4.694
 6034SOL    HW219002   2.720   4.694   4.686
 6035SOL     OW19003   5.314   1.203   4.545
 6035SOL    HW119004   5.391   1.267   4.547
 6035SOL    HW219005   5.276   1.199   4.453
 6036SOL     OW19006   0.009   0.008   5.440
 6036SOL    HW119007   7.020   6.958   5.508
 6036SOL    HW219008   6.994   0.094   5.476
 6037SOL     OW19009   4.926   4.673   6.239
 6037SOL    HW119010   4.847   4.727   6.209
 6037SOL    HW219011   4.964   4.624   6.161
 6038SOL     OW19012   0.568   3.089   6.586
 6038SOL    HW119013   0.558   3.010   6.646
 6038SOL    HW219014   0.663   3.120   6.588
 6039SOL     OW19015   3.277   3.214   2.544
 6039SOL    HW119016   3.321   3.125   2.544
 6039SOL    HW219017   3.334   3.279   2.492
 6040SOL     OW19018   0.598   1.767   6.515
 6040SOL    HW119019   0.676   1.769   6.452
 6040SOL    HW219020   0.623   1.716   6.597
 6041SOL     OW19021   1.274   2.135   6.699
 6041SOL    HW119022   1.353   2.111   6.754
 6041SOL    HW219023   1.272   2.234   6.685
 6042SOL     OW19024   5.690   5.141   2.477
 6042SOL    HW119025   5.740   5.059   2.506
 6042SOL    HW219026   5.600   5.114   2.442
 6043SOL     OW19027   1.325   5.142   5.081
 6043SOL    HW119028   1.226   5.129   5.087
 6043SOL    HW219029   1.346   5.198   5.000
 6044SOL     OW19030   0.156   1.952   1.340
 6044SOL    HW119031   0.176   1.855   1.326
 6044SOL    HW219032   0.186   1.979   1.431
 6045SOL     OW19033   5.318   5.612   0.784
 6045SOL    HW119034   5.409   5.572   0.795
 6045SOL    HW219035   5.256   5.572   0.851
 6046SOL     OW19036   3.021   2.255   0.620
 6046SOL    HW119037   2.990   2.254   0.715
 6046SOL    HW219038   3.064   2.167   0.599
 6047SOL     OW19039   6.020   1.009   4.410
 6047SOL    HW119040   5.936   1.040   4.454
 6047SOL    HW219041   6.007   1.006   4.311
 6048SOL     OW19042   3.782   0.468   3.563
 6048SOL    HW119043   3.818   0.396   3.623
 6048SOL    HW219044   3.686   0.449   3.543
 6049SOL     OW19045   4.360   3.030   6.123
 6049SOL    HW119046   4.447   3.064   6.087
 6049SOL    HW219047   4.285   3.066   6.067
 6050SOL     OW19048   4.004   4.484   5.942
 6050SOL    HW119049   4.000   4.454   5.847
 6050SOL    HW219050   3.972   4.579   5.948
 6051SOL     OW19051   2.252   2.303   2.793
 6051SOL    HW119052   2.223   2.365   2.721
 6051SOL    HW219053   2.174   2.252   2.828
 6052SOL     OW19054   6.631   0.331   0.189
 6052SOL    HW119055   6.681   0.399   0.243
 6052SOL    HW219056   6.551   0.374   0.148
 6053SOL     OW19057   3.221   0.699   0.126
 6053SOL    HW119058   3.273   0.781   0.151
 6053SOL    HW219059   3.284   0.621   0.119
 6054SOL     OW19060   2.367   4.078   1.356
 6054SOL    HW119061   2.465   4.074   1.378
 6054SOL    HW219062   2.332   3.985   1.345
 6055SOL     OW19063   5.508   0.808   5.599
 6055SOL    HW119064   5.498   0.867   5.678
 6055SOL    HW219065   5.462   0.849   5.520
 6056SOL     OW19066   4.091   1.501   5.787
 6056SOL    HW119067   4.173   1.447   5.769
 6056SOL    HW219068   4.042   1.461   5.865
 6057SOL     OW19069   4.602   1.545   4.611
 6057SOL    HW119070   4.622   1.602   4.691
 6057SOL    HW219071   4.514   1.573   4.572
 6058SOL     OW19072   5.587   2.856   3.653
 6058SOL    HW119073   5.658   2.807   3.602
 6058SOL    HW219074   5.606   2.954   3.650
 6059SOL     OW19075   4.757   5.484   6.307
 6059SOL    HW119076   4.694   5.458   6.380
 6059SOL    HW219077   4.709   5.478   6.219
 6060SOL     OW19078   3.794   4.344   6.122
 6060SOL    HW119079   3.821   4.391   6.206
 6060SOL    HW219080   3.874   4.336   6.062
 6061SOL     OW19081   3.393   2.296   6.640
 6061SOL    HW119082   3.381   2.228   6.712
 6061SOL    HW219083   3.357   2.384   6.672
 6062SOL     OW19084   2.283   1.310   4.536
 6062SOL    HW119085   2.198   1.299   4.484
 6062SOL    HW219086   2.261   1.338   4.629
 6063SOL     OW19087   4.007   0.998   6.099
 6063SOL    HW119088   4.043   0.930   6.035
 6063SOL    HW219089   3.924   1.039   6.062
 6064SOL     OW19090   1.640   5.779   2.977
 6064SOL    HW119091   1.567   5.782   3.045
 6064SOL    HW219092   1.628   5.853   2.911
 6065SOL     OW19093   6.510   6.690   1.015
 6065SOL    HW119094   6.556   6.713   1.100
 6065SOL    HW219095   6.503   6.590   1.007
 6066SOL     OW19096   4.760   1.450   1.582
 6066SOL    HW119097   4.709   1.386   1.525
 6066SOL    HW219098   4.747   1.543   1.548
 6067SOL     OW19099   6.095   1.902   6.245
 6067SOL    HW119100   6.183   1.942   6.268
 6067SOL    HW219101   6.027   1.928   6.314
 6068SOL     OW19102   4.867   3.213   5.159
 6068SOL    HW119103   4.889   3.119   5.136
 6068SOL    HW219104   4.776   3.217   5.202
 6069SOL     OW19105   6.920   3.737   6.015
 6069SOL    HW119106   6.898   3.726   6.112
 6069SOL    HW219107   7.015   3.764   6.005
 6070SOL     OW19108   3.891   1.999   6.632
 6070SOL    HW119109   3.899   2.085   6.580
 6070SOL    HW219110   3.835   1.934   6.581
 6071SOL     OW19111   3.870   5.870   5.856
 6071SOL    HW119112   3.922   5.923   5.923
 6071SOL    HW219113   3.838   5.930   5.783
 6072SOL     OW19114   0.940   1.653   1.988
 6072SOL    HW119115   0.912   1.558   1.999
 6072SOL    HW219116   0.922   1.703   2.072
 6073SOL     OW19117   6.179   3.259   0.486
 6073SOL    HW119118   6.245   3.188   0.460
 6073SOL    HW219119   6.122   3.282   0.407
 6074SOL     OW19120   0.969   6.915   4.984
 6074SOL    HW119121   0.897   6.966   4.935
 6074SOL    HW219122   1.055   6.924   4.935
 6075SOL     OW19123   6.412   2.848   0.169
 6075SOL    HW119124   6.508   2.865   0.188
 6075SOL    HW219125   6.394   2.749   0.168
 6076SOL     OW19126   2.553   6.719   4.742
 6076SOL    HW119127   2.490   6.689   4.814
 6076SOL    HW219128   2.642   6.741   4.783
 6077SOL     OW19129   4.924   5.726   2.393
 6077SOL    HW119130   4.881   5.655   2.337
 6077SOL    HW219131   4.989   5.683   2.456
 6078SOL     OW19132   3.170   4.976   3.600
 6078SOL    HW119133   3.163   5.066   3.643
 6078SOL    HW219134   3.265   4.946   3.599
 6079SOL     OW19135   2.341   3.651   6.998
 6079SOL    HW119136   2.264   3.710   6.977
 6079SOL    HW219137   2.332   3.564   6.948
 6080SOL     OW19138   6.644   1.862   0.860
 6080SOL    HW119139   6.598   1.813   0.933
 6080SOL    HW219140   6.576   1.897   0.794
 6081SOL     OW19141   5.981   3.863   4.469
 6081SOL    HW119142   5.925   3.917   4.531
 6081SOL    HW219143   6.078   3.881   4.488
 6082SOL     OW19144   3.562   0.340   2.931
 6082SOL    HW119145   3.620   0.379   2.860
 6082SOL    HW219146   3.611   0.338   3.018
 6083SOL     OW19147   1.324   5.264   6.154
 6083SOL    HW119148   1.416   5.226   6.150
 6083SOL    HW219149   1.258   5.197   6.120
 6084SOL     OW19150   6.792   5.337   4.347
 6084SOL    HW119151   6.752   5.246   4.359
 6084SOL    HW219152   6.726   5.397   4.301
 6085SOL     OW19153   0.038   4.303   0.474
 6085SOL    HW119154   0.056   4.252   0.390
 6085SOL    HW219155   0.023   4.239   0.549
 6086SOL     OW19156   3.839   1.021   4.419
 6086SOL    HW119157   3.901   1.098   4.431
 6086SOL    HW219158   3.880   0.955   4.355
 6087SOL     OW19159   5.555   6.972   0.025
 6087SOL    HW119160   5.632   0.005   7.017
 6087SOL    HW219161   5.516   6.922   6.970
 6088SOL     OW19162   6.958   6.460   4.523
 6088SOL    HW119163   0.002   6.389   4.545
 6088SOL    HW219164   7.006   6.548   4.515
 6089SOL     OW19165   0.381   3.583   1.443
 6089SOL    HW119166   0.314   3.512   1.419
 6089SOL    HW219167   0.337   3.652   1.500
 6090SOL     OW19168   0.788   6.298   5.778
 6090SOL    HW119169   0.738   6.238   5.840
 6090SOL    HW219170   0.770   6.393   5.802
 6091SOL     OW19171   0.509   1.255   1.674
 6091SOL    HW119172   0.532   1.204   1.757
 6091SOL    HW219173   0.467   1.193   1.607
 6092SOL     OW19174   2.369   0.896   2.726
 6092SOL    HW119175   2.321   0.971   2.772
 6092SOL    HW219176   2.346   0.896   2.628
 6093SOL     OW19177   1.853   3.089   1.848
 6093SOL    HW119178   1.801   3.173   1.832
 6093SOL    HW219179   1.912   3.071   1.769
 6094SOL     OW19180   1.866   1.594   1.490
 6094SOL    HW119181   1.965   1.582   1.505
 6094SOL    HW219182   1.852   1.654   1.411
 6095SOL     OW19183   4.969   2.974   0.005
 6095SOL    HW119184   4.869   2.974   7.018
 6095SOL    HW219185   5.009   3.034   6.959
 6096SOL     OW19186   5.673   0.853   4.337
 6096SOL    HW119187   5.661   0.842   4.435
 6096SOL    HW219188   5.619   0.785   4.288
 6097SOL     OW19189   2.335   0.442   2.425
 6097SOL    HW119190   2.359   0.346   2.412
 6097SOL    HW219191   2.241   0.449   2.458
 6098SOL     OW19192   1.681   2.586   6.056
 6098SOL    HW119193   1.594   2.635   6.063
 6098SOL    HW219194   1.704   2.544   6.144
 6099SOL     OW19195   6.011   5.337   5.113
 6099SOL    HW119196   6.047   5.274   5.183
 6099SOL    HW219197   6.016   5.293   5.023
 6100SOL     OW19198   6.672   3.851   5.971
 6100SOL    HW119199   6.767   3.827   5.950
 6100SOL    HW219200   6.645   3.807   6.056
 6101SOL     OW19201   6.472   2.240   5.866
 6101SOL    HW119202   6.432   2.205   5.951
 6101SOL    HW219203   6.493   2.338   5.877
 6102SOL     OW19204   2.763   0.858   4.316
 6102SOL    HW119205   2.792   0.854   4.221
 6102SOL    HW219206   2.671   0.820   4.325
 6103SOL     OW19207   0.102   0.345   3.852
 6103SOL    HW119208   0.135   0.263   3.898
 6103SOL    HW219209   0.111   0.423   3.913
 6104SOL     OW19210   5.662   2.227   6.490
 6104SOL    HW119211   5.662   2.276   6.577
 6104SOL    HW219212   5.611   2.141   6.500
 6105SOL     OW19213   3.566   6.285   5.465
 6105SOL    HW119214   3.626   6.241   5.532
 6105SOL    HW219215   3.476   6.242   5.467
 6106SOL     OW19216   3.151   5.174   6.268
 6106SOL    HW119217   3.211   5.253   6.281
 6106SOL    HW219218   3.123   5.139   6.357
 6107SOL     OW19219   2.111   4.681   4.455
 6107SOL    HW119220   2.205   4.670   4.423
 6107SOL    HW219221   2.057   4.602   4.427
 6108SOL     OW19222   1.045   1.466   3.874
 6108SOL    HW119223   1.001   1.556   3.882
 6108SOL    HW219224   1.046   1.437   3.778
 6109SOL     OW19225   5.371   2.325   0.298
 6109SOL    HW119226   5.315   2.405   0.323
 6109SOL    HW219227   5.331   2.281   0.218
 6110SOL     OW19228   2.693   2.756   6.166
 6110SOL    HW119229   2.760   2.751   6.240
 6110SOL    HW219230   2.739   2.782   6.081
 6111SOL     OW19231   0.758   4.938   2.844
 6111SOL    HW119232   0.812   4.937   2.929
 6111SOL    HW219233   0.803   4.997   2.777
 6112SOL     OW19234   1.825   1.777   3.065
 6112SOL    HW119235   1.798   1.870   3.089
 6112SOL    HW219236   1.922   1.776   3.037
 6113SOL     OW19237   1.032   0.492   6.576
 6113SOL    HW119238   1.094   0.497   6.497
 6113SOL    HW219239   1.076   0.443   6.650
 6114SOL     OW19240   5.645   5.601   0.085
 6114SOL    HW119241   5.619   5.655   0.006
 6114SOL    HW219242   5.590   5.517   0.088
 6115SOL     OW19243   4.754   5.181   3.008
 6115SOL    HW119244   4.749   5.274   2.971
 6115SOL    HW219245   4.772   5.184   3.106
 6116SOL     OW19246   3.046   1.299   1.575
 6116SOL    HW119247   3.126   1.243   1.550
 6116SOL    HW219248   2.972   1.281   1.510
 6117SOL     OW19249   6.073   0.244   4.449
 6117SOL    HW119250   6.005   0.171   4.437
 6117SOL    HW219251   6.104   0.275   4.360
 6118SOL     OW19252   6.650   1.731   2.274
 6118SOL    HW119253   6.747   1.756   2.279
 6118SOL    HW219254   6.597   1.809   2.242
 6119SOL     OW19255   0.508   4.352   4.748
 6119SOL    HW119256   0.456   4.403   4.816
 6119SOL    HW219257   0.564   4.282   4.793
 6120SOL     OW19258   2.814   6.561   3.805
 6120SOL    HW119259   2.735   6.597   3.855
 6120SOL    HW219260   2.844   6.628   3.738
 6121SOL     OW19261   0.299   2.872   3.865
 6121SOL    HW119262   0.229   2.943   3.874
 6121SOL    HW219263   0.387   2.909   3.897
 6122SOL     OW19264   3.770   6.183   2.883
 6122SOL    HW119265   3.675   6.175   2.854
 6122SOL    HW219266   3.812   6.092   2.887
 6123SOL     OW19267   6.795   1.068   1.259
 6123SOL    HW119268   6.757   1.023   1.340
 6123SOL    HW219269   6.894   1.072   1.268
 6124SOL     OW19270   4.180   0.097   5.181
 6124SOL    HW119271   4.137   0.028   5.122
 6124SOL    HW219272   4.111   0.135   5.242
 6125SOL     OW19273   2.606   5.948   1.396
 6125SOL    HW119274   2.630   5.991   1.483
 6125SOL    HW219275   2.645   5.856   1.393
 6126SOL     OW19276   5.075   5.623   4.240
 6126SOL    HW119277   5.089   5.654   4.146
 6126SOL    HW219278   4.979   5.639   4.266
 6127SOL     OW19279   3.073   6.896   1.451
 6127SOL    HW119280   3.035   6.806   1.431
 6127SOL    HW219281   3.003   6.954   1.493
 6128SOL     OW19282   0.257   3.392   0.531
 6128SOL    HW119283   0.287   3.455   0.459
 6128SOL    HW219284   0.201   3.320   0.491
 6129SOL     OW19285   6.269   3.741   2.974
 6129SOL    HW119286   6.186   3.765   2.924
 6129SOL    HW219287   6.272   3.793   3.060
 6130SOL     OW19288   5.767   2.760   3.899
 6130SOL    HW119289   5.729   2.675   3.937
 6130SOL    HW219290   5.704   2.835   3.916
 6131SOL     OW19291   6.798   1.080   5.638
 6131SOL    HW119292   6.769   1.159   5.692
 6131SOL    HW219293   6.834   1.110   5.550
 6132SOL     OW19294   3.987   2.015   0.172
 6132SOL    HW119295   3.915   2.083   0.168
 6132SOL    HW219296   3.959   1.933   0.121
 6133SOL     OW19297   0.575   3.214   1.957
 6133SOL    HW119298   0.502   3.181   1.897
 6133SOL    HW219299   0.616   3.296   1.918
 6134SOL     OW19300   3.586   3.093   6.868
 6134SOL    HW119301   3.618   3.148   6.945
 6134SOL    HW219302   3.634   3.005   6.867
 6135SOL     OW19303   6.855   6.970   1.388
 6135SOL    HW119304   6.848   6.913   1.470
 6135SOL    HW219305   6.787   6.939   1.321
 6136SOL     OW19306   0.779   1.248   2.460
 6136SOL    HW119307   0.720   1.324   2.433
 6136SOL    HW219308   0.783   1.243   2.560
 6137SOL     OW19309   3.495   0.289   5.725
 6137SOL    HW119310   3.400   0.302   5.695
 6137SOL    HW219311   3.557   0.318   5.652
 6138SOL     OW19312   3.765   6.671   2.643
 6138SOL    HW119313   3.680   6.688   2.692
 6138SOL    HW219314   3.803   6.582   2.671
 6139SOL     OW19315   1.824   3.575   4.991
 6139SOL    HW119316   1.825   3.640   5.068
 6139SOL    HW219317   1.886   3.499   5.011
 6140SOL     OW19318   0.852   7.003   1.378
 6140SOL    HW119319   0.757   6.982   1.400
 6140SOL    HW219320   0.899   0.011   1.461
 6141SOL     OW19321   6.773   5.867   4.767
 6141SOL    HW119322   6.683   5.909   4.778
 6141SOL    HW219323   6.836   5.903   4.836
 6142SOL     OW19324   6.741   4.356   0.705
 6142SOL    HW119325   6.756   4.343   0.803
 6142SOL    HW219326   6.716   4.268   0.664
 6143SOL     OW19327   6.367   5.148   6.004
 6143SOL    HW119328   6.322   5.215   5.945
 6143SOL    HW219329   6.318   5.061   5.999
 6144SOL     OW19330   0.269   4.214   3.040
 6144SOL    HW119331   0.196   4.185   2.978
 6144SOL    HW219332   0.275   4.151   3.117
 6145SOL     OW19333   5.001   5.281   3.551
 6145SOL    HW119334   5.046   5.255   3.466
 6145SOL    HW219335   4.904   5.253   3.547
 6146SOL     OW19336   4.715   1.270   3.507
 6146SOL    HW119337   4.651   1.344   3.527
 6146SOL    HW219338   4.801   1.286   3.556
 6147SOL     OW19339   2.377   4.735   2.917
 6147SOL    HW119340   2.376   4.804   2.845
 6147SOL    HW219341   2.426   4.770   2.997
 6148SOL     OW19342   6.747   6.112   4.224
 6148SOL    HW119343   6.782   6.206   4.230
 6148SOL    HW219344   6.647   6.114   4.217
 6149SOL     OW19345   3.819   5.092   3.308
 6149SOL    HW119346   3.803   5.179   3.354
 6149SOL    HW219347   3.810   5.018   3.375
 6150SOL     OW19348   4.620   5.792   6.802
 6150SOL    HW119349   4.640   5.829   6.711
 6150SOL    HW219350   4.705   5.781   6.853
 6151SOL     OW19351   5.502   2.990   5.221
 6151SOL    HW119352   5.537   3.031   5.136
 6151SOL    HW219353   5.412   3.029   5.241
 6152SOL     OW19354   5.245   5.100   6.380
 6152SOL    HW119355   5.324   5.042   6.395
 6152SOL    HW219356   5.166   5.044   6.355
 6153SOL     OW19357   4.640   4.102   1.465
 6153SOL    HW119358   4.562   4.163   1.453
 6153SOL    HW219359   4.658   4.089   1.562
 6154SOL     OW19360   5.999   1.543   2.243
 6154SOL    HW119361   5.923   1.548   2.179
 6154SOL    HW219362   6.081   1.512   2.196
 6155SOL     OW19363   0.909   3.819   4.421
 6155SOL    HW119364   0.945   3.905   4.455
 6155SOL    HW219365   0.929   3.746   4.486
 6156SOL     OW19366   5.275   6.288   2.654
 6156SOL    HW119367   5.179   6.310   2.636
 6156SOL    HW219368   5.322   6.271   2.567
 6157SOL     OW19369   2.004   1.941   3.512
 6157SOL    HW119370   2.024   2.003   3.436
 6157SOL    HW219371   1.907   1.916   3.509
 6158SOL     OW19372   4.488   0.567   6.699
 6158SOL    HW119373   4.410   0.580   6.761
 6158SOL    HW219374   4.566   0.533   6.750
 6159SOL     OW19375   5.106   1.372   0.023
 6159SOL    HW119376   5.021   1.329   7.016
 6159SOL    HW219377   5.116   1.364   0.122
 6160SOL     OW19378   5.730   5.583   0.964
 6160SOL    HW119379   5.824   5.551   0.981
 6160SOL    HW219380   5.723   5.679   0.988
 6161SOL     OW19381   5.569   1.162   5.673
 6161SOL    HW119382   5.668   1.151   5.666
 6161SOL    HW219383   5.544   1.185   5.767
 6162SOL     OW19384   1.543   5.262   4.323
 6162SOL    HW119385   1.549   5.275   4.422
 6162SOL    HW219386   1.629   5.222   4.290
 6163SOL     OW19387   5.327   4.738   1.038
 6163SOL    HW119388   5.349   4.644   1.013
 6163SOL    HW219389   5.398   4.775   1.097
 6164SOL     OW19390   1.859   2.057   1.221
 6164SOL    HW119391   1.774   2.082   1.268
 6164SOL    HW219392   1.920   2.012   1.286
 6165SOL     OW19393   4.099   5.788   0.498
 6165SOL    HW119394   4.188   5.751   0.472
 6165SOL    HW219395   4.058   5.729   0.568
 6166SOL     OW19396   3.261   1.326   5.682
 6166SOL    HW119397   3.245   1.392   5.756
 6166SOL    HW219398   3.311   1.371   5.608
 6167SOL     OW19399   0.581   4.584   2.401
 6167SOL    HW119400   0.655   4.592   2.468
 6167SOL    HW219401   0.493   4.579   2.448
 6168SOL     OW19402   0.123   3.704   1.814
 6168SOL    HW119403   0.190   3.747   1.754
 6168SOL    HW219404   0.111   3.608   1.788
 6169SOL     OW19405   2.203   3.876   1.929
 6169SOL    HW119406   2.109   3.879   1.895
 6169SOL    HW219407   2.211   3.804   1.998
 6170SOL     OW19408   0.345   3.554   5.440
 6170SOL    HW119409   0.286   3.527   5.516
 6170SOL    HW219410   0.377   3.473   5.391
 6171SOL     OW19411   0.841   0.492   0.784
 6171SOL    HW119412   0.775   0.463   0.715
 6171SOL    HW219413   0.845   0.425   0.858
 6172SOL     OW19414   0.835   2.717   3.327
 6172SOL    HW119415   0.889   2.710   3.411
 6172SOL    HW219416   0.740   2.737   3.350
 6173SOL     OW19417   6.896   6.351   3.000
 6173SOL    HW119418   6.837   6.421   2.960
 6173SOL    HW219419   6.879   6.346   3.098
 6174SOL     OW19420   5.237   4.742   3.060
 6174SOL    HW119421   5.202   4.652   3.032
 6174SOL    HW219422   5.168   4.788   3.116
 6175SOL     OW19423   3.681   0.656   4.985
 6175SOL    HW119424   3.597   0.633   5.034
 6175SOL    HW219425   3.659   0.707   4.903
 6176SOL     OW19426   4.068   4.236   5.342
 6176SOL    HW119427   4.133   4.284   5.282
 6176SOL    HW219428   4.039   4.151   5.297
 6177SOL     OW19429   5.551   1.450   1.771
 6177SOL    HW119430   5.467   1.399   1.751
 6177SOL    HW219431   5.539   1.546   1.745
 6178SOL     OW19432   4.937   3.708   2.184
 6178SOL    HW119433   4.946   3.656   2.099
 6178SOL    HW219434   4.913   3.646   2.259
 6179SOL     OW19435   6.532   4.949   1.954
 6179SOL    HW119436   6.562   5.007   1.878
 6179SOL    HW219437   6.482   4.870   1.919
 6180SOL     OW19438   2.605   5.058   0.622
 6180SOL    HW119439   2.605   4.968   0.581
 6180SOL    HW219440   2.574   5.126   0.555
 6181SOL     OW19441   4.626   5.113   6.121
 6181SOL    HW119442   4.605   5.210   6.125
 6181SOL    HW219443   4.591   5.068   6.203
 6182SOL     OW19444   3.534   3.252   0.082
 6182SOL    HW119445   3.507   3.336   0.035
 6182SOL    HW219446   3.466   3.181   0.062
 6183SOL     OW19447   1.287   2.009   0.843
 6183SOL    HW119448   1.296   1.980   0.748
 6183SOL    HW219449   1.304   2.107   0.850
 6184SOL     OW19450   2.638   1.341   6.078
 6184SOL    HW119451   2.613   1.332   5.981
 6184SOL    HW219452   2.651   1.437   6.100
 6185SOL     OW19453   3.554   2.874   4.889
 6185SOL    HW119454   3.462   2.907   4.867
 6185SOL    HW219455   3.547   2.784   4.932
 6186SOL     OW19456   6.277   2.090   2.204
 6186SOL    HW119457   6.280   2.005   2.153
 6186SOL    HW219458   6.193   2.094   2.258
 6187SOL     OW19459   4.702   2.756   5.453
 6187SOL    HW119460   4.715   2.657   5.449
 6187SOL    HW219461   4.711   2.795   5.361
 6188SOL     OW19462   2.322   1.902   5.654
 6188SOL    HW119463   2.327   1.865   5.561
 6188SOL    HW219464   2.229   1.934   5.673
 6189SOL     OW19465   4.375   5.449   2.195
 6189SOL    HW119466   4.473   5.456   2.178
 6189SOL    HW219467   4.359   5.387   2.273
 6190SOL     OW19468   6.385   3.197   6.012
 6190SOL    HW119469   6.327   3.202   6.094
 6190SOL    HW219470   6.414   3.289   5.987
 6191SOL     OW19471   2.562   3.565   6.191
 6191SOL    HW119472   2.538   3.661   6.177
 6191SOL    HW219473   2.658   3.557   6.217
 6192SOL     OW19474   2.279   2.048   0.012
 6192SOL    HW119475   2.275   2.142   0.046
 6192SOL    HW219476   2.186   2.014   7.021
 6193SOL     OW19477   5.388   5.531   6.924
 6193SOL    HW119478   5.314   5.596   6.908
 6193SOL    HW219479   5.354   5.438   6.910
 6194SOL     OW19480   6.685   0.404   6.538
 6194SOL    HW119481   6.607   0.400   6.476
 6194SOL    HW219482   6.711   0.499   6.554
 6195SOL     OW19483   6.151   0.644   5.043
 6195SOL    HW119484   6.226   0.628   5.107
 6195SOL    HW219485   6.132   0.561   4.991
 6196SOL     OW19486   4.915   4.494   3.452
 6196SOL    HW119487   4.968   4.410   3.437
 6196SOL    HW219488   4.855   4.481   3.531
 6197SOL     OW19489   2.192   5.409   1.970
 6197SOL    HW119490   2.182   5.357   1.886
 6197SOL    HW219491   2.102   5.437   2.003
 6198SOL     OW19492   6.081   6.223   6.554
 6198SOL    HW119493   6.065   6.320   6.535
 6198SOL    HW219494   6.000   6.184   6.597
 6199SOL     OW19495   0.663   0.135   0.378
 6199SOL    HW119496   0.579   0.121   0.326
 6199SOL    HW219497   0.657   0.087   0.465
 6200SOL     OW19498   1.664   1.192   2.418
 6200SOL    HW119499   1.742   1.193   2.355
 6200SOL    HW219500   1.581   1.166   2.367
 6201SOL     OW19501   6.759   4.059   4.104
 6201SOL    HW119502   6.820   4.138   4.113
 6201SOL    HW219503   6.668   4.082   4.138
 6202SOL     OW19504   6.576   1.818   3.321
 6202SOL    HW119505   6.665   1.825   3.365
 6202SOL    HW219506   6.515   1.761   3.376
 6203SOL     OW19507   6.570   5.728   1.577
 6203SOL    HW119508   6.483   5.698   1.617
 6203SOL    HW219509   6.566   5.826   1.557
 6204SOL     OW19510   1.301   6.309   5.257
 6204SOL    HW119511   1.397   6.322   5.231
 6204SOL    HW219512   1.294   6.302   5.356
 6205SOL     OW19513   4.939   3.886   2.409
 6205SOL    HW119514   4.947   3.848   2.317
 6205SOL    HW219515   4.892   3.975   2.404
 6206SOL     OW19516   5.101   1.859   3.654
 6206SOL    HW119517   5.171   1.920   3.617
 6206SOL    HW219518   5.138   1.810   3.732
 6207SOL     OW19519   1.462   5.667   4.753
 6207SOL    HW119520   1.506   5.748   4.714
 6207SOL    HW219521   1.394   5.696   4.821
 6208SOL     OW19522   3.655   2.933   5.639
 6208SOL    HW119523   3.713   3.002   5.683
 6208SOL    HW219524   3.711   2.872   5.583
 6209SOL     OW19525   3.370   4.557   1.319
 6209SOL    HW119526   3.317   4.509   1.389
 6209SOL    HW219527   3.412   4.490   1.258
 6210SOL     OW19528   4.878   3.396   3.649
 6210SOL    HW119529   4.955   3.430   3.703
 6210SOL    HW219530   4.857   3.302   3.678
 6211SOL     OW19531   5.109   5.744   4.976
 6211SOL    HW119532   5.151   5.833   4.995
 6211SOL    HW219533   5.011   5.749   4.997
 6212SOL     OW19534   2.981   5.304   5.905
 6212SOL    HW119535   2.893   5.334   5.943
 6212SOL    HW219536   3.033   5.257   5.976
 6213SOL     OW19537   4.723   5.999   0.868
 6213SOL    HW119538   4.758   6.060   0.939
 6213SOL    HW219539   4.630   5.970   0.893
 6214SOL     OW19540   5.827   6.069   5.462
 6214SOL    HW119541   5.841   6.163   5.432
 6214SOL    HW219542   5.817   6.010   5.382
 6215SOL     OW19543   5.114   3.095   6.340
 6215SOL    HW119544   5.143   3.037   6.417
 6215SOL    HW219545   5.183   3.166   6.325
 6216SOL     OW19546   5.318   2.787   3.541
 6216SOL    HW119547   5.240   2.794   3.479
 6216SOL    HW219548   5.400   2.820   3.496
 6217SOL     OW19549   0.906   4.647   2.409
 6217SOL    HW119550   0.939   4.698   2.329
 6217SOL    HW219551   0.891   4.552   2.384
 6218SOL     OW19552   4.697   6.410   0.443
 6218SOL    HW119553   4.703   6.383   0.539
 6218SOL    HW219554   4.733   6.337   0.386
 6219SOL     OW19555   0.892   0.777   5.075
 6219SOL    HW119556   0.867   0.717   4.999
 6219SOL    HW219557   0.954   0.728   5.136
 6220SOL     OW19558   3.625   1.040   0.802
 6220SOL    HW119559   3.555   1.055   0.872
 6220SOL    HW219560   3.715   1.058   0.841
 6221SOL     OW19561   6.864   6.029   6.641
 6221SOL    HW119562   6.845   6.042   6.544
 6221SOL    HW219563   6.779   6.033   6.692
 6222SOL     OW19564   6.086   1.193   2.199
 6222SOL    HW119565   6.156   1.256   2.165
 6222SOL    HW219566   6.029   1.240   2.267
 6223SOL     OW19567   0.194   4.631   3.678
 6223SOL    HW119568   0.210   4.546   3.628
 6223SOL    HW219569   0.140   4.693   3.622
 6224SOL     OW19570   4.469   1.831   6.461
 6224SOL    HW119571   4.386   1.861   6.508
 6224SOL    HW219572   4.521   1.911   6.431
 6225SOL     OW19573   3.827   0.456   0.191
 6225SOL    HW119574   3.794   0.364   0.175
 6225SOL    HW219575   3.859   0.496   0.105
 6226SOL     OW19576   1.511   1.047   3.881
 6226SOL    HW119577   1.422   1.092   3.887
 6226SOL    HW219578   1.535   1.031   3.785
 6227SOL     OW19579   2.729   4.390   5.726
 6227SOL    HW119580   2.753   4.369   5.631
 6227SOL    HW219581   2.810   4.379   5.784
 6228SOL     OW19582   2.192   2.552   3.606
 6228SOL    HW119583   2.239   2.477   3.652
 6228SOL    HW219584   2.094   2.544   3.621
 6229SOL     OW19585   0.309   3.529   4.754
 6229SOL    HW119586   0.215   3.534   4.787
 6229SOL    HW219587   0.363   3.474   4.818
 6230SOL     OW19588   0.088   1.276   2.248
 6230SOL    HW119589   0.161   1.285   2.180
 6230SOL    HW219590   0.024   1.352   2.238
 6231SOL     OW19591   6.010   4.372   0.134
 6231SOL    HW119592   6.092   4.332   0.092
 6231SOL    HW219593   5.965   4.303   0.191
 6232SOL     OW19594   5.568   0.694   0.319
 6232SOL    HW119595   5.521   0.773   0.280
 6232SOL    HW219596   5.500   0.627   0.349
 6233SOL     OW19597   0.207   3.355   2.232
 6233SOL    HW119598   0.156   3.337   2.316
 6233SOL    HW219599   0.164   3.306   2.156
 6234SOL     OW19600   6.729   6.623   4.257
 6234SOL    HW119601   6.665   6.592   4.327
 6234SOL    HW219602   6.768   6.711   4.285
 6235SOL     OW19603   6.754   1.024   2.524
 6235SOL    HW119604   6.801   0.936   2.517
 6235SOL    HW219605   6.658   1.013   2.497
 6236SOL     OW19606   0.581   4.763   0.756
 6236SOL    HW119607   0.571   4.705   0.675
 6236SOL    HW219608   0.576   4.859   0.729
 6237SOL     OW19609   3.851   0.058   0.945
 6237SOL    HW119610   3.804   0.018   1.023
 6237SOL    HW219611   3.949   0.036   0.950
 6238SOL     OW19612   2.919   6.558   4.223
 6238SOL    HW119613   2.860   6.496   4.171
 6238SOL    HW219614   2.907   6.540   4.321
 6239SOL     OW19615   5.187   0.483   2.508
 6239SOL    HW119616   5.120   0.541   2.461
 6239SOL    HW219617   5.277   0.525   2.500
 6240SOL     OW19618   3.313   3.500   4.766
 6240SOL    HW119619   3.381   3.443   4.719
 6240SOL    HW219620   3.291   3.579   4.710
 6241SOL     OW19621   2.237   6.746   3.860
 6241SOL    HW119622   2.248   6.653   3.826
 6241SOL    HW219623   2.153   6.785   3.822
 6242SOL     OW19624   3.059   1.751   3.176
 6242SOL    HW119625   3.072   1.744   3.275
 6242SOL    HW219626   3.131   1.699   3.130
 6243SOL     OW19627   5.841   1.680   6.427
 6243SOL    HW119628   5.857   1.753   6.360
 6243SOL    HW219629   5.799   1.601   6.381
 6244SOL     OW19630   4.079   5.059   2.894
 6244SOL    HW119631   4.048   5.136   2.949
 6244SOL    HW219632   4.177   5.069   2.874
 6245SOL     OW19633   0.707   4.221   2.090
 6245SOL    HW119634   0.661   4.138   2.121
 6245SOL    HW219635   0.703   4.225   1.990
 6246SOL     OW19636   1.124   6.361   4.739
 6246SOL    HW119637   1.089   6.455   4.737
 6246SOL    HW219638   1.050   6.298   4.758
 6247SOL     OW19639   6.885   5.667   3.509
 6247SOL    HW119640   6.925   5.641   3.597
 6247SOL    HW219641   6.826   5.594   3.475
 6248SOL     OW19642   3.759   2.878   6.796
 6248SOL    HW119643   3.840   2.825   6.769
 6248SOL    HW219644   3.680   2.846   6.744
 6249SOL     OW19645   6.884   2.400   0.816
 6249SOL    HW119646   6.867   2.306   0.784
 6249SOL    HW219647   6.835   2.416   0.902
 6250SOL     OW19648   0.067   0.237   0.769
 6250SOL    HW119649   0.076   0.147   0.726
 6250SOL    HW219650   6.993   0.264   0.770
 6251SOL     OW19651   2.996   6.815   4.220
 6251SOL    HW119652   2.953   6.725   4.224
 6251SOL    HW219653   2.944   6.874   4.158
 6252SOL     OW19654   2.481   5.202   6.764
 6252SOL    HW119655   2.431   5.139   6.704
 6252SOL    HW219656   2.472   5.172   6.859
 6253SOL     OW19657   3.068   5.212   4.635
 6253SOL    HW119658   3.117   5.284   4.587
 6253SOL    HW219659   3.130   5.168   4.701
 6254SOL     OW19660   0.654   6.177   0.511
 6254SOL    HW119661   0.708   6.198   0.430
 6254SOL    HW219662   0.648   6.078   0.523
 6255SOL     OW19663   0.617   1.864   1.080
 6255SOL    HW119664   0.687   1.930   1.053
 6255SOL    HW219665   0.530   1.912   1.095
 6256SOL     OW19666   4.636   5.679   3.230
 6256SOL    HW119667   4.659   5.620   3.308
 6256SOL    HW219668   4.685   5.766   3.239
 6257SOL     OW19669   4.138   4.401   1.264
 6257SOL    HW119670   4.136   4.470   1.336
 6257SOL    HW219671   4.081   4.323   1.291
 6258SOL     OW19672   4.640   0.106   6.012
 6258SOL    HW119673   4.637   0.089   5.913
 6258SOL    HW219674   4.713   0.172   6.032
 6259SOL     OW19675   2.381   6.959   5.237
 6259SOL    HW119676   2.325   6.886   5.198
 6259SOL    HW219677   2.373   0.018   5.180
 6260SOL     OW19678   2.263   1.176   0.231
 6260SOL    HW119679   2.279   1.248   0.164
 6260SOL    HW219680   2.209   1.103   0.190
 6261SOL     OW19681   4.118   6.522   1.716
 6261SOL    HW119682   4.130   6.559   1.807
 6261SOL    HW219683   4.023   6.492   1.703
 6262SOL     OW19684   6.235   6.200   1.891
 6262SOL    HW119685   6.275   6.257   1.962
 6262SOL    HW219686   6.205   6.113   1.930
 6263SOL     OW19687   0.124   6.069   4.436
 6263SOL    HW119688   0.073   6.040   4.355
 6263SOL    HW219689   0.136   5.992   4.498
 6264SOL     OW19690   0.922   0.142   1.175
 6264SOL    HW119691   0.986   0.111   1.104
 6264SOL    HW219692   0.886   0.063   1.225
 6265SOL     OW19693   4.478   2.045   0.096
 6265SOL    HW119694   4.471   1.953   0.057
 6265SOL    HW219695   4.386   2.082   0.109
 6266SOL     OW19696   3.271   5.466   3.700
 6266SOL    HW119697   3.309   5.467   3.793
 6266SOL    HW219698   3.253   5.559   3.670
 6267SOL     OW19699   1.376   6.733   5.374
 6267SOL    HW119700   1.369   6.646   5.324
 6267SOL    HW219701   1.295   6.746   5.430
 6268SOL     OW19702   3.122   0.698   2.133
 6268SOL    HW119703   3.074   0.627   2.081
 6268SOL    HW219704   3.220   0.684   2.125
 6269SOL     OW19705   5.370   6.481   1.571
 6269SOL    HW119706   5.406   6.480   1.665
 6269SOL    HW219707   5.318   6.565   1.557
 6270SOL     OW19708   1.660   6.333   0.084
 6270SOL    HW119709   1.715   6.264   0.038
 6270SOL    HW219710   1.601   6.379   0.017
 6271SOL     OW19711   6.036   2.979   6.515
 6271SOL    HW119712   6.003   3.037   6.441
 6271SOL    HW219713   6.102   3.030   6.570
 6272SOL     OW19714   5.546   0.082   6.722
 6272SOL    HW119715   5.554   0.155   6.790
 6272SOL    HW219716   5.490   0.008   6.758
 6273SOL     OW19717   0.098   0.058   1.726
 6273SOL    HW119718   0.024   0.002   1.763
 6273SOL    HW219719   0.120   0.028   1.633
 6274SOL     OW19720   3.398   5.847   4.869
 6274SOL    HW119721   3.346   5.766   4.839
 6274SOL    HW219722   3.409   5.910   4.793
 6275SOL     OW19723   2.211   6.028   0.615
 6275SOL    HW119724   2.165   6.039   0.704
 6275SOL    HW219725   2.143   6.002   0.546
 6276SOL     OW19726   1.914   5.325   3.063
 6276SOL    HW119727   1.924   5.418   3.025
 6276SOL    HW219728   1.856   5.271   3.002
 6277SOL     OW19729   4.862   2.601   1.219
 6277SOL    HW119730   4.925   2.655   1.275
 6277SOL    HW219731   4.876   2.623   1.122
 6278SOL     OW19732   3.003   0.404   5.328
 6278SOL    HW119733   2.954   0.463   5.392
 6278SOL    HW219734   2.981   0.308   5.346
 6279SOL     OW19735   3.436   6.353   1.652
 6279SOL    HW119736   3.399   6.331   1.562
 6279SOL    HW219737   3.517   6.411   1.641
 6280SOL     OW19738   0.027   1.578   6.777
 6280SOL    HW119739   6.982   1.505   6.781
 6280SOL    HW219740   0.050   1.596   6.681
 6281SOL     OW19741   6.267   4.211   4.628
 6281SOL    HW119742   6.306   4.302   4.644
 6281SOL    HW219743   6.201   4.191   4.701
 6282SOL     OW19744   0.824   3.225   6.559
 6282SOL    HW119745   0.913   3.256   6.592
 6282SOL    HW219746   0.795   3.282   6.482
 6283SOL     OW19747   1.268   6.246   5.755
 6283SOL    HW119748   1.283   6.158   5.710
 6283SOL    HW219749   1.354   6.279   5.793
 6284SOL     OW19750   2.604   3.956   6.907
 6284SOL    HW119751   2.593   4.002   6.995
 6284SOL    HW219752   2.641   3.864   6.922
 6285SOL     OW19753   1.488   3.577   2.921
 6285SOL    HW119754   1.500   3.676   2.912
 6285SOL    HW219755   1.577   3.531   2.918
 6286SOL     OW19756   0.818   3.098   4.844
 6286SOL    HW119757   0.906   3.097   4.796
 6286SOL    HW219758   0.787   3.004   4.858
 6287SOL     OW19759   4.144   4.863   5.107
 6287SOL    HW119760   4.069   4.926   5.090
 6287SOL    HW219761   4.231   4.911   5.096
 6288SOL     OW19762   3.654   3.142   6.548
 6288SOL    HW119763   3.673   3.057   6.500
 6288SOL    HW219764   3.740   3.187   6.571
 6289SOL     OW19765   2.731   4.690   6.454
 6289SOL    HW119766   2.651   4.662   6.401
 6289SOL    HW219767   2.806   4.625   6.438
 6290SOL     OW19768   5.788   5.480   5.214
 6290SOL    HW119769   5.875   5.469   5.165
 6290SOL    HW219770   5.794   5.435   5.303
 6291SOL     OW19771   3.406   3.339   3.349
 6291SOL    HW119772   3.480   3.403   3.328
 6291SOL    HW219773   3.345   3.330   3.270
 6292SOL     OW19774   1.953   2.840   4.532
 6292SOL    HW119775   2.020   2.790   4.586
 6292SOL    HW219776   1.991   2.929   4.506
 6293SOL     OW19777   4.931   0.955   6.827
 6293SOL    HW119778   4.997   0.883   6.848
 6293SOL    HW219779   4.979   1.032   6.784
 6294SOL     OW19780   2.341   1.170   3.415
 6294SOL    HW119781   2.433   1.157   3.378
 6294SOL    HW219782   2.345   1.173   3.515
 6295SOL     OW19783   5.703   4.774   5.268
 6295SOL    HW119784   5.765   4.845   5.233
 6295SOL    HW219785   5.639   4.747   5.196
 6296SOL     OW19786   0.265   2.971   6.355
 6296SOL    HW119787   0.290   2.891   6.410
 6296SOL    HW219788   0.347   3.021   6.330
 6297SOL     OW19789   5.915   0.781   4.550
 6297SOL    HW119790   5.960   0.851   4.495
 6297SOL    HW219791   5.980   0.744   4.616
 6298SOL     OW19792   5.910   4.508   0.512
 6298SOL    HW119793   5.840   4.566   0.472
 6298SOL    HW219794   5.973   4.564   0.566
 6299SOL     OW19795   4.716   2.421   2.716
 6299SOL    HW119796   4.772   2.475   2.779
 6299SOL    HW219797   4.701   2.473   2.632
 6300SOL     OW19798   3.712   0.597   6.060
 6300SOL    HW119799   3.727   0.504   6.027
 6300SOL    HW219800   3.798   0.635   6.094
 6301SOL     OW19801   3.594   6.617   0.513
 6301SOL    HW119802   3.679   6.608   0.461
 6301SOL    HW219803   3.524   6.558   0.473
 6302SOL     OW19804   3.153   1.191   5.214
 6302SOL    HW119805   3.067   1.226   5.250
 6302SOL    HW219806   3.217   1.175   5.290
 6303SOL     OW19807   1.075   6.009   6.060
 6303SOL    HW119808   0.988   5.965   6.039
 6303SOL    HW219809   1.146   5.971   6.000
 6304SOL     OW19810   4.005   1.248   2.522
 6304SOL    HW119811   3.909   1.274   2.533
 6304SOL    HW219812   4.015   1.190   2.440
 6305SOL     OW19813   0.199   5.387   4.988
 6305SOL    HW119814   0.251   5.392   4.903
 6305SOL    HW219815   0.102   5.378   4.968
 6306SOL     OW19816   6.535   4.677   3.839
 6306SOL    HW119817   6.629   4.705   3.820
 6306SOL    HW219818   6.536   4.599   3.902
 6307SOL     OW19819   4.136   3.678   3.276
 6307SOL    HW119820   4.167   3.626   3.355
 6307SOL    HW219821   4.092   3.616   3.210
 6308SOL     OW19822   0.353   2.737   6.742
 6308SOL    HW119823   0.269   2.787   6.720
 6308SOL    HW219824   0.334   2.670   6.813
 6309SOL     OW19825   1.285   6.599   5.085
 6309SOL    HW119826   1.252   6.598   4.991
 6309SOL    HW219827   1.373   6.646   5.089
 6310SOL     OW19828   1.965   6.890   3.018
 6310SOL    HW119829   2.000   6.984   3.011
 6310SOL    HW219830   1.866   6.890   3.009
 6311SOL     OW19831   5.356   1.297   5.597
 6311SOL    HW119832   5.347   1.386   5.642
 6311SOL    HW219833   5.446   1.259   5.616
 6312SOL     OW19834   3.176   6.701   6.655
 6312SOL    HW119835   3.122   6.685   6.737
 6312SOL    HW219836   3.247   6.769   6.674
 6313SOL     OW19837   5.359   6.255   3.710
 6313SOL    HW119838   5.361   6.180   3.777
 6313SOL    HW219839   5.337   6.219   3.620
 6314SOL     OW19840   2.434   0.434   1.590
 6314SOL    HW119841   2.412   0.346   1.633
 6314SOL    HW219842   2.389   0.508   1.639
 6315SOL     OW19843   2.351   2.791   4.013
 6315SOL    HW119844   2.360   2.787   4.113
 6315SOL    HW219845   2.402   2.715   3.972
 6316SOL     OW19846   5.581   2.216   4.773
 6316SOL    HW119847   5.643   2.192   4.848
 6316SOL    HW219848   5.600   2.157   4.694
 6317SOL     OW19849   4.929   4.548   2.052
 6317SOL    HW119850   4.928   4.647   2.043
 6317SOL    HW219851   4.928   4.523   2.149
 6318SOL     OW19852   6.526   0.840   6.161
 6318SOL    HW119853   6.462   0.913   6.138
 6318SOL    HW219854   6.581   0.867   6.240
 6319SOL     OW19855   5.438   2.533   4.337
 6319SOL    HW119856   5.381   2.457   4.308
 6319SOL    HW219857   5.453   2.595   4.260
 6320SOL     OW19858   7.005   1.009   4.097
 6320SOL    HW119859   6.925   0.990   4.154
 6320SOL    HW219860   7.005   1.105   4.070
 6321SOL     OW19861   5.414   2.189   0.753
 6321SOL    HW119862   5.423   2.145   0.663
 6321SOL    HW219863   5.363   2.275   0.743
 6322SOL     OW19864   2.046   0.989   1.172
 6322SOL    HW119865   2.085   1.052   1.105
 6322SOL    HW219866   1.946   0.992   1.167
 6323SOL     OW19867   2.854   3.252   1.064
 6323SOL    HW119868   2.770   3.299   1.090
 6323SOL    HW219869   2.910   3.235   1.145
 6324SOL     OW19870   4.618   1.349   0.886
 6324SOL    HW119871   4.577   1.417   0.824
 6324SOL    HW219872   4.711   1.377   0.908
 6325SOL     OW19873   1.231   2.270   2.768
 6325SOL    HW119874   1.222   2.196   2.834
 6325SOL    HW219875   1.260   2.353   2.815
 6326SOL     OW19876   5.400   5.171   6.133
 6326SOL    HW119877   5.373   5.172   6.230
 6326SOL    HW219878   5.318   5.172   6.076
 6327SOL     OW19879   6.941   1.578   3.418
 6327SOL    HW119880   6.916   1.525   3.499
 6327SOL    HW219881   6.883   1.551   3.341
 6328SOL     OW19882   4.440   3.379   6.104
 6328SOL    HW119883   4.494   3.414   6.027
 6328SOL    HW219884   4.488   3.399   6.189
 6329SOL     OW19885   1.644   2.655   5.532
 6329SOL    HW119886   1.572   2.724   5.527
 6329SOL    HW219887   1.609   2.573   5.578
 6330SOL     OW19888   5.912   0.301   3.605
 6330SOL    HW119889   5.896   0.299   3.506
 6330SOL    HW219890   5.974   0.226   3.630
 6331SOL     OW19891   6.889   3.518   4.005
 6331SOL    HW119892   6.953   3.560   4.069
 6331SOL    HW219893   6.801   3.565   4.010
 6332SOL     OW19894   1.888   1.903   0.757
 6332SOL    HW119895   1.835   1.872   0.678
 6332SOL    HW219896   1.826   1.919   0.835
 6333SOL     OW19897   4.775   0.372   0.828
 6333SOL    HW119898   4.852   0.315   0.799
 6333SOL    HW219899   4.761   0.446   0.762
 6334SOL     OW19900   2.962   1.369   2.356
 6334SOL    HW119901   3.051   1.328   2.334
 6334SOL    HW219902   2.897   1.351   2.283
 6335SOL     OW19903   5.504   0.831   0.655
 6335SOL    HW119904   5.425   0.889   0.634
 6335SOL    HW219905   5.578   0.852   0.592
 6336SOL     OW19906   0.516   3.657   6.247
 6336SOL    HW119907   0.566   3.632   6.329
 6336SOL    HW219908   0.579   3.697   6.180
 6337SOL     OW19909   4.717   5.562   5.361
 6337SOL    HW119910   4.752   5.470   5.380
 6337SOL    HW219911   4.659   5.558   5.279
 6338SOL     OW19912   3.082   1.708   3.756
 6338SOL    HW119913   3.054   1.707   3.852
 6338SOL    HW219914   3.125   1.795   3.733
 6339SOL     OW19915   1.290   4.315   3.238
 6339SOL    HW119916   1.280   4.295   3.335
 6339SOL    HW219917   1.308   4.230   3.188
 6340SOL     OW19918   2.254   3.740   1.588
 6340SOL    HW119919   2.352   3.738   1.568
 6340SOL    HW219920   2.216   3.648   1.578
 6341SOL     OW19921   0.830   4.705   3.964
 6341SOL    HW119922   0.899   4.704   4.037
 6341SOL    HW219923   0.818   4.613   3.929
 6342SOL     OW19924   2.169   1.329   2.134
 6342SOL    HW119925   2.154   1.380   2.050
 6342SOL    HW219926   2.124   1.240   2.128
 6343SOL     OW19927   2.759   5.884   0.210
 6343SOL    HW119928   2.855   5.897   0.234
 6343SOL    HW219929   2.749   5.875   0.111
 6344SOL     OW19930   6.473   2.063   3.946
 6344SOL    HW119931   6.487   2.141   4.008
 6344SOL    HW219932   6.557   2.046   3.895
 6345SOL     OW19933   5.904   3.240   1.574
 6345SOL    HW119934   5.962   3.207   1.499
 6345SOL    HW219935   5.810   3.248   1.542
 6346SOL     OW19936   0.158   4.584   5.490
 6346SOL    HW119937   0.103   4.502   5.471
 6346SOL    HW219938   0.199   4.616   5.405
 6347SOL     OW19939   2.911   2.222   2.669
 6347SOL    HW119940   2.993   2.210   2.725
 6347SOL    HW219941   2.936   2.224   2.572
 6348SOL     OW19942   0.355   2.190   5.666
 6348SOL    HW119943   0.308   2.188   5.577
 6348SOL    HW219944   0.308   2.128   5.729
 6349SOL     OW19945   0.274   0.312   0.269
 6349SOL    HW119946   0.252   0.319   0.366
 6349SOL    HW219947   0.341   0.238   0.256
 6350SOL     OW19948   0.987   4.093   1.832
 6350SOL    HW119949   0.956   4.184   1.860
 6350SOL    HW219950   0.953   4.073   1.741
 6351SOL     OW19951   5.891   3.566   3.009
 6351SOL    HW119952   5.944   3.485   3.037
 6351SOL    HW219953   5.813   3.577   3.070
 6352SOL     OW19954   2.263   0.197   4.253
 6352SOL    HW119955   2.180   0.251   4.270
 6352SOL    HW219956   2.252   0.106   4.294
 6353SOL     OW19957   2.695   5.683   6.527
 6353SOL    HW119958   2.787   5.647   6.508
 6353SOL    HW219959   2.637   5.669   6.447
 6354SOL     OW19960   4.732   4.129   2.672
 6354SOL    HW119961   4.745   4.196   2.745
 6354SOL    HW219962   4.733   4.037   2.710
 6355SOL     OW19963   2.615   4.758   0.536
 6355SOL    HW119964   2.671   4.691   0.487
 6355SOL    HW219965   2.530   4.716   0.565
 6356SOL     OW19966   5.109   4.709   6.720
 6356SOL    HW119967   5.037   4.666   6.665
 6356SOL    HW219968   5.073   4.792   6.762
 6357SOL     OW19969   5.979   2.053   2.022
 6357SOL    HW119970   5.955   1.956   2.014
 6357SOL    HW219971   6.076   2.065   2.001
 6358SOL     OW19972   1.810   2.530   6.735
 6358SOL    HW119973   1.724   2.501   6.777
 6358SOL    HW219974   1.854   2.450   6.692
 6359SOL     OW19975   5.493   6.354   0.481
 6359SOL    HW119976   5.566   6.299   0.520
 6359SOL    HW219977   5.451   6.410   0.552
 6360SOL     OW19978   0.581   2.493   2.977
 6360SOL    HW119979   0.590   2.402   2.937
 6360SOL    HW219980   0.585   2.562   2.904
 6361SOL     OW19981   0.453   0.395   6.903
 6361SOL    HW119982   0.552   0.377   6.904
 6361SOL    HW219983   0.438   0.493   6.896
 6362SOL     OW19984   0.844   5.471   6.607
 6362SOL    HW119985   0.764   5.480   6.548
 6362SOL    HW219986   0.841   5.541   6.679
 6363SOL     OW19987   2.759   5.059   3.761
 6363SOL    HW119988   2.726   5.043   3.854
 6363SOL    HW219989   2.802   4.976   3.726
 6364SOL     OW19990   2.519   1.984   4.787
 6364SOL    HW119991   2.534   2.051   4.859
 6364SOL    HW219992   2.544   1.893   4.820
 6365SOL     OW19993   5.744   5.795   3.752
 6365SOL    HW119994   5.789   5.774   3.665
 6365SOL    HW219995   5.714   5.709   3.795
 6366SOL     OW19996   6.289   6.702   4.815
 6366SOL    HW119997   6.321   6.640   4.744
 6366SOL    HW219998   6.190   6.692   4.826
 6367SOL     OW19999   3.182   2.101   2.720
 6367SOL    HW120000   3.148   2.051   2.799
 6367SOL    HW220001   3.233   2.038   2.660
 6368SOL     OW20002   4.929   3.457   4.898
 6368SOL    HW120003   4.872   3.513   4.959
 6368SOL    HW220004   5.022   3.493   4.897
 6369SOL     OW20005   3.216   6.403   5.941
 6369SOL    HW120006   3.174   6.423   6.030
 6369SOL    HW220007   3.173   6.323   5.901
 6370SOL     OW20008   5.457   3.833   3.819
 6370SOL    HW120009   5.418   3.860   3.907
 6370SOL    HW220010   5.555   3.856   3.817
 6371SOL     OW20011   5.236   4.062   1.818
 6371SOL    HW120012   5.144   4.101   1.812
 6371SOL    HW220013   5.231   3.971   1.860
 6372SOL     OW20014   6.845   1.018   3.204
 6372SOL    HW120015   6.790   0.978   3.278
 6372SOL    HW220016   6.925   1.063   3.243
 6373SOL     OW20017   5.247   4.136   1.233
 6373SOL    HW120018   5.271   4.067   1.165
 6373SOL    HW220019   5.148   4.145   1.239
 6374SOL     OW20020   4.580   3.031   0.579
 6374SOL    HW120021   4.593   2.992   0.670
 6374SOL    HW220022   4.586   3.130   0.583
 6375SOL     OW20023   6.854   2.722   2.536
 6375SOL    HW120024   6.892   2.789   2.600
 6375SOL    HW220025   6.910   2.720   2.453
 6376SOL     OW20026   3.483   0.854   5.723
 6376SOL    HW120027   3.466   0.949   5.696
 6376SOL    HW220028   3.401   0.817   5.766
 6377SOL     OW20029   0.016   0.349   6.959
 6377SOL    HW120030   6.938   0.344   6.952
 6377SOL    HW220031   0.050   0.270   7.009
 6378SOL     OW20032   5.538   5.607   3.505
 6378SOL    HW120033   5.500   5.678   3.565
 6378SOL    HW220034   5.524   5.633   3.409
 6379SOL     OW20035   2.975   5.566   6.510
 6379SOL    HW120036   3.022   5.609   6.432
 6379SOL    HW220037   2.916   5.493   6.476
 6380SOL     OW20038   1.429   3.353   5.023
 6380SOL    HW120039   1.509   3.296   5.006
 6380SOL    HW220040   1.354   3.297   5.059
 6381SOL     OW20041   4.811   3.458   0.360
 6381SOL    HW120042   4.725   3.408   0.366
 6381SOL    HW220043   4.887   3.396   0.382
 6382SOL     OW20044   2.722   1.485   1.393
 6382SOL    HW120045   2.768   1.553   1.336
 6382SOL    HW220046   2.640   1.452   1.345
 6383SOL     OW20047   2.000   2.068   2.698
 6383SOL    HW120048   1.915   2.116   2.720
 6383SOL    HW220049   2.044   2.112   2.620
 6384SOL     OW20050   6.924   2.555   2.048
 6384SOL    HW120051   6.885   2.474   2.003
 6384SOL    HW220052   7.008   2.582   2.002
 6385SOL     OW20053   0.225   3.339   1.367
 6385SOL    HW120054   0.266   3.253   1.334
 6385SOL    HW220055   0.145   3.362   1.312
 6386SOL     OW20056   2.227   3.096   0.606
 6386SOL    HW120057   2.257   3.004   0.582
 6386SOL    HW220058   2.246   3.158   0.529
 6387SOL     OW20059   6.198   0.662   0.346
 6387SOL    HW120060   6.177   0.676   0.249
 6387SOL    HW220061   6.115   0.635   0.394
 6388SOL     OW20062   6.213   5.157   2.833
 6388SOL    HW120063   6.195   5.193   2.741
 6388SOL    HW220064   6.311   5.161   2.851
 6389SOL     OW20065   1.701   0.534   0.037
 6389SOL    HW120066   1.683   0.628   0.009
 6389SOL    HW220067   1.794   0.527   0.073
 6390SOL     OW20068   6.236   1.220   6.614
 6390SOL    HW120069   6.287   1.142   6.579
 6390SOL    HW220070   6.288   1.265   6.686
 6391SOL     OW20071   1.486   1.419   5.189
 6391SOL    HW120072   1.578   1.431   5.152
 6391SOL    HW220073   1.486   1.444   5.286
 6392SOL     OW20074   3.226   5.715   3.612
 6392SOL    HW120075   3.259   5.770   3.689
 6392SOL    HW220076   3.154   5.765   3.564
 6393SOL     OW20077   6.248   6.332   1.235
 6393SOL    HW120078   6.152   6.332   1.261
 6393SOL    HW220079   6.283   6.238   1.233
 6394SOL     OW20080   0.841   5.164   0.872
 6394SOL    HW120081   0.921   5.103   0.873
 6394SOL    HW220082   0.872   5.259   0.870
 6395SOL     OW20083   1.602   4.209   3.219
 6395SOL    HW120084   1.571   4.202   3.124
 6395SOL    HW220085   1.544   4.151   3.277
 6396SOL     OW20086   6.761   3.895   0.425
 6396SOL    HW120087   6.849   3.909   0.471
 6396SOL    HW220088   6.740   3.976   0.369
 6397SOL     OW20089   5.656   2.587   3.456
 6397SOL    HW120090   5.590   2.520   3.491
 6397SOL    HW220091   5.724   2.605   3.526
 6398SOL     OW20092   1.122   6.597   1.163
 6398SOL    HW120093   1.064   6.632   1.237
 6398SOL    HW220094   1.174   6.673   1.124
 6399SOL     OW20095   2.396   0.357   6.012
 6399SOL    HW120096   2.438   0.266   6.018
 6399SOL    HW220097   2.468   0.426   6.006
 6400SOL     OW20098   1.393   5.535   2.805
 6400SOL    HW120099   1.389   5.556   2.707
 6400SOL    HW220100   1.305   5.555   2.848
 6401SOL     OW20101   3.597   5.390   3.395
 6401SOL    HW120102   3.658   5.405   3.318
 6401SOL    HW220103   3.574   5.477   3.438
 6402SOL     OW20104   2.158   4.646   4.765
 6402SOL    HW120105   2.157   4.547   4.775
 6402SOL    HW220106   2.148   4.670   4.668
 6403SOL     OW20107   4.998   6.349   5.071
 6403SOL    HW120108   4.950   6.340   5.158
 6403SOL    HW220109   5.094   6.368   5.088
 6404SOL     OW20110   3.601   0.536   2.377
 6404SOL    HW120111   3.668   0.587   2.323
 6404SOL    HW220112   3.533   0.497   2.316
 6405SOL     OW20113   5.496   1.548   2.867
 6405SOL    HW120114   5.515   1.609   2.944
 6405SOL    HW220115   5.582   1.509   2.833
 6406SOL     OW20116   1.263   3.018   2.697
 6406SOL    HW120117   1.164   3.034   2.698
 6406SOL    HW220118   1.283   2.937   2.641
 6407SOL     OW20119   2.293   6.096   3.190
 6407SOL    HW120120   2.250   6.172   3.140
 6407SOL    HW220121   2.272   6.010   3.144
 6408SOL     OW20122   6.674   0.360   0.532
 6408SOL    HW120123   6.575   0.366   0.542
 6408SOL    HW220124   6.700   0.267   0.508
 6409SOL     OW20125   6.206   5.007   3.933
 6409SOL    HW120126   6.202   5.078   3.864
 6409SOL    HW220127   6.125   4.949   3.927
 6410SOL     OW20128   3.254   1.687   5.536
 6410SOL    HW120129   3.297   1.603   5.504
 6410SOL    HW220130   3.155   1.681   5.524
 6411SOL     OW20131   0.267   2.192   2.875
 6411SOL    HW120132   0.225   2.104   2.897
 6411SOL    HW220133   0.198   2.264   2.881
 6412SOL     OW20134   3.198   0.824   6.885
 6412SOL    HW120135   3.180   0.787   6.976
 6412SOL    HW220136   3.119   0.808   6.826
 6413SOL     OW20137   4.494   5.076   3.945
 6413SOL    HW120138   4.580   5.054   3.991
 6413SOL    HW220139   4.434   5.125   4.008
 6414SOL     OW20140   1.089   7.014   6.787
 6414SOL    HW120141   1.095   6.998   6.885
 6414SOL    HW220142   1.179   0.014   6.750
 6415SOL     OW20143   1.143   2.604   3.300
 6415SOL    HW120144   1.138   2.657   3.384
 6415SOL    HW220145   1.130   2.665   3.221
 6416SOL     OW20146   2.841   0.443   6.535
 6416SOL    HW120147   2.925   0.476   6.579
 6416SOL    HW220148   2.814   0.506   6.462
 6417SOL     OW20149   4.959   1.566   1.239
 6417SOL    HW120150   4.892   1.635   1.212
 6417SOL    HW220151   5.028   1.607   1.298
 6418SOL     OW20152   4.329   4.825   1.138
 6418SOL    HW120153   4.399   4.784   1.080
 6418SOL    HW220154   4.241   4.781   1.121
 6419SOL     OW20155   0.711   6.600   6.449
 6419SOL    HW120156   0.629   6.571   6.400
 6419SOL    HW220157   0.700   6.580   6.547
 6420SOL     OW20158   1.367   3.128   4.050
 6420SOL    HW120159   1.450   3.133   4.107
 6420SOL    HW220160   1.287   3.124   4.110
 6421SOL     OW20161   4.939   6.900   1.638
 6421SOL    HW120162   4.936   6.910   1.738
 6421SOL    HW220163   4.991   6.976   1.599
 6422SOL     OW20164   6.539   2.521   4.636
 6422SOL    HW120165   6.476   2.551   4.564
 6422SOL    HW220166   6.631   2.551   4.613
 6423SOL     OW20167   2.487   4.468   4.135
 6423SOL    HW120168   2.506   4.489   4.231
 6423SOL    HW220169   2.434   4.383   4.130
 6424SOL     OW20170   0.791   3.889   4.900
 6424SOL    HW120171   0.770   3.852   4.810
 6424SOL    HW220172   0.882   3.858   4.929
 6425SOL     OW20173   0.406   6.204   2.625
 6425SOL    HW120174   0.307   6.219   2.618
 6425SOL    HW220175   0.440   6.247   2.708
 6426SOL     OW20176   4.570   4.696   4.708
 6426SOL    HW120177   4.506   4.662   4.639
 6426SOL    HW220178   4.521   4.712   4.793
 6427SOL     OW20179   2.928   3.310   3.580
 6427SOL    HW120180   2.834   3.337   3.562
 6427SOL    HW220181   2.977   3.298   3.494
 6428SOL     OW20182   4.539   2.722   0.250
 6428SOL    HW120183   4.520   2.818   0.230
 6428SOL    HW220184   4.625   2.715   0.301
 6429SOL     OW20185   2.412   0.425   5.058
 6429SOL    HW120186   2.353   0.421   5.138
 6429SOL    HW220187   2.505   0.450   5.086
 6430SOL     OW20188   6.769   0.482   5.172
 6430SOL    HW120189   6.785   0.501   5.269
 6430SOL    HW220190   6.825   0.405   5.143
 6431SOL     OW20191   4.055   5.091   2.401
 6431SOL    HW120192   4.082   5.023   2.334
 6431SOL    HW220193   4.108   5.078   2.485
 6432SOL     OW20194   3.979   4.323   6.509
 6432SOL    HW120195   3.960   4.399   6.571
 6432SOL    HW220196   4.044   4.261   6.553
 6433SOL     OW20197   2.454   5.676   6.948
 6433SOL    HW120198   2.391   5.727   6.889
 6433SOL    HW220199   2.535   5.650   6.895
 6434SOL     OW20200   3.190   6.010   5.723
 6434SOL    HW120201   3.262   5.946   5.753
 6434SOL    HW220202   3.111   5.959   5.691
 6435SOL     OW20203   4.952   0.683   0.880
 6435SOL    HW120204   5.008   0.605   0.852
 6435SOL    HW220205   4.900   0.659   0.962
 6436SOL     OW20206   0.087   4.083   3.821
 6436SOL    HW120207   0.017   4.039   3.876
 6436SOL    HW220208   0.171   4.091   3.874
 6437SOL     OW20209   0.551   1.207   5.563
 6437SOL    HW120210   0.644   1.172   5.562
 6437SOL    HW220211   0.487   1.131   5.574
 6438SOL     OW20212   0.520   5.634   6.932
 6438SOL    HW120213   0.440   5.657   6.988
 6438SOL    HW220214   0.526   5.535   6.922
 6439SOL     OW20215   5.807   0.771   3.599
 6439SOL    HW120216   5.807   0.790   3.501
 6439SOL    HW220217   5.900   0.779   3.634
 6440SOL     OW20218   2.555   0.768   5.795
 6440SOL    HW120219   2.604   0.845   5.755
 6440SOL    HW220220   2.495   0.800   5.868
 6441SOL     OW20221   0.315   0.965   3.057
 6441SOL    HW120222   0.347   1.035   2.993
 6441SOL    HW220223   0.296   0.880   3.008
 6442SOL     OW20224   2.936   2.457   5.738
 6442SOL    HW120225   2.924   2.358   5.745
 6442SOL    HW220226   2.930   2.485   5.643
 6443SOL     OW20227   4.304   2.512   0.917
 6443SOL    HW120228   4.290   2.595   0.863
 6443SOL    HW220229   4.227   2.449   0.903
 6444SOL     OW20230   0.163   3.057   5.376
 6444SOL    HW120231   0.156   2.990   5.302
 6444SOL    HW220232   0.233   3.028   5.440
 6445SOL     OW20233   2.983   3.679   2.967
 6445SOL    HW120234   2.931   3.686   2.881
 6445SOL    HW220235   3.066   3.625   2.951
 6446SOL     OW20236   2.044   1.496   6.741
 6446SOL    HW120237   2.137   1.503   6.778
 6446SOL    HW220238   1.980   1.475   6.815
 6447SOL     OW20239   5.828   4.536   1.348
 6447SOL    HW120240   5.884   4.602   1.399
 6447SOL    HW220241   5.850   4.444   1.378
 6448SOL     OW20242   4.825   5.403   2.000
 6448SOL    HW120243   4.913   5.451   2.000
 6448SOL    HW220244   4.839   5.307   1.976
 6449SOL     OW20245   2.136   5.485   1.580
 6449SOL    HW120246   2.041   5.494   1.608
 6449SOL    HW220247   2.142   5.434   1.494
 6450SOL     OW20248   0.332   3.736   1.118
 6450SOL    HW120249   0.394   3.662   1.148
 6450SOL    HW220250   0.367   3.823   1.150
 6451SOL     OW20251   3.332   2.648   1.292
 6451SOL    HW120252   3.241   2.606   1.292
 6451SOL    HW220253   3.364   2.659   1.386
 6452SOL     OW20254   5.139   3.180   3.302
 6452SOL    HW120255   5.063   3.121   3.331
 6452SOL    HW220256   5.204   3.127   3.249
 6453SOL     OW20257   3.121   6.795   1.016
 6453SOL    HW120258   3.201   6.812   0.958
 6453SOL    HW220259   3.149   6.790   1.112
 6454SOL     OW20260   6.058   2.943   2.809
 6454SOL    HW120261   6.103   2.948   2.720
 6454SOL    HW220262   6.007   2.857   2.816
 6455SOL     OW20263   6.393   3.957   3.829
 6455SOL    HW120264   6.319   4.005   3.877
 6455SOL    HW220265   6.414   4.005   3.744
 6456SOL     OW20266   6.580   1.344   3.080
 6456SOL    HW120267   6.484   1.335   3.054
 6456SOL    HW220268   6.632   1.265   3.048
 6457SOL     OW20269   4.749   6.909   1.430
 6457SOL    HW120270   4.780   6.974   1.361
 6457SOL    HW220271   4.810   6.914   1.509
 6458SOL     OW20272   1.311   4.720   3.724
 6458SOL    HW120273   1.254   4.684   3.650
 6458SOL    HW220274   1.275   4.689   3.812
 6459SOL     OW20275   6.578   2.897   2.772
 6459SOL    HW120276   6.556   2.800   2.781
 6459SOL    HW220277   6.608   2.933   2.861
 6460SOL     OW20278   0.037   6.045   5.896
 6460SOL    HW120279   6.987   5.997   5.944
 6460SOL    HW220280   0.107   5.980   5.867
 6461SOL     OW20281   2.928   4.811   0.977
 6461SOL    HW120282   2.875   4.769   1.051
 6461SOL    HW220283   2.888   4.787   0.889
 6462SOL     OW20284   1.649   4.303   4.975
 6462SOL    HW120285   1.646   4.203   4.973
 6462SOL    HW220286   1.585   4.339   4.907
 6463SOL     OW20287   4.285   1.093   1.456
 6463SOL    HW120288   4.201   1.092   1.511
 6463SOL    HW220289   4.363   1.113   1.514
 6464SOL     OW20290   0.842   6.134   4.435
 6464SOL    HW120291   0.823   6.145   4.337
 6464SOL    HW220292   0.806   6.214   4.485
 6465SOL     OW20293   4.908   2.406   3.133
 6465SOL    HW120294   4.921   2.432   3.038
 6465SOL    HW220295   4.813   2.379   3.148
 6466SOL     OW20296   0.268   3.550   0.293
 6466SOL    HW120297   0.354   3.502   0.277
 6466SOL    HW220298   0.240   3.598   0.210
 6467SOL     OW20299   3.336   1.374   0.811
 6467SOL    HW120300   3.299   1.465   0.833
 6467SOL    HW220301   3.263   1.317   0.773
 6468SOL     OW20302   3.231   0.162   0.565
 6468SOL    HW120303   3.270   0.150   0.473
 6468SOL    HW220304   3.227   0.073   0.611
 6469SOL     OW20305   3.611   1.931   3.418
 6469SOL    HW120306   3.680   1.950   3.347
 6469SOL    HW220307   3.623   1.838   3.452
 6470SOL     OW20308   6.311   2.418   6.573
 6470SOL    HW120309   6.322   2.389   6.668
 6470SOL    HW220310   6.399   2.448   6.536
 6471SOL     OW20311   0.309   5.944   4.853
 6471SOL    HW120312   0.262   5.878   4.912
 6471SOL    HW220313   0.405   5.919   4.845
 6472SOL     OW20314   6.713   5.888   2.465
 6472SOL    HW120315   6.643   5.897   2.536
 6472SOL    HW220316   6.798   5.856   2.507
 6473SOL     OW20317   1.883   1.262   3.722
 6473SOL    HW120318   1.915   1.251   3.627
 6473SOL    HW220319   1.784   1.256   3.724
 6474SOL     OW20320   4.316   6.224   4.634
 6474SOL    HW120321   4.305   6.159   4.710
 6474SOL    HW220322   4.372   6.301   4.663
 6475SOL     OW20323   5.788   5.256   2.921
 6475SOL    HW120324   5.804   5.296   2.831
 6475SOL    HW220325   5.710   5.301   2.964
 6476SOL     OW20326   4.220   1.472   6.520
 6476SOL    HW120327   4.183   1.532   6.592
 6476SOL    HW220328   4.144   1.424   6.475
 6477SOL     OW20329   6.869   6.162   1.266
 6477SOL    HW120330   6.811   6.150   1.185
 6477SOL    HW220331   6.959   6.195   1.238
 6478SOL     OW20332   3.164   5.808   2.080
 6478SOL    HW120333   3.066   5.821   2.069
 6478SOL    HW220334   3.213   5.869   2.017
 6479SOL     OW20335   3.565   6.196   4.329
 6479SOL    HW120336   3.610   6.256   4.395
 6479SOL    HW220337   3.468   6.187   4.353
 6480SOL     OW20338   2.980   1.243   6.831
 6480SOL    HW120339   2.971   1.321   6.894
 6480SOL    HW220340   3.060   1.189   6.856
 6481SOL     OW20341   3.317   2.443   1.583
 6481SOL    HW120342   3.366   2.527   1.562
 6481SOL    HW220343   3.221   2.464   1.605
 6482SOL     OW20344   6.784   3.280   5.347
 6482SOL    HW120345   6.825   3.256   5.259
 6482SOL    HW220346   6.843   3.248   5.421
 6483SOL     OW20347   1.520   5.946   5.071
 6483SOL    HW120348   1.445   5.927   5.009
 6483SOL    HW220349   1.485   5.957   5.164
 6484SOL     OW20350   2.376   1.088   3.700
 6484SOL    HW120351   2.287   1.057   3.734
 6484SOL    HW220352   2.436   1.009   3.686
 6485SOL     OW20353   1.761   6.728   4.500
 6485SOL    HW120354   1.812   6.675   4.568
 6485SOL    HW220355   1.699   6.791   4.547
 6486SOL     OW20356   1.532   5.204   3.308
 6486SOL    HW120357   1.628   5.221   3.331
 6486SOL    HW220358   1.504   5.116   3.346
 6487SOL     OW20359   7.007   4.744   4.014
 6487SOL    HW120360   0.021   4.693   4.092
 6487SOL    HW220361   7.018   4.842   4.030
 6488SOL     OW20362   4.790   5.636   4.922
 6488SOL    HW120363   4.811   5.565   4.854
 6488SOL    HW220364   4.719   5.696   4.886
 6489SOL     OW20365   4.118   3.099   6.031
 6489SOL    HW120366   4.140   3.022   5.971
 6489SOL    HW220367   4.020   3.117   6.027
 6490SOL     OW20368   1.750   1.829   6.534
 6490SOL    HW120369   1.689   1.761   6.575
 6490SOL    HW220370   1.845   1.804   6.553
 6491SOL     OW20371   1.368   0.198   0.650
 6491SOL    HW120372   1.316   0.269   0.697
 6491SOL    HW220373   1.465   0.222   0.651
 6492SOL     OW20374   3.073   4.008   4.565
 6492SOL    HW120375   2.993   3.949   4.572
 6492SOL    HW220376   3.084   4.039   4.471
 6493SOL     OW20377   0.915   4.324   6.667
 6493SOL    HW120378   0.939   4.397   6.603
 6493SOL    HW220379   0.955   4.238   6.636
 6494SOL     OW20380   6.261   6.310   1.642
 6494SOL    HW120381   6.320   6.390   1.636
 6494SOL    HW220382   6.281   6.260   1.726
 6495SOL     OW20383   0.170   0.323   3.486
 6495SOL    HW120384   0.072   0.327   3.464
 6495SOL    HW220385   0.218   0.276   3.412
 6496SOL     OW20386   4.784   0.284   2.149
 6496SOL    HW120387   4.777   0.368   2.095
 6496SOL    HW220388   4.764   0.304   2.245
 6497SOL     OW20389   0.231   1.528   0.928
 6497SOL    HW120390   0.190   1.488   0.846
 6497SOL    HW220391   0.211   1.626   0.931
 6498SOL     OW20392   0.826   4.483   3.803
 6498SOL    HW120393   0.730   4.480   3.775
 6498SOL    HW220394   0.885   4.462   3.726
 6499SOL     OW20395   5.932   4.086   4.647
 6499SOL    HW120396   5.885   4.173   4.633
 6499SOL    HW220397   5.952   4.074   4.744
 6500SOL     OW20398   1.481   3.920   2.489
 6500SOL    HW120399   1.566   3.900   2.440
 6500SOL    HW220400   1.413   3.849   2.471
 6501SOL     OW20401   6.421   2.090   1.086
 6501SOL    HW120402   6.483   2.045   1.022
 6501SOL    HW220403   6.413   2.035   1.169
 6502SOL     OW20404   5.876   3.795   2.082
 6502SOL    HW120405   5.928   3.792   2.167
 6502SOL    HW220406   5.784   3.760   2.098
 6503SOL     OW20407   6.565   3.069   5.433
 6503SOL    HW120408   6.583   3.161   5.398
 6503SOL    HW220409   6.607   3.058   5.523
 6504SOL     OW20410   4.631   6.496   6.442
 6504SOL    HW120411   4.617   6.571   6.506
 6504SOL    HW220412   4.542   6.465   6.407
 6505SOL     OW20413   5.846   6.107   0.109
 6505SOL    HW120414   5.757   6.147   0.130
 6505SOL    HW220415   5.887   6.155   0.032
 6506SOL     OW20416   0.282   2.848   2.958
 6506SOL    HW120417   0.355   2.836   3.025
 6506SOL    HW220418   0.248   2.942   2.962
 6507SOL     OW20419   3.675   4.551   6.580
 6507SOL    HW120420   3.691   4.475   6.644
 6507SOL    HW220421   3.726   4.534   6.496
 6508SOL     OW20422   1.323   6.511   1.615
 6508SOL    HW120423   1.270   6.427   1.600
 6508SOL    HW220424   1.398   6.515   1.549
 6509SOL     OW20425   3.621   1.730   5.840
 6509SOL    HW120426   3.648   1.717   5.936
 6509SOL    HW220427   3.526   1.761   5.836
 6510SOL     OW20428   4.290   6.061   5.552
 6510SOL    HW120429   4.220   5.996   5.521
 6510SOL    HW220430   4.311   6.043   5.648
 6511SOL     OW20431   3.989   1.320   6.494
 6511SOL    HW120432   3.935   1.273   6.424
 6511SOL    HW220433   3.932   1.389   6.539
 6512SOL     OW20434   3.457   0.885   1.161
 6512SOL    HW120435   3.371   0.936   1.169
 6512SOL    HW220436   3.527   0.929   1.218
 6513SOL     OW20437   2.888   5.562   4.722
 6513SOL    HW120438   2.918   5.569   4.818
 6513SOL    HW220439   2.836   5.644   4.698
 6514SOL     OW20440   5.866   0.538   5.348
 6514SOL    HW120441   5.848   0.491   5.262
 6514SOL    HW220442   5.782   0.583   5.380
 6515SOL     OW20443   1.859   4.881   2.009
 6515SOL    HW120444   1.785   4.930   1.962
 6515SOL    HW220445   1.907   4.944   2.070
 6516SOL     OW20446   0.431   2.910   1.305
 6516SOL    HW120447   0.354   2.908   1.369
 6516SOL    HW220448   0.516   2.918   1.357
 6517SOL     OW20449   0.101   2.820   6.688
 6517SOL    HW120450   0.034   2.816   6.613
 6517SOL    HW220451   0.076   2.894   6.751
 6518SOL     OW20452   0.710   1.334   2.960
 6518SOL    HW120453   0.651   1.386   3.022
 6518SOL    HW220454   0.769   1.274   3.014
 6519SOL     OW20455   1.015   1.560   3.254
 6519SOL    HW120456   0.918   1.577   3.267
 6519SOL    HW220457   1.036   1.556   3.156
 6520SOL     OW20458   6.971   5.447   6.662
 6520SOL    HW120459   6.985   5.464   6.760
 6520SOL    HW220460   6.991   5.530   6.611
 6521SOL     OW20461   1.469   2.896   4.362
 6521SOL    HW120462   1.477   2.867   4.457
 6521SOL    HW220463   1.460   2.996   4.358
 6522SOL     OW20464   2.426   3.985   5.505
 6522SOL    HW120465   2.371   4.036   5.439
 6522SOL    HW220466   2.498   3.934   5.457
 6523SOL     OW20467   5.873   0.354   0.042
 6523SOL    HW120468   5.910   0.293   0.112
 6523SOL    HW220469   5.833   0.435   0.085
 6524SOL     OW20470   2.195   2.175   1.460
 6524SOL    HW120471   2.175   2.270   1.436
 6524SOL    HW220472   2.110   2.126   1.478
 6525SOL     OW20473   1.285   4.986   3.679
 6525SOL    HW120474   1.219   5.036   3.735
 6525SOL    HW220475   1.304   4.898   3.721
 6526SOL     OW20476   0.421   0.048   0.791
 6526SOL    HW120477   0.467   0.121   0.841
 6526SOL    HW220478   0.322   0.060   0.800
 6527SOL     OW20479   0.539   2.365   0.563
 6527SOL    HW120480   0.450   2.403   0.538
 6527SOL    HW220481   0.571   2.409   0.647
 6528SOL     OW20482   6.123   1.123   5.563
 6528SOL    HW120483   6.098   1.070   5.481
 6528SOL    HW220484   6.198   1.077   5.610
 6529SOL     OW20485   6.594   1.374   2.094
 6529SOL    HW120486   6.633   1.399   2.183
 6529SOL    HW220487   6.649   1.302   2.053
 6530SOL     OW20488   0.490   2.457   2.200
 6530SOL    HW120489   0.552   2.476   2.124
 6530SOL    HW220490   0.435   2.538   2.220
 6531SOL     OW20491   4.252   3.328   5.924
 6531SOL    HW120492   4.297   3.385   5.993
 6531SOL    HW220493   4.195   3.260   5.969
 6532SOL     OW20494   1.153   0.769   0.829
 6532SOL    HW120495   1.130   0.856   0.786
 6532SOL    HW220496   1.188   0.706   0.760
 6533SOL     OW20497   4.497   3.918   6.691
 6533SOL    HW120498   4.590   3.917   6.728
 6533SOL    HW220499   4.492   3.983   6.615
 6534SOL     OW20500   5.827   4.623   1.952
 6534SOL    HW120501   5.728   4.634   1.946
 6534SOL    HW220502   5.849   4.534   1.991
 6535SOL     OW20503   6.177   3.302   4.585
 6535SOL    HW120504   6.087   3.291   4.626
 6535SOL    HW220505   6.248   3.291   4.655
 6536SOL     OW20506   0.588   2.907   5.440
 6536SOL    HW120507   0.633   2.950   5.518
 6536SOL    HW220508   0.492   2.891   5.461
 6537SOL     OW20509   6.221   4.582   4.832
 6537SOL    HW120510   6.193   4.665   4.783
 6537SOL    HW220511   6.242   4.605   4.927
 6538SOL     OW20512   2.045   3.901   4.940
 6538SOL    HW120513   1.999   3.888   5.028
 6538SOL    HW220514   2.126   3.959   4.953
 6539SOL     OW20515   6.681   0.676   6.574
 6539SOL    HW120516   6.713   0.769   6.556
 6539SOL    HW220517   6.581   0.675   6.575
 6540SOL     OW20518   4.017   2.701   6.037
 6540SOL    HW120519   3.962   2.778   6.007
 6540SOL    HW220520   4.054   2.652   5.957
 6541SOL     OW20521   6.322   1.399   5.006
 6541SOL    HW120522   6.317   1.495   5.033
 6541SOL    HW220523   6.271   1.385   4.921
 6542SOL     OW20524   1.661   3.069   4.694
 6542SOL    HW120525   1.741   3.112   4.654
 6542SOL    HW220526   1.657   3.088   4.792
 6543SOL     OW20527   3.584   2.043   4.813
 6543SOL    HW120528   3.491   2.080   4.802
 6543SOL    HW220529   3.644   2.085   4.746
 6544SOL     OW20530   0.966   0.374   1.328
 6544SOL    HW120531   1.026   0.440   1.285
 6544SOL    HW220532   0.958   0.293   1.269
 6545SOL     OW20533   4.289   6.966   1.308
 6545SOL    HW120534   4.240   6.879   1.300
 6545SOL    HW220535   4.230   0.018   1.276
 6546SOL     OW20536   5.283   4.465   6.287
 6546SOL    HW120537   5.334   4.514   6.358
 6546SOL    HW220538   5.228   4.393   6.329
 6547SOL     OW20539   5.546   5.934   0.052
 6547SOL    HW120540   5.463   5.989   0.055
 6547SOL    HW220541   5.587   5.930   0.144
 6548SOL     OW20542   0.755   2.739   6.116
 6548SOL    HW120543   0.784   2.652   6.077
 6548SOL    HW220544   0.744   2.807   6.043
 6549SOL     OW20545   4.971   6.903   1.923
 6549SOL    HW120546   4.922   6.885   2.008
 6549SOL    HW220547   5.052   6.959   1.943
 6550SOL     OW20548   6.454   0.030   3.021
 6550SOL    HW120549   6.365   7.015   3.045
 6550SOL    HW220550   6.502   0.058   3.104
 6551SOL     OW20551   3.224   3.446   1.059
 6551SOL    HW120552   3.164   3.422   1.136
 6551SOL    HW220553   3.168   3.478   0.983
 6552SOL     OW20554   2.244   6.790   0.533
 6552SOL    HW120555   2.310   6.798   0.609
 6552SOL    HW220556   2.152   6.810   0.567
 6553SOL     OW20557   0.125   1.177   2.754
 6553SOL    HW120558   0.068   1.162   2.674
 6553SOL    HW220559   0.077   1.236   2.819
 6554SOL     OW20560   2.969   0.981   4.414
 6554SOL    HW120561   3.053   0.973   4.360
 6554SOL    HW220562   2.897   0.925   4.373
 6555SOL     OW20563   6.228   2.123   4.982
 6555SOL    HW120564   6.226   2.219   4.953
 6555SOL    HW220565   6.135   2.091   4.999
 6556SOL     OW20566   6.050   3.339   3.343
 6556SOL    HW120567   6.071   3.430   3.380
 6556SOL    HW220568   6.072   3.336   3.246
 6557SOL     OW20569   1.414   6.768   2.391
 6557SOL    HW120570   1.328   6.763   2.340
 6557SOL    HW220571   1.443   6.864   2.399
 6558SOL     OW20572   5.719   5.199   0.248
 6558SOL    HW120573   5.751   5.239   0.334
 6558SOL    HW220574   5.712   5.100   0.258
 6559SOL     OW20575   6.837   3.411   6.452
 6559SOL    HW120576   6.847   3.332   6.513
 6559SOL    HW220577   6.832   3.379   6.357
 6560SOL     OW20578   4.834   4.833   0.470
 6560SOL    HW120579   4.842   4.873   0.379
 6560SOL    HW220580   4.892   4.883   0.534
 6561SOL     OW20581   4.010   5.049   0.315
 6561SOL    HW120582   4.043   5.069   0.407
 6561SOL    HW220583   4.088   5.042   0.252
 6562SOL     OW20584   5.690   2.459   0.802
 6562SOL    HW120585   5.672   2.469   0.704
 6562SOL    HW220586   5.718   2.547   0.840
 6563SOL     OW20587   5.095   6.945   5.269
 6563SOL    HW120588   5.186   6.966   5.233
 6563SOL    HW220589   5.086   6.846   5.279
 6564SOL     OW20590   6.994   3.972   2.573
 6564SOL    HW120591   6.919   4.011   2.625
 6564SOL    HW220592   0.040   3.935   2.636
 6565SOL     OW20593   6.416   6.776   2.009
 6565SOL    HW120594   6.366   6.862   2.018
 6565SOL    HW220595   6.354   6.706   1.973
 6566SOL     OW20596   3.553   5.466   2.328
 6566SOL    HW120597   3.608   5.457   2.411
 6566SOL    HW220598   3.489   5.543   2.339
 6567SOL     OW20599   4.463   0.788   1.661
 6567SOL    HW120600   4.526   0.858   1.629
 6567SOL    HW220601   4.442   0.804   1.758
 6568SOL     OW20602   3.821   1.453   1.986
 6568SOL    HW120603   3.901   1.462   1.927
 6568SOL    HW220604   3.747   1.512   1.952
 6569SOL     OW20605   0.880   3.191   5.655
 6569SOL    HW120606   0.791   3.152   5.678
 6569SOL    HW220607   0.933   3.205   5.739
 6570SOL     OW20608   3.862   7.021   1.864
 6570SOL    HW120609   3.804   0.008   1.945
 6570SOL    HW220610   3.874   0.089   1.821
 6571SOL     OW20611   2.908   4.789   3.292
 6571SOL    HW120612   2.992   4.843   3.288
 6571SOL    HW220613   2.929   4.699   3.330
 6572SOL     OW20614   0.435   5.093   3.828
 6572SOL    HW120615   0.474   5.104   3.920
 6572SOL    HW220616   0.335   5.095   3.835
 6573SOL     OW20617   1.755   0.929   3.018
 6573SOL    HW120618   1.820   0.854   3.025
 6573SOL    HW220619   1.668   0.895   2.981
 6574SOL     OW20620   2.076   6.051   2.724
 6574SOL    HW120621   2.034   6.129   2.678
 6574SOL    HW220622   2.158   6.081   2.773
 6575SOL     OW20623   7.005   0.354   2.650
 6575SOL    HW120624   6.927   0.358   2.713
 6575SOL    HW220625   0.004   0.446   2.618
 6576SOL     OW20626   3.496   5.116   0.182
 6576SOL    HW120627   3.514   5.082   0.274
 6576SOL    HW220628   3.487   5.216   0.185
 6577SOL     OW20629   1.968   2.331   4.109
 6577SOL    HW120630   1.895   2.385   4.067
 6577SOL    HW220631   1.956   2.333   4.209
 6578SOL     OW20632   1.507   5.278   1.006
 6578SOL    HW120633   1.545   5.223   0.932
 6578SOL    HW220634   1.576   5.344   1.037
 6579SOL     OW20635   6.814   1.096   3.531
 6579SOL    HW120636   6.760   1.175   3.558
 6579SOL    HW220637   6.904   1.125   3.500
 6580SOL     OW20638   1.172   0.297   6.986
 6580SOL    HW120639   1.225   0.278   0.045
 6580SOL    HW220640   1.082   0.331   7.012
 6581SOL     OW20641   1.537   1.632   0.012
 6581SOL    HW120642   1.558   1.542   6.996
 6581SOL    HW220643   1.469   1.677   6.977
 6582SOL     OW20644   6.597   0.332   2.701
 6582SOL    HW120645   6.619   0.242   2.741
 6582SOL    HW220646   6.655   0.402   2.742
 6583SOL     OW20647   4.456   6.948   6.134
 6583SOL    HW120648   4.486   6.953   6.229
 6583SOL    HW220649   4.504   7.019   6.081
 6584SOL     OW20650   3.676   2.710   1.159
 6584SOL    HW120651   3.635   2.620   1.173
 6584SOL    HW220652   3.682   2.730   1.061
 6585SOL     OW20653   6.004   6.891   0.664
 6585SOL    HW120654   5.914   6.927   0.686
 6585SOL    HW220655   5.994   6.806   0.613
 6586SOL     OW20656   5.999   2.190   6.100
 6586SOL    HW120657   5.988   2.168   6.197
 6586SOL    HW220658   6.044   2.279   6.090
 6587SOL     OW20659   1.492   4.404   5.589
 6587SOL    HW120660   1.500   4.495   5.548
 6587SOL    HW220661   1.574   4.351   5.568
 6588SOL     OW20662   0.483   3.191   0.585
 6588SOL    HW120663   0.424   3.256   0.537
 6588SOL    HW220664   0.579   3.209   0.560
 6589SOL     OW20665   6.291   1.076   1.438
 6589SOL    HW120666   6.319   1.133   1.515
 6589SOL    HW220667   6.287   0.980   1.467
 6590SOL     OW20668   0.673   0.873   5.472
 6590SOL    HW120669   0.632   0.870   5.563
 6590SOL    HW220670   0.698   0.780   5.444
 6591SOL     OW20671   5.050   5.339   4.629
 6591SOL    HW120672   5.076   5.336   4.532
 6591SOL    HW220673   4.992   5.418   4.645
 6592SOL     OW20674   5.032   0.521   3.128
 6592SOL    HW120675   4.982   0.601   3.160
 6592SOL    HW220676   5.076   0.476   3.206
 6593SOL     OW20677   2.939   2.122   2.426
 6593SOL    HW120678   2.880   2.041   2.432
 6593SOL    HW220679   2.932   2.162   2.335
 6594SOL     OW20680   3.704   1.426   5.986
 6594SOL    HW120681   3.800   1.398   5.996
 6594SOL    HW220682   3.697   1.525   5.998
 6595SOL     OW20683   2.300   2.102   4.667
 6595SOL    HW120684   2.214   2.066   4.702
 6595SOL    HW220685   2.374   2.083   4.732
 6596SOL     OW20686   5.069   5.658   2.638
 6596SOL    HW120687   5.056   5.742   2.692
 6596SOL    HW220688   5.015   5.584   2.679
 6597SOL     OW20689   0.918   5.571   1.904
 6597SOL    HW120690   0.989   5.501   1.911
 6597SOL    HW220691   0.845   5.539   1.843
 6598SOL     OW20692   1.800   4.327   4.067
 6598SOL    HW120693   1.718   4.383   4.079
 6598SOL    HW220694   1.877   4.371   4.114
 6599SOL     OW20695   5.619   5.724   6.856
 6599SOL    HW120696   5.534   5.776   6.864
 6599SOL    HW220697   5.697   5.788   6.855
 6600SOL     OW20698   4.765   0.578   5.624
 6600SOL    HW120699   4.810   0.624   5.701
 6600SOL    HW220700   4.796   0.483   5.619
 6601SOL     OW20701   0.975   3.073   2.680
 6601SOL    HW120702   0.930   3.140   2.738
 6601SOL    HW220703   0.907   3.029   2.621
 6602SOL     OW20704   2.121   0.327   1.364
 6602SOL    HW120705   2.211   0.335   1.321
 6602SOL    HW220706   2.101   0.231   1.381
 6603SOL     OW20707   0.571   2.961   3.811
 6603SOL    HW120708   0.613   2.978   3.721
 6603SOL    HW220709   0.607   3.026   3.877
 6604SOL     OW20710   2.793   0.252   1.940
 6604SOL    HW120711   2.777   0.172   1.998
 6604SOL    HW220712   2.728   0.324   1.964
 6605SOL     OW20713   6.015   5.460   1.650
 6605SOL    HW120714   6.082   5.428   1.583
 6605SOL    HW220715   6.016   5.400   1.730
 6606SOL     OW20716   1.171   3.588   3.346
 6606SOL    HW120717   1.228   3.523   3.397
 6606SOL    HW220718   1.205   3.595   3.252
 6607SOL     OW20719   5.810   4.466   4.175
 6607SOL    HW120720   5.859   4.509   4.251
 6607SOL    HW220721   5.861   4.387   4.143
 6608SOL     OW20722   7.022   6.838   6.868
 6608SOL    HW120723   0.088   6.877   6.892
 6608SOL    HW220724   6.982   6.889   6.792
 6609SOL     OW20725   5.061   1.940   6.057
 6609SOL    HW120726   5.038   1.983   6.145
 6609SOL    HW220727   5.098   2.009   5.995
 6610SOL     OW20728   2.594   5.533   0.797
 6610SOL    HW120729   2.691   5.512   0.804
 6610SOL    HW220730   2.559   5.559   0.887
 6611SOL     OW20731   4.970   2.185   3.731
 6611SOL    HW120732   4.948   2.160   3.637
 6611SOL    HW220733   4.988   2.283   3.736
 6612SOL     OW20734   5.813   2.498   6.142
 6612SOL    HW120735   5.774   2.551   6.218
 6612SOL    HW220736   5.776   2.405   6.145
 6613SOL     OW20737   5.324   0.765   6.407
 6613SOL    HW120738   5.267   0.844   6.384
 6613SOL    HW220739   5.321   0.751   6.506
 6614SOL     OW20740   4.664   5.639   1.940
 6614SOL    HW120741   4.717   5.565   1.983
 6614SOL    HW220742   4.695   5.727   1.975
 6615SOL     OW20743   3.003   5.601   0.281
 6615SOL    HW120744   2.983   5.569   0.188
 6615SOL    HW220745   2.946   5.551   0.346
 6616SOL     OW20746   4.317   0.476   6.447
 6616SOL    HW120747   4.325   0.383   6.409
 6616SOL    HW220748   4.375   0.484   6.528
 6617SOL     OW20749   3.897   0.596   3.322
 6617SOL    HW120750   3.835   0.569   3.395
 6617SOL    HW220751   3.904   0.696   3.318
 6618SOL     OW20752   0.736   1.644   3.318
 6618SOL    HW120753   0.719   1.643   3.417
 6618SOL    HW220754   0.694   1.564   3.276
 6619SOL     OW20755   4.765   6.983   4.365
 6619SOL    HW120756   4.784   6.921   4.441
 6619SOL    HW220757   4.672   6.967   4.332
 6620SOL     OW20758   0.765   3.853   3.399
 6620SOL    HW120759   0.687   3.811   3.445
 6620SOL    HW220760   0.831   3.782   3.374
 6621SOL     OW20761   3.969   3.195   4.889
 6621SOL    HW120762   3.892   3.133   4.871
 6621SOL    HW220763   4.022   3.208   4.805
 6622SOL     OW20764   6.289   5.829   0.852
 6622SOL    HW120765   6.285   5.863   0.946
 6622SOL    HW220766   6.385   5.819   0.825
 6623SOL     OW20767   3.422   4.214   5.628
 6623SOL    HW120768   3.423   4.123   5.587
 6623SOL    HW220769   3.463   4.280   5.564
 6624SOL     OW20770   0.871   2.480   4.956
 6624SOL    HW120771   0.935   2.427   4.902
 6624SOL    HW220772   0.795   2.422   4.985
 6625SOL     OW20773   6.038   2.986   5.618
 6625SOL    HW120774   5.987   3.048   5.558
 6625SOL    HW220775   6.104   3.039   5.671
 6626SOL     OW20776   2.913   6.827   4.670
 6626SOL    HW120777   2.983   6.757   4.669
 6626SOL    HW220778   2.922   6.884   4.588
 6627SOL     OW20779   1.555   5.928   4.683
 6627SOL    HW120780   1.541   5.928   4.584
 6627SOL    HW220781   1.625   5.994   4.707
 6628SOL     OW20782   5.034   5.708   3.978
 6628SOL    HW120783   5.103   5.713   3.906
 6628SOL    HW220784   4.960   5.773   3.958
 6629SOL     OW20785   5.006   6.006   6.852
 6629SOL    HW120786   5.039   6.038   6.941
 6629SOL    HW220787   4.916   6.046   6.834
 6630SOL     OW20788   2.771   1.259   2.182
 6630SOL    HW120789   2.750   1.254   2.084
 6630SOL    HW220790   2.720   1.188   2.231
 6631SOL     OW20791   1.549   4.906   5.838
 6631SOL    HW120792   1.646   4.882   5.830
 6631SOL    HW220793   1.538   5.004   5.822
 6632SOL     OW20794   1.241   0.392   1.105
 6632SOL    HW120795   1.283   0.474   1.067
 6632SOL    HW220796   1.305   0.348   1.169
 6633SOL     OW20797   3.105   5.695   6.289
 6633SOL    HW120798   3.124   5.762   6.218
 6633SOL    HW220799   3.190   5.650   6.316
 6634SOL     OW20800   5.239   2.076   5.827
 6634SOL    HW120801   5.203   2.118   5.909
 6634SOL    HW220802   5.338   2.061   5.838
 6635SOL     OW20803   4.681   4.648   2.653
 6635SOL    HW120804   4.612   4.583   2.687
 6635SOL    HW220805   4.714   4.704   2.730
 6636SOL     OW20806   2.965   0.090   2.451
 6636SOL    HW120807   3.005   0.177   2.423
 6636SOL    HW220808   3.034   0.018   2.444
 6637SOL     OW20809   1.740   0.527   0.749
 6637SOL    HW120810   1.734   0.577   0.662
 6637SOL    HW220811   1.727   0.591   0.824
 6638SOL     OW20812   2.920   3.639   3.629
 6638SOL    HW120813   2.974   3.582   3.690
 6638SOL    HW220814   2.906   3.729   3.671
 6639SOL     OW20815   4.316   2.906   0.786
 6639SOL    HW120816   4.415   2.912   0.773
 6639SOL    HW220817   4.285   2.814   0.762
 6640SOL     OW20818   0.684   3.089   5.236
 6640SOL    HW120819   0.620   3.112   5.163
 6640SOL    HW220820   0.645   3.018   5.295
 6641SOL     OW20821   4.095   1.764   1.211
 6641SOL    HW120822   4.104   1.856   1.250
 6641SOL    HW220823   4.185   1.729   1.188
 6642SOL     OW20824   1.813   5.271   0.637
 6642SOL    HW120825   1.871   5.208   0.688
 6642SOL    HW220826   1.839   5.270   0.540
 6643SOL     OW20827   5.477   6.045   0.637
 6643SOL    HW120828   5.425   6.025   0.554
 6643SOL    HW220829   5.558   6.099   0.614
 6644SOL     OW20830   2.000   6.545   2.359
 6644SOL    HW120831   1.993   6.555   2.458
 6644SOL    HW220832   1.911   6.521   2.321
 6645SOL     OW20833   6.139   2.937   0.504
 6645SOL    HW120834   6.050   2.971   0.471
 6645SOL    HW220835   6.147   2.956   0.602
 6646SOL     OW20836   4.106   0.741   0.315
 6646SOL    HW120837   4.170   0.672   0.349
 6646SOL    HW220838   4.077   0.717   0.222
 6647SOL     OW20839   4.784   5.049   0.944
 6647SOL    HW120840   4.877   5.039   0.908
 6647SOL    HW220841   4.776   4.996   1.029
 6648SOL     OW20842   3.024   6.226   4.453
 6648SOL    HW120843   2.999   6.185   4.541
 6648SOL    HW220844   3.000   6.323   4.454
 6649SOL     OW20845   5.612   2.623   6.648
 6649SOL    HW120846   5.609   2.620   6.748
 6649SOL    HW220847   5.665   2.702   6.618
 6650SOL     OW20848   3.868   0.805   5.120
 6650SOL    HW120849   3.825   0.738   5.060
 6650SOL    HW220850   3.885   0.764   5.209
 6651SOL     OW20851   1.054   1.593   0.322
 6651SOL    HW120852   0.994   1.540   0.261
 6651SOL    HW220853   1.005   1.615   0.406
 6652SOL     OW20854   0.726   4.239   0.138
 6652SOL    HW120855   0.721   4.244   0.238
 6652SOL    HW220856   0.784   4.162   0.112
 6653SOL     OW20857   5.170   2.961   0.239
 6653SOL    HW120858   5.090   2.934   0.185
 6653SOL    HW220859   5.202   3.051   0.208
 6654SOL     OW20860   0.390   4.738   3.053
 6654SOL    HW120861   0.445   4.682   3.116
 6654SOL    HW220862   0.316   4.682   3.017
 6655SOL     OW20863   6.635   5.580   1.341
 6655SOL    HW120864   6.587   5.637   1.408
 6655SOL    HW220865   6.731   5.609   1.335
 6656SOL     OW20866   4.348   1.584   2.694
 6656SOL    HW120867   4.423   1.528   2.729
 6656SOL    HW220868   4.319   1.547   2.605
 6657SOL     OW20869   5.197   2.483   4.645
 6657SOL    HW120870   5.164   2.417   4.712
 6657SOL    HW220871   5.226   2.567   4.692
 6658SOL     OW20872   6.396   0.342   5.279
 6658SOL    HW120873   6.339   0.273   5.235
 6658SOL    HW220874   6.364   0.433   5.254
 6659SOL     OW20875   1.114   5.114   1.746
 6659SOL    HW120876   1.150   5.196   1.701
 6659SOL    HW220877   1.175   5.088   1.821
 6660SOL     OW20878   0.942   5.680   2.796
 6660SOL    HW120879   0.916   5.771   2.765
 6660SOL    HW220880   1.028   5.653   2.752
 6661SOL     OW20881   3.192   6.506   4.211
 6661SOL    HW120882   3.223   6.422   4.167
 6661SOL    HW220883   3.092   6.509   4.212
 6662SOL     OW20884   2.590   0.412   2.014
 6662SOL    HW120885   2.601   0.511   2.022
 6662SOL    HW220886   2.494   0.390   1.994
 6663SOL     OW20887   1.505   5.473   5.881
 6663SOL    HW120888   1.528   5.569   5.867
 6663SOL    HW220889   1.457   5.437   5.801
 6664SOL     OW20890   2.108   1.006   1.868
 6664SOL    HW120891   2.151   1.061   1.797
 6664SOL    HW220892   2.176   0.983   1.938
 6665SOL     OW20893   2.961   6.931   6.288
 6665SOL    HW120894   2.888   6.971   6.343
 6665SOL    HW220895   3.003   7.002   6.232
 6666SOL     OW20896   6.170   5.750   4.813
 6666SOL    HW120897   6.266   5.727   4.798
 6666SOL    HW220898   6.116   5.666   4.824
 6667SOL     OW20899   6.848   6.527   5.544
 6667SOL    HW120900   6.811   6.454   5.601
 6667SOL    HW220901   6.845   6.500   5.448
 6668SOL     OW20902   6.705   6.227   1.459
 6668SOL    HW120903   6.771   6.205   1.387
 6668SOL    HW220904   6.714   6.323   1.484
 6669SOL     OW20905   2.695   1.485   1.894
 6669SOL    HW120906   2.657   1.558   1.837
 6669SOL    HW220907   2.728   1.525   1.980
 6670SOL     OW20908   2.958   1.954   6.850
 6670SOL    HW120909   2.947   1.931   6.754
 6670SOL    HW220910   3.019   2.033   6.858
 6671SOL     OW20911   4.902   6.453   0.803
 6671SOL    HW120912   4.851   6.369   0.823
 6671SOL    HW220913   4.965   6.472   0.878
 6672SOL     OW20914   1.482   2.294   0.229
 6672SOL    HW120915   1.445   2.361   0.165
 6672SOL    HW220916   1.407   2.245   0.273
 6673SOL     OW20917   5.387   3.188   4.216
 6673SOL    HW120918   5.459   3.200   4.148
 6673SOL    HW220919   5.297   3.192   4.172
 6674SOL     OW20920   0.479   3.108   6.314
 6674SOL    HW120921   0.519   3.104   6.406
 6674SOL    HW220922   0.473   3.204   6.285
 6675SOL     OW20923   4.472   2.398   6.997
 6675SOL    HW120924   4.451   2.330   6.926
 6675SOL    HW220925   4.496   2.350   0.059
 6676SOL     OW20926   1.290   4.056   3.147
 6676SOL    HW120927   1.277   4.006   3.061
 6676SOL    HW220928   1.337   3.996   3.213
 6677SOL     OW20929   0.563   0.851   0.295
 6677SOL    HW120930   0.536   0.756   0.311
 6677SOL    HW220931   0.553   0.873   0.198
 6678SOL     OW20932   1.794   3.996   0.324
 6678SOL    HW120933   1.780   3.897   0.327
 6678SOL    HW220934   1.799   4.025   0.228
 6679SOL     OW20935   2.544   0.872   3.632
 6679SOL    HW120936   2.565   0.783   3.673
 6679SOL    HW220937   2.584   0.877   3.541
 6680SOL     OW20938   4.772   6.771   0.828
 6680SOL    HW120939   4.684   6.778   0.876
 6680SOL    HW220940   4.789   6.675   0.805
 6681SOL     OW20941   4.578   5.124   1.302
 6681SOL    HW120942   4.639   5.197   1.332
 6681SOL    HW220943   4.571   5.055   1.375
 6682SOL     OW20944   2.694   5.352   0.184
 6682SOL    HW120945   2.790   5.364   0.158
 6682SOL    HW220946   2.651   5.442   0.191
 6683SOL     OW20947   6.077   3.528   6.574
 6683SOL    HW120948   6.009   3.466   6.534
 6683SOL    HW220949   6.058   3.621   6.544
 6684SOL     OW20950   3.365   0.409   1.675
 6684SOL    HW120951   3.442   0.345   1.676
 6684SOL    HW220952   3.311   0.395   1.592
 6685SOL     OW20953   3.800   3.494   6.448
 6685SOL    HW120954   3.853   3.483   6.363
 6685SOL    HW220955   3.822   3.419   6.510
 6686SOL     OW20956   6.210   5.568   3.578
 6686SOL    HW120957   6.185   5.649   3.525
 6686SOL    HW220958   6.231   5.492   3.515
 6687SOL     OW20959   6.688   2.095   1.378
 6687SOL    HW120960   6.752   2.020   1.393
 6687SOL    HW220961   6.662   2.135   1.466
 6688SOL     OW20962   4.224   4.531   0.857
 6688SOL    HW120963   4.256   4.625   0.840
 6688SOL    HW220964   4.144   4.534   0.916
 6689SOL     OW20965   3.537   4.394   6.026
 6689SOL    HW120966   3.517   4.334   5.949
 6689SOL    HW220967   3.619   4.362   6.074
 6690SOL     OW20968   1.193   0.517   6.380
 6690SOL    HW120969   1.167   0.540   6.286
 6690SOL    HW220970   1.267   0.577   6.410
 6691SOL     OW20971   1.850   1.200   2.619
 6691SOL    HW120972   1.781   1.157   2.561
 6691SOL    HW220973   1.837   1.171   2.714
 6692SOL     OW20974   4.249   4.603   1.848
 6692SOL    HW120975   4.179   4.588   1.918
 6692SOL    HW220976   4.239   4.536   1.775
 6693SOL     OW20977   4.626   1.745   4.806
 6693SOL    HW120978   4.703   1.777   4.862
 6693SOL    HW220979   4.548   1.806   4.817
 6694SOL     OW20980   3.443   5.544   1.649
 6694SOL    HW120981   3.402   5.635   1.641
 6694SOL    HW220982   3.540   5.554   1.673
 6695SOL     OW20983   3.142   1.981   0.640
 6695SOL    HW120984   3.082   1.991   0.720
 6695SOL    HW220985   3.228   1.937   0.669
 6696SOL     OW20986   3.849   3.977   3.798
 6696SOL    HW120987   3.909   3.931   3.863
 6696SOL    HW220988   3.764   3.925   3.788
 6697SOL     OW20989   5.367   2.329   2.515
 6697SOL    HW120990   5.370   2.241   2.469
 6697SOL    HW220991   5.459   2.353   2.547
 6698SOL     OW20992   3.277   3.895   1.368
 6698SOL    HW120993   3.365   3.941   1.355
 6698SOL    HW220994   3.292   3.802   1.402
 6699SOL     OW20995   1.746   5.686   5.870
 6699SOL    HW120996   1.811   5.762   5.862
 6699SOL    HW220997   1.772   5.613   5.807
 6700SOL     OW20998   5.649   0.451   0.674
 6700SOL    HW120999   5.739   0.494   0.662
 6700SOL    HW221000   5.659   0.369   0.730
 6701SOL     OW21001   6.298   0.061   1.541
 6701SOL    HW121002   6.228   0.098   1.602
 6701SOL    HW221003   6.300   6.983   1.550
 6702SOL     OW21004   2.040   2.088   0.980
 6702SOL    HW121005   2.114   2.021   0.987
 6702SOL    HW221006   1.976   2.074   1.055
 6703SOL     OW21007   1.484   1.473   6.277
 6703SOL    HW121008   1.472   1.564   6.316
 6703SOL    HW221009   1.580   1.460   6.252
 6704SOL     OW21010   3.496   1.575   4.285
 6704SOL    HW121011   3.441   1.572   4.201
 6704SOL    HW221012   3.458   1.643   4.347
 6705SOL     OW21013   5.869   3.146   1.307
 6705SOL    HW121014   5.820   3.087   1.243
 6705SOL    HW221015   5.954   3.101   1.335
 6706SOL     OW21016   1.271   5.960   0.942
 6706SOL    HW121017   1.328   6.030   0.986
 6706SOL    HW221018   1.329   5.896   0.892
 6707SOL     OW21019   5.850   0.286   2.478
 6707SOL    HW121020   5.949   0.279   2.468
 6707SOL    HW221021   5.808   0.302   2.388
 6708SOL     OW21022   6.137   4.313   1.506
 6708SOL    HW121023   6.161   4.270   1.419
 6708SOL    HW221024   6.068   4.257   1.552
 6709SOL     OW21025   1.196   4.367   1.901
 6709SOL    HW121026   1.121   4.334   1.844
 6709SOL    HW221027   1.163   4.380   1.995
 6710SOL     OW21028   4.463   1.225   1.664
 6710SOL    HW121029   4.507   1.283   1.595
 6710SOL    HW221030   4.476   1.266   1.755
 6711SOL     OW21031   4.378   6.391   6.406
 6711SOL    HW121032   4.340   6.391   6.313
 6711SOL    HW221033   4.304   6.384   6.473
 6712SOL     OW21034   6.312   3.739   0.594
 6712SOL    HW121035   6.228   3.794   0.604
 6712SOL    HW221036   6.291   3.643   0.614
 6713SOL     OW21037   1.330   0.748   3.908
 6713SOL    HW121038   1.266   0.824   3.903
 6713SOL    HW221039   1.307   0.690   3.987
 6714SOL     OW21040   6.007   1.139   1.074
 6714SOL    HW121041   5.997   1.218   1.135
 6714SOL    HW221042   5.961   1.158   0.987
 6715SOL     OW21043   1.414   1.167   1.062
 6715SOL    HW121044   1.446   1.138   0.972
 6715SOL    HW221045   1.316   1.186   1.058
 6716SOL     OW21046   6.592   5.745   2.221
 6716SOL    HW121047   6.493   5.755   2.234
 6716SOL    HW221048   6.640   5.791   2.296
 6717SOL     OW21049   3.334   2.525   6.886
 6717SOL    HW121050   3.411   2.586   6.900
 6717SOL    HW221051   3.333   2.455   6.957
 6718SOL     OW21052   4.112   1.644   1.566
 6718SOL    HW121053   4.062   1.674   1.648
 6718SOL    HW221054   4.061   1.673   1.485
 6719SOL     OW21055   1.849   0.093   6.864
 6719SOL    HW121056   1.923   0.161   6.868
 6719SOL    HW221057   1.821   0.069   6.957
 6720SOL     OW21058   2.948   0.834   5.587
 6720SOL    HW121059   3.040   0.832   5.547
 6720SOL    HW221060   2.902   0.918   5.559
 6721SOL     OW21061   0.177   0.326   0.523
 6721SOL    HW121062   0.173   0.274   0.608
 6721SOL    HW221063   0.200   0.422   0.544
 6722SOL     OW21064   0.179   3.175   0.410
 6722SOL    HW121065   0.245   3.115   0.364
 6722SOL    HW221066   0.111   3.120   0.458
 6723SOL     OW21067   2.002   1.763   6.631
 6723SOL    HW121068   1.995   1.667   6.656
 6723SOL    HW221069   2.089   1.779   6.584
 6724SOL     OW21070   2.165   3.065   6.345
 6724SOL    HW121071   2.077   3.021   6.329
 6724SOL    HW221072   2.216   3.070   6.259
 6725SOL     OW21073   5.917   3.122   2.981
 6725SOL    HW121074   5.955   3.060   2.912
 6725SOL    HW221075   5.971   3.205   2.985
 6726SOL     OW21076   0.583   1.706   5.181
 6726SOL    HW121077   0.674   1.668   5.168
 6726SOL    HW221078   0.543   1.670   5.265
 6727SOL     OW21079   1.059   5.058   5.584
 6727SOL    HW121080   1.064   4.979   5.523
 6727SOL    HW221081   1.123   5.128   5.552
 6728SOL     OW21082   4.141   2.258   3.683
 6728SOL    HW121083   4.078   2.272   3.760
 6728SOL    HW221084   4.088   2.235   3.601
 6729SOL     OW21085   5.845   2.228   0.909
 6729SOL    HW121086   5.756   2.186   0.893
 6729SOL    HW221087   5.844   2.323   0.879
 6730SOL     OW21088   1.523   1.114   1.327
 6730SOL    HW121089   1.469   1.123   1.244
 6730SOL    HW221090   1.474   1.057   1.393
 6731SOL     OW21091   2.033   6.525   1.230
 6731SOL    HW121092   2.038   6.485   1.322
 6731SOL    HW221093   2.109   6.588   1.216
 6732SOL     OW21094   5.279   4.322   4.553
 6732SOL    HW121095   5.224   4.249   4.514
 6732SOL    HW221096   5.259   4.331   4.651
 6733SOL     OW21097   3.674   5.561   6.895
 6733SOL    HW121098   3.720   5.587   6.810
 6733SOL    HW221099   3.578   5.542   6.875
 6734SOL     OW21100   5.054   2.164   5.279
 6734SOL    HW121101   5.099   2.221   5.348
 6734SOL    HW221102   5.044   2.071   5.314
 6735SOL     OW21103   5.710   3.801   4.570
 6735SOL    HW121104   5.651   3.798   4.651
 6735SOL    HW221105   5.783   3.733   4.580
 6736SOL     OW21106   2.818   4.718   0.749
 6736SOL    HW121107   2.721   4.695   0.737
 6736SOL    HW221108   2.848   4.778   0.675
 6737SOL     OW21109   0.616   2.528   1.164
 6737SOL    HW121110   0.678   2.584   1.218
 6737SOL    HW221111   0.532   2.579   1.145
 6738SOL     OW21112   1.167   5.627   3.564
 6738SOL    HW121113   1.182   5.641   3.466
 6738SOL    HW221114   1.192   5.534   3.589
 6739SOL     OW21115   7.000   6.690   3.115
 6739SOL    HW121116   6.957   6.656   3.031
 6739SOL    HW221117   0.051   6.753   3.091
 6740SOL     OW21118   6.433   6.925   4.159
 6740SOL    HW121119   6.444   6.919   4.060
 6740SOL    HW221120   6.473   7.010   4.192
 6741SOL     OW21121   4.725   2.019   6.152
 6741SOL    HW121122   4.674   1.941   6.117
 6741SOL    HW221123   4.680   2.104   6.124
 6742SOL     OW21124   5.775   5.427   3.885
 6742SOL    HW121125   5.685   5.444   3.845
 6742SOL    HW221126   5.846   5.465   3.826
 6743SOL     OW21127   3.724   4.165   6.454
 6743SOL    HW121128   3.637   4.211   6.472
 6743SOL    HW221129   3.798   4.233   6.450
 6744SOL     OW21130   6.950   5.796   6.093
 6744SOL    HW121131   6.859   5.792   6.133
 6744SOL    HW221132   7.016   5.758   6.158
 6745SOL     OW21133   0.214   5.995   3.865
 6745SOL    HW121134   0.244   6.091   3.869
 6745SOL    HW221135   0.164   5.979   3.780
 6746SOL     OW21136   1.641   1.601   2.393
 6746SOL    HW121137   1.575   1.601   2.318
 6746SOL    HW221138   1.595   1.573   2.477
 6747SOL     OW21139   6.619   6.694   6.462
 6747SOL    HW121140   6.597   6.791   6.448
 6747SOL    HW221141   6.718   6.681   6.454
 6748SOL     OW21142   2.813   1.718   3.997
 6748SOL    HW121143   2.831   1.633   4.047
 6748SOL    HW221144   2.737   1.703   3.933
 6749SOL     OW21145   3.596   4.048   1.044
 6749SOL    HW121146   3.566   4.019   0.953
 6749SOL    HW221147   3.677   4.105   1.036
 6750SOL     OW21148   2.762   1.549   4.258
 6750SOL    HW121149   2.751   1.646   4.278
 6750SOL    HW221150   2.689   1.520   4.196
 6751SOL     OW21151   4.502   0.518   3.640
 6751SOL    HW121152   4.589   0.566   3.627
 6751SOL    HW221153   4.430   0.565   3.590
 6752SOL     OW21154   1.684   6.864   3.409
 6752SOL    HW121155   1.595   6.824   3.384
 6752SOL    HW221156   1.694   6.953   3.365
 6753SOL     OW21157   3.791   2.126   5.680
 6753SOL    HW121158   3.697   2.119   5.648
 6753SOL    HW221159   3.805   2.214   5.726
 6754SOL     OW21160   6.177   0.795   0.979
 6754SOL    HW121161   6.096   0.757   0.935
 6754SOL    HW221162   6.150   0.846   1.061
 6755SOL     OW21163   3.154   4.990   1.278
 6755SOL    HW121164   3.132   5.084   1.304
 6755SOL    HW221165   3.171   4.987   1.179
 6756SOL     OW21166   3.226   0.762   5.760
 6756SOL    HW121167   3.225   0.662   5.770
 6756SOL    HW221168   3.214   0.786   5.663
 6757SOL     OW21169   3.732   1.771   1.593
 6757SOL    HW121170   3.701   1.685   1.633
 6757SOL    HW221171   3.792   1.752   1.515
 6758SOL     OW21172   5.504   3.120   1.547
 6758SOL    HW121173   5.578   3.072   1.593
 6758SOL    HW221174   5.422   3.063   1.547
 6759SOL     OW21175   6.941   3.054   3.157
 6759SOL    HW121176   6.885   3.079   3.236
 6759SOL    HW221177   6.943   3.129   3.091
 6760SOL     OW21178   6.145   3.696   2.572
 6760SOL    HW121179   6.077   3.631   2.607
 6760SOL    HW221180   6.234   3.650   2.564
 6761SOL     OW21181   4.892   2.780   4.907
 6761SOL    HW121182   4.794   2.757   4.906
 6761SOL    HW221183   4.921   2.804   4.814
 6762SOL     OW21184   0.411   4.320   4.245
 6762SOL    HW121185   0.450   4.229   4.264
 6762SOL    HW221186   0.406   4.372   4.330
 6763SOL     OW21187   5.270   5.413   5.208
 6763SOL    HW121188   5.181   5.378   5.238
 6763SOL    HW221189   5.271   5.420   5.108
 6764SOL     OW21190   1.594   5.938   2.590
 6764SOL    HW121191   1.521   5.906   2.529
 6764SOL    HW221192   1.660   5.991   2.538
 6765SOL     OW21193   6.521   4.379   3.749
 6765SOL    HW121194   6.449   4.415   3.809
 6765SOL    HW221195   6.606   4.369   3.801
 6766SOL     OW21196   4.692   5.885   6.554
 6766SOL    HW121197   4.648   5.975   6.552
 6766SOL    HW221198   4.790   5.896   6.536
 6767SOL     OW21199   3.181   0.578   0.739
 6767SOL    HW121200   3.184   0.518   0.819
 6767SOL    HW221201   3.175   0.522   0.656
 6768SOL     OW21202   2.222   0.570   5.680
 6768SOL    HW121203   2.223   0.508   5.601
 6768SOL    HW221204   2.316   0.595   5.703
 6769SOL     OW21205   3.317   2.197   0.886
 6769SOL    HW121206   3.222   2.228   0.893
 6769SOL    HW221207   3.323   2.121   0.821
 6770SOL     OW21208   0.015   0.832   1.733
 6770SOL    HW121209   0.014   0.917   1.679
 6770SOL    HW221210   0.063   0.848   1.819
 6771SOL     OW21211   4.604   2.573   3.416
 6771SOL    HW121212   4.652   2.488   3.438
 6771SOL    HW221213   4.558   2.563   3.327
 6772SOL     OW21214   3.104   1.019   3.197
 6772SOL    HW121215   3.122   1.100   3.253
 6772SOL    HW221216   3.184   0.958   3.200
 6773SOL     OW21217   6.748   5.078   1.497
 6773SOL    HW121218   6.771   5.155   1.437
 6773SOL    HW221219   6.727   4.997   1.442
 6774SOL     OW21220   0.766   2.961   5.952
 6774SOL    HW121221   0.703   3.024   5.906
 6774SOL    HW221222   0.810   3.008   6.029
 6775SOL     OW21223   2.467   3.248   1.654
 6775SOL    HW121224   2.564   3.228   1.669
 6775SOL    HW221225   2.435   3.311   1.724
 6776SOL     OW21226   4.620   4.607   0.060
 6776SOL    HW121227   4.640   4.568   0.149
 6776SOL    HW221228   4.583   4.536   7.022
 6777SOL     OW21229   3.921   4.069   6.903
 6777SOL    HW121230   3.880   4.049   6.813
 6777SOL    HW221231   3.989   3.999   6.925
 6778SOL     OW21232   6.607   4.360   1.862
 6778SOL    HW121233   6.563   4.397   1.944
 6778SOL    HW221234   6.681   4.421   1.833
 6779SOL     OW21235   6.433   4.314   6.203
 6779SOL    HW121236   6.429   4.276   6.110
 6779SOL    HW221237   6.461   4.243   6.266
 6780SOL     OW21238   0.754   1.747   2.883
 6780SOL    HW121239   0.690   1.685   2.836
 6780SOL    HW221240   0.718   1.840   2.879
 6781SOL     OW21241   5.500   0.166   4.735
 6781SOL    HW121242   5.541   0.082   4.770
 6781SOL    HW221243   5.412   0.144   4.692
 6782SOL     OW21244   0.110   0.492   2.901
 6782SOL    HW121245   0.058   0.418   2.861
 6782SOL    HW221246   0.064   0.526   2.983
 6783SOL     OW21247   6.962   0.531   6.619
 6783SOL    HW121248   6.952   0.630   6.616
 6783SOL    HW221249   6.875   0.489   6.645
 6784SOL     OW21250   3.122   4.006   0.624
 6784SOL    HW121251   3.199   4.058   0.588
 6784SOL    HW221252   3.063   3.977   0.549
 6785SOL     OW21253   5.157   4.525   2.943
 6785SOL    HW121254   5.222   4.507   2.869
 6785SOL    HW221255   5.125   4.438   2.982
 6786SOL     OW21256   1.176   1.646   6.898
 6786SOL    HW121257   1.092   1.662   6.952
 6786SOL    HW221258   1.235   1.726   6.906
 6787SOL     OW21259   1.370   2.506   0.510
 6787SOL    HW121260   1.321   2.551   0.585
 6787SOL    HW221261   1.457   2.469   0.544
 6788SOL     OW21262   2.488   3.583   1.633
 6788SOL    HW121263   2.488   3.679   1.661
 6788SOL    HW221264   2.444   3.528   1.704
 6789SOL     OW21265   0.333   6.864   2.829
 6789SOL    HW121266   0.344   6.817   2.917
 6789SOL    HW221267   0.417   6.914   2.808
 6790SOL     OW21268   0.895   4.236   0.700
 6790SOL    HW121269   0.962   4.242   0.626
 6790SOL    HW221270   0.939   4.260   0.787
 6791SOL     OW21271   3.920   2.584   1.327
 6791SOL    HW121272   3.841   2.638   1.298
 6791SOL    HW221273   3.888   2.504   1.379
 6792SOL     OW21274   6.754   6.216   5.934
 6792SOL    HW121275   6.778   6.186   6.026
 6792SOL    HW221276   6.747   6.135   5.874
 6793SOL     OW21277   0.921   2.169   0.378
 6793SOL    HW121278   0.838   2.204   0.334
 6793SOL    HW221279   0.997   2.172   0.314
 6794SOL     OW21280   5.487   1.565   5.004
 6794SOL    HW121281   5.471   1.653   5.047
 6794SOL    HW221282   5.448   1.492   5.061
 6795SOL     OW21283   2.373   5.897   0.850
 6795SOL    HW121284   2.362   5.811   0.898
 6795SOL    HW221285   2.348   5.886   0.754
 6796SOL     OW21286   6.171   0.740   2.574
 6796SOL    HW121287   6.247   0.717   2.635
 6796SOL    HW221288   6.093   0.772   2.629
 6797SOL     OW21289   5.271   3.318   1.279
 6797SOL    HW121290   5.368   3.320   1.255
 6797SOL    HW221291   5.255   3.375   1.359
 6798SOL     OW21292   5.492   5.954   2.870
 6798SOL    HW121293   5.578   5.952   2.819
 6798SOL    HW221294   5.511   5.977   2.966
 6799SOL     OW21295   6.506   5.779   6.899
 6799SOL    HW121296   6.474   5.726   6.820
 6799SOL    HW221297   6.575   5.845   6.869
 6800SOL     OW21298   2.448   4.211   1.133
 6800SOL    HW121299   2.473   4.130   1.079
 6800SOL    HW221300   2.425   4.183   1.226
 6801SOL     OW21301   1.514   1.156   2.625
 6801SOL    HW121302   1.582   1.185   2.557
 6801SOL    HW221303   1.538   1.194   2.714
 6802SOL     OW21304   3.035   5.892   0.285
 6802SOL    HW121305   3.026   5.955   0.362
 6802SOL    HW221306   3.018   5.798   0.316
 6803SOL     OW21307   4.336   2.572   6.686
 6803SOL    HW121308   4.411   2.506   6.687
 6803SOL    HW221309   4.350   2.637   6.612
 6804SOL     OW21310   2.595   5.430   3.709
 6804SOL    HW121311   2.618   5.374   3.629
 6804SOL    HW221312   2.514   5.485   3.688
 6805SOL     OW21313   5.801   5.543   4.949
 6805SOL    HW121314   5.710   5.506   4.933
 6805SOL    HW221315   5.794   5.640   4.972
 6806SOL     OW21316   5.670   1.001   3.735
 6806SOL    HW121317   5.674   0.968   3.829
 6806SOL    HW221318   5.627   0.932   3.677
 6807SOL     OW21319   2.832   2.846   0.938
 6807SOL    HW121320   2.866   2.842   1.032
 6807SOL    HW221321   2.876   2.920   0.890
 6808SOL     OW21322   0.194   2.614   5.414
 6808SOL    HW121323   0.273   2.572   5.368
 6808SOL    HW221324   0.110   2.585   5.368
 6809SOL     OW21325   1.762   3.372   1.138
 6809SOL    HW121326   1.689   3.413   1.083
 6809SOL    HW221327   1.835   3.339   1.079
 6810SOL     OW21328   1.620   0.181   1.870
 6810SOL    HW121329   1.672   0.110   1.822
 6810SOL    HW221330   1.525   0.178   1.840
 6811SOL     OW21331   4.780   3.877   0.048
 6811SOL    HW121332   4.837   3.944   0.096
 6811SOL    HW221333   4.701   3.853   0.104
 6812SOL     OW21334   3.573   3.679   3.208
 6812SOL    HW121335   3.610   3.626   3.284
 6812SOL    HW221336   3.474   3.670   3.207
 6813SOL     OW21337   5.082   2.005   2.371
 6813SOL    HW121338   5.076   2.070   2.447
 6813SOL    HW221339   5.052   1.915   2.403
 6814SOL     OW21340   3.216   3.035   0.525
 6814SOL    HW121341   3.145   2.969   0.497
 6814SOL    HW221342   3.306   2.996   0.507
 6815SOL     OW21343   3.167   0.579   1.129
 6815SOL    HW121344   3.111   0.661   1.130
 6815SOL    HW221345   3.248   0.594   1.072
 6816SOL     OW21346   7.009   6.161   6.416
 6816SOL    HW121347   0.008   6.194   6.508
 6816SOL    HW221348   0.029   6.221   6.349
 6817SOL     OW21349   0.004   1.840   5.307
 6817SOL    HW121350   6.962   1.890   5.250
 6817SOL    HW221351   0.078   1.804   5.251
 6818SOL     OW21352   2.668   5.600   1.664
 6818SOL    HW121353   2.663   5.686   1.715
 6818SOL    HW221354   2.633   5.525   1.720
 6819SOL     OW21355   4.302   1.336   4.330
 6819SOL    HW121356   4.234   1.299   4.267
 6819SOL    HW221357   4.352   1.410   4.285
 6820SOL     OW21358   1.181   5.373   3.181
 6820SOL    HW121359   1.257   5.324   3.138
 6820SOL    HW221360   1.101   5.314   3.185
 6821SOL     OW21361   3.108   1.537   5.172
 6821SOL    HW121362   3.032   1.531   5.107
 6821SOL    HW221363   3.188   1.577   5.127
 6822SOL     OW21364   5.821   2.355   5.787
 6822SOL    HW121365   5.876   2.277   5.817
 6822SOL    HW221366   5.751   2.324   5.722
 6823SOL     OW21367   3.783   3.393   3.814
 6823SOL    HW121368   3.747   3.313   3.863
 6823SOL    HW221369   3.752   3.476   3.859
 6824SOL     OW21370   0.838   3.117   6.192
 6824SOL    HW121371   0.764   3.177   6.220
 6824SOL    HW221372   0.874   3.069   6.272
 6825SOL     OW21373   5.409   6.318   2.401
 6825SOL    HW121374   5.456   6.383   2.340
 6825SOL    HW221375   5.359   6.251   2.346
 6826SOL     OW21376   2.249   4.062   2.795
 6826SOL    HW121377   2.161   4.014   2.788
 6826SOL    HW221378   2.321   3.995   2.811
 6827SOL     OW21379   4.836   6.223   0.304
 6827SOL    HW121380   4.766   6.161   0.269
 6827SOL    HW221381   4.923   6.175   0.311
 6828SOL     OW21382   2.488   1.792   1.501
 6828SOL    HW121383   2.479   1.860   1.573
 6828SOL    HW221384   2.406   1.793   1.444
 6829SOL     OW21385   4.689   0.190   4.525
 6829SOL    HW121386   4.737   0.119   4.474
 6829SOL    HW221387   4.672   0.158   4.618
 6830SOL     OW21388   5.862   1.320   3.811
 6830SOL    HW121389   5.816   1.293   3.727
 6830SOL    HW221390   5.800   1.309   3.888
 6831SOL     OW21391   1.149   0.161   5.939
 6831SOL    HW121392   1.054   0.192   5.933
 6831SOL    HW221393   1.203   0.209   5.870
 6832SOL     OW21394   3.045   4.169   1.456
 6832SOL    HW121395   3.078   4.093   1.513
 6832SOL    HW221396   2.997   4.133   1.377
 6833SOL     OW21397   4.509   4.860   0.040
 6833SOL    HW121398   4.566   4.779   0.052
 6833SOL    HW221399   4.412   4.833   0.042
 6834SOL     OW21400   5.272   6.717   1.479
 6834SOL    HW121401   5.291   6.796   1.537
 6834SOL    HW221402   5.173   6.708   1.467
 6835SOL     OW21403   4.311   7.019   5.424
 6835SOL    HW121404   4.257   0.041   5.353
 6835SOL    HW221405   4.353   6.936   5.387
 6836SOL     OW21406   3.272   5.575   0.363
 6836SOL    HW121407   3.177   5.593   0.337
 6836SOL    HW221408   3.280   5.575   0.463
 6837SOL     OW21409   1.145   2.001   2.421
 6837SOL    HW121410   1.119   2.088   2.461
 6837SOL    HW221411   1.197   2.017   2.337
 6838SOL     OW21412   2.034   6.268   0.829
 6838SOL    HW121413   1.950   6.323   0.832
 6838SOL    HW221414   2.078   6.272   0.919
 6839SOL     OW21415   4.714   0.937   7.020
 6839SOL    HW121416   4.698   1.001   0.073
 6839SOL    HW221417   4.791   0.967   6.965
 6840SOL     OW21418   2.363   1.750   5.179
 6840SOL    HW121419   2.377   1.700   5.093
 6840SOL    HW221420   2.422   1.831   5.180
 6841SOL     OW21421   5.202   3.773   6.502
 6841SOL    HW121422   5.110   3.738   6.515
 6841SOL    HW221423   5.233   3.753   6.409
 6842SOL     OW21424   2.798   4.712   1.181
 6842SOL    HW121425   2.819   4.618   1.207
 6842SOL    HW221426   2.711   4.714   1.131
 6843SOL     OW21427   5.716   6.728   6.825
 6843SOL    HW121428   5.667   6.707   6.740
 6843SOL    HW221429   5.660   6.700   6.903
 6844SOL     OW21430   5.385   0.972   4.684
 6844SOL    HW121431   5.338   1.052   4.645
 6844SOL    HW221432   5.478   0.967   4.648
 6845SOL     OW21433   6.130   3.353   2.733
 6845SOL    HW121434   6.064   3.426   2.715
 6845SOL    HW221435   6.153   3.307   2.648
 6846SOL     OW21436   3.113   4.693   6.804
 6846SOL    HW121437   3.152   4.785   6.804
 6846SOL    HW221438   3.073   4.673   6.714
 6847SOL     OW21439   0.179   3.790   5.079
 6847SOL    HW121440   0.175   3.691   5.093
 6847SOL    HW221441   0.251   3.811   5.013
 6848SOL     OW21442   5.180   4.234   3.914
 6848SOL    HW121443   5.149   4.140   3.902
 6848SOL    HW221444   5.122   4.280   3.980
 6849SOL     OW21445   3.384   4.094   6.184
 6849SOL    HW121446   3.408   4.086   6.088
 6849SOL    HW221447   3.386   4.190   6.211
 6850SOL     OW21448   4.583   2.560   2.990
 6850SOL    HW121449   4.520   2.563   3.067
 6850SOL    HW221450   4.580   2.470   2.947
 6851SOL     OW21451   1.316   2.780   2.562
 6851SOL    HW121452   1.351   2.734   2.481
 6851SOL    HW221453   1.228   2.739   2.588
 6852SOL     OW21454   2.872   5.622   1.145
 6852SOL    HW121455   2.782   5.630   1.102
 6852SOL    HW221456   2.901   5.711   1.179
 6853SOL     OW21457   5.317   3.749   6.190
 6853SOL    HW121458   5.415   3.736   6.170
 6853SOL    HW221459   5.289   3.840   6.162
 6854SOL     OW21460   6.065   0.141   5.791
 6854SOL    HW121461   6.047   0.070   5.859
 6854SOL    HW221462   6.077   0.099   5.701
 6855SOL     OW21463   4.543   5.959   3.732
 6855SOL    HW121464   4.542   6.057   3.750
 6855SOL    HW221465   4.590   5.941   3.645
 6856SOL     OW21466   0.360   2.448   5.737
 6856SOL    HW121467   0.368   2.359   5.693
 6856SOL    HW221468   0.430   2.510   5.700
 6857SOL     OW21469   0.890   3.124   7.006
 6857SOL    HW121470   0.922   3.219   7.003
 6857SOL    HW221471   0.966   3.062   6.990
 6858SOL     OW21472   3.454   4.602   1.620
 6858SOL    HW121473   3.365   4.644   1.640
 6858SOL    HW221474   3.518   4.626   1.693
 6859SOL     OW21475   0.617   0.956   1.900
 6859SOL    HW121476   0.687   1.025   1.918
 6859SOL    HW221477   0.598   0.952   1.802
 6860SOL     OW21478   6.712   4.740   1.780
 6860SOL    HW121479   6.769   4.658   1.783
 6860SOL    HW221480   6.769   4.820   1.763
 6861SOL     OW21481   4.880   3.398   6.008
 6861SOL    HW121482   4.815   3.374   5.936
 6861SOL    HW221483   4.969   3.419   5.967
 6862SOL     OW21484   0.786   5.120   5.860
 6862SOL    HW121485   0.706   5.072   5.896
 6862SOL    HW221486   0.862   5.055   5.850
 6863SOL     OW21487   6.904   6.031   5.399
 6863SOL    HW121488   6.982   6.018   5.338
 6863SOL    HW221489   6.917   5.977   5.483
 6864SOL     OW21490   2.228   4.398   5.762
 6864SOL    HW121491   2.273   4.426   5.677
 6864SOL    HW221492   2.146   4.454   5.776
 6865SOL     OW21493   1.458   0.416   5.476
 6865SOL    HW121494   1.479   0.336   5.421
 6865SOL    HW221495   1.543   0.461   5.505
 6866SOL     OW21496   6.250   4.866   2.338
 6866SOL    HW121497   6.350   4.864   2.337
 6866SOL    HW221498   6.218   4.898   2.427
 6867SOL     OW21499   1.957   4.084   1.247
 6867SOL    HW121500   2.029   4.016   1.234
 6867SOL    HW221501   1.960   4.118   1.341
 6868SOL     OW21502   2.417   6.101   5.263
 6868SOL    HW121503   2.420   6.151   5.349
 6868SOL    HW221504   2.467   6.014   5.273
 6869SOL     OW21505   4.364   0.521   5.886
 6869SOL    HW121506   4.268   0.501   5.865
 6869SOL    HW221507   4.370   0.552   5.981
 6870SOL     OW21508   0.639   3.634   0.481
 6870SOL    HW121509   0.657   3.728   0.508
 6870SOL    HW221510   0.578   3.590   0.547
 6871SOL     OW21511   0.149   3.887   2.764
 6871SOL    HW121512   0.248   3.874   2.764
 6871SOL    HW221513   0.103   3.799   2.777
 6872SOL     OW21514   0.919   2.389   2.270
 6872SOL    HW121515   0.895   2.460   2.204
 6872SOL    HW221516   0.983   2.428   2.337
 6873SOL     OW21517   1.066   4.087   3.574
 6873SOL    HW121518   0.980   4.104   3.527
 6873SOL    HW221519   1.075   3.990   3.595
 6874SOL     OW21520   6.287   6.100   3.493
 6874SOL    HW121521   6.207   6.133   3.443
 6874SOL    HW221522   6.357   6.172   3.495
 6875SOL     OW21523   1.984   2.014   2.284
 6875SOL    HW121524   1.940   1.970   2.205
 6875SOL    HW221525   2.073   2.050   2.256
 6876SOL     OW21526   3.224   0.114   3.668
 6876SOL    HW121527   3.245   0.165   3.751
 6876SOL    HW221528   3.246   0.018   3.682
 6877SOL     OW21529   2.904   3.902   1.733
 6877SOL    HW121530   2.956   3.987   1.720
 6877SOL    HW221531   2.889   3.887   1.831
 6878SOL     OW21532   2.234   1.871   3.692
 6878SOL    HW121533   2.182   1.937   3.638
 6878SOL    HW221534   2.332   1.881   3.672
 6879SOL     OW21535   2.299   2.603   0.209
 6879SOL    HW121536   2.379   2.582   0.152
 6879SOL    HW221537   2.218   2.609   0.151
 6880SOL     OW21538   1.365   6.366   6.224
 6880SOL    HW121539   1.352   6.445   6.164
 6880SOL    HW221540   1.435   6.306   6.186
 6881SOL     OW21541   1.534   3.281   1.572
 6881SOL    HW121542   1.456   3.334   1.606
 6881SOL    HW221543   1.527   3.273   1.473
 6882SOL     OW21544   2.876   1.179   0.372
 6882SOL    HW121545   2.795   1.156   0.318
 6882SOL    HW221546   2.856   1.258   0.430
 6883SOL     OW21547   5.411   0.887   5.986
 6883SOL    HW121548   5.360   0.801   5.991
 6883SOL    HW221549   5.363   0.951   5.927
 6884SOL     OW21550   1.592   4.218   2.936
 6884SOL    HW121551   1.595   4.312   2.903
 6884SOL    HW221552   1.553   4.159   2.865
 6885SOL     OW21553   4.967   4.977   4.022
 6885SOL    HW121554   4.993   5.061   4.071
 6885SOL    HW221555   4.882   4.941   4.060
 6886SOL     OW21556   6.669   1.528   5.201
 6886SOL    HW121557   6.613   1.559   5.277
 6886SOL    HW221558   6.679   1.429   5.205
 6887SOL     OW21559   4.289   5.626   0.156
 6887SOL    HW121560   4.225   5.645   0.082
 6887SOL    HW221561   4.337   5.710   0.182
 6888SOL     OW21562   5.206   4.617   6.039
 6888SOL    HW121563   5.155   4.532   6.025
 6888SOL    HW221564   5.261   4.610   6.123
 6889SOL     OW21565   1.785   2.539   5.815
 6889SOL    HW121566   1.737   2.546   5.902
 6889SOL    HW221567   1.754   2.613   5.754
 6890SOL     OW21568   3.820   5.878   2.868
 6890SOL    HW121569   3.738   5.865   2.923
 6890SOL    HW221570   3.795   5.881   2.771
 6891SOL     OW21571   2.657   2.862   1.352
 6891SOL    HW121572   2.635   2.920   1.274
 6891SOL    HW221573   2.727   2.906   1.408
 6892SOL     OW21574   3.222   1.201   3.824
 6892SOL    HW121575   3.288   1.254   3.877
 6892SOL    HW221576   3.263   1.172   3.737
 6893SOL     OW21577   5.768   3.444   0.360
 6893SOL    HW121578   5.735   3.353   0.385
 6893SOL    HW221579   5.689   3.504   0.343
 6894SOL     OW21580   5.239   4.417   1.473
 6894SOL    HW121581   5.331   4.422   1.513
 6894SOL    HW221582   5.245   4.430   1.375
 6895SOL     OW21583   2.002   5.992   0.791
 6895SOL    HW121584   2.013   6.090   0.808
 6895SOL    HW221585   1.920   5.976   0.737
 6896SOL     OW21586   3.036   1.457   3.645
 6896SOL    HW121587   3.118   1.414   3.605
 6896SOL    HW221588   3.062   1.546   3.685
 6897SOL     OW21589   4.713   4.044   5.193
 6897SOL    HW121590   4.731   4.062   5.097
 6897SOL    HW221591   4.781   3.980   5.228
 6898SOL     OW21592   3.382   1.208   1.824
 6898SOL    HW121593   3.440   1.175   1.749
 6898SOL    HW221594   3.416   1.170   1.910
 6899SOL     OW21595   4.813   6.290   3.003
 6899SOL    HW121596   4.734   6.352   3.012
 6899SOL    HW221597   4.878   6.329   2.938
 6900SOL     OW21598   0.127   4.901   6.004
 6900SOL    HW121599   0.183   4.953   5.938
 6900SOL    HW221600   0.031   4.925   5.991
 6901SOL     OW21601   4.605   5.368   6.513
 6901SOL    HW121602   4.669   5.292   6.516
 6901SOL    HW221603   4.517   5.336   6.477
 6902SOL     OW21604   6.776   6.236   5.549
 6902SOL    HW121605   6.839   6.183   5.492
 6902SOL    HW221606   6.682   6.206   5.531
 6903SOL     OW21607   3.077   5.138   5.378
 6903SOL    HW121608   3.127   5.083   5.310
 6903SOL    HW221609   3.067   5.231   5.343
 6904SOL     OW21610   6.776   6.470   5.296
 6904SOL    HW121611   6.677   6.473   5.284
 6904SOL    HW221612   6.809   6.376   5.287
 6905SOL     OW21613   5.893   5.273   6.878
 6905SOL    HW121614   5.928   5.229   6.960
 6905SOL    HW221615   5.902   5.372   6.887
 6906SOL     OW21616   3.123   1.631   3.423
 6906SOL    HW121617   3.163   1.539   3.428
 6906SOL    HW221618   3.195   1.699   3.435
 6907SOL     OW21619   6.396   2.168   1.638
 6907SOL    HW121620   6.321   2.110   1.608
 6907SOL    HW221621   6.405   2.246   1.576
 6908SOL     OW21622   2.384   4.896   6.796
 6908SOL    HW121623   2.379   4.876   6.894
 6908SOL    HW221624   2.437   4.824   6.750
 6909SOL     OW21625   5.242   5.023   2.226
 6909SOL    HW121626   5.197   5.004   2.139
 6909SOL    HW221627   5.285   4.940   2.261
 6910SOL     OW21628   1.400   2.797   3.151
 6910SOL    HW121629   1.371   2.702   3.140
 6910SOL    HW221630   1.452   2.825   3.071
 6911SOL     OW21631   4.037   6.960   5.031
 6911SOL    HW121632   3.961   7.016   4.998
 6911SOL    HW221633   4.059   6.890   4.963
 6912SOL     OW21634   2.619   3.184   6.375
 6912SOL    HW121635   2.717   3.204   6.377
 6912SOL    HW221636   2.581   3.213   6.288
 6913SOL     OW21637   5.126   6.243   4.800
 6913SOL    HW121638   5.108   6.185   4.721
 6913SOL    HW221639   5.096   6.197   4.883
 6914SOL     OW21640   5.992   4.286   2.368
 6914SOL    HW121641   6.019   4.193   2.346
 6914SOL    HW221642   6.071   4.347   2.357
 6915SOL     OW21643   1.279   2.637   1.929
 6915SOL    HW121644   1.198   2.626   1.870
 6915SOL    HW221645   1.284   2.560   1.993
 6916SOL     OW21646   5.392   1.592   5.451
 6916SOL    HW121647   5.304   1.560   5.415
 6916SOL    HW221648   5.466   1.538   5.412
 6917SOL     OW21649   4.365   5.940   1.998
 6917SOL    HW121650   4.437   5.981   2.053
 6917SOL    HW221651   4.372   5.841   2.003
 6918SOL     OW21652   0.568   2.658   2.776
 6918SOL    HW121653   0.480   2.676   2.733
 6918SOL    HW221654   0.619   2.744   2.784
 6919SOL     OW21655   6.269   6.159   3.087
 6919SOL    HW121656   6.362   6.129   3.109
 6919SOL    HW221657   6.248   6.243   3.136
 6920SOL     OW21658   5.433   6.729   5.802
 6920SOL    HW121659   5.513   6.778   5.768
 6920SOL    HW221660   5.366   6.720   5.729
 6921SOL     OW21661   3.959   0.179   4.034
 6921SOL    HW121662   4.053   0.202   4.059
 6921SOL    HW221663   3.958   0.093   3.983
 6922SOL     OW21664   1.865   6.270   4.785
 6922SOL    HW121665   1.782   6.250   4.837
 6922SOL    HW221666   1.941   6.287   4.848
 6923SOL     OW21667   5.779   6.259   2.370
 6923SOL    HW121668   5.860   6.311   2.397
 6923SOL    HW221669   5.714   6.319   2.324
 6924SOL     OW21670   3.033   5.408   0.753
 6924SOL    HW121671   3.106   5.369   0.808
 6924SOL    HW221672   2.959   5.341   0.742
 6925SOL     OW21673   4.755   5.891   5.846
 6925SOL    HW121674   4.716   5.982   5.842
 6925SOL    HW221675   4.842   5.890   5.796
 6926SOL     OW21676   2.190   2.080   0.312
 6926SOL    HW121677   2.145   2.056   0.398
 6926SOL    HW221678   2.228   1.997   0.270
 6927SOL     OW21679   3.731   1.432   0.116
 6927SOL    HW121680   3.712   1.344   0.160
 6927SOL    HW221681   3.801   1.480   0.168
 6928SOL     OW21682   5.072   5.763   1.170
 6928SOL    HW121683   4.987   5.780   1.122
 6928SOL    HW221684   5.090   5.838   1.234
 6929SOL     OW21685   5.384   5.959   1.612
 6929SOL    HW121686   5.314   6.014   1.658
 6929SOL    HW221687   5.454   6.019   1.574
 6930SOL     OW21688   0.813   1.014   0.353
 6930SOL    HW121689   0.795   1.005   0.451
 6930SOL    HW221690   0.737   0.975   0.302
 6931SOL     OW21691   1.699   1.965   1.022
 6931SOL    HW121692   1.747   2.000   1.102
 6931SOL    HW221693   1.600   1.979   1.034
 6932SOL     OW21694   4.837   5.309   1.218
 6932SOL    HW121695   4.815   5.403   1.189
 6932SOL    HW221696   4.846   5.251   1.137
 6933SOL     OW21697   3.789   6.628   6.083
 6933SOL    HW121698   3.857   6.665   6.020
 6933SOL    HW221699   3.771   6.696   6.155
 6934SOL     OW21700   4.822   3.523   6.253
 6934SOL    HW121701   4.847   3.476   6.169
 6934SOL    HW221702   4.877   3.606   6.263
 6935SOL     OW21703   4.421   5.797   2.787
 6935SOL    HW121704   4.365   5.725   2.829
 6935SOL    HW221705   4.441   5.773   2.692
 6936SOL     OW21706   0.255   2.118   4.188
 6936SOL    HW121707   0.299   2.050   4.129
 6936SOL    HW221708   0.234   2.200   4.135
 6937SOL     OW21709   5.847   6.161   1.058
 6937SOL    HW121710   5.766   6.177   1.002
 6937SOL    HW221711   5.909   6.098   1.011
 6938SOL     OW21712   0.591   1.636   4.572
 6938SOL    HW121713   0.611   1.734   4.571
 6938SOL    HW221714   0.514   1.617   4.512
 6939SOL     OW21715   6.394   5.352   3.093
 6939SOL    HW121716   6.487   5.381   3.118
 6939SOL    HW221717   6.362   5.407   3.016
 6940SOL     OW21718   4.433   6.396   0.363
 6940SOL    HW121719   4.421   6.481   0.313
 6940SOL    HW221720   4.528   6.388   0.394
 6941SOL     OW21721   3.032   3.441   2.379
 6941SOL    HW121722   3.006   3.346   2.396
 6941SOL    HW221723   3.129   3.453   2.399
 6942SOL     OW21724   6.080   6.765   1.848
 6942SOL    HW121725   6.070   6.666   1.859
 6942SOL    HW221726   6.032   6.794   1.765
 6943SOL     OW21727   4.543   4.757   0.542
 6943SOL    HW121728   4.458   4.778   0.494
 6943SOL    HW221729   4.613   4.825   0.519
 6944SOL     OW21730   0.983   4.981   6.235
 6944SOL    HW121731   0.964   5.079   6.231
 6944SOL    HW221732   0.984   4.943   6.143
 6945SOL     OW21733   6.702   2.185   1.053
 6945SOL    HW121734   6.711   2.257   1.121
 6945SOL    HW221735   6.777   2.120   1.063
 6946SOL     OW21736   3.700   6.131   1.937
 6946SOL    HW121737   3.727   6.046   1.984
 6946SOL    HW221738   3.618   6.168   1.980
 6947SOL     OW21739   3.643   5.428   6.081
 6947SOL    HW121740   3.654   5.453   5.985
 6947SOL    HW221741   3.571   5.360   6.090
 6948SOL     OW21742   0.530   6.086   1.442
 6948SOL    HW121743   0.499   6.003   1.487
 6948SOL    HW221744   0.617   6.116   1.481
 6949SOL     OW21745   2.743   2.332   3.120
 6949SOL    HW121746   2.727   2.297   3.028
 6949SOL    HW221747   2.655   2.349   3.165
 6950SOL     OW21748   1.670   0.115   4.757
 6950SOL    HW121749   1.595   0.138   4.695
 6950SOL    HW221750   1.693   0.018   4.747
 6951SOL     OW21751   6.164   5.617   6.692
 6951SOL    HW121752   6.166   5.644   6.596
 6951SOL    HW221753   6.122   5.689   6.747
 6952SOL     OW21754   2.314   4.473   2.858
 6952SOL    HW121755   2.354   4.549   2.910
 6952SOL    HW221756   2.346   4.477   2.763
 6953SOL     OW21757   5.134   6.624   0.674
 6953SOL    HW121758   5.167   6.643   0.767
 6953SOL    HW221759   5.083   6.538   0.674
 6954SOL     OW21760   7.015   3.483   1.606
 6954SOL    HW121761   0.004   3.575   1.569
 6954SOL    HW221762   6.946   3.484   1.678
 6955SOL     OW21763   4.930   0.528   2.290
 6955SOL    HW121764   4.991   0.515   2.212
 6955SOL    HW221765   4.905   0.625   2.297
 6956SOL     OW21766   5.477   5.483   2.767
 6956SOL    HW121767   5.535   5.500   2.687
 6956SOL    HW221768   5.418   5.563   2.782
 6957SOL     OW21769   5.635   6.067   6.824
 6957SOL    HW121770   5.615   6.016   6.908
 6957SOL    HW221771   5.719   6.031   6.783
 6958SOL     OW21772   3.493   3.438   4.093
 6958SOL    HW121773   3.402   3.428   4.052
 6958SOL    HW221774   3.521   3.533   4.087
 6959SOL     OW21775   1.749   4.105   2.581
 6959SOL    HW121776   1.820   4.090   2.651
 6959SOL    HW221777   1.708   4.018   2.557
 6960SOL     OW21778   2.119   3.986   0.938
 6960SOL    HW121779   2.096   4.069   0.988
 6960SOL    HW221780   2.059   3.912   0.966
 6961SOL     OW21781   5.179   1.320   4.769
 6961SOL    HW121782   5.121   1.270   4.834
 6961SOL    HW221783   5.238   1.255   4.722
 6962SOL     OW21784   4.126   6.194   0.870
 6962SOL    HW121785   4.048   6.256   0.862
 6962SOL    HW221786   4.160   6.195   0.964
 6963SOL     OW21787   5.424   5.230   6.969
 6963SOL    HW121788   5.505   5.190   6.926
 6963SOL    HW221789   5.348   5.165   6.962
 6964SOL     OW21790   3.286   0.146   5.483
 6964SOL    HW121791   3.374   0.101   5.472
 6964SOL    HW221792   3.286   0.233   5.434
 6965SOL     OW21793   1.378   1.876   6.622
 6965SOL    HW121794   1.364   1.967   6.582
 6965SOL    HW221795   1.367   1.807   6.551
 6966SOL     OW21796   1.014   0.874   2.397
 6966SOL    HW121797   0.930   0.845   2.353
 6966SOL    HW221798   1.016   0.974   2.402
 6967SOL     OW21799   3.563   1.513   5.657
 6967SOL    HW121800   3.562   1.582   5.729
 6967SOL    HW221801   3.586   1.424   5.697
 6968SOL     OW21802   2.563   0.739   2.859
 6968SOL    HW121803   2.539   0.646   2.832
 6968SOL    HW221804   2.492   0.802   2.829
 6969SOL     OW21805   3.654   2.030   1.045
 6969SOL    HW121806   3.747   2.001   1.025
 6969SOL    HW221807   3.589   1.963   1.009
 6970SOL     OW21808   3.431   4.182   5.887
 6970SOL    HW121809   3.474   4.093   5.901
 6970SOL    HW221810   3.412   4.195   5.790
 6971SOL     OW21811   5.346   5.033   1.222
 6971SOL    HW121812   5.393   4.944   1.225
 6971SOL    HW221813   5.401   5.098   1.170
 6972SOL     OW21814   5.225   3.775   2.315
 6972SOL    HW121815   5.141   3.743   2.359
 6972SOL    HW221816   5.282   3.697   2.291
 6973SOL     OW21817   0.710   2.139   3.245
 6973SOL    HW121818   0.755   2.167   3.160
 6973SOL    HW221819   0.668   2.218   3.289
 6974SOL     OW21820   2.916   3.399   2.710
 6974SOL    HW121821   2.905   3.322   2.646
 6974SOL    HW221822   2.882   3.482   2.667
 6975SOL     OW21823   2.508   6.382   4.649
 6975SOL    HW121824   2.492   6.480   4.643
 6975SOL    HW221825   2.444   6.341   4.714
 6976SOL     OW21826   5.768   3.894   5.688
 6976SOL    HW121827   5.690   3.842   5.724
 6976SOL    HW221828   5.735   3.976   5.642
 6977SOL     OW21829   3.951   4.197   1.443
 6977SOL    HW121830   3.928   4.196   1.541
 6977SOL    HW221831   3.867   4.206   1.390
 6978SOL     OW21832   5.063   3.215   1.138
 6978SOL    HW121833   5.016   3.163   1.210
 6978SOL    HW221834   5.133   3.273   1.180
 6979SOL     OW21835   1.635   2.825   1.082
 6979SOL    HW121836   1.645   2.802   1.179
 6979SOL    HW221837   1.701   2.771   1.028
 6980SOL     OW21838   1.723   1.133   3.460
 6980SOL    HW121839   1.732   1.035   3.478
 6980SOL    HW221840   1.655   1.173   3.521
 6981SOL     OW21841   3.252   3.716   6.231
 6981SOL    HW121842   3.262   3.630   6.281
 6981SOL    HW221843   3.309   3.714   6.149
 6982SOL     OW21844   0.913   0.743   3.215
 6982SOL    HW121845   0.933   0.781   3.125
 6982SOL    HW221846   0.937   0.810   3.285
 6983SOL     OW21847   4.565   1.646   5.139
 6983SOL    HW121848   4.581   1.558   5.093
 6983SOL    HW221849   4.467   1.656   5.156
 6984SOL     OW21850   1.613   2.012   2.700
 6984SOL    HW121851   1.549   2.070   2.650
 6984SOL    HW221852   1.562   1.951   2.761
 6985SOL     OW21853   6.526   4.910   6.930
 6985SOL    HW121854   6.459   4.952   6.870
 6985SOL    HW221855   6.487   4.899   7.022
 6986SOL     OW21856   3.820   6.746   6.664
 6986SOL    HW121857   3.909   6.785   6.687
 6986SOL    HW221858   3.762   6.746   6.745
 6987SOL     OW21859   0.232   1.843   5.471
 6987SOL    HW121860   0.200   1.874   5.561
 6987SOL    HW221861   0.199   1.907   5.401
 6988SOL     OW21862   2.010   6.959   5.938
 6988SOL    HW121863   2.069   7.021   5.887
 6988SOL    HW221864   2.025   6.971   6.036
 6989SOL     OW21865   6.517   4.844   2.347
 6989SOL    HW121866   6.591   4.888   2.295
 6989SOL    HW221867   6.556   4.800   2.428
 6990SOL     OW21868   3.890   2.757   1.687
 6990SOL    HW121869   3.849   2.688   1.747
 6990SOL    HW221870   3.980   2.726   1.657
 6991SOL     OW21871   5.310   4.481   3.264
 6991SOL    HW121872   5.354   4.515   3.181
 6991SOL    HW221873   5.289   4.558   3.325
 6992SOL     OW21874   6.982   6.158   0.131
 6992SOL    HW121875   6.992   6.059   0.133
 6992SOL    HW221876   6.943   6.190   0.217
 6993SOL     OW21877   6.242   0.501   1.354
 6993SOL    HW121878   6.147   0.512   1.381
 6993SOL    HW221879   6.270   0.406   1.368
 6994SOL     OW21880   1.409   0.241   3.846
 6994SOL    HW121881   1.485   0.299   3.876
 6994SOL    HW221882   1.326   0.297   3.837
 6995SOL     OW21883   0.364   3.888   0.490
 6995SOL    HW121884   0.455   3.879   0.532
 6995SOL    HW221885   0.349   3.983   0.464
 6996SOL     OW21886   1.072   0.812   0.328
 6996SOL    HW121887   0.993   0.767   0.369
 6996SOL    HW221888   1.049   0.908   0.309
 6997SOL     OW21889   0.099   4.990   5.369
 6997SOL    HW121890   0.009   4.947   5.358
 6997SOL    HW221891   0.144   4.996   5.280
 6998SOL     OW21892   0.460   1.743   1.311
 6998SOL    HW121893   0.461   1.814   1.241
 6998SOL    HW221894   0.366   1.715   1.330
 6999SOL     OW21895   0.831   2.395   6.412
 6999SOL    HW121896   0.751   2.449   6.442
 6999SOL    HW221897   0.848   2.322   6.477
 7000SOL     OW21898   6.349   0.313   2.078
 7000SOL    HW121899   6.320   0.402   2.043
 7000SOL    HW221900   6.408   0.326   2.158
 7001SOL     OW21901   1.228   1.706   5.250
 7001SOL    HW121902   1.146   1.714   5.194
 7001SOL    HW221903   1.307   1.741   5.199
 7002SOL     OW21904   1.437   5.555   3.926
 7002SOL    HW121905   1.364   5.609   3.883
 7002SOL    HW221906   1.451   5.470   3.874
 7003SOL     OW21907   5.243   5.074   1.472
 7003SOL    HW121908   5.155   5.121   1.461
 7003SOL    HW221909   5.285   5.061   1.382
 7004SOL     OW21910   1.183   5.249   0.307
 7004SOL    HW121911   1.155   5.189   0.381
 7004SOL    HW221912   1.270   5.217   0.269
 7005SOL     OW21913   1.195   0.321   6.721
 7005SOL    HW121914   1.153   0.277   6.800
 7005SOL    HW221915   1.295   0.311   6.727
 7006SOL     OW21916   6.563   6.813   3.274
 7006SOL    HW121917   6.658   6.804   3.303
 7006SOL    HW221918   6.557   6.804   3.174
 7007SOL     OW21919   4.457   0.810   5.058
 7007SOL    HW121920   4.496   0.723   5.089
 7007SOL    HW221921   4.398   0.847   5.130
 7008SOL     OW21922   6.583   4.546   4.176
 7008SOL    HW121923   6.655   4.535   4.108
 7008SOL    HW221924   6.621   4.540   4.268
 7009SOL     OW21925   3.953   6.832   2.033
 7009SOL    HW121926   3.976   6.758   1.970
 7009SOL    HW221927   3.953   6.919   1.984
 7010SOL     OW21928   5.897   4.170   2.942
 7010SOL    HW121929   5.835   4.242   2.974
 7010SOL    HW221930   5.845   4.104   2.888
 7011SOL     OW21931   3.921   6.752   0.793
 7011SOL    HW121932   3.862   6.671   0.794
 7011SOL    HW221933   3.865   6.834   0.778
 7012SOL     OW21934   1.419   2.539   1.223
 7012SOL    HW121935   1.344   2.556   1.286
 7012SOL    HW221936   1.503   2.524   1.275
 7013SOL     OW21937   2.268   0.734   6.745
 7013SOL    HW121938   2.303   0.794   6.674
 7013SOL    HW221939   2.336   0.663   6.765
 7014SOL     OW21940   5.839   3.429   1.302
 7014SOL    HW121941   5.856   3.331   1.292
 7014SOL    HW221942   5.926   3.476   1.321
 7015SOL     OW21943   5.927   4.790   2.604
 7015SOL    HW121944   5.909   4.886   2.626
 7015SOL    HW221945   5.976   4.784   2.517
 7016SOL     OW21946   3.262   5.394   0.941
 7016SOL    HW121947   3.259   5.493   0.957
 7016SOL    HW221948   3.338   5.354   0.993
 7017SOL     OW21949   3.241   4.904   3.047
 7017SOL    HW121950   3.339   4.890   3.035
 7017SOL    HW221951   3.222   4.930   3.142
 7018SOL     OW21952   5.602   3.440   4.153
 7018SOL    HW121953   5.524   3.401   4.104
 7018SOL    HW221954   5.685   3.428   4.098
 7019SOL     OW21955   4.724   5.353   2.423
 7019SOL    HW121956   4.814   5.328   2.386
 7019SOL    HW221957   4.733   5.370   2.521
 7020SOL     OW21958   0.472   3.472   6.872
 7020SOL    HW121959   0.544   3.408   6.897
 7020SOL    HW221960   0.501   3.526   6.793
 7021SOL     OW21961   1.368   3.126   4.634
 7021SOL    HW121962   1.460   3.159   4.612
 7021SOL    HW221963   1.370   3.027   4.643
 7022SOL     OW21964   4.226   0.855   0.559
 7022SOL    HW121965   4.223   0.776   0.619
 7022SOL    HW221966   4.194   0.828   0.467
 7023SOL     OW21967   0.597   2.206   1.917
 7023SOL    HW121968   0.656   2.131   1.888
 7023SOL    HW221969   0.506   2.172   1.937
 7024SOL     OW21970   3.719   3.199   3.343
 7024SOL    HW121971   3.778   3.120   3.360
 7024SOL    HW221972   3.732   3.267   3.416
 7025SOL     OW21973   3.483   0.730   0.422
 7025SOL    HW121974   3.462   0.728   0.519
 7025SOL    HW221975   3.580   0.706   0.408
 7026SOL     OW21976   3.943   2.125   2.311
 7026SOL    HW121977   3.935   2.029   2.285
 7026SOL    HW221978   3.855   2.171   2.298
 7027SOL     OW21979   2.580   6.096   3.531
 7027SOL    HW121980   2.515   6.054   3.468
 7027SOL    HW221981   2.640   6.025   3.569
 7028SOL     OW21982   2.104   6.960   4.009
 7028SOL    HW121983   2.198   6.981   4.035
 7028SOL    HW221984   2.098   6.955   3.909
 7029SOL     OW21985   3.197   3.618   5.559
 7029SOL    HW121986   3.186   3.525   5.595
 7029SOL    HW221987   3.193   3.684   5.634
 7030SOL     OW21988   0.914   2.153   4.821
 7030SOL    HW121989   0.849   2.221   4.789
 7030SOL    HW221990   0.978   2.131   4.748
 7031SOL     OW21991   4.415   6.345   0.797
 7031SOL    HW121992   4.375   6.294   0.873
 7031SOL    HW221993   4.407   6.443   0.815
 7032SOL     OW21994   4.399   0.566   4.336
 7032SOL    HW121995   4.391   0.644   4.398
 7032SOL    HW221996   4.325   0.502   4.355
 7033SOL     OW21997   1.671   2.736   4.083
 7033SOL    HW121998   1.726   2.790   4.019
 7033SOL    HW221999   1.695   2.761   4.177
 7034SOL     OW22000   6.398   2.871   3.335
 7034SOL    HW122001   6.484   2.894   3.381
 7034SOL    HW222002   6.375   2.943   3.270
 7035SOL     OW22003   2.264   0.107   1.952
 7035SOL    HW122004   2.301   0.033   1.896
 7035SOL    HW222005   2.281   0.086   2.049
 7036SOL     OW22006   0.047   2.188   2.646
 7036SOL    HW122007   0.101   2.138   2.714
 7036SOL    HW222008   0.109   2.238   2.585
 7037SOL     OW22009   0.380   1.277   5.754
 7037SOL    HW122010   0.413   1.321   5.838
 7037SOL    HW222011   0.454   1.272   5.688
 7038SOL     OW22012   2.580   4.588   5.609
 7038SOL    HW122013   2.634   4.643   5.544
 7038SOL    HW222014   2.631   4.505   5.632
 7039SOL     OW22015   0.974   5.266   3.665
 7039SOL    HW122016   0.985   5.174   3.704
 7039SOL    HW222017   0.925   5.324   3.730
 7040SOL     OW22018   4.446   2.103   5.237
 7040SOL    HW122019   4.543   2.103   5.212
 7040SOL    HW222020   4.434   2.058   5.325
 7041SOL     OW22021   1.065   1.162   3.485
 7041SOL    HW122022   1.062   1.186   3.388
 7041SOL    HW222023   1.063   1.245   3.541
 7042SOL     OW22024   4.611   6.029   4.925
 7042SOL    HW122025   4.529   6.035   4.982
 7042SOL    HW222026   4.625   6.115   4.876
 7043SOL     OW22027   2.196   4.336   3.817
 7043SOL    HW122028   2.167   4.365   3.726
 7043SOL    HW222029   2.272   4.394   3.848
 7044SOL     OW22030   5.103   0.617   4.875
 7044SOL    HW122031   5.039   0.693   4.880
 7044SOL    HW222032   5.080   0.558   4.797
 7045SOL     OW22033   5.860   5.396   2.682
 7045SOL    HW122034   5.849   5.494   2.698
 7045SOL    HW222035   5.877   5.380   2.584
 7046SOL     OW22036   3.221   2.022   4.162
 7046SOL    HW122037   3.162   2.096   4.195
 7046SOL    HW222038   3.167   1.939   4.150
 7047SOL     OW22039   0.361   0.768   1.155
 7047SOL    HW122040   0.444   0.712   1.160
 7047SOL    HW222041   0.370   0.835   1.082
 7048SOL     OW22042   5.926   6.321   5.130
 7048SOL    HW122043   5.854   6.389   5.144
 7048SOL    HW222044   6.010   6.352   5.174
 7049SOL     OW22045   4.111   1.141   2.213
 7049SOL    HW122046   4.056   1.068   2.172
 7049SOL    HW222047   4.060   1.227   2.208
 7050SOL     OW22048   3.446   4.851   0.664
 7050SOL    HW122049   3.469   4.755   0.680
 7050SOL    HW222050   3.487   4.908   0.736
 7051SOL     OW22051   6.810   6.692   1.124
 7051SOL    HW122052   6.789   6.740   1.038
 7051SOL    HW222053   6.903   6.713   1.151
 7052SOL     OW22054   5.524   6.739   3.171
 7052SOL    HW122055   5.525   6.720   3.073
 7052SOL    HW222056   5.518   6.838   3.185
 7053SOL     OW22057   1.512   3.542   4.187
 7053SOL    HW122058   1.589   3.554   4.124
 7053SOL    HW222059   1.541   3.565   4.280
 7054SOL     OW22060   0.204   0.055   1.069
 7054SOL    HW122061   0.199   6.986   1.029
 7054SOL    HW222062   0.113   0.080   1.104
 7055SOL     OW22063   2.697   0.102   0.068
 7055SOL    HW122064   2.792   0.124   0.088
 7055SOL    HW222065   2.647   0.087   0.153
 7056SOL     OW22066   7.018   5.481   1.162
 7056SOL    HW122067   6.954   5.431   1.105
 7056SOL    HW222068   6.981   5.572   1.182
 7057SOL     OW22069   3.323   5.371   4.102
 7057SOL    HW122070   3.249   5.304   4.102
 7057SOL    HW222071   3.379   5.358   4.184
 7058SOL     OW22072   5.414   2.274   6.326
 7058SOL    HW122073   5.369   2.338   6.264
 7058SOL    HW222074   5.508   2.303   6.342
 7059SOL     OW22075   1.802   1.372   4.884
 7059SOL    HW122076   1.757   1.317   4.955
 7059SOL    HW222077   1.845   1.311   4.817
 7060SOL     OW22078   3.511   6.732   2.030
 7060SOL    HW122079   3.474   6.657   1.975
 7060SOL    HW222080   3.483   6.819   1.991
 7061SOL     OW22081   0.806   2.134   2.164
 7061SOL    HW122082   0.861   2.208   2.201
 7061SOL    HW222083   0.814   2.134   2.064
 7062SOL     OW22084   4.121   1.854   4.360
 7062SOL    HW122085   4.212   1.829   4.326
 7062SOL    HW222086   4.071   1.771   4.385
 7063SOL     OW22087   0.549   6.385   2.444
 7063SOL    HW122088   0.523   6.334   2.526
 7063SOL    HW222089   0.508   6.342   2.363
 7064SOL     OW22090   5.077   1.629   5.769
 7064SOL    HW122091   5.065   1.623   5.868
 7064SOL    HW222092   4.990   1.610   5.723
 7065SOL     OW22093   3.333   4.414   5.298
 7065SOL    HW122094   3.396   4.372   5.364
 7065SOL    HW222095   3.295   4.344   5.239
 7066SOL     OW22096   4.529   0.704   6.966
 7066SOL    HW122097   4.463   0.760   7.015
 7066SOL    HW222098   4.599   0.762   6.925
 7067SOL     OW22099   1.343   3.323   6.927
 7067SOL    HW122100   1.436   3.304   6.898
 7067SOL    HW222101   1.334   3.304   0.003
 7068SOL     OW22102   5.564   4.372   4.317
 7068SOL    HW122103   5.633   4.385   4.245
 7068SOL    HW222104   5.602   4.398   4.405
 7069SOL     OW22105   5.839   1.666   5.665
 7069SOL    HW122106   5.919   1.610   5.688
 7069SOL    HW222107   5.845   1.693   5.569
 7070SOL     OW22108   0.461   6.195   4.630
 7070SOL    HW122109   0.433   6.249   4.551
 7070SOL    HW222110   0.411   6.225   4.711
 7071SOL     OW22111   4.877   6.413   6.507
 7071SOL    HW122112   4.786   6.429   6.469
 7071SOL    HW222113   4.876   6.431   6.605
 7072SOL     OW22114   1.507   4.355   6.472
 7072SOL    HW122115   1.413   4.328   6.451
 7072SOL    HW222116   1.541   4.301   6.550
 7073SOL     OW22117   3.719   0.432   3.120
 7073SOL    HW122118   3.762   0.462   3.205
 7073SOL    HW222119   3.741   0.496   3.046
 7074SOL     OW22120   6.407   3.592   3.821
 7074SOL    HW122121   6.333   3.621   3.882
 7074SOL    HW222122   6.399   3.642   3.734
 7075SOL     OW22123   3.360   4.921   5.135
 7075SOL    HW122124   3.343   4.826   5.162
 7075SOL    HW222125   3.273   4.969   5.124
 7076SOL     OW22126   6.209   3.038   1.743
 7076SOL    HW122127   6.114   3.064   1.725
 7076SOL    HW222128   6.236   2.967   1.678
 7077SOL     OW22129   2.657   4.679   2.658
 7077SOL    HW122130   2.670   4.652   2.563
 7077SOL    HW222131   2.580   4.629   2.697
 7078SOL     OW22132   5.421   6.635   0.625
 7078SOL    HW122133   5.322   6.626   0.628
 7078SOL    HW222134   5.462   6.583   0.700
 7079SOL     OW22135   1.483   6.783   4.305
 7079SOL    HW122136   1.470   6.695   4.259
 7079SOL    HW222137   1.551   6.836   4.255
 7080SOL     OW22138   3.940   1.667   4.466
 7080SOL    HW122139   3.929   1.568   4.461
 7080SOL    HW222140   3.855   1.709   4.499
 7081SOL     OW22141   1.815   6.986   0.088
 7081SOL    HW122142   1.779   6.992   0.181
 7081SOL    HW222143   1.899   6.932   0.088
 7082SOL     OW22144   6.787   3.912   1.546
 7082SOL    HW122145   6.702   3.965   1.553
 7082SOL    HW222146   6.799   3.857   1.628
 7083SOL     OW22147   6.884   2.287   2.354
 7083SOL    HW122148   6.884   2.203   2.408
 7083SOL    HW222149   6.933   2.271   2.269
 7084SOL     OW22150   0.687   5.698   5.531
 7084SOL    HW122151   0.761   5.716   5.465
 7084SOL    HW222152   0.614   5.765   5.517
 7085SOL     OW22153   6.967   2.482   2.566
 7085SOL    HW122154   6.892   2.418   2.583
 7085SOL    HW222155   6.929   2.572   2.543
 7086SOL     OW22156   5.878   0.436   6.661
 7086SOL    HW122157   5.879   0.513   6.597
 7086SOL    HW222158   5.945   0.451   6.733
 7087SOL     OW22159   4.880   3.419   2.765
 7087SOL    HW122160   4.816   3.495   2.757
 7087SOL    HW222161   4.943   3.421   2.688
 7088SOL     OW22162   5.580   1.891   4.802
 7088SOL    HW122163   5.630   1.808   4.777
 7088SOL    HW222164   5.483   1.878   4.783
 7089SOL     OW22165   3.258   5.242   2.754
 7089SOL    HW122166   3.332   5.226   2.820
 7089SOL    HW222167   3.270   5.180   2.676
 7090SOL     OW22168   3.002   1.459   0.797
 7090SOL    HW122169   3.016   1.441   0.894
 7090SOL    HW222170   3.040   1.384   0.743
 7091SOL     OW22171   0.819   0.165   0.726
 7091SOL    HW122172   0.814   0.196   0.821
 7091SOL    HW222173   0.869   0.079   0.721
 7092SOL     OW22174   4.081   2.535   6.807
 7092SOL    HW122175   4.165   2.566   6.763
 7092SOL    HW222176   4.002   2.559   6.750
 7093SOL     OW22177   3.525   3.998   1.310
 7093SOL    HW122178   3.541   3.994   1.211
 7093SOL    HW222179   3.522   4.094   1.339
 7094SOL     OW22180   1.755   6.597   5.787
 7094SOL    HW122181   1.700   6.569   5.866
 7094SOL    HW222182   1.816   6.523   5.761
 7095SOL     OW22183   3.286   4.692   5.282
 7095SOL    HW122184   3.194   4.714   5.251
 7095SOL    HW222185   3.292   4.593   5.299
 7096SOL     OW22186   6.831   0.710   1.264
 7096SOL    HW122187   6.919   0.733   1.223
 7096SOL    HW222188   6.759   0.767   1.224
 7097SOL     OW22189   5.554   0.336   2.021
 7097SOL    HW122190   5.501   0.297   2.097
 7097SOL    HW222191   5.530   0.289   1.936
 7098SOL     OW22192   2.041   6.852   4.788
 7098SOL    HW122193   1.951   6.808   4.795
 7098SOL    HW222194   2.042   6.935   4.844
 7099SOL     OW22195   3.268   1.913   3.882
 7099SOL    HW122196   3.268   1.922   3.981
 7099SOL    HW222197   3.332   1.979   3.842
 7100SOL     OW22198   0.505   3.549   0.698
 7100SOL    HW122199   0.467   3.627   0.748
 7100SOL    HW222200   0.480   3.464   0.745
 7101SOL     OW22201   2.510   6.268   5.066
 7101SOL    HW122202   2.466   6.208   5.133
 7101SOL    HW222203   2.602   6.233   5.046
 7102SOL     OW22204   5.376   0.779   1.018
 7102SOL    HW122205   5.390   0.708   0.949
 7102SOL    HW222206   5.308   0.749   1.085
 7103SOL     OW22207   5.025   5.113   2.460
 7103SOL    HW122208   5.021   5.099   2.559
 7103SOL    HW222209   4.994   5.030   2.414
 7104SOL     OW22210   5.410   3.147   3.186
 7104SOL    HW122211   5.411   3.141   3.286
 7104SOL    HW222212   5.440   3.060   3.147
 7105SOL     OW22213   3.262   4.091   3.992
 7105SOL    HW122214   3.224   4.121   3.904
 7105SOL    HW222215   3.355   4.127   4.002
 7106SOL     OW22216   3.460   2.867   1.148
 7106SOL    HW122217   3.550   2.828   1.131
 7106SOL    HW222218   3.401   2.798   1.188
 7107SOL     OW22219   3.988   0.480   0.406
 7107SOL    HW122220   4.083   0.482   0.376
 7107SOL    HW222221   3.928   0.460   0.328
 7108SOL     OW22222   2.511   6.582   2.903
 7108SOL    HW122223   2.596   6.530   2.899
 7108SOL    HW222224   2.522   6.668   2.852
 7109SOL     OW22225   1.473   0.641   6.765
 7109SOL    HW122226   1.525   0.605   6.842
 7109SOL    HW222227   1.524   0.628   6.680
 7110SOL     OW22228   3.340   6.529   4.488
 7110SOL    HW122229   3.437   6.550   4.483
 7110SOL    HW222230   3.307   6.502   4.398
 7111SOL     OW22231   1.117   0.891   4.082
 7111SOL    HW122232   1.203   0.937   4.061
 7111SOL    HW222233   1.112   0.871   4.180
 7112SOL     OW22234   2.481   4.446   4.440
 7112SOL    HW122235   2.528   4.440   4.528
 7112SOL    HW222236   2.434   4.360   4.421
 7113SOL     OW22237   3.086   5.019   5.085
 7113SOL    HW122238   3.034   4.934   5.078
 7113SOL    HW222239   3.024   5.097   5.075
 7114SOL     OW22240   4.468   5.446   1.621
 7114SOL    HW122241   4.470   5.494   1.533
 7114SOL    HW222242   4.479   5.512   1.696
 7115SOL     OW22243   5.903   4.511   6.926
 7115SOL    HW122244   5.819   4.563   6.934
 7115SOL    HW222245   5.946   4.502   7.016
 7116SOL     OW22246   6.022   4.334   3.766
 7116SOL    HW122247   5.946   4.277   3.797
 7116SOL    HW222248   5.990   4.396   3.694
 7117SOL     OW22249   6.082   6.728   4.243
 7117SOL    HW122250   6.125   6.710   4.331
 7117SOL    HW222251   5.982   6.735   4.255
 7118SOL     OW22252   3.798   4.324   5.333
 7118SOL    HW122253   3.763   4.305   5.241
 7118SOL    HW222254   3.890   4.288   5.343
 7119SOL     OW22255   5.332   0.900   5.426
 7119SOL    HW122256   5.286   0.836   5.365
 7119SOL    HW222257   5.267   0.938   5.491
 7120SOL     OW22258   5.313   1.197   1.284
 7120SOL    HW122259   5.295   1.248   1.200
 7120SOL    HW222260   5.404   1.157   1.280
 7121SOL     OW22261   0.793   6.516   3.591
 7121SOL    HW122262   0.738   6.449   3.543
 7121SOL    HW222263   0.888   6.486   3.593
 7122SOL     OW22264   2.526   6.482   5.922
 7122SOL    HW122265   2.562   6.396   5.888
 7122SOL    HW222266   2.601   6.546   5.938
 7123SOL     OW22267   6.027   4.779   5.065
 7123SOL    HW122268   6.045   4.757   4.969
 7123SOL    HW222269   5.986   4.870   5.071
 7124SOL     OW22270   1.460   2.788   1.812
 7124SOL    HW122271   1.385   2.746   1.865
 7124SOL    HW222272   1.547   2.759   1.851
 7125SOL     OW22273   0.690   0.213   2.103
 7125SOL    HW122274   0.640   0.221   2.017
 7125SOL    HW222275   0.625   0.204   2.178
 7126SOL     OW22276   3.979   6.331   1.488
 7126SOL    HW122277   3.901   6.278   1.523
 7126SOL    HW222278   4.047   6.341   1.560
 7127SOL     OW22279   3.308   6.039   5.342
 7127SOL    HW122280   3.217   6.015   5.308
 7127SOL    HW222281   3.300   6.072   5.436
 7128SOL     OW22282   3.514   4.641   6.852
 7128SOL    HW122283   3.565   4.623   6.768
 7128SOL    HW222284   3.550   4.584   6.925
 7129SOL     OW22285   6.794   1.987   0.416
 7129SOL    HW122286   6.816   1.973   0.512
 7129SOL    HW222287   6.878   1.988   0.362
 7130SOL     OW22288   2.958   6.965   4.444
 7130SOL    HW122289   2.987   0.038   4.452
 7130SOL    HW222290   3.001   6.924   4.364
 7131SOL     OW22291   3.640   0.955   2.441
 7131SOL    HW122292   3.584   0.935   2.361
 7131SOL    HW222293   3.664   0.869   2.487
 7132SOL     OW22294   5.309   4.175   6.783
 7132SOL    HW122295   5.277   4.212   6.696
 7132SOL    HW222296   5.265   4.087   6.800
 7133SOL     OW22297   3.708   5.810   3.688
 7133SOL    HW122298   3.770   5.877   3.730
 7133SOL    HW222299   3.719   5.722   3.734
 7134SOL     OW22300   6.002   6.052   1.658
 7134SOL    HW122301   5.983   6.082   1.564
 7134SOL    HW222302   6.081   5.991   1.658
 7135SOL     OW22303   2.075   3.296   2.121
 7135SOL    HW122304   2.025   3.322   2.203
 7135SOL    HW222305   2.122   3.376   2.083
 7136SOL     OW22306   2.888   1.757   1.622
 7136SOL    HW122307   2.878   1.658   1.608
 7136SOL    HW222308   2.886   1.777   1.720
 7137SOL     OW22309   2.722   1.909   1.498
 7137SOL    HW122310   2.790   1.861   1.554
 7137SOL    HW222311   2.631   1.871   1.516
 7138SOL     OW22312   1.862   1.334   1.407
 7138SOL    HW122313   1.849   1.309   1.311
 7138SOL    HW222314   1.841   1.431   1.419
 7139SOL     OW22315   5.090   5.505   2.028
 7139SOL    HW122316   5.162   5.557   2.074
 7139SOL    HW222317   5.099   5.517   1.929
 7140SOL     OW22318   5.925   3.783   0.946
 7140SOL    HW122319   6.011   3.741   0.918
 7140SOL    HW222320   5.898   3.852   0.879
 7141SOL     OW22321   4.067   6.477   1.298
 7141SOL    HW122322   4.040   6.561   1.346
 7141SOL    HW222323   4.031   6.398   1.348
 7142SOL     OW22324   3.257   0.912   4.300
 7142SOL    HW122325   3.221   0.860   4.223
 7142SOL    HW222326   3.327   0.975   4.268
 7143SOL     OW22327   2.269   4.478   6.565
 7143SOL    HW122328   2.357   4.434   6.550
 7143SOL    HW222329   2.232   4.509   6.478
 7144SOL     OW22330   6.931   1.389   4.509
 7144SOL    HW122331   7.007   1.454   4.519
 7144SOL    HW222332   6.925   1.360   4.414
 7145SOL     OW22333   4.990   1.437   0.289
 7145SOL    HW122334   4.954   1.467   0.377
 7145SOL    HW222335   4.916   1.432   0.222
 7146SOL     OW22336   2.194   1.137   4.960
 7146SOL    HW122337   2.167   1.086   4.878
 7146SOL    HW222338   2.236   1.224   4.933
 7147SOL     OW22339   5.427   4.801   2.875
 7147SOL    HW122340   5.378   4.834   2.794
 7147SOL    HW222341   5.363   4.789   2.951
 7148SOL     OW22342   6.359   6.571   1.363
 7148SOL    HW122343   6.340   6.600   1.269
 7148SOL    HW222344   6.314   6.484   1.381
 7149SOL     OW22345   6.592   4.578   3.380
 7149SOL    HW122346   6.661   4.511   3.405
 7149SOL    HW222347   6.627   4.636   3.306
 7150SOL     OW22348   4.276   3.505   6.976
 7150SOL    HW122349   4.183   3.509   7.014
 7150SOL    HW222350   4.293   3.589   6.924
 7151SOL     OW22351   3.228   0.358   0.907
 7151SOL    HW122352   3.322   0.324   0.902
 7151SOL    HW222353   3.184   0.322   0.990
 7152SOL     OW22354   6.727   1.060   6.683
 7152SOL    HW122355   6.721   1.127   6.757
 7152SOL    HW222356   6.817   1.066   6.640
 7153SOL     OW22357   4.162   6.090   1.731
 7153SOL    HW122358   4.210   6.031   1.795
 7153SOL    HW222359   4.064   6.089   1.750
 7154SOL     OW22360   4.701   1.455   2.376
 7154SOL    HW122361   4.637   1.394   2.424
 7154SOL    HW222362   4.650   1.533   2.339
 7155SOL     OW22363   2.913   1.894   1.950
 7155SOL    HW122364   2.816   1.878   1.968
 7155SOL    HW222365   2.954   1.944   2.026
 7156SOL     OW22366   5.639   3.405   1.523
 7156SOL    HW122367   5.582   3.330   1.489
 7156SOL    HW222368   5.703   3.433   1.451
 7157SOL     OW22369   6.100   4.397   6.736
 7157SOL    HW122370   6.033   4.402   6.811
 7157SOL    HW222371   6.133   4.489   6.715
 7158SOL     OW22372   5.814   6.870   3.880
 7158SOL    HW122373   5.812   6.961   3.839
 7158SOL    HW222374   5.893   6.819   3.847
 7159SOL     OW22375   6.736   5.046   4.055
 7159SOL    HW122376   6.660   5.019   3.996
 7159SOL    HW222377   6.729   5.143   4.076
 7160SOL     OW22378   5.585   6.506   2.678
 7160SOL    HW122379   5.647   6.536   2.606
 7160SOL    HW222380   5.588   6.406   2.686
 7161SOL     OW22381   4.018   3.364   3.165
 7161SOL    HW122382   3.926   3.364   3.124
 7161SOL    HW222383   4.013   3.327   3.258
 7162SOL     OW22384   0.003   4.896   1.972
 7162SOL    HW122385   0.079   4.833   1.959
 7162SOL    HW222386   6.999   4.934   1.883
 7163SOL     OW22387   1.174   1.907   2.828
 7163SOL    HW122388   1.164   1.818   2.871
 7163SOL    HW222389   1.208   1.896   2.735
 7164SOL     OW22390   1.866   0.913   6.222
 7164SOL    HW122391   1.938   0.858   6.180
 7164SOL    HW222392   1.874   0.908   6.322
 7165SOL     OW22393   5.519   6.815   0.290
 7165SOL    HW122394   5.520   6.889   0.223
 7165SOL    HW222395   5.518   6.854   0.382
 7166SOL     OW22396   5.232   0.401   5.749
 7166SOL    HW122397   5.270   0.493   5.752
 7166SOL    HW222398   5.199   0.381   5.657
 7167SOL     OW22399   5.831   1.883   5.119
 7167SOL    HW122400   5.919   1.856   5.159
 7167SOL    HW222401   5.779   1.802   5.094
 7168SOL     OW22402   2.549   0.605   2.342
 7168SOL    HW122403   2.624   0.557   2.389
 7168SOL    HW222404   2.462   0.563   2.367
 7169SOL     OW22405   1.664   4.584   5.043
 7169SOL    HW122406   1.598   4.520   5.081
 7169SOL    HW222407   1.702   4.547   4.958
 7170SOL     OW22408   4.345   0.501   1.921
 7170SOL    HW122409   4.402   0.583   1.917
 7170SOL    HW222410   4.256   0.519   1.880
 7171SOL     OW22411   5.520   5.224   0.597
 7171SOL    HW122412   5.600   5.188   0.644
 7171SOL    HW222413   5.535   5.321   0.575
 7172SOL     OW22414   1.910   1.227   4.654
 7172SOL    HW122415   1.847   1.183   4.590
 7172SOL    HW222416   1.949   1.308   4.611
 7173SOL     OW22417   5.844   5.837   6.934
 7173SOL    HW122418   5.814   5.870   0.000
 7173SOL    HW222419   5.940   5.862   6.919
 7174SOL     OW22420   5.467   4.659   1.587
 7174SOL    HW122421   5.371   4.672   1.564
 7174SOL    HW222422   5.518   4.635   1.504
 7175SOL     OW22423   5.875   3.619   5.098
 7175SOL    HW122424   5.788   3.618   5.148
 7175SOL    HW222425   5.947   3.582   5.157
 7176SOL     OW22426   0.522   1.307   4.252
 7176SOL    HW122427   0.610   1.353   4.265
 7176SOL    HW222428   0.458   1.337   4.324
 7177SOL     OW22429   2.019   5.407   5.319
 7177SOL    HW122430   2.088   5.441   5.383
 7177SOL    HW222431   1.982   5.484   5.266
 7178SOL     OW22432   0.377   1.005   5.577
 7178SOL    HW122433   0.315   1.064   5.630
 7178SOL    HW222434   0.377   0.913   5.617
 7179SOL     OW22435   2.833   5.286   6.166
 7179SOL    HW122436   2.818   5.187   6.171
 7179SOL    HW222437   2.847   5.322   6.258
 7180SOL     OW22438   1.821   4.832   1.540
 7180SOL    HW122439   1.879   4.841   1.622
 7180SOL    HW222440   1.793   4.737   1.528
 7181SOL     OW22441   2.455   1.335   5.497
 7181SOL    HW122442   2.470   1.428   5.464
 7181SOL    HW222443   2.505   1.271   5.437
 7182SOL     OW22444   0.362   3.095   4.087
 7182SOL    HW122445   0.312   3.092   4.174
 7182SOL    HW222446   0.429   3.021   4.085
 7183SOL     OW22447   1.939   6.385   1.761
 7183SOL    HW122448   1.998   6.378   1.841
 7183SOL    HW222449   1.892   6.474   1.762
 7184SOL     OW22450   5.987   1.021   3.390
 7184SOL    HW122451   5.922   0.955   3.352
 7184SOL    HW222452   6.059   0.972   3.440
 7185SOL     OW22453   4.960   1.224   5.354
 7185SOL    HW122454   4.958   1.133   5.395
 7185SOL    HW222455   4.867   1.257   5.341
 7186SOL     OW22456   6.927   0.253   0.383
 7186SOL    HW122457   7.009   0.304   0.409
 7186SOL    HW222458   6.946   0.155   0.387
 7187SOL     OW22459   2.911   3.465   4.820
 7187SOL    HW122460   2.981   3.425   4.760
 7187SOL    HW222461   2.822   3.427   4.797
 7188SOL     OW22462   4.222   4.835   0.004
 7188SOL    HW122463   4.210   4.906   0.072
 7188SOL    HW222464   4.232   4.746   0.050
 7189SOL     OW22465   6.137   2.802   5.447
 7189SOL    HW122466   6.098   2.858   5.520
 7189SOL    HW222467   6.222   2.843   5.415
 7190SOL     OW22468   5.983   5.622   1.147
 7190SOL    HW122469   5.976   5.657   1.053
 7190SOL    HW222470   5.976   5.697   1.211
 7191SOL     OW22471   0.894   4.313   2.936
 7191SOL    HW122472   0.937   4.332   3.024
 7191SOL    HW222473   0.961   4.325   2.863
 7192SOL     OW22474   1.619   4.734   6.370
 7192SOL    HW122475   1.702   4.688   6.401
 7192SOL    HW222476   1.574   4.778   6.448
 7193SOL     OW22477   2.785   1.902   2.356
 7193SOL    HW122478   2.695   1.871   2.388
 7193SOL    HW222479   2.845   1.823   2.347
 7194SOL     OW22480   2.718   2.495   0.220
 7194SOL    HW122481   2.625   2.503   0.256
 7194SOL    HW222482   2.778   2.459   0.292
 7195SOL     OW22483   0.199   3.775   7.006
 7195SOL    HW122484   0.164   3.796   6.915
 7195SOL    HW222485   0.218   3.677   7.013
 7196SOL     OW22486   2.990   3.837   2.510
 7196SOL    HW122487   2.987   3.892   2.593
 7196SOL    HW222488   3.030   3.891   2.436
 7197SOL     OW22489   1.467   3.809   5.320
 7197SOL    HW122490   1.420   3.781   5.404
 7197SOL    HW222491   1.442   3.746   5.246
 7198SOL     OW22492   6.891   0.752   0.400
 7198SOL    HW122493   6.882   0.671   0.457
 7198SOL    HW222494   6.837   0.827   0.439
 7199SOL     OW22495   0.641   0.543   2.344
 7199SOL    HW122496   0.637   0.546   2.444
 7199SOL    HW222497   0.552   0.569   2.306
 7200SOL     OW22498   2.006   2.239   0.740
 7200SOL    HW122499   2.017   2.192   0.828
 7200SOL    HW222500   2.080   2.214   0.679
 7201SOL     OW22501   6.219   5.432   3.984
 7201SOL    HW122502   6.296   5.486   3.950
 7201SOL    HW222503   6.154   5.491   4.030
 7202SOL     OW22504   5.212   6.666   6.138
 7202SOL    HW122505   5.155   6.639   6.216
 7202SOL    HW222506   5.210   6.766   6.129
 7203SOL     OW22507   0.435   1.079   2.051
 7203SOL    HW122508   0.493   1.140   2.104
 7203SOL    HW222509   0.491   1.017   1.997
 7204SOL     OW22510   6.544   1.086   0.826
 7204SOL    HW122511   6.532   1.099   0.728
 7204SOL    HW222512   6.456   1.098   0.872
 7205SOL     OW22513   1.819   2.549   4.799
 7205SOL    HW122514   1.889   2.614   4.826
 7205SOL    HW222515   1.820   2.471   4.861
 7206SOL     OW22516   1.545   1.756   1.333
 7206SOL    HW122517   1.517   1.751   1.237
 7206SOL    HW222518   1.645   1.749   1.339
 7207SOL     OW22519   1.636   2.194   4.149
 7207SOL    HW122520   1.676   2.281   4.123
 7207SOL    HW222521   1.709   2.128   4.169
 7208SOL     OW22522   3.789   0.567   4.393
 7208SOL    HW122523   3.789   0.523   4.304
 7208SOL    HW222524   3.725   0.644   4.392
 7209SOL     OW22525   2.170   2.495   2.600
 7209SOL    HW122526   2.162   2.520   2.503
 7209SOL    HW222527   2.164   2.578   2.656
 7210SOL     OW22528   2.825   1.912   3.197
 7210SOL    HW122529   2.894   1.852   3.158
 7210SOL    HW222530   2.768   1.859   3.261
 7211SOL     OW22531   2.793   6.265   5.325
 7211SOL    HW122532   2.876   6.286   5.274
 7211SOL    HW222533   2.718   6.325   5.296
 7212SOL     OW22534   6.012   5.526   5.907
 7212SOL    HW122535   6.068   5.569   5.836
 7212SOL    HW222536   6.071   5.477   5.971
 7213SOL     OW22537   3.513   0.077   0.628
 7213SOL    HW122538   3.420   0.069   0.663
 7213SOL    HW222539   3.513   0.131   0.544
 7214SOL     OW22540   0.386   1.095   6.299
 7214SOL    HW122541   0.449   1.171   6.317
 7214SOL    HW222542   0.385   1.075   6.201
 7215SOL     OW22543   0.080   2.366   3.452
 7215SOL    HW122544   7.002   2.372   3.453
 7215SOL    HW222545   0.117   2.436   3.391
 7216SOL     OW22546   3.174   6.517   2.346
 7216SOL    HW122547   3.181   6.607   2.303
 7216SOL    HW222548   3.140   6.528   2.439
 7217SOL     OW22549   1.020   4.370   3.615
 7217SOL    HW122550   1.099   4.407   3.663
 7217SOL    HW222551   1.031   4.271   3.604
 7218SOL     OW22552   6.988   3.129   4.480
 7218SOL    HW122553   6.999   3.030   4.485
 7218SOL    HW222554   6.992   3.168   4.572
 7219SOL     OW22555   2.936   6.597   1.629
 7219SOL    HW122556   2.922   6.572   1.533
 7219SOL    HW222557   2.994   6.528   1.673
 7220SOL     OW22558   6.688   4.041   4.872
 7220SOL    HW122559   6.611   4.105   4.878
 7220SOL    HW222560   6.669   3.961   4.929
 7221SOL     OW22561   3.086   6.173   4.747
 7221SOL    HW122562   3.045   6.110   4.814
 7221SOL    HW222563   3.165   6.218   4.787
 7222SOL     OW22564   5.967   6.532   3.269
 7222SOL    HW122565   5.996   6.610   3.213
 7222SOL    HW222566   5.875   6.550   3.305
 7223SOL     OW22567   2.372   2.103   0.875
 7223SOL    HW122568   2.470   2.100   0.892
 7223SOL    HW222569   2.351   2.177   0.811
 7224SOL     OW22570   4.392   2.393   4.083
 7224SOL    HW122571   4.355   2.390   3.990
 7224SOL    HW222572   4.454   2.316   4.098
 7225SOL     OW22573   2.042   6.481   0.175
 7225SOL    HW122574   2.107   6.506   0.247
 7225SOL    HW222575   1.949   6.502   0.205
 7226SOL     OW22576   5.835   0.614   0.580
 7226SOL    HW122577   5.838   0.710   0.555
 7226SOL    HW222578   5.889   0.561   0.514
 7227SOL     OW22579   2.765   0.909   2.623
 7227SOL    HW122580   2.746   0.999   2.662
 7227SOL    HW222581   2.836   0.918   2.553
 7228SOL     OW22582   0.179   1.661   3.071
 7228SOL    HW122583   0.114   1.732   3.042
 7228SOL    HW222584   0.249   1.649   3.001
 7229SOL     OW22585   0.102   6.736   4.396
 7229SOL    HW122586   0.171   6.690   4.452
 7229SOL    HW222587   0.081   6.825   4.437
 7230SOL     OW22588   2.721   5.041   4.021
 7230SOL    HW122589   2.631   5.022   4.061
 7230SOL    HW222590   2.787   4.973   4.055
 7231SOL     OW22591   3.515   0.130   1.141
 7231SOL    HW122592   3.572   0.059   1.100
 7231SOL    HW222593   3.556   0.159   1.228
 7232SOL     OW22594   5.179   6.523   2.445
 7232SOL    HW122595   5.155   6.591   2.514
 7232SOL    HW222596   5.252   6.464   2.481
 7233SOL     OW22597   6.092   1.949   5.631
 7233SOL    HW122598   6.020   1.902   5.580
 7233SOL    HW222599   6.157   1.883   5.666
 7234SOL     OW22600   5.127   4.001   3.196
 7234SOL    HW122601   5.215   3.954   3.189
 7234SOL    HW222602   5.061   3.942   3.242
 7235SOL     OW22603   6.204   5.863   1.594
 7235SOL    HW122604   6.262   5.830   1.519
 7235SOL    HW222605   6.262   5.890   1.671
 7236SOL     OW22606   1.621   2.559   3.015
 7236SOL    HW122607   1.625   2.632   2.946
 7236SOL    HW222608   1.624   2.470   2.970
 7237SOL     OW22609   4.948   6.925   0.237
 7237SOL    HW122610   4.953   6.883   0.327
 7237SOL    HW222611   4.901   6.864   0.173
 7238SOL     OW22612   4.632   2.599   6.893
 7238SOL    HW122613   4.565   2.530   6.921
 7238SOL    HW222614   4.723   2.570   6.920
 7239SOL     OW22615   0.521   3.369   2.497
 7239SOL    HW122616   0.498   3.370   2.400
 7239SOL    HW222617   0.583   3.445   2.517
 7240SOL     OW22618   6.672   1.950   6.345
 7240SOL    HW122619   6.627   1.916   6.262
 7240SOL    HW222620   6.693   1.873   6.405
 7241SOL     OW22621   1.933   0.329   0.339
 7241SOL    HW122622   1.866   0.263   0.374
 7241SOL    HW222623   2.018   0.322   0.392
 7242SOL     OW22624   0.015   5.976   5.148
 7242SOL    HW122625   6.981   6.019   5.078
 7242SOL    HW222626   7.000   5.886   5.170
 7243SOL     OW22627   6.940   3.699   6.653
 7243SOL    HW122628   6.908   3.624   6.594
 7243SOL    HW222629   6.865   3.733   6.709
 7244SOL     OW22630   0.570   6.835   0.478
 7244SOL    HW122631   0.543   6.854   0.572
 7244SOL    HW222632   0.493   6.854   0.417
 7245SOL     OW22633   1.104   2.665   5.852
 7245SOL    HW122634   1.184   2.623   5.810
 7245SOL    HW222635   1.094   2.631   5.945
 7246SOL     OW22636   2.652   0.459   4.268
 7246SOL    HW122637   2.707   0.390   4.220
 7246SOL    HW222638   2.637   0.429   4.363
 7247SOL     OW22639   3.217   2.395   5.531
 7247SOL    HW122640   3.236   2.301   5.502
 7247SOL    HW222641   3.132   2.426   5.490
 7248SOL     OW22642   2.931   0.303   3.979
 7248SOL    HW122643   2.833   0.294   4.000
 7248SOL    HW222644   2.941   0.339   3.886
 7249SOL     OW22645   4.124   4.863   2.194
 7249SOL    HW122646   4.117   4.809   2.277
 7249SOL    HW222647   4.034   4.869   2.150
 7250SOL     OW22648   5.385   4.868   5.855
 7250SOL    HW122649   5.289   4.839   5.853
 7250SOL    HW222650   5.411   4.889   5.949
 7251SOL     OW22651   0.851   0.163   6.032
 7251SOL    HW122652   0.856   0.085   6.095
 7251SOL    HW222653   0.839   0.131   5.939
 7252SOL     OW22654   2.922   3.691   2.244
 7252SOL    HW122655   2.829   3.695   2.280
 7252SOL    HW222656   2.966   3.606   2.273
 7253SOL     OW22657   1.910   6.566   6.016
 7253SOL    HW122658   1.925   6.601   5.923
 7253SOL    HW222659   1.958   6.480   6.027
 7254SOL     OW22660   5.734   5.401   4.155
 7254SOL    HW122661   5.743   5.419   4.057
 7254SOL    HW222662   5.752   5.305   4.173
 7255SOL     OW22663   4.926   3.540   0.107
 7255SOL    HW122664   4.848   3.570   0.051
 7255SOL    HW222665   4.892   3.489   0.186
 7256SOL     OW22666   4.361   6.443   5.701
 7256SOL    HW122667   4.439   6.405   5.651
 7256SOL    HW222668   4.387   6.457   5.797
 7257SOL     OW22669   0.394   1.826   5.001
 7257SOL    HW122670   0.468   1.783   5.054
 7257SOL    HW222671   0.334   1.755   4.965
 7258SOL     OW22672   5.929   2.344   2.152
 7258SOL    HW122673   5.995   2.355   2.226
 7258SOL    HW222674   5.943   2.255   2.108
 7259SOL     OW22675   1.301   3.620   2.472
 7259SOL    HW122676   1.242   3.690   2.514
 7259SOL    HW222677   1.274   3.530   2.504
 7260SOL     OW22678   5.016   2.335   1.118
 7260SOL    HW122679   5.078   2.360   1.043
 7260SOL    HW222680   4.956   2.413   1.138
 7261SOL     OW22681   0.437   3.933   1.249
 7261SOL    HW122682   0.515   3.995   1.251
 7261SOL    HW222683   0.392   3.932   1.338
 7262SOL     OW22684   5.525   1.069   6.459
 7262SOL    HW122685   5.466   1.028   6.529
 7262SOL    HW222686   5.475   1.077   6.373
 7263SOL     OW22687   0.239   6.470   0.317
 7263SOL    HW122688   0.281   6.484   0.407
 7263SOL    HW222689   0.249   6.375   0.291
 7264SOL     OW22690   5.545   1.021   1.028
 7264SOL    HW122691   5.487   0.941   1.029
 7264SOL    HW222692   5.563   1.050   1.122
 7265SOL     OW22693   5.971   5.195   4.872
 7265SOL    HW122694   5.874   5.211   4.856
 7265SOL    HW222695   5.998   5.110   4.826
 7266SOL     OW22696   6.699   0.664   3.963
 7266SOL    HW122697   6.603   0.689   3.957
 7266SOL    HW222698   6.726   0.614   3.881
 7267SOL     OW22699   6.665   6.688   4.980
 7267SOL    HW122700   6.672   6.729   4.889
 7267SOL    HW222701   6.755   6.687   5.024
 7268SOL     OW22702   0.178   5.664   4.349
 7268SOL    HW122703   0.108   5.668   4.277
 7268SOL    HW222704   0.152   5.726   4.423
 7269SOL     OW22705   1.921   5.955   5.850
 7269SOL    HW122706   1.855   6.023   5.817
 7269SOL    HW222707   1.924   5.956   5.950
 7270SOL     OW22708   0.259   1.907   4.013
 7270SOL    HW122709   0.170   1.887   3.973
 7270SOL    HW222710   0.330   1.893   3.944
 7271SOL     OW22711   1.546   5.097   3.945
 7271SOL    HW122712   1.511   5.191   3.937
 7271SOL    HW222713   1.637   5.092   3.905
 7272SOL     OW22714   6.382   5.939   1.813
 7272SOL    HW122715   6.447   5.864   1.829
 7272SOL    HW222716   6.422   6.025   1.845
 7273SOL     OW22717   5.012   3.766   6.939
 7273SOL    HW122718   4.927   3.791   6.985
 7273SOL    HW222719   5.051   3.684   6.982
 7274SOL     OW22720   0.367   4.300   6.851
 7274SOL    HW122721   0.417   4.283   6.767
 7274SOL    HW222722   0.272   4.323   6.829
 7275SOL     OW22723   0.341   5.867   2.932
 7275SOL    HW122724   0.301   5.824   3.013
 7275SOL    HW222725   0.361   5.963   2.951
 7276SOL     OW22726   5.722   0.400   3.770
 7276SOL    HW122727   5.659   0.323   3.777
 7276SOL    HW222728   5.795   0.378   3.706
 7277SOL     OW22729   4.623   0.708   5.426
 7277SOL    HW122730   4.540   0.741   5.471
 7277SOL    HW222731   4.683   0.664   5.494
 7278SOL     OW22732   3.192   3.959   1.084
 7278SOL    HW122733   3.270   3.979   1.025
 7278SOL    HW222734   3.224   3.918   1.169
 7279SOL     OW22735   4.349   5.937   0.176
 7279SOL    HW122736   4.331   5.957   0.272
 7279SOL    HW222737   4.445   5.911   0.164
 7280SOL     OW22738   6.937   0.236   4.104
 7280SOL    HW122739   6.962   0.325   4.068
 7280SOL    HW222740   6.990   0.165   4.058
 7281SOL     OW22741   3.078   2.198   6.902
 7281SOL    HW122742   3.040   2.288   6.880
 7281SOL    HW222743   3.062   2.177   6.999
 7282SOL     OW22744   6.207   5.284   2.547
 7282SOL    HW122745   6.178   5.340   2.470
 7282SOL    HW222746   6.278   5.220   2.518
 7283SOL     OW22747   2.877   1.509   3.355
 7283SOL    HW122748   2.880   1.519   3.256
 7283SOL    HW222749   2.946   1.568   3.397
 7284SOL     OW22750   0.537   3.346   5.717
 7284SOL    HW122751   0.475   3.269   5.727
 7284SOL    HW222752   0.568   3.351   5.622
 7285SOL     OW22753   5.342   3.550   2.243
 7285SOL    HW122754   5.439   3.538   2.264
 7285SOL    HW222755   5.324   3.521   2.149
 7286SOL     OW22756   3.056   1.788   1.020
 7286SOL    HW122757   2.975   1.764   0.966
 7286SOL    HW222758   3.054   1.738   1.107
 7287SOL     OW22759   6.910   2.158   6.480
 7287SOL    HW122760   6.861   2.111   6.554
 7287SOL    HW222761   6.954   2.240   6.515
 7288SOL     OW22762   3.453   1.160   6.897
 7288SOL    HW122763   3.471   1.197   6.988
 7288SOL    HW222764   3.465   1.232   6.829
 7289SOL     OW22765   6.333   1.765   3.553
 7289SOL    HW122766   6.279   1.846   3.576
 7289SOL    HW222767   6.296   1.723   3.470
 7290SOL     OW22768   3.551   0.010   5.501
 7290SOL    HW122769   3.609   7.010   5.423
 7290SOL    HW222770   3.603   0.066   5.566
 7291SOL     OW22771   1.673   6.699   1.000
 7291SOL    HW122772   1.596   6.648   0.963
 7291SOL    HW222773   1.721   6.746   0.925
 7292SOL     OW22774   2.439   1.054   4.001
 7292SOL    HW122775   2.460   0.957   4.013
 7292SOL    HW222776   2.406   1.070   3.907
 7293SOL     OW22777   1.817   1.819   5.566
 7293SOL    HW122778   1.719   1.836   5.551
 7293SOL    HW222779   1.844   1.735   5.521
 7294SOL     OW22780   2.211   5.259   0.431
 7294SOL    HW122781   2.156   5.177   0.411
 7294SOL    HW222782   2.246   5.297   0.345
 7295SOL     OW22783   0.973   2.453   0.973
 7295SOL    HW122784   0.905   2.517   0.936
 7295SOL    HW222785   1.014   2.400   0.899
 7296SOL     OW22786   2.748   5.376   1.337
 7296SOL    HW122787   2.826   5.436   1.317
 7296SOL    HW222788   2.781   5.291   1.377
 7297SOL     OW22789   3.700   5.699   1.121
 7297SOL    HW122790   3.723   5.635   1.048
 7297SOL    HW222791   3.661   5.648   1.198
 7298SOL     OW22792   4.577   4.447   5.587
 7298SOL    HW122793   4.660   4.434   5.532
 7298SOL    HW222794   4.499   4.465   5.526
 7299SOL     OW22795   0.185   1.462   0.197
 7299SOL    HW122796   0.239   1.410   0.263
 7299SOL    HW222797   0.101   1.413   0.177
 7300SOL     OW22798   6.171   5.908   2.571
 7300SOL    HW122799   6.219   5.917   2.659
 7300SOL    HW222800   6.199   5.982   2.511
 7301SOL     OW22801   6.610   0.860   4.632
 7301SOL    HW122802   6.593   0.822   4.723
 7301SOL    HW222803   6.553   0.942   4.619
 7302SOL     OW22804   0.686   1.512   5.955
 7302SOL    HW122805   0.748   1.439   5.985
 7302SOL    HW222806   0.676   1.579   6.028
 7303SOL     OW22807   4.697   0.351   6.274
 7303SOL    HW122808   4.762   0.320   6.205
 7303SOL    HW222809   4.693   0.451   6.275
 7304SOL     OW22810   3.862   4.488   0.399
 7304SOL    HW122811   3.837   4.413   0.339
 7304SOL    HW222812   3.944   4.464   0.451
 7305SOL     OW22813   4.501   1.559   0.712
 7305SOL    HW122814   4.566   1.606   0.652
 7305SOL    HW222815   4.438   1.505   0.657
 7306SOL     OW22816   5.266   2.571   1.512
 7306SOL    HW122817   5.276   2.538   1.418
 7306SOL    HW222818   5.328   2.648   1.527
 7307SOL     OW22819   3.021   0.470   2.020
 7307SOL    HW122820   2.956   0.422   2.079
 7307SOL    HW222821   2.973   0.508   1.941
 7308SOL     OW22822   0.047   4.171   5.339
 7308SOL    HW122823   0.096   4.133   5.417
 7308SOL    HW222824   0.112   4.218   5.278
 7309SOL     OW22825   5.312   5.968   0.419
 7309SOL    HW122826   5.298   5.875   0.452
 7309SOL    HW222827   5.388   5.970   0.355
 7310SOL     OW22828   2.062   3.974   1.573
 7310SOL    HW122829   2.146   3.920   1.563
 7310SOL    HW222830   2.073   4.041   1.646
 7311SOL     OW22831   3.591   2.047   2.163
 7311SOL    HW122832   3.643   2.101   2.096
 7311SOL    HW222833   3.645   1.968   2.190
 7312SOL     OW22834   0.148   3.381   6.193
 7312SOL    HW122835   0.248   3.377   6.190
 7312SOL    HW222836   0.115   3.437   6.116
 7313SOL     OW22837   3.844   1.868   6.330
 7313SOL    HW122838   3.787   1.946   6.354
 7313SOL    HW222839   3.941   1.894   6.334
 7314SOL     OW22840   6.415   3.459   5.214
 7314SOL    HW122841   6.424   3.362   5.237
 7314SOL    HW222842   6.359   3.469   5.131
 7315SOL     OW22843   6.792   0.512   2.766
 7315SOL    HW122844   6.768   0.581   2.835
 7315SOL    HW222845   6.848   0.555   2.695
 7316SOL     OW22846   2.864   3.812   6.115
 7316SOL    HW122847   2.961   3.828   6.100
 7316SOL    HW222848   2.852   3.723   6.160
 7317SOL     OW22849   4.709   1.046   2.816
 7317SOL    HW122850   4.649   1.124   2.827
 7317SOL    HW222851   4.676   0.988   2.741
 7318SOL     OW22852   1.119   1.498   0.760
 7318SOL    HW122853   1.197   1.550   0.798
 7318SOL    HW222854   1.129   1.491   0.661
 7319SOL     OW22855   6.149   3.794   6.278
 7319SOL    HW122856   6.163   3.851   6.197
 7319SOL    HW222857   6.155   3.697   6.252
 7320SOL     OW22858   6.408   3.402   1.954
 7320SOL    HW122859   6.396   3.372   2.049
 7320SOL    HW222860   6.495   3.449   1.945
 7321SOL     OW22861   3.077   6.333   5.263
 7321SOL    HW122862   3.106   6.332   5.358
 7321SOL    HW222863   3.115   6.413   5.217
 7322SOL     OW22864   0.109   2.617   3.016
 7322SOL    HW122865   0.120   2.533   2.963
 7322SOL    HW222866   0.170   2.688   2.980
 7323SOL     OW22867   1.979   2.013   1.542
 7323SOL    HW122868   1.910   2.083   1.523
 7323SOL    HW222869   1.955   1.965   1.626
 7324SOL     OW22870   4.993   6.306   2.549
 7324SOL    HW122871   4.907   6.258   2.562
 7324SOL    HW222872   4.998   6.342   2.456
 7325SOL     OW22873   3.659   6.396   0.098
 7325SOL    HW122874   3.657   6.308   0.049
 7325SOL    HW222875   3.738   6.449   0.068
 7326SOL     OW22876   2.924   6.581   5.445
 7326SOL    HW122877   2.975   6.666   5.448
 7326SOL    HW222878   2.946   6.525   5.524
 7327SOL     OW22879   6.687   2.618   5.182
 7327SOL    HW122880   6.703   2.540   5.121
 7327SOL    HW222881   6.629   2.685   5.136
 7328SOL     OW22882   3.442   1.142   5.659
 7328SOL    HW122883   3.526   1.174   5.703
 7328SOL    HW222884   3.368   1.207   5.678
 7329SOL     OW22885   4.614   4.011   1.722
 7329SOL    HW122886   4.625   4.101   1.763
 7329SOL    HW222887   4.525   3.973   1.748
 7330SOL     OW22888   3.014   2.106   0.149
 7330SOL    HW122889   3.080   2.071   0.216
 7330SOL    HW222890   2.939   2.040   0.139
 7331SOL     OW22891   5.818   6.995   2.194
 7331SOL    HW122892   5.907   6.970   2.155
 7331SOL    HW222893   5.751   6.925   2.172
 7332SOL     OW22894   2.023   5.936   0.434
 7332SOL    HW122895   1.930   5.964   0.454
 7332SOL    HW222896   2.027   5.837   0.421
 7333SOL     OW22897   6.992   3.311   3.862
 7333SOL    HW122898   0.066   3.336   3.847
 7333SOL    HW222899   6.944   3.389   3.903
 7334SOL     OW22900   3.825   6.224   6.738
 7334SOL    HW122901   3.755   6.218   6.809
 7334SOL    HW222902   3.811   6.151   6.671
 7335SOL     OW22903   2.055   2.744   2.970
 7335SOL    HW122904   2.023   2.835   2.946
 7335SOL    HW222905   2.145   2.750   3.013
 7336SOL     OW22906   1.752   6.487   3.031
 7336SOL    HW122907   1.668   6.443   3.061
 7336SOL    HW222908   1.828   6.458   3.089
 7337SOL     OW22909   0.672   2.913   1.965
 7337SOL    HW122910   0.718   2.892   1.879
 7337SOL    HW222911   0.655   3.011   1.971
 7338SOL     OW22912   6.411   3.035   1.185
 7338SOL    HW122913   6.333   2.975   1.202
 7338SOL    HW222914   6.489   2.980   1.154
 7339SOL     OW22915   4.967   6.457   3.788
 7339SOL    HW122916   4.991   6.368   3.749
 7339SOL    HW222917   5.045   6.493   3.838
 7340SOL     OW22918   1.481   0.891   0.890
 7340SOL    HW122919   1.410   0.877   0.959
 7340SOL    HW222920   1.453   0.849   0.804
 7341SOL     OW22921   6.628   2.753   6.850
 7341SOL    HW122922   6.685   2.746   6.932
 7341SOL    HW222923   6.533   2.732   6.873
 7342SOL     OW22924   6.343   1.626   1.666
 7342SOL    HW122925   6.374   1.569   1.741
 7342SOL    HW222926   6.261   1.586   1.625
 7343SOL     OW22927   4.612   3.160   0.163
 7343SOL    HW122928   4.700   3.153   0.116
 7343SOL    HW222929   4.542   3.112   0.109
 7344SOL     OW22930   0.925   6.766   6.387
 7344SOL    HW122931   0.841   6.715   6.407
 7344SOL    HW222932   1.004   6.705   6.401
 7345SOL     OW22933   4.085   3.457   5.493
 7345SOL    HW122934   4.018   3.528   5.472
 7345SOL    HW222935   4.177   3.496   5.490
 7346SOL     OW22936   3.726   5.457   2.562
 7346SOL    HW122937   3.743   5.378   2.504
 7346SOL    HW222938   3.779   5.449   2.646
 7347SOL     OW22939   0.586   1.823   0.706
 7347SOL    HW122940   0.512   1.776   0.754
 7347SOL    HW222941   0.671   1.812   0.757
 7348SOL     OW22942   1.324   3.543   3.812
 7348SOL    HW122943   1.280   3.481   3.876
 7348SOL    HW222944   1.314   3.637   3.844
 7349SOL     OW22945   4.543   0.343   2.414
 7349SOL    HW122946   4.474   0.280   2.450
 7349SOL    HW222947   4.634   0.304   2.428
 7350SOL     OW22948   2.512   2.264   5.728
 7350SOL    HW122949   2.590   2.237   5.672
 7350SOL    HW222950   2.544   2.308   5.812
 7351SOL     OW22951   5.597   6.015   3.428
 7351SOL    HW122952   5.671   5.953   3.405
 7351SOL    HW222953   5.527   5.966   3.480
 7352SOL     OW22954   0.331   1.635   2.832
 7352SOL    HW122955   0.367   1.724   2.860
 7352SOL    HW222956   0.283   1.645   2.744
 7353SOL     OW22957   0.486   0.467   6.622
 7353SOL    HW122958   0.465   0.427   6.712
 7353SOL    HW222959   0.494   0.394   6.554
 7354SOL     OW22960   1.980   1.148   5.115
 7354SOL    HW122961   2.064   1.143   5.062
 7354SOL    HW222962   1.998   1.121   5.210
 7355SOL     OW22963   0.561   1.565   6.949
 7355SOL    HW122964   0.572   1.636   7.018
 7355SOL    HW222965   0.478   1.582   6.896
 7356SOL     OW22966   3.618   3.500   6.195
 7356SOL    HW122967   3.663   3.541   6.274
 7356SOL    HW222968   3.675   3.512   6.114
 7357SOL     OW22969   2.958   5.943   2.387
 7357SOL    HW122970   3.048   5.912   2.416
 7357SOL    HW222971   2.900   5.863   2.368
 7358SOL     OW22972   6.715   3.728   2.777
 7358SOL    HW122973   6.629   3.690   2.812
 7358SOL    HW222974   6.771   3.759   2.854
 7359SOL     OW22975   4.293   2.042   5.920
 7359SOL    HW122976   4.309   2.108   5.847
 7359SOL    HW222977   4.213   1.986   5.898
 7360SOL     OW22978   2.634   3.393   5.409
 7360SOL    HW122979   2.647   3.406   5.507
 7360SOL    HW222980   2.633   3.295   5.387
 7361SOL     OW22981   5.482   1.005   2.789
 7361SOL    HW122982   5.512   0.985   2.696
 7361SOL    HW222983   5.556   1.050   2.839
 7362SOL     OW22984   2.849   5.975   6.328
 7362SOL    HW122985   2.919   6.038   6.293
 7362SOL    HW222986   2.869   5.954   6.424
 7363SOL     OW22987   4.577   0.900   1.370
 7363SOL    HW122988   4.609   0.945   1.454
 7363SOL    HW222989   4.558   0.969   1.300
 7364SOL     OW22990   4.309   0.272   2.144
 7364SOL    HW122991   4.352   0.249   2.231
 7364SOL    HW222992   4.366   0.338   2.095
 7365SOL     OW22993   0.526   6.013   2.293
 7365SOL    HW122994   0.613   5.965   2.291
 7365SOL    HW222995   0.479   5.994   2.379
 7366SOL     OW22996   2.499   6.270   5.485
 7366SOL    HW122997   2.474   6.214   5.564
 7366SOL    HW222998   2.595   6.297   5.491
 7367SOL     OW22999   3.641   2.538   0.471
 7367SOL    HW123000   3.673   2.573   0.384
 7367SOL    HW223001   3.697   2.459   0.498
 7368SOL     OW23002   3.793   2.902   2.799
 7368SOL    HW123003   3.788   2.828   2.733
 7368SOL    HW223004   3.715   2.898   2.861
 7369SOL     OW23005   3.715   2.919   1.328
 7369SOL    HW123006   3.720   2.838   1.268
 7369SOL    HW223007   3.642   2.979   1.296
 7370SOL     OW23008   2.776   2.312   6.026
 7370SOL    HW123009   2.749   2.375   5.954
 7370SOL    HW223010   2.737   2.340   6.113
 7371SOL     OW23011   3.178   6.498   3.797
 7371SOL    HW123012   3.251   6.538   3.741
 7371SOL    HW223013   3.165   6.554   3.879
 7372SOL     OW23014   4.387   6.821   4.952
 7372SOL    HW123015   4.336   6.757   5.009
 7372SOL    HW223016   4.330   6.901   4.933
 7373SOL     OW23017   5.795   2.073   4.924
 7373SOL    HW123018   5.752   2.009   4.861
 7373SOL    HW223019   5.797   2.033   5.016
 7374SOL     OW23020   1.789   1.860   4.841
 7374SOL    HW123021   1.764   1.954   4.863
 7374SOL    HW223022   1.757   1.799   4.914
 7375SOL     OW23023   2.164   2.423   2.084
 7375SOL    HW123024   2.214   2.393   2.003
 7375SOL    HW223025   2.228   2.438   2.159
 7376SOL     OW23026   1.027   2.928   1.398
 7376SOL    HW123027   1.043   2.870   1.477
 7376SOL    HW223028   1.046   3.023   1.422
 7377SOL     OW23029   3.909   4.945   0.903
 7377SOL    HW123030   3.836   4.982   0.961
 7377SOL    HW223031   3.900   4.983   0.811
 7378SOL     OW23032   1.449   6.889   5.021
 7378SOL    HW123033   1.446   6.925   5.114
 7378SOL    HW223034   1.519   6.817   5.016
 7379SOL     OW23035   2.867   0.938   1.932
 7379SOL    HW123036   2.854   1.005   1.860
 7379SOL    HW223037   2.938   0.970   1.996
 7380SOL     OW23038   6.548   4.089   3.627
 7380SOL    HW123039   6.625   4.038   3.666
 7380SOL    HW223040   6.541   4.178   3.671
 7381SOL     OW23041   3.858   2.922   0.493
 7381SOL    HW123042   3.833   3.007   0.540
 7381SOL    HW223043   3.932   2.939   0.429
 7382SOL     OW23044   6.772   2.254   5.802
 7382SOL    HW123045   6.674   2.269   5.816
 7382SOL    HW223046   6.793   2.157   5.815
 7383SOL     OW23047   2.344   5.679   1.953
 7383SOL    HW123048   2.428   5.661   2.005
 7383SOL    HW223049   2.285   5.598   1.957
 7384SOL     OW23050   6.827   0.157   1.558
 7384SOL    HW123051   6.737   0.200   1.566
 7384SOL    HW223052   6.825   0.088   1.485
 7385SOL     OW23053   2.899   4.949   2.644
 7385SOL    HW123054   2.853   4.984   2.726
 7385SOL    HW223055   2.960   5.019   2.608
 7386SOL     OW23056   6.344   2.673   6.899
 7386SOL    HW123057   6.257   2.715   6.875
 7386SOL    HW223058   6.336   2.573   6.893
 7387SOL     OW23059   6.895   5.273   5.548
 7387SOL    HW123060   6.871   5.309   5.459
 7387SOL    HW223061   6.886   5.344   5.617
 7388SOL     OW23062   1.308   4.999   1.941
 7388SOL    HW123063   1.330   4.902   1.951
 7388SOL    HW223064   1.364   5.039   1.868
 7389SOL     OW23065   6.837   3.575   0.577
 7389SOL    HW123066   6.915   3.613   0.527
 7389SOL    HW223067   6.752   3.613   0.541
 7390SOL     OW23068   2.769   1.612   2.139
 7390SOL    HW123069   2.808   1.576   2.224
 7390SOL    HW223070   2.812   1.699   2.117
 7391SOL     OW23071   4.184   3.490   2.613
 7391SOL    HW123072   4.262   3.514   2.671
 7391SOL    HW223073   4.118   3.565   2.614
 7392SOL     OW23074   3.498   5.877   6.836
 7392SOL    HW123075   3.482   5.964   6.789
 7392SOL    HW223076   3.470   5.802   6.776
 7393SOL     OW23077   6.124   4.436   3.308
 7393SOL    HW123078   6.172   4.357   3.347
 7393SOL    HW223079   6.139   4.516   3.365
 7394SOL     OW23080   1.762   3.003   6.280
 7394SOL    HW123081   1.809   3.080   6.238
 7394SOL    HW223082   1.762   2.925   6.217
 7395SOL     OW23083   2.309   3.134   1.330
 7395SOL    HW123084   2.281   3.107   1.422
 7395SOL    HW223085   2.377   3.207   1.336
 7396SOL     OW23086   2.344   6.585   1.565
 7396SOL    HW123087   2.329   6.486   1.570
 7396SOL    HW223088   2.441   6.604   1.581
 7397SOL     OW23089   4.934   3.459   4.625
 7397SOL    HW123090   4.857   3.398   4.602
 7397SOL    HW223091   4.950   3.457   4.723
 7398SOL     OW23092   1.066   5.147   3.293
 7398SOL    HW123093   1.087   5.092   3.373
 7398SOL    HW223094   1.050   5.087   3.214
 7399SOL     OW23095   6.604   3.090   5.109
 7399SOL    HW123096   6.624   3.141   5.026
 7399SOL    HW223097   6.537   3.140   5.164
 7400SOL     OW23098   5.163   2.258   5.542
 7400SOL    HW123099   5.088   2.207   5.583
 7400SOL    HW223100   5.247   2.243   5.594
 7401SOL     OW23101   1.911   2.564   3.677
 7401SOL    HW123102   1.856   2.489   3.640
 7401SOL    HW223103   1.935   2.544   3.772
 7402SOL     OW23104   2.926   4.407   5.944
 7402SOL    HW123105   2.974   4.457   5.872
 7402SOL    HW223106   2.991   4.352   5.996
 7403SOL     OW23107   1.849   2.966   2.967
 7403SOL    HW123108   1.906   3.043   2.938
 7403SOL    HW223109   1.876   2.939   3.060
 7404SOL     OW23110   2.940   3.665   1.560
 7404SOL    HW123111   2.923   3.724   1.639
 7404SOL    HW223112   3.026   3.615   1.573
 7405SOL     OW23113   2.891   5.223   5.003
 7405SOL    HW123114   2.840   5.224   4.917
 7405SOL    HW223115   2.949   5.304   5.008
 7406SOL     OW23116   0.824   1.618   5.124
 7406SOL    HW123117   0.898   1.663   5.074
 7406SOL    HW223118   0.857   1.589   5.214
 7407SOL     OW23119   1.310   6.316   6.482
 7407SOL    HW123120   1.216   6.283   6.480
 7407SOL    HW223121   1.339   6.343   6.390
 7408SOL     OW23122   3.384   4.002   5.454
 7408SOL    HW123123   3.304   3.998   5.394
 7408SOL    HW223124   3.467   4.001   5.398
 7409SOL     OW23125   5.286   4.449   6.984
 7409SOL    HW123126   5.281   4.430   0.060
 7409SOL    HW223127   5.354   4.388   6.942
 7410SOL     OW23128   0.763   0.376   0.345
 7410SOL    HW123129   0.827   0.363   0.421
 7410SOL    HW223130   0.691   0.307   0.350
 7411SOL     OW23131   1.739   1.077   6.518
 7411SOL    HW123132   1.783   0.988   6.508
 7411SOL    HW223133   1.794   1.134   6.580
 7412SOL     OW23134   3.881   6.344   0.905
 7412SOL    HW123135   3.824   6.261   0.913
 7412SOL    HW223136   3.830   6.414   0.855
 7413SOL     OW23137   4.667   4.330   3.434
 7413SOL    HW123138   4.714   4.290   3.355
 7413SOL    HW223139   4.605   4.402   3.403
 7414SOL     OW23140   1.995   1.842   4.515
 7414SOL    HW123141   1.909   1.802   4.545
 7414SOL    HW223142   2.060   1.842   4.591
 7415SOL     OW23143   3.189   5.856   6.105
 7415SOL    HW123144   3.112   5.910   6.070
 7415SOL    HW223145   3.270   5.915   6.110
 7416SOL     OW23146   2.030   1.399   2.509
 7416SOL    HW123147   1.984   1.328   2.563
 7416SOL    HW223148   2.010   1.489   2.548
 7417SOL     OW23149   1.720   2.148   2.310
 7417SOL    HW123150   1.654   2.073   2.312
 7417SOL    HW223151   1.812   2.113   2.323
 7418SOL     OW23152   1.770   4.661   0.055
 7418SOL    HW123153   1.778   4.754   0.092
 7418SOL    HW223154   1.681   4.650   0.011
 7419SOL     OW23155   6.237   3.705   3.990
 7419SOL    HW123156   6.217   3.798   4.021
 7419SOL    HW223157   6.250   3.645   4.069
 7420SOL     OW23158   6.892   5.711   1.237
 7420SOL    HW123159   6.841   5.776   1.180
 7420SOL    HW223160   6.933   5.759   1.315
 7421SOL     OW23161   4.028   3.828   1.352
 7421SOL    HW123162   4.051   3.902   1.289
 7421SOL    HW223163   4.000   3.867   1.440
 7422SOL     OW23164   6.322   4.052   2.045
 7422SOL    HW123165   6.242   3.992   2.038
 7422SOL    HW223166   6.401   4.000   2.076
 7423SOL     OW23167   5.535   2.627   5.061
 7423SOL    HW123168   5.441   2.660   5.070
 7423SOL    HW223169   5.595   2.681   5.120
 7424SOL     OW23170   6.841   1.774   5.518
 7424SOL    HW123171   6.789   1.856   5.543
 7424SOL    HW223172   6.899   1.794   5.439
 7425SOL     OW23173   5.380   0.206   0.422
 7425SOL    HW123174   5.287   0.180   0.449
 7425SOL    HW223175   5.391   0.305   0.432
 7426SOL     OW23176   3.506   2.127   5.610
 7426SOL    HW123177   3.423   2.107   5.663
 7426SOL    HW223178   3.488   2.203   5.547
 7427SOL     OW23179   3.592   1.022   3.932
 7427SOL    HW123180   3.651   1.103   3.929
 7427SOL    HW223181   3.628   0.957   3.999
 7428SOL     OW23182   4.443   0.385   5.254
 7428SOL    HW123183   4.510   0.455   5.229
 7428SOL    HW223184   4.355   0.428   5.274
 7429SOL     OW23185   1.115   6.427   2.962
 7429SOL    HW123186   1.110   6.396   3.057
 7429SOL    HW223187   1.153   6.354   2.906
 7430SOL     OW23188   6.768   4.124   1.831
 7430SOL    HW123189   6.711   4.205   1.846
 7430SOL    HW223190   6.714   4.053   1.785
 7431SOL     OW23191   1.814   2.164   3.758
 7431SOL    HW123192   1.810   2.069   3.730
 7431SOL    HW223193   1.805   2.224   3.679
 7432SOL     OW23194   1.881   0.197   3.377
 7432SOL    HW123195   1.848   0.196   3.471
 7432SOL    HW223196   1.981   0.201   3.376
 7433SOL     OW23197   3.472   6.481   6.703
 7433SOL    HW123198   3.517   6.563   6.739
 7433SOL    HW223199   3.426   6.433   6.777
 7434SOL     OW23200   4.977   6.067   5.667
 7434SOL    HW123201   5.051   6.125   5.700
 7434SOL    HW223202   4.889   6.112   5.683
 7435SOL     OW23203   4.511   5.906   1.622
 7435SOL    HW123204   4.488   5.897   1.719
 7435SOL    HW223205   4.428   5.892   1.567
 7436SOL     OW23206   4.735   4.421   6.201
 7436SOL    HW123207   4.770   4.414   6.107
 7436SOL    HW223208   4.683   4.506   6.211
 7437SOL     OW23209   3.129   6.191   1.516
 7437SOL    HW123210   3.131   6.092   1.529
 7437SOL    HW223211   3.107   6.236   1.603
 7438SOL     OW23212   1.592   0.363   0.232
 7438SOL    HW123213   1.544   0.292   0.179
 7438SOL    HW223214   1.619   0.438   0.171
 7439SOL     OW23215   1.647   5.471   5.238
 7439SOL    HW123216   1.732   5.509   5.202
 7439SOL    HW223217   1.663   5.377   5.268
 7440SOL     OW23218   5.924   3.318   3.609
 7440SOL    HW123219   5.969   3.325   3.519
 7440SOL    HW223220   5.977   3.370   3.676
 7441SOL     OW23221   6.017   6.737   3.761
 7441SOL    HW123222   6.098   6.714   3.814
 7441SOL    HW223223   5.960   6.656   3.749
 7442SOL     OW23224   5.872   1.072   6.195
 7442SOL    HW123225   5.882   1.009   6.118
 7442SOL    HW223226   5.904   1.029   6.279
 7443SOL     OW23227   6.970   5.551   1.747
 7443SOL    HW123228   6.886   5.605   1.744
 7443SOL    HW223229   6.947   5.454   1.745
 7444SOL     OW23230   6.547   1.351   6.199
 7444SOL    HW123231   6.464   1.407   6.198
 7444SOL    HW223232   6.609   1.381   6.127
 7445SOL     OW23233   3.657   6.931   1.354
 7445SOL    HW123234   3.627   6.920   1.260
 7445SOL    HW223235   3.738   6.990   1.357
 7446SOL     OW23236   4.743   2.657   0.417
 7446SOL    HW123237   4.792   2.620   0.338
 7446SOL    HW223238   4.706   2.581   0.471
 7447SOL     OW23239   6.815   4.379   6.350
 7447SOL    HW123240   6.719   4.385   6.380
 7447SOL    HW223241   6.869   4.334   6.421
 7448SOL     OW23242   5.427   6.429   5.452
 7448SOL    HW123243   5.419   6.502   5.385
 7448SOL    HW223244   5.369   6.450   5.531
 7449SOL     OW23245   0.340   5.358   0.448
 7449SOL    HW123246   0.439   5.369   0.464
 7449SOL    HW223247   0.316   5.399   0.360
 7450SOL     OW23248   5.003   2.478   5.482
 7450SOL    HW123249   5.054   2.560   5.508
 7450SOL    HW223250   5.056   2.397   5.506
 7451SOL     OW23251   5.338   5.244   2.799
 7451SOL    HW123252   5.390   5.329   2.791
 7451SOL    HW223253   5.259   5.247   2.738
 7452SOL     OW23254   6.464   6.112   4.176
 7452SOL    HW123255   6.489   6.175   4.102
 7452SOL    HW223256   6.371   6.078   4.162
 7453SOL     OW23257   4.972   5.665   6.403
 7453SOL    HW123258   4.936   5.758   6.398
 7453SOL    HW223259   4.904   5.601   6.366
 7454SOL     OW23260   3.181   1.587   0.461
 7454SOL    HW123261   3.164   1.640   0.378
 7454SOL    HW223262   3.262   1.623   0.508
 7455SOL     OW23263   6.341   3.003   2.345
 7455SOL    HW123264   6.352   2.986   2.248
 7455SOL    HW223265   6.413   2.956   2.396
 7456SOL     OW23266   2.533   1.984   5.209
 7456SOL    HW123267   2.536   2.082   5.229
 7456SOL    HW223268   2.619   1.956   5.168
 7457SOL     OW23269   2.970   0.036   4.048
 7457SOL    HW123270   2.956   0.131   4.021
 7457SOL    HW223271   3.067   0.021   4.068
 7458SOL     OW23272   1.169   0.364   5.448
 7458SOL    HW123273   1.139   0.358   5.353
 7458SOL    HW223274   1.268   0.382   5.451
 7459SOL     OW23275   6.302   1.355   2.527
 7459SOL    HW123276   6.224   1.299   2.554
 7459SOL    HW223277   6.336   1.326   2.438
 7460SOL     OW23278   1.502   6.568   0.275
 7460SOL    HW123279   1.554   6.505   0.218
 7460SOL    HW223280   1.410   6.532   0.289
 7461SOL     OW23281   6.272   6.406   5.137
 7461SOL    HW123282   6.325   6.489   5.155
 7461SOL    HW223283   6.239   6.369   5.224
 7462SOL     OW23284   1.314   5.505   0.963
 7462SOL    HW123285   1.228   5.520   1.011
 7462SOL    HW223286   1.357   5.422   0.997
 7463SOL     OW23287   3.117   4.362   0.558
 7463SOL    HW123288   3.046   4.405   0.615
 7463SOL    HW223289   3.206   4.372   0.603
 7464SOL     OW23290   6.719   6.213   4.701
 7464SOL    HW123291   6.690   6.291   4.757
 7464SOL    HW223292   6.775   6.151   4.756
 7465SOL     OW23293   2.753   5.578   0.514
 7465SOL    HW123294   2.793   5.493   0.482
 7465SOL    HW223295   2.658   5.562   0.540
 7466SOL     OW23296   0.636   0.738   6.132
 7466SOL    HW123297   0.572   0.693   6.194
 7466SOL    HW223298   0.728   0.704   6.149
 7467SOL     OW23299   0.571   2.445   6.150
 7467SOL    HW123300   0.623   2.524   6.182
 7467SOL    HW223301   0.485   2.476   6.109
 7468SOL     OW23302   5.100   2.608   3.947
 7468SOL    HW123303   5.048   2.656   4.017
 7468SOL    HW223304   5.119   2.515   3.978
 7469SOL     OW23305   6.440   2.036   0.143
 7469SOL    HW123306   6.465   2.052   0.048
 7469SOL    HW223307   6.356   2.087   0.164
 7470SOL     OW23308   5.445   4.211   3.965
 7470SOL    HW123309   5.351   4.236   3.986
 7470SOL    HW223310   5.481   4.152   4.038
 7471SOL     OW23311   5.185   6.072   6.122
 7471SOL    HW123312   5.179   5.977   6.090
 7471SOL    HW223313   5.227   6.073   6.213
 7472SOL     OW23314   6.336   1.058   5.312
 7472SOL    HW123315   6.375   1.149   5.322
 7472SOL    HW223316   6.304   1.045   5.218
 7473SOL     OW23317   5.265   6.887   3.824
 7473SOL    HW123318   5.354   6.871   3.866
 7473SOL    HW223319   5.278   6.910   3.728
 7474SOL     OW23320   6.327   2.395   6.870
 7474SOL    HW123321   6.232   2.387   6.900
 7474SOL    HW223322   6.379   2.316   6.903
 7475SOL     OW23323   4.350   2.325   2.170
 7475SOL    HW123324   4.293   2.369   2.100
 7475SOL    HW223325   4.304   2.245   2.206
 7476SOL     OW23326   2.244   2.078   3.125
 7476SOL    HW123327   2.308   2.101   3.052
 7476SOL    HW223328   2.287   2.012   3.187
 7477SOL     OW23329   0.462   3.383   4.969
 7477SOL    HW123330   0.424   3.294   4.944
 7477SOL    HW223331   0.557   3.389   4.937
 7478SOL     OW23332   5.254   3.328   5.016
 7478SOL    HW123333   5.270   3.319   5.114
 7478SOL    HW223334   5.186   3.261   4.987
 7479SOL     OW23335   5.484   3.084   0.254
 7479SOL    HW123336   5.404   3.144   0.245
 7479SOL    HW223337   5.477   3.008   0.190
 7480SOL     OW23338   1.973   5.375   2.544
 7480SOL    HW123339   1.909   5.341   2.475
 7480SOL    HW223340   1.953   5.471   2.563
 7481SOL     OW23341   6.436   4.654   6.898
 7481SOL    HW123342   6.399   4.614   6.982
 7481SOL    HW223343   6.481   4.740   6.919
 7482SOL     OW23344   4.445   2.332   2.688
 7482SOL    HW123345   4.542   2.355   2.694
 7482SOL    HW223346   4.394   2.411   2.653
 7483SOL     OW23347   4.503   2.506   4.896
 7483SOL    HW123348   4.463   2.424   4.853
 7483SOL    HW223349   4.443   2.537   4.969
 7484SOL     OW23350   1.956   5.485   4.449
 7484SOL    HW123351   1.861   5.515   4.444
 7484SOL    HW223352   1.981   5.438   4.365
 7485SOL     OW23353   2.867   6.773   3.648
 7485SOL    HW123354   2.900   6.791   3.556
 7485SOL    HW223355   2.928   6.817   3.715
 7486SOL     OW23356   0.596   6.194   0.109
 7486SOL    HW123357   0.551   6.283   0.097
 7486SOL    HW223358   0.658   6.199   0.188
 7487SOL     OW23359   4.704   0.777   2.946
 7487SOL    HW123360   4.652   0.858   2.922
 7487SOL    HW223361   4.641   0.701   2.965
 7488SOL     OW23362   1.226   6.233   4.153
 7488SOL    HW123363   1.144   6.222   4.210
 7488SOL    HW223364   1.249   6.330   4.146
 7489SOL     OW23365   6.310   3.684   6.957
 7489SOL    HW123366   6.324   3.769   6.906
 7489SOL    HW223367   6.398   3.645   6.982
 7490SOL     OW23368   1.342   1.865   1.984
 7490SOL    HW123369   1.305   1.773   1.995
 7490SOL    HW223370   1.355   1.884   1.886
 7491SOL     OW23371   4.622   2.452   0.539
 7491SOL    HW123372   4.539   2.493   0.503
 7491SOL    HW223373   4.599   2.387   0.612
 7492SOL     OW23374   1.644   1.139   4.248
 7492SOL    HW123375   1.710   1.081   4.200
 7492SOL    HW223376   1.666   1.140   4.346
 7493SOL     OW23377   6.677   3.523   5.453
 7493SOL    HW123378   6.583   3.509   5.485
 7493SOL    HW223379   6.710   3.439   5.409
 7494SOL     OW23380   5.670   0.966   4.019
 7494SOL    HW123381   5.623   0.893   4.069
 7494SOL    HW223382   5.755   0.990   4.066
 7495SOL     OW23383   2.251   2.942   4.525
 7495SOL    HW123384   2.212   2.858   4.563
 7495SOL    HW223385   2.309   2.986   4.595
 7496SOL     OW23386   5.748   3.240   3.815
 7496SOL    HW123387   5.827   3.239   3.753
 7496SOL    HW223388   5.730   3.334   3.844
 7497SOL     OW23389   1.732   6.235   1.237
 7497SOL    HW123390   1.769   6.297   1.167
 7497SOL    HW223391   1.761   6.141   1.216
 7498SOL     OW23392   2.789   0.716   3.877
 7498SOL    HW123393   2.708   0.663   3.853
 7498SOL    HW223394   2.869   0.678   3.832
 7499SOL     OW23395   4.676   1.935   3.451
 7499SOL    HW123396   4.767   1.937   3.492
 7499SOL    HW223397   4.682   1.967   3.356
 7500SOL     OW23398   3.592   6.328   3.904
 7500SOL    HW123399   3.672   6.295   3.855
 7500SOL    HW223400   3.526   6.254   3.915
 7501SOL     OW23401   5.678   3.001   4.240
 7501SOL    HW123402   5.651   2.951   4.158
 7501SOL    HW223403   5.631   3.089   4.244
 7502SOL     OW23404   3.665   6.896   4.031
 7502SOL    HW123405   3.615   6.892   4.118
 7502SOL    HW223406   3.627   6.968   3.974
 7503SOL     OW23407   1.918   6.214   0.559
 7503SOL    HW123408   1.895   6.275   0.483
 7503SOL    HW223409   1.996   6.251   0.609
 7504SOL     OW23410   0.804   6.306   2.345
 7504SOL    HW123411   0.714   6.315   2.387
 7504SOL    HW223412   0.864   6.253   2.405
 7505SOL     OW23413   0.364   1.624   5.736
 7505SOL    HW123414   0.453   1.587   5.707
 7505SOL    HW223415   0.291   1.565   5.702
 7506SOL     OW23416   3.602   2.105   3.175
 7506SOL    HW123417   3.602   2.184   3.236
 7506SOL    HW223418   3.515   2.099   3.126
 7507SOL     OW23419   6.605   3.281   4.518
 7507SOL    HW123420   6.612   3.381   4.515
 7507SOL    HW223421   6.695   3.242   4.533
 7508SOL     OW23422   1.772   5.716   0.280
 7508SOL    HW123423   1.837   5.658   0.232
 7508SOL    HW223424   1.693   5.733   0.222
 7509SOL     OW23425   5.616   4.107   0.311
 7509SOL    HW123426   5.630   4.032   0.376
 7509SOL    HW223427   5.557   4.076   0.236
 7510SOL     OW23428   4.057   3.648   3.762
 7510SOL    HW123429   4.081   3.725   3.822
 7510SOL    HW223430   4.076   3.562   3.810
 7511SOL     OW23431   2.883   6.128   3.163
 7511SOL    HW123432   2.862   6.221   3.195
 7511SOL    HW223433   2.978   6.124   3.133
 7512SOL     OW23434   2.859   0.858   6.539
 7512SOL    HW123435   2.926   0.789   6.513
 7512SOL    HW223436   2.781   0.854   6.477
 7513SOL     OW23437   1.995   2.163   3.225
 7513SOL    HW123438   1.986   2.252   3.271
 7513SOL    HW223439   2.090   2.149   3.199
 7514SOL     OW23440   1.581   4.699   3.727
 7514SOL    HW123441   1.484   4.720   3.728
 7514SOL    HW223442   1.610   4.676   3.634
 7515SOL     OW23443   6.606   4.088   5.232
 7515SOL    HW123444   6.696   4.123   5.208
 7515SOL    HW223445   6.562   4.149   5.297
 7516SOL     OW23446   0.838   5.485   6.015
 7516SOL    HW123447   0.767   5.419   5.992
 7516SOL    HW223448   0.858   5.542   5.936
 7517SOL     OW23449   1.663   2.264   0.023
 7517SOL    HW123450   1.618   2.261   0.112
 7517SOL    HW223451   1.736   2.196   0.020
 7518SOL     OW23452   4.734   2.830   3.599
 7518SOL    HW123453   4.725   2.771   3.678
 7518SOL    HW223454   4.684   2.791   3.522
 7519SOL     OW23455   5.492   6.918   4.437
 7519SOL    HW123456   5.423   6.909   4.508
 7519SOL    HW223457   5.515   7.014   4.424
 7520SOL     OW23458   1.254   1.409   2.502
 7520SOL    HW123459   1.196   1.490   2.493
 7520SOL    HW223460   1.205   1.328   2.470
 7521SOL     OW23461   4.772   1.932   4.578
 7521SOL    HW123462   4.831   1.987   4.519
 7521SOL    HW223463   4.828   1.887   4.649
 7522SOL     OW23464   0.855   0.122   4.779
 7522SOL    HW123465   0.833   0.181   4.701
 7522SOL    HW223466   0.939   0.072   4.760
 7523SOL     OW23467   5.060   0.833   6.007
 7523SOL    HW123468   4.994   0.821   6.081
 7523SOL    HW223469   5.144   0.783   6.029
 7524SOL     OW23470   0.265   2.777   4.589
 7524SOL    HW123471   0.183   2.831   4.567
 7524SOL    HW223472   0.312   2.819   4.666
 7525SOL     OW23473   4.153   6.668   6.738
 7525SOL    HW123474   4.128   6.573   6.752
 7525SOL    HW223475   4.155   6.688   6.640
 7526SOL     OW23476   2.241   2.872   1.834
 7526SOL    HW123477   2.301   2.802   1.874
 7526SOL    HW223478   2.200   2.927   1.907
 7527SOL     OW23479   3.436   5.765   3.957
 7527SOL    HW123480   3.490   5.681   3.966
 7527SOL    HW223481   3.477   5.838   4.012
 7528SOL     OW23482   5.473   1.843   6.833
 7528SOL    HW123483   5.542   1.824   6.763
 7528SOL    HW223484   5.437   1.935   6.820
 7529SOL     OW23485   5.542   1.902   3.722
 7529SOL    HW123486   5.470   1.879   3.657
 7529SOL    HW223487   5.622   1.935   3.673
 7530SOL     OW23488   6.630   1.481   2.337
 7530SOL    HW123489   6.640   1.580   2.325
 7530SOL    HW223490   6.675   1.453   2.422
 7531SOL     OW23491   4.888   3.062   3.322
 7531SOL    HW123492   4.892   3.027   3.416
 7531SOL    HW223493   4.808   3.023   3.276
 7532SOL     OW23494   4.539   6.264   6.130
 7532SOL    HW123495   4.630   6.263   6.171
 7532SOL    HW223496   4.504   6.171   6.124
 7533SOL     OW23497   4.431   2.750   1.626
 7533SOL    HW123498   4.451   2.842   1.660
 7533SOL    HW223499   4.397   2.756   1.532
 7534SOL     OW23500   5.082   6.818   4.469
 7534SOL    HW123501   5.147   6.745   4.451
 7534SOL    HW223502   5.016   6.788   4.538
 7535SOL     OW23503   1.581   6.369   5.219
 7535SOL    HW123504   1.660   6.308   5.220
 7535SOL    HW223505   1.581   6.423   5.134
 7536SOL     OW23506   5.355   6.031   3.991
 7536SOL    HW123507   5.315   6.042   4.082
 7536SOL    HW223508   5.444   6.077   3.988
 7537SOL     OW23509   1.597   5.449   1.956
 7537SOL    HW123510   1.631   5.400   2.036
 7537SOL    HW223511   1.593   5.547   1.975
 7538SOL     OW23512   1.681   2.811   1.346
 7538SOL    HW123513   1.718   2.747   1.414
 7538SOL    HW223514   1.653   2.895   1.391
 7539SOL     OW23515   1.402   5.240   3.058
 7539SOL    HW123516   1.442   5.238   3.149
 7539SOL    HW223517   1.469   5.206   2.992
 7540SOL     OW23518   5.050   6.008   4.664
 7540SOL    HW123519   5.112   6.051   4.598
 7540SOL    HW223520   4.958   6.044   4.651
 7541SOL     OW23521   0.380   4.056   6.569
 7541SOL    HW123522   0.455   4.028   6.509
 7541SOL    HW223523   0.361   4.153   6.556
 7542SOL     OW23524   6.919   5.728   5.198
 7542SOL    HW123525   6.989   5.704   5.266
 7542SOL    HW223526   6.829   5.721   5.240
 7543SOL     OW23527   2.926   0.566   4.848
 7543SOL    HW123528   2.853   0.591   4.784
 7543SOL    HW223529   3.014   0.589   4.808
 7544SOL     OW23530   0.537   2.700   4.370
 7544SOL    HW123531   0.493   2.707   4.280
 7544SOL    HW223532   0.470   2.722   4.441
 7545SOL     OW23533   0.420   6.038   6.055
 7545SOL    HW123534   0.356   6.098   6.006
 7545SOL    HW223535   0.511   6.046   6.014
 7546SOL     OW23536   4.522   2.340   1.860
 7546SOL    HW123537   4.543   2.412   1.794
 7546SOL    HW223538   4.425   2.343   1.885
 7547SOL     OW23539   4.776   0.764   1.198
 7547SOL    HW123540   4.694   0.790   1.249
 7547SOL    HW223541   4.766   0.669   1.167
 7548SOL     OW23542   4.443   2.204   6.779
 7548SOL    HW123543   4.462   2.111   6.810
 7548SOL    HW223544   4.350   2.209   6.743
 7549SOL     OW23545   3.324   2.467   6.311
 7549SOL    HW123546   3.413   2.428   6.335
 7549SOL    HW223547   3.303   2.448   6.216
 7550SOL     OW23548   1.780   4.444   3.655
 7550SOL    HW123549   1.834   4.517   3.612
 7550SOL    HW223550   1.688   4.477   3.672
 7551SOL     OW23551   4.927   3.192   5.423
 7551SOL    HW123552   4.983   3.263   5.465
 7551SOL    HW223553   4.920   3.209   5.325
 7552SOL     OW23554   1.749   5.600   4.842
 7552SOL    HW123555   1.652   5.576   4.833
 7552SOL    HW223556   1.758   5.681   4.900
 7553SOL     OW23557   5.861   6.183   5.989
 7553SOL    HW123558   5.833   6.185   5.893
 7553SOL    HW223559   5.872   6.088   6.019
 7554SOL     OW23560   5.193   0.934   0.583
 7554SOL    HW123561   5.127   0.927   0.658
 7554SOL    HW223562   5.190   1.026   0.544
 7555SOL     OW23563   3.300   6.287   6.231
 7555SOL    HW123564   3.358   6.273   6.150
 7555SOL    HW223565   3.355   6.323   6.306
 7556SOL     OW23566   1.216   1.458   0.518
 7556SOL    HW123567   1.175   1.505   0.440
 7556SOL    HW223568   1.315   1.470   0.516
 7557SOL     OW23569   4.542   0.023   0.230
 7557SOL    HW123570   4.516   0.084   0.305
 7557SOL    HW223571   4.625   0.056   0.186
 7558SOL     OW23572   1.605   2.751   3.658
 7558SOL    HW123573   1.509   2.769   3.641
 7558SOL    HW223574   1.655   2.746   3.572
 7559SOL     OW23575   3.714   2.287   5.281
 7559SOL    HW123576   3.737   2.190   5.275
 7559SOL    HW223577   3.796   2.339   5.304
 7560SOL     OW23578   6.038   0.183   0.206
 7560SOL    HW123579   6.062   0.114   0.137
 7560SOL    HW223580   6.121   0.217   0.250
 7561SOL     OW23581   5.447   3.334   5.556
 7561SOL    HW123582   5.386   3.404   5.596
 7561SOL    HW223583   5.454   3.257   5.619
 7562SOL     OW23584   1.246   5.021   4.650
 7562SOL    HW123585   1.279   4.929   4.629
 7562SOL    HW223586   1.314   5.068   4.707
 7563SOL     OW23587   2.638   6.497   2.574
 7563SOL    HW123588   2.695   6.551   2.636
 7563SOL    HW223589   2.642   6.401   2.600
 7564SOL     OW23590   4.401   0.602   4.808
 7564SOL    HW123591   4.347   0.685   4.824
 7564SOL    HW223592   4.498   0.622   4.821
 7565SOL     OW23593   5.919   4.435   6.101
 7565SOL    HW123594   5.997   4.420   6.161
 7565SOL    HW223595   5.938   4.396   6.011
 7566SOL     OW23596   5.542   4.885   2.460
 7566SOL    HW123597   5.547   4.787   2.482
 7566SOL    HW223598   5.551   4.896   2.361
 7567SOL     OW23599   1.057   1.793   5.043
 7567SOL    HW123600   1.028   1.886   5.066
 7567SOL    HW223601   1.076   1.788   4.945
 7568SOL     OW23602   5.547   5.472   2.335
 7568SOL    HW123603   5.543   5.378   2.370
 7568SOL    HW223604   5.543   5.537   2.412
 7569SOL     OW23605   3.953   4.497   6.704
 7569SOL    HW123606   4.032   4.557   6.697
 7569SOL    HW223607   3.921   4.493   6.799
 7570SOL     OW23608   0.191   2.272   3.691
 7570SOL    HW123609   0.180   2.329   3.609
 7570SOL    HW223610   0.268   2.307   3.745
 7571SOL     OW23611   5.291   3.581   3.051
 7571SOL    HW123612   5.204   3.533   3.038
 7571SOL    HW223613   5.344   3.535   3.122
 7572SOL     OW23614   4.902   6.695   2.899
 7572SOL    HW123615   4.958   6.736   2.972
 7572SOL    HW223616   4.898   6.596   2.912
 7573SOL     OW23617   5.888   0.618   6.222
 7573SOL    HW123618   5.816   0.667   6.173
 7573SOL    HW223619   5.847   0.549   6.282
 7574SOL     OW23620   5.997   1.500   4.265
 7574SOL    HW123621   5.927   1.552   4.215
 7574SOL    HW223622   6.063   1.563   4.305
 7575SOL     OW23623   6.160   6.638   0.783
 7575SOL    HW123624   6.176   6.542   0.806
 7575SOL    HW223625   6.062   6.657   0.784
 7576SOL     OW23626   4.870   2.562   0.779
 7576SOL    HW123627   4.899   2.472   0.811
 7576SOL    HW223628   4.835   2.554   0.685
 7577SOL     OW23629   0.013   6.400   7.016
 7577SOL    HW123630   7.005   6.311   0.026
 7577SOL    HW223631   0.110   6.412   0.013
 7578SOL     OW23632   0.713   5.286   2.310
 7578SOL    HW123633   0.672   5.290   2.218
 7578SOL    HW223634   0.663   5.348   2.371
 7579SOL     OW23635   6.528   1.895   1.271
 7579SOL    HW123636   6.573   1.978   1.304
 7579SOL    HW223637   6.527   1.826   1.344
 7580SOL     OW23638   1.705   4.676   3.447
 7580SOL    HW123639   1.726   4.762   3.401
 7580SOL    HW223640   1.613   4.646   3.421
 7581SOL     OW23641   0.762   1.154   0.906
 7581SOL    HW123642   0.768   1.254   0.910
 7581SOL    HW223643   0.682   1.128   0.853
 7582SOL     OW23644   4.454   1.547   4.205
 7582SOL    HW123645   4.528   1.480   4.206
 7582SOL    HW223646   4.490   1.636   4.179
 7583SOL     OW23647   5.397   3.983   3.372
 7583SOL    HW123648   5.427   3.929   3.293
 7583SOL    HW223649   5.408   4.080   3.353
 7584SOL     OW23650   1.057   6.725   2.374
 7584SOL    HW123651   1.030   6.633   2.402
 7584SOL    HW223652   1.040   6.789   2.449
 7585SOL     OW23653   1.201   2.035   0.040
 7585SOL    HW123654   1.135   1.966   0.009
 7585SOL    HW223655   1.266   2.053   6.989
 7586SOL     OW23656   1.441   0.463   1.845
 7586SOL    HW123657   1.537   0.449   1.871
 7586SOL    HW223658   1.425   0.422   1.755
 7587SOL     OW23659   3.116   1.234   0.683
 7587SOL    HW123660   3.063   1.150   0.697
 7587SOL    HW223661   3.169   1.226   0.599
 7588SOL     OW23662   1.420   2.682   4.018
 7588SOL    HW123663   1.355   2.720   4.084
 7588SOL    HW223664   1.513   2.700   4.048
 7589SOL     OW23665   0.347   1.556   3.489
 7589SOL    HW123666   0.261   1.581   3.533
 7589SOL    HW223667   0.349   1.591   3.396
 7590SOL     OW23668   6.281   1.610   6.888
 7590SOL    HW123669   6.332   1.662   6.956
 7590SOL    HW223670   6.185   1.637   6.890
 7591SOL     OW23671   4.660   2.772   6.687
 7591SOL    HW123672   4.630   2.737   6.598
 7591SOL    HW223673   4.638   2.705   6.758
 7592SOL     OW23674   5.990   4.369   4.743
 7592SOL    HW123675   6.032   4.338   4.828
 7592SOL    HW223676   6.022   4.462   4.722
 7593SOL     OW23677   6.654   2.367   6.146
 7593SOL    HW123678   6.737   2.316   6.166
 7593SOL    HW223679   6.574   2.312   6.171
 7594SOL     OW23680   0.859   4.596   1.431
 7594SOL    HW123681   0.925   4.665   1.402
 7594SOL    HW223682   0.779   4.598   1.372
 7595SOL     OW23683   6.489   3.298   6.294
 7595SOL    HW123684   6.509   3.204   6.319
 7595SOL    HW223685   6.574   3.345   6.270
 7596SOL     OW23686   3.151   0.337   4.850
 7596SOL    HW123687   3.179   0.324   4.754
 7596SOL    HW223688   3.155   0.434   4.873
 7597SOL     OW23689   1.918   6.258   2.651
 7597SOL    HW123690   1.839   6.296   2.699
 7597SOL    HW223691   1.990   6.327   2.645
 7598SOL     OW23692   5.763   0.594   3.113
 7598SOL    HW123693   5.849   0.644   3.109
 7598SOL    HW223694   5.712   0.607   3.028
 7599SOL     OW23695   4.885   3.056   1.270
 7599SOL    HW123696   4.810   3.104   1.225
 7599SOL    HW223697   4.853   2.967   1.303
 7600SOL     OW23698   1.614   1.266   3.720
 7600SOL    HW123699   1.579   1.296   3.809
 7600SOL    HW223700   1.537   1.242   3.660
 7601SOL     OW23701   3.164   5.245   1.802
 7601SOL    HW123702   3.079   5.296   1.811
 7601SOL    HW223703   3.215   5.249   1.888
 7602SOL     OW23704   0.023   2.686   0.036
 7602SOL    HW123705   0.059   2.770   7.018
 7602SOL    HW223706   0.095   2.639   0.087
 7603SOL     OW23707   2.310   6.632   6.003
 7603SOL    HW123708   2.350   6.713   6.047
 7603SOL    HW223709   2.383   6.567   5.982
 7604SOL     OW23710   1.398   2.004   5.139
 7604SOL    HW123711   1.365   2.009   5.044
 7604SOL    HW223712   1.438   1.915   5.155
 7605SOL     OW23713   1.015   0.306   0.256
 7605SOL    HW123714   0.955   0.298   0.336
 7605SOL    HW223715   1.111   0.299   0.285
 7606SOL     OW23716   5.817   2.423   4.644
 7606SOL    HW123717   5.843   2.514   4.676
 7606SOL    HW223718   5.857   2.354   4.706
 7607SOL     OW23719   3.789   5.990   0.644
 7607SOL    HW123720   3.717   5.967   0.578
 7607SOL    HW223721   3.847   5.911   0.660
 7608SOL     OW23722   5.377   2.827   6.341
 7608SOL    HW123723   5.292   2.774   6.336
 7608SOL    HW223724   5.375   2.900   6.272
 7609SOL     OW23725   0.223   3.350   3.790
 7609SOL    HW123726   0.310   3.304   3.809
 7609SOL    HW223727   0.204   3.348   3.692
 7610SOL     OW23728   3.432   5.241   6.763
 7610SOL    HW123729   3.452   5.334   6.792
 7610SOL    HW223730   3.495   5.178   6.808
 7611SOL     OW23731   4.870   3.697   1.420
 7611SOL    HW123732   4.951   3.745   1.455
 7611SOL    HW223733   4.874   3.601   1.448
 7612SOL     OW23734   3.939   2.056   2.960
 7612SOL    HW123735   3.872   1.991   2.925
 7612SOL    HW223736   3.987   2.099   2.883
 7613SOL     OW23737   1.026   2.290   1.956
 7613SOL    HW123738   0.966   2.364   1.988
 7613SOL    HW223739   1.121   2.315   1.972
 7614SOL     OW23740   5.109   3.487   0.953
 7614SOL    HW123741   5.095   3.398   0.909
 7614SOL    HW223742   5.078   3.482   1.048
 7615SOL     OW23743   5.803   3.608   5.592
 7615SOL    HW123744   5.807   3.559   5.680
 7615SOL    HW223745   5.810   3.706   5.609
 7616SOL     OW23746   5.979   0.088   3.385
 7616SOL    HW123747   6.074   0.098   3.416
 7616SOL    HW223748   5.973   0.112   3.288
 7617SOL     OW23749   5.032   5.008   3.024
 7617SOL    HW123750   4.953   5.045   3.074
 7617SOL    HW223751   5.004   4.928   2.972
 7618SOL     OW23752   1.239   2.668   0.287
 7618SOL    HW123753   1.274   2.611   0.362
 7618SOL    HW223754   1.257   2.764   0.307
 7619SOL     OW23755   0.263   2.291   4.420
 7619SOL    HW123756   0.270   2.223   4.346
 7619SOL    HW223757   0.229   2.377   4.382
 7620SOL     OW23758   3.331   4.573   0.442
 7620SOL    HW123759   3.355   4.657   0.393
 7620SOL    HW223760   3.406   4.508   0.435
 7621SOL     OW23761   0.152   6.116   0.852
 7621SOL    HW123762   0.057   6.145   0.835
 7621SOL    HW223763   0.203   6.117   0.766
 7622SOL     OW23764   4.348   4.412   0.433
 7622SOL    HW123765   4.317   4.368   0.348
 7622SOL    HW223766   4.396   4.345   0.489
 7623SOL     OW23767   4.067   4.795   1.065
 7623SOL    HW123768   3.994   4.845   1.019
 7623SOL    HW223769   4.041   4.699   1.075
 7624SOL     OW23770   0.304   2.893   2.671
 7624SOL    HW123771   0.210   2.875   2.642
 7624SOL    HW223772   0.311   2.885   2.770
 7625SOL     OW23773   5.658   2.068   0.397
 7625SOL    HW123774   5.676   2.142   0.331
 7625SOL    HW223775   5.683   1.981   0.355
 7626SOL     OW23776   6.334   0.740   5.696
 7626SOL    HW123777   6.407   0.703   5.754
 7626SOL    HW223778   6.348   0.711   5.602
 7627SOL     OW23779   3.756   2.178   0.277
 7627SOL    HW123780   3.674   2.150   0.326
 7627SOL    HW223781   3.732   2.243   0.205
 7628SOL     OW23782   3.979   3.122   0.881
 7628SOL    HW123783   3.968   3.185   0.958
 7628SOL    HW223784   4.018   3.036   0.913
 7629SOL     OW23785   5.970   3.651   4.231
 7629SOL    HW123786   6.010   3.706   4.305
 7629SOL    HW223787   5.889   3.603   4.266
 7630SOL     OW23788   1.353   7.011   5.592
 7630SOL    HW123789   1.285   0.030   5.532
 7630SOL    HW223790   1.366   0.045   5.673
 7631SOL     OW23791   2.078   0.127   5.319
 7631SOL    HW123792   2.133   0.075   5.385
 7631SOL    HW223793   2.055   0.216   5.357
 7632SOL     OW23794   4.345   5.323   1.257
 7632SOL    HW123795   4.365   5.401   1.317
 7632SOL    HW223796   4.377   5.239   1.299
 7633SOL     OW23797   6.000   0.128   1.847
 7633SOL    HW123798   6.093   0.105   1.820
 7633SOL    HW223799   5.936   0.063   1.806
 7634SOL     OW23800   1.265   1.536   1.163
 7634SOL    HW123801   1.270   1.552   1.261
 7634SOL    HW223802   1.281   1.622   1.114
 7635SOL     OW23803   2.499   5.013   4.763
 7635SOL    HW123804   2.535   4.994   4.854
 7635SOL    HW223805   2.447   4.934   4.730
 7636SOL     OW23806   0.099   4.649   4.246
 7636SOL    HW123807   0.087   4.550   4.239
 7636SOL    HW223808   0.195   4.672   4.231
 7637SOL     OW23809   0.931   5.954   3.903
 7637SOL    HW123810   0.901   5.870   3.859
 7637SOL    HW223811   0.862   5.983   3.970
 7638SOL     OW23812   1.029   5.277   1.422
 7638SOL    HW123813   1.090   5.213   1.375
 7638SOL    HW223814   0.997   5.346   1.358
 7639SOL     OW23815   0.093   0.910   0.323
 7639SOL    HW123816   0.174   0.856   0.346
 7639SOL    HW223817   0.011   0.862   0.353
 7640SOL     OW23818   3.493   1.694   6.567
 7640SOL    HW123819   3.542   1.716   6.652
 7640SOL    HW223820   3.548   1.632   6.512
 7641SOL     OW23821   6.757   3.954   3.062
 7641SOL    HW123822   6.657   3.949   3.056
 7641SOL    HW223823   6.787   3.923   3.152
 7642SOL     OW23824   5.749   1.153   2.883
 7642SOL    HW123825   5.763   1.183   2.788
 7642SOL    HW223826   5.724   1.232   2.939
 7643SOL     OW23827   5.403   1.956   3.193
 7643SOL    HW123828   5.395   2.040   3.138
 7643SOL    HW223829   5.334   1.890   3.161
 7644SOL     OW23830   4.938   3.225   2.069
 7644SOL    HW123831   4.947   3.169   1.986
 7644SOL    HW223832   4.992   3.185   2.143
 7645SOL     OW23833   3.470   3.797   5.152
 7645SOL    HW123834   3.377   3.765   5.171
 7645SOL    HW223835   3.534   3.754   5.216
 7646SOL     OW23836   0.916   3.001   3.036
 7646SOL    HW123837   0.996   3.045   2.994
 7646SOL    HW223838   0.842   3.068   3.044
 7647SOL     OW23839   0.559   2.965   4.423
 7647SOL    HW123840   0.557   2.905   4.343
 7647SOL    HW223841   0.621   2.926   4.492
 7648SOL     OW23842   2.476   1.918   3.190
 7648SOL    HW123843   2.525   1.853   3.248
 7648SOL    HW223844   2.433   1.869   3.114
 7649SOL     OW23845   0.852   1.106   4.798
 7649SOL    HW123846   0.778   1.101   4.731
 7649SOL    HW223847   0.835   1.180   4.862
 7650SOL     OW23848   4.840   1.296   1.244
 7650SOL    HW123849   4.911   1.239   1.203
 7650SOL    HW223850   4.877   1.387   1.264
 7651SOL     OW23851   2.260   5.204   4.499
 7651SOL    HW123852   2.169   5.187   4.537
 7651SOL    HW223853   2.317   5.248   4.568
 7652SOL     OW23854   5.978   2.232   4.774
 7652SOL    HW123855   5.926   2.169   4.833
 7652SOL    HW223856   6.033   2.180   4.709
 7653SOL     OW23857   0.882   1.627   0.023
 7653SOL    HW123858   0.857   1.571   0.102
 7653SOL    HW223859   0.844   1.587   6.962
 7654SOL     OW23860   5.639   2.740   4.730
 7654SOL    HW123861   5.631   2.760   4.633
 7654SOL    HW223862   5.595   2.653   4.750
 7655SOL     OW23863   3.530   0.270   3.595
 7655SOL    HW123864   3.602   0.209   3.563
 7655SOL    HW223865   3.483   0.311   3.517
 7656SOL     OW23866   6.482   3.304   5.739
 7656SOL    HW123867   6.511   3.376   5.803
 7656SOL    HW223868   6.554   3.235   5.732
 7657SOL     OW23869   1.825   3.577   4.573
 7657SOL    HW123870   1.885   3.617   4.642
 7657SOL    HW223871   1.878   3.519   4.511
 7658SOL     OW23872   2.758   0.475   0.933
 7658SOL    HW123873   2.830   0.412   0.906
 7658SOL    HW223874   2.779   0.514   1.023
 7659SOL     OW23875   4.422   3.940   6.002
 7659SOL    HW123876   4.334   3.922   6.046
 7659SOL    HW223877   4.456   3.856   5.960
 7660SOL     OW23878   6.496   5.985   4.799
 7660SOL    HW123879   6.492   6.021   4.706
 7660SOL    HW223880   6.473   6.057   4.864
 7661SOL     OW23881   4.579   2.389   6.425
 7661SOL    HW123882   4.496   2.375   6.371
 7661SOL    HW223883   4.611   2.482   6.412
 7662SOL     OW23884   0.712   2.025   2.882
 7662SOL    HW123885   0.795   2.076   2.859
 7662SOL    HW223886   0.634   2.087   2.885
 7663SOL     OW23887   5.610   5.700   6.125
 7663SOL    HW123888   5.549   5.646   6.183
 7663SOL    HW223889   5.670   5.640   6.072
 7664SOL     OW23890   4.151   1.018   3.057
 7664SOL    HW123891   4.094   0.936   3.059
 7664SOL    HW223892   4.095   1.097   3.033
 7665SOL     OW23893   5.515   2.391   3.639
 7665SOL    HW123894   5.478   2.478   3.669
 7665SOL    HW223895   5.443   2.321   3.641
 7666SOL     OW23896   6.258   6.436   4.081
 7666SOL    HW123897   6.239   6.375   4.004
 7666SOL    HW223898   6.182   6.501   4.091
 7667SOL     OW23899   4.636   6.713   2.004
 7667SOL    HW123900   4.581   6.630   2.013
 7667SOL    HW223901   4.586   6.780   1.949
 7668SOL     OW23902   2.700   5.013   1.100
 7668SOL    HW123903   2.736   5.020   1.193
 7668SOL    HW223904   2.677   4.917   1.080
 7669SOL     OW23905   4.075   0.457   6.120
 7669SOL    HW123906   4.100   0.554   6.125
 7669SOL    HW223907   4.046   0.426   6.210
 7670SOL     OW23908   0.650   6.700   0.170
 7670SOL    HW123909   0.552   6.708   0.186
 7670SOL    HW223910   0.699   6.759   0.235
 7671SOL     OW23911   5.414   6.742   2.309
 7671SOL    HW123912   5.341   6.810   2.295
 7671SOL    HW223913   5.403   6.699   2.398
 7672SOL     OW23914   6.716   4.377   3.001
 7672SOL    HW123915   6.650   4.310   3.035
 7672SOL    HW223916   6.697   4.467   3.040
 7673SOL     OW23917   1.150   5.543   2.960
 7673SOL    HW123918   1.162   5.472   3.029
 7673SOL    HW223919   1.172   5.632   3.000
 7674SOL     OW23920   3.993   0.834   4.269
 7674SOL    HW123921   4.078   0.870   4.229
 7674SOL    HW223922   4.016   0.769   4.341
 7675SOL     OW23923   3.394   6.588   3.601
 7675SOL    HW123924   3.384   6.562   3.505
 7675SOL    HW223925   3.488   6.618   3.618
 7676SOL     OW23926   3.086   2.687   6.094
 7676SOL    HW123927   3.023   2.727   6.027
 7676SOL    HW223928   3.098   2.590   6.075
 7677SOL     OW23929   6.690   4.742   0.998
 7677SOL    HW123930   6.767   4.714   1.055
 7677SOL    HW223931   6.701   4.705   0.906
 7678SOL     OW23932   1.677   2.181   5.605
 7678SOL    HW123933   1.657   2.136   5.518
 7678SOL    HW223934   1.712   2.114   5.670
 7679SOL     OW23935   1.934   5.241   5.503
 7679SOL    HW123936   2.010   5.214   5.563
 7679SOL    HW223937   1.966   5.310   5.439
 7680SOL     OW23938   1.280   0.535   5.755
 7680SOL    HW123939   1.218   0.465   5.790
 7680SOL    HW223940   1.304   0.514   5.660
 7681SOL     OW23941   2.751   2.183   6.596
 7681SOL    HW123942   2.695   2.163   6.677
 7681SOL    HW223943   2.848   2.184   6.622
 7682SOL     OW23944   3.415   1.853   2.789
 7682SOL    HW123945   3.366   1.841   2.703
 7682SOL    HW223946   3.437   1.950   2.801
 7683SOL     OW23947   0.658   1.132   4.609
 7683SOL    HW123948   0.595   1.069   4.654
 7683SOL    HW223949   0.636   1.226   4.635
 7684SOL     OW23950   4.086   1.985   1.919
 7684SOL    HW123951   4.051   2.071   1.882
 7684SOL    HW223952   4.175   2.001   1.962
 7685SOL     OW23953   3.863   1.532   6.602
 7685SOL    HW123954   3.823   1.541   6.694
 7685SOL    HW223955   3.955   1.571   6.603
 7686SOL     OW23956   5.055   0.495   4.589
 7686SOL    HW123957   4.967   0.465   4.552
 7686SOL    HW223958   5.055   0.595   4.596
 7687SOL     OW23959   5.260   5.421   4.920
 7687SOL    HW123960   5.312   5.412   4.836
 7687SOL    HW223961   5.162   5.418   4.900
 7688SOL     OW23962   0.294   5.667   5.634
 7688SOL    HW123963   0.271   5.570   5.633
 7688SOL    HW223964   0.375   5.681   5.691
 7689SOL     OW23965   4.631   0.390   1.774
 7689SOL    HW123966   4.556   0.392   1.708
 7689SOL    HW223967   4.630   0.303   1.823
 7690SOL     OW23968   5.850   4.845   0.241
 7690SOL    HW123969   5.923   4.782   0.213
 7690SOL    HW223970   5.811   4.813   0.328
 7691SOL     OW23971   4.705   4.681   2.369
 7691SOL    HW123972   4.784   4.622   2.351
 7691SOL    HW223973   4.677   4.671   2.464
 7692SOL     OW23974   0.842   5.789   1.597
 7692SOL    HW123975   0.852   5.800   1.498
 7692SOL    HW223976   0.887   5.705   1.626
 7693SOL     OW23977   3.199   0.976   0.996
 7693SOL    HW123978   3.191   0.933   0.907
 7693SOL    HW223979   3.269   1.048   0.992
 7694SOL     OW23980   5.605   2.733   4.434
 7694SOL    HW123981   5.668   2.722   4.357
 7694SOL    HW223982   5.537   2.659   4.432
 7695SOL     OW23983   6.130   0.239   2.387
 7695SOL    HW123984   6.194   0.302   2.432
 7695SOL    HW223985   6.112   0.271   2.294
 7696SOL     OW23986   0.202   1.960   6.217
 7696SOL    HW123987   0.231   2.000   6.130
 7696SOL    HW223988   0.245   2.009   6.292
 7697SOL     OW23989   3.356   0.517   2.836
 7697SOL    HW123990   3.428   0.470   2.888
 7697SOL    HW223991   3.358   0.486   2.741
 7698SOL     OW23992   6.004   2.724   6.336
 7698SOL    HW123993   6.088   2.777   6.322
 7698SOL    HW223994   6.027   2.635   6.376
 7699SOL     OW23995   2.029   5.219   6.918
 7699SOL    HW123996   2.111   5.277   6.923
 7699SOL    HW223997   2.036   5.159   6.838
 7700SOL     OW23998   4.624   6.491   3.054
 7700SOL    HW123999   4.559   6.563   3.028
 7700SOL    HW224000   4.589   6.442   3.134
 7701SOL     OW24001   6.990   1.876   6.373
 7701SOL    HW124002   6.947   1.961   6.406
 7701SOL    HW224003   0.044   1.899   6.314
 7702SOL     OW24004   4.832   6.871   6.075
 7702SOL    HW124005   4.770   6.950   6.067
 7702SOL    HW224006   4.787   6.790   6.039
 7703SOL     OW24007   6.392   0.460   4.841
 7703SOL    HW124008   6.438   0.372   4.829
 7703SOL    HW224009   6.448   0.520   4.898
 7704SOL     OW24010   6.813   1.365   4.245
 7704SOL    HW124011   6.756   1.345   4.165
 7704SOL    HW224012   6.760   1.417   4.311
 7705SOL     OW24013   2.094   5.023   0.768
 7705SOL    HW124014   2.002   5.045   0.800
 7705SOL    HW224015   2.114   4.927   0.786
 7706SOL     OW24016   3.542   3.163   3.148
 7706SOL    HW124017   3.548   3.065   3.128
 7706SOL    HW224018   3.585   3.182   3.236
 7707SOL     OW24019   0.133   5.359   6.280
 7707SOL    HW124020   0.080   5.335   6.198
 7707SOL    HW224021   0.081   5.333   6.361
 7708SOL     OW24022   1.392   6.739   3.949
 7708SOL    HW124023   1.332   6.721   3.871
 7708SOL    HW224024   1.410   6.837   3.956
 7709SOL     OW24025   6.789   5.056   1.158
 7709SOL    HW124026   6.836   5.041   1.245
 7709SOL    HW224027   6.724   5.132   1.169
 7710SOL     OW24028   1.585   2.695   0.691
 7710SOL    HW124029   1.527   2.752   0.750
 7710SOL    HW224030   1.569   2.599   0.712
 7711SOL     OW24031   6.435   5.810   5.578
 7711SOL    HW124032   6.414   5.906   5.593
 7711SOL    HW224033   6.410   5.784   5.485
 7712SOL     OW24034   6.434   4.583   6.118
 7712SOL    HW124035   6.425   4.563   6.021
 7712SOL    HW224036   6.423   4.499   6.171
 7713SOL     OW24037   1.929   4.068   0.742
 7713SOL    HW124038   2.010   4.058   0.800
 7713SOL    HW224039   1.858   4.117   0.792
 7714SOL     OW24040   0.210   6.980   4.948
 7714SOL    HW124041   0.271   7.000   5.024
 7714SOL    HW224042   0.245   0.002   4.865
 7715SOL     OW24043   2.326   2.791   6.106
 7715SOL    HW124044   2.308   2.695   6.088
 7715SOL    HW224045   2.399   2.799   6.175
 7716SOL     OW24046   0.766   4.830   6.637
 7716SOL    HW124047   0.853   4.847   6.592
 7716SOL    HW224048   0.709   4.772   6.578
 7717SOL     OW24049   1.217   2.090   5.299
 7717SOL    HW124050   1.199   2.005   5.349
 7717SOL    HW224051   1.280   2.071   5.224
 7718SOL     OW24052   0.612   3.337   2.829
 7718SOL    HW124053   0.541   3.305   2.767
 7718SOL    HW224054   0.619   3.275   2.907
 7719SOL     OW24055   1.633   3.986   4.512
 7719SOL    HW124056   1.684   4.005   4.596
 7719SOL    HW224057   1.594   4.071   4.476
 7720SOL     OW24058   5.924   2.272   6.411
 7720SOL    HW124059   5.829   2.281   6.440
 7720SOL    HW224060   5.965   2.191   6.454
 7721SOL     OW24061   1.229   0.731   2.354
 7721SOL    HW124062   1.151   0.793   2.352
 7721SOL    HW224063   1.215   0.657   2.289
 7722SOL     OW24064   2.472   4.951   4.079
 7722SOL    HW124065   2.439   4.977   4.170
 7722SOL    HW224066   2.421   5.001   4.009
 7723SOL     OW24067   4.976   3.150   6.736
 7723SOL    HW124068   4.910   3.217   6.768
 7723SOL    HW224069   4.928   3.072   6.695
 7724SOL     OW24070   3.022   4.194   0.801
 7724SOL    HW124071   3.050   4.111   0.752
 7724SOL    HW224072   3.104   4.246   0.827
 7725SOL     OW24073   6.162   2.726   2.531
 7725SOL    HW124074   6.149   2.825   2.539
 7725SOL    HW224075   6.076   2.680   2.551
 7726SOL     OW24076   1.285   2.770   6.102
 7726SOL    HW124077   1.192   2.798   6.078
 7726SOL    HW224078   1.327   2.841   6.158
 7727SOL     OW24079   5.731   2.353   1.827
 7727SOL    HW124080   5.772   2.418   1.763
 7727SOL    HW224081   5.641   2.387   1.856
 7728SOL     OW24082   2.256   2.508   5.283
 7728SOL    HW124083   2.296   2.577   5.223
 7728SOL    HW224084   2.222   2.553   5.366
 7729SOL     OW24085   6.344   1.621   2.284
 7729SOL    HW124086   6.428   1.579   2.318
 7729SOL    HW224087   6.278   1.627   2.359
 7730SOL     OW24088   5.597   4.495   5.040
 7730SOL    HW124089   5.695   4.482   5.049
 7730SOL    HW224090   5.579   4.571   4.977
 7731SOL     OW24091   5.752   0.145   0.624
 7731SOL    HW124092   5.709   0.228   0.588
 7731SOL    HW224093   5.693   0.105   0.695
 7732SOL     OW24094   3.876   0.176   0.152
 7732SOL    HW124095   3.968   0.215   0.157
 7732SOL    HW224096   3.881   0.078   0.170
 7733SOL     OW24097   6.314   5.865   2.808
 7733SOL    HW124098   6.354   5.869   2.899
 7733SOL    HW224099   6.297   5.770   2.782
 7734SOL     OW24100   2.541   4.565   5.170
 7734SOL    HW124101   2.630   4.587   5.131
 7734SOL    HW224102   2.493   4.502   5.109
 7735SOL     OW24103   6.491   6.493   0.152
 7735SOL    HW124104   6.548   6.484   0.234
 7735SOL    HW224105   6.420   6.423   0.153
 7736SOL     OW24106   2.789   2.790   0.653
 7736SOL    HW124107   2.689   2.794   0.646
 7736SOL    HW224108   2.814   2.740   0.736
 7737SOL     OW24109   3.771   5.284   1.639
 7737SOL    HW124110   3.744   5.207   1.580
 7737SOL    HW224111   3.708   5.290   1.716
 7738SOL     OW24112   2.860   5.875   6.576
 7738SOL    HW124113   2.842   5.968   6.610
 7738SOL    HW224114   2.776   5.821   6.582
 7739SOL     OW24115   1.310   2.339   1.947
 7739SOL    HW124116   1.394   2.326   2.000
 7739SOL    HW224117   1.332   2.340   1.850
 7740SOL     OW24118   2.102   0.697   2.797
 7740SOL    HW124119   2.153   0.778   2.767
 7740SOL    HW224120   2.043   0.666   2.722
 7741SOL     OW24121   1.789   4.794   5.580
 7741SOL    HW124122   1.882   4.770   5.551
 7741SOL    HW224123   1.754   4.724   5.642
 7742SOL     OW24124   4.060   1.318   3.795
 7742SOL    HW124125   4.066   1.230   3.843
 7742SOL    HW224126   4.115   1.386   3.843
 7743SOL     OW24127   5.106   1.163   6.768
 7743SOL    HW124128   5.179   1.189   6.705
 7743SOL    HW224129   5.146   1.143   6.858
 7744SOL     OW24130   0.762   5.879   4.852
 7744SOL    HW124131   0.809   5.860   4.938
 7744SOL    HW224132   0.829   5.882   4.778
 7745SOL     OW24133   2.296   6.450   6.735
 7745SOL    HW124134   2.280   6.357   6.703
 7745SOL    HW224135   2.231   6.472   6.808
 7746SOL     OW24136   1.145   6.179   1.213
 7746SOL    HW124137   1.188   6.090   1.224
 7746SOL    HW224138   1.203   6.239   1.158
 7747SOL     OW24139   6.778   6.125   0.616
 7747SOL    HW124140   6.826   6.160   0.696
 7747SOL    HW224141   6.808   6.174   0.535
 7748SOL     OW24142   3.890   2.835   5.280
 7748SOL    HW124143   3.820   2.779   5.235
 7748SOL    HW224144   3.907   2.916   5.225
 7749SOL     OW24145   3.603   3.979   3.164
 7749SOL    HW124146   3.699   4.003   3.153
 7749SOL    HW224147   3.593   3.879   3.160
 7750SOL     OW24148   5.211   5.350   6.317
 7750SOL    HW124149   5.137   5.343   6.250
 7750SOL    HW224150   5.232   5.260   6.353
 7751SOL     OW24151   0.508   1.522   4.050
 7751SOL    HW124152   0.546   1.446   4.103
 7751SOL    HW224153   0.431   1.489   3.996
 7752SOL     OW24154   5.709   5.122   5.236
 7752SOL    HW124155   5.715   5.221   5.235
 7752SOL    HW224156   5.663   5.092   5.320
 7753SOL     OW24157   2.606   0.411   4.523
 7753SOL    HW124158   2.515   0.370   4.532
 7753SOL    HW224159   2.673   0.353   4.568
 7754SOL     OW24160   5.935   0.702   0.845
 7754SOL    HW124161   5.861   0.770   0.848
 7754SOL    HW224162   5.929   0.649   0.761
 7755SOL     OW24163   0.279   6.690   5.478
 7755SOL    HW124164   0.338   6.708   5.557
 7755SOL    HW224165   0.333   6.695   5.394
 7756SOL     OW24166   2.360   5.582   2.278
 7756SOL    HW124167   2.285   5.618   2.222
 7756SOL    HW224168   2.326   5.565   2.371
 7757SOL     OW24169   4.417   5.902   5.082
 7757SOL    HW124170   4.468   5.819   5.056
 7757SOL    HW224171   4.463   5.946   5.160
 7758SOL     OW24172   1.977   2.498   6.161
 7758SOL    HW124173   1.919   2.504   6.243
 7758SOL    HW224174   1.970   2.407   6.121
 7759SOL     OW24175   2.222   0.461   5.251
 7759SOL    HW124176   2.171   0.408   5.183
 7759SOL    HW224177   2.163   0.532   5.289
 7760SOL     OW24178   6.102   2.735   2.145
 7760SOL    HW124179   6.062   2.784   2.223
 7760SOL    HW224180   6.188   2.693   2.173
 7761SOL     OW24181   2.718   6.791   5.960
 7761SOL    HW124182   2.810   6.761   5.986
 7761SOL    HW224183   2.700   6.767   5.865
 7762SOL     OW24184   3.656   0.581   6.381
 7762SOL    HW124185   3.687   0.671   6.409
 7762SOL    HW224186   3.637   0.581   6.282
 7763SOL     OW24187   1.376   1.584   0.768
 7763SOL    HW124188   1.451   1.649   0.761
 7763SOL    HW224189   1.412   1.493   0.788
 7764SOL     OW24190   3.911   3.370   2.502
 7764SOL    HW124191   3.993   3.419   2.530
 7764SOL    HW224192   3.836   3.389   2.566
 7765SOL     OW24193   6.295   3.584   4.210
 7765SOL    HW124194   6.300   3.494   4.168
 7765SOL    HW224195   6.266   3.575   4.305
 7766SOL     OW24196   5.367   1.660   6.993
 7766SOL    HW124197   5.370   1.564   6.964
 7766SOL    HW224198   5.384   1.719   6.914
 7767SOL     OW24199   3.553   6.362   3.390
 7767SOL    HW124200   3.562   6.280   3.334
 7767SOL    HW224201   3.565   6.338   3.487
 7768SOL     OW24202   3.788   4.983   3.033
 7768SOL    HW124203   3.816   5.034   3.114
 7768SOL    HW224204   3.825   4.890   3.038
 7769SOL     OW24205   4.805   1.519   1.851
 7769SOL    HW124206   4.782   1.498   1.756
 7769SOL    HW224207   4.892   1.569   1.853
 7770SOL     OW24208   2.353   4.657   2.164
 7770SOL    HW124209   2.429   4.696   2.113
 7770SOL    HW224210   2.272   4.717   2.155
 7771SOL     OW24211   2.669   2.389   4.703
 7771SOL    HW124212   2.655   2.478   4.660
 7771SOL    HW224213   2.606   2.378   4.780
 7772SOL     OW24214   5.324   1.441   3.476
 7772SOL    HW124215   5.249   1.466   3.416
 7772SOL    HW224216   5.313   1.487   3.564
 7773SOL     OW24217   3.741   4.758   6.207
 7773SOL    HW124218   3.807   4.821   6.165
 7773SOL    HW224219   3.652   4.803   6.213
 7774SOL     OW24220   5.342   1.529   5.738
 7774SOL    HW124221   5.348   1.552   5.641
 7774SOL    HW224222   5.248   1.544   5.770
 7775SOL     OW24223   3.079   6.664   3.132
 7775SOL    HW124224   3.104   6.758   3.109
 7775SOL    HW224225   3.102   6.604   3.055
 7776SOL     OW24226   3.424   3.290   5.776
 7776SOL    HW124227   3.335   3.328   5.750
 7776SOL    HW224228   3.494   3.320   5.712
 7777SOL     OW24229   2.545   1.615   5.405
 7777SOL    HW124230   2.475   1.653   5.345
 7777SOL    HW224231   2.618   1.575   5.350
 7778SOL     OW24232   5.478   0.414   0.202
 7778SOL    HW124233   5.435   0.346   0.142
 7778SOL    HW224234   5.431   0.416   0.290
 7779SOL     OW24235   3.401   2.842   0.456
 7779SOL    HW124236   3.465   2.857   0.381
 7779SOL    HW224237   3.448   2.856   0.544
 7780SOL     OW24238   1.795   5.825   4.316
 7780SOL    HW124239   1.829   5.843   4.224
 7780SOL    HW224240   1.707   5.872   4.329
 7781SOL     OW24241   0.837   3.818   5.829
 7781SOL    HW124242   0.793   3.908   5.830
 7781SOL    HW224243   0.795   3.761   5.758
 7782SOL     OW24244   1.544   4.029   5.668
 7782SOL    HW124245   1.548   4.081   5.583
 7782SOL    HW224246   1.497   3.942   5.652
 7783SOL     OW24247   2.947   6.502   5.746
 7783SOL    HW124248   2.931   6.530   5.841
 7783SOL    HW224249   3.044   6.506   5.726
 7784SOL     OW24250   1.551   2.702   6.961
 7784SOL    HW124251   1.531   2.800   6.966
 7784SOL    HW224252   1.600   2.674   0.021
 7785SOL     OW24253   1.731   6.549   4.293
 7785SOL    HW124254   1.743   6.617   4.365
 7785SOL    HW224255   1.669   6.586   4.224
 7786SOL     OW24256   3.372   5.039   5.510
 7786SOL    HW124257   3.318   5.106   5.460
 7786SOL    HW224258   3.311   4.984   5.568
 7787SOL     OW24259   2.074   2.331   5.196
 7787SOL    HW124260   2.135   2.399   5.237
 7787SOL    HW224261   2.019   2.288   5.268
 7788SOL     OW24262   1.709   1.281   1.915
 7788SOL    HW124263   1.722   1.185   1.892
 7788SOL    HW224264   1.744   1.338   1.841
 7789SOL     OW24265   2.464   0.259   0.991
 7789SOL    HW124266   2.433   0.246   0.897
 7789SOL    HW224267   2.545   0.203   1.007
 7790SOL     OW24268   6.400   4.551   3.110
 7790SOL    HW124269   6.338   4.627   3.128
 7790SOL    HW224270   6.389   4.481   3.180
 7791SOL     OW24271   2.644   6.138   4.008
 7791SOL    HW124272   2.685   6.078   3.939
 7791SOL    HW224273   2.545   6.146   3.991
 7792SOL     OW24274   1.641   5.226   5.801
 7792SOL    HW124275   1.563   5.286   5.786
 7792SOL    HW224276   1.648   5.160   5.726
 7793SOL     OW24277   1.741   1.222   5.525
 7793SOL    HW124278   1.732   1.237   5.427
 7793SOL    HW224279   1.813   1.155   5.542
 7794SOL     OW24280   5.184   4.924   4.465
 7794SOL    HW124281   5.104   4.952   4.413
 7794SOL    HW224282   5.253   4.996   4.461
 7795SOL     OW24283   2.053   4.182   5.097
 7795SOL    HW124284   2.136   4.127   5.107
 7795SOL    HW224285   2.025   4.183   5.001
 7796SOL     OW24286   3.309   4.026   3.462
 7796SOL    HW124287   3.275   4.072   3.379
 7796SOL    HW224288   3.299   3.927   3.452
 7797SOL     OW24289   0.196   5.482   3.327
 7797SOL    HW124290   0.283   5.446   3.360
 7797SOL    HW224291   0.170   5.563   3.381
 7798SOL     OW24292   2.234   5.397   6.907
 7798SOL    HW124293   2.182   5.472   6.865
 7798SOL    HW224294   2.324   5.390   6.864
 7799SOL     OW24295   6.755   5.715   1.756
 7799SOL    HW124296   6.685   5.707   1.685
 7799SOL    HW224297   6.713   5.744   1.842
 7800SOL     OW24298   1.005   4.057   1.343
 7800SOL    HW124299   1.072   4.042   1.270
 7800SOL    HW224300   0.989   4.155   1.354
 7801SOL     OW24301   2.508   1.636   1.187
 7801SOL    HW124302   2.555   1.699   1.125
 7801SOL    HW224303   2.541   1.543   1.172
 7802SOL     OW24304   6.372   3.245   0.962
 7802SOL    HW124305   6.373   3.217   1.058
 7802SOL    HW224306   6.325   3.332   0.954
 7803SOL     OW24307   4.223   3.864   5.633
 7803SOL    HW124308   4.259   3.777   5.598
 7803SOL    HW224309   4.205   3.926   5.556
 7804SOL     OW24310   6.346   1.000   4.351
 7804SOL    HW124311   6.272   0.961   4.297
 7804SOL    HW224312   6.434   0.970   4.314
 7805SOL     OW24313   5.200   1.932   1.170
 7805SOL    HW124314   5.211   2.014   1.227
 7805SOL    HW224315   5.206   1.957   1.074
 7806SOL     OW24316   6.016   3.360   5.958
 7806SOL    HW124317   6.049   3.270   5.986
 7806SOL    HW224318   6.007   3.419   6.039
 7807SOL     OW24319   0.167   4.855   6.246
 7807SOL    HW124320   0.153   4.865   6.147
 7807SOL    HW224321   0.263   4.838   6.264
 7808SOL     OW24322   0.441   2.843   4.789
 7808SOL    HW124323   0.514   2.859   4.722
 7808SOL    HW224324   0.475   2.785   4.863
 7809SOL     OW24325   2.534   6.216   4.445
 7809SOL    HW124326   2.509   6.281   4.516
 7809SOL    HW224327   2.561   6.265   4.363
 7810SOL     OW24328   2.946   0.438   5.732
 7810SOL    HW124329   2.927   0.482   5.644
 7810SOL    HW224330   2.998   0.354   5.717
 7811SOL     OW24331   6.216   4.132   4.354
 7811SOL    HW124332   6.266   4.168   4.433
 7811SOL    HW224333   6.137   4.190   4.335
 7812SOL     OW24334   1.479   1.877   3.895
 7812SOL    HW124335   1.554   1.822   3.858
 7812SOL    HW224336   1.487   1.883   3.994
 7813SOL     OW24337   4.863   2.748   6.174
 7813SOL    HW124338   4.808   2.761   6.091
 7813SOL    HW224339   4.877   2.837   6.218
 7814SOL     OW24340   6.851   2.084   3.256
 7814SOL    HW124341   6.796   2.122   3.331
 7814SOL    HW224342   6.946   2.078   3.285
 7815SOL     OW24343   4.889   1.249   6.456
 7815SOL    HW124344   4.942   1.305   6.393
 7815SOL    HW224345   4.792   1.269   6.445
 7816SOL     OW24346   2.089   2.906   6.031
 7816SOL    HW124347   2.103   3.005   6.022
 7816SOL    HW224348   2.177   2.860   6.033
 7817SOL     OW24349   6.037   3.538   3.750
 7817SOL    HW124350   6.035   3.526   3.850
 7817SOL    HW224351   6.032   3.636   3.728
 7818SOL     OW24352   5.483   0.780   2.285
 7818SOL    HW124353   5.413   0.735   2.229
 7818SOL    HW224354   5.497   0.874   2.251
 7819SOL     OW24355   0.329   3.092   1.856
 7819SOL    HW124356   0.368   3.033   1.785
 7819SOL    HW224357   0.256   3.148   1.816
 7820SOL     OW24358   1.683   2.130   4.883
 7820SOL    HW124359   1.595   2.174   4.867
 7820SOL    HW224360   1.756   2.198   4.872
 7821SOL     OW24361   4.418   5.641   1.047
 7821SOL    HW124362   4.360   5.668   1.124
 7821SOL    HW224363   4.507   5.612   1.081
 7822SOL     OW24364   0.194   0.519   5.417
 7822SOL    HW124365   0.186   0.496   5.514
 7822SOL    HW224366   0.129   0.590   5.394
 7823SOL     OW24367   2.298   4.228   4.459
 7823SOL    HW124368   2.270   4.173   4.380
 7823SOL    HW224369   2.276   4.179   4.544
 7824SOL     OW24370   6.668   2.414   5.009
 7824SOL    HW124371   6.690   2.317   5.018
 7824SOL    HW224372   6.580   2.424   4.963
 7825SOL     OW24373   2.687   3.109   0.078
 7825SOL    HW124374   2.712   3.035   0.017
 7825SOL    HW224375   2.760   3.125   0.144
 7826SOL     OW24376   6.817   1.160   0.364
 7826SOL    HW124377   6.757   1.238   0.343
 7826SOL    HW224378   6.884   1.150   0.291
 7827SOL     OW24379   0.738   5.777   2.301
 7827SOL    HW124380   0.699   5.764   2.392
 7827SOL    HW224381   0.686   5.723   2.234
 7828SOL     OW24382   6.577   4.418   6.433
 7828SOL    HW124383   6.522   4.401   6.351
 7828SOL    HW224384   6.533   4.489   6.488
 7829SOL     OW24385   3.314   3.172   1.338
 7829SOL    HW124386   3.386   3.118   1.381
 7829SOL    HW224387   3.310   3.151   1.240
 7830SOL     OW24388   3.582   5.109   5.640
 7830SOL    HW124389   3.495   5.098   5.591
 7830SOL    HW224390   3.653   5.136   5.575
 7831SOL     OW24391   2.180   1.195   1.675
 7831SOL    HW124392   2.248   1.268   1.679
 7831SOL    HW224393   2.192   1.142   1.591
 7832SOL     OW24394   5.427   0.203   4.380
 7832SOL    HW124395   5.371   0.263   4.436
 7832SOL    HW224396   5.370   0.162   4.308
 7833SOL     OW24397   1.549   0.608   4.481
 7833SOL    HW124398   1.550   0.508   4.483
 7833SOL    HW224399   1.478   0.639   4.418
 7834SOL     OW24400   7.006   1.884   3.943
 7834SOL    HW124401   6.916   1.892   3.900
 7834SOL    HW224402   6.994   1.861   4.040
 7835SOL     OW24403   3.695   1.776   4.541
 7835SOL    HW124404   3.657   1.806   4.453
 7835SOL    HW224405   3.694   1.852   4.605
 7836SOL     OW24406   3.736   3.910   5.484
 7836SOL    HW124407   3.824   3.954   5.498
 7836SOL    HW224408   3.714   3.908   5.386
 7837SOL     OW24409   5.402   6.174   0.050
 7837SOL    HW124410   5.372   6.240   7.004
 7837SOL    HW224411   5.344   6.180   0.131
 7838SOL     OW24412   4.974   5.196   1.470
 7838SOL    HW124413   4.971   5.096   1.472
 7838SOL    HW224414   4.924   5.230   1.390
 7839SOL     OW24415   5.551   3.801   4.796
 7839SOL    HW124416   5.483   3.831   4.730
 7839SOL    HW224417   5.515   3.723   4.848
 7840SOL     OW24418   0.874   4.380   4.072
 7840SOL    HW124419   0.775   4.392   4.087
 7840SOL    HW224420   0.898   4.417   3.982
 7841SOL     OW24421   4.644   2.053   6.408
 7841SOL    HW124422   4.697   2.030   6.326
 7841SOL    HW224423   4.707   2.083   6.480
 7842SOL     OW24424   2.238   1.769   2.170
 7842SOL    HW124425   2.319   1.712   2.157
 7842SOL    HW224426   2.220   1.780   2.268
 7843SOL     OW24427   6.774   6.962   3.986
 7843SOL    HW124428   6.871   6.944   3.968
 7843SOL    HW224429   6.753   6.935   4.080
 7844SOL     OW24430   3.766   0.660   2.185
 7844SOL    HW124431   3.795   0.628   2.095
 7844SOL    HW224432   3.839   0.713   2.228
 7845SOL     OW24433   5.117   1.749   1.339
 7845SOL    HW124434   5.135   1.788   1.249
 7845SOL    HW224435   5.203   1.734   1.386
 7846SOL     OW24436   1.224   2.053   0.554
 7846SOL    HW124437   1.282   1.993   0.499
 7846SOL    HW224438   1.208   2.139   0.504
 7847SOL     OW24439   6.219   1.632   3.764
 7847SOL    HW124440   6.257   1.684   3.687
 7847SOL    HW224441   6.216   1.691   3.845
 7848SOL     OW24442   2.573   4.548   0.805
 7848SOL    HW124443   2.658   4.496   0.804
 7848SOL    HW224444   2.496   4.485   0.795
 7849SOL     OW24445   5.989   3.236   5.149
 7849SOL    HW124446   5.944   3.262   5.234
 7849SOL    HW224447   6.053   3.308   5.122
 7850SOL     OW24448   6.620   1.585   3.836
 7850SOL    HW124449   6.691   1.518   3.854
 7850SOL    HW224450   6.610   1.598   3.738
 7851SOL     OW24451   0.875   3.166   1.852
 7851SOL    HW124452   0.841   3.260   1.864
 7851SOL    HW224453   0.899   3.128   1.941
 7852SOL     OW24454   3.015   1.013   0.176
 7852SOL    HW124455   2.948   0.939   0.177
 7852SOL    HW224456   2.983   1.087   0.234
 7853SOL     OW24457   4.396   3.074   1.697
 7853SOL    HW124458   4.467   3.077   1.767
 7853SOL    HW224459   4.307   3.089   1.739
 7854SOL     OW24460   4.058   2.254   5.996
 7854SOL    HW124461   4.066   2.283   6.091
 7854SOL    HW224462   4.134   2.192   5.974
 7855SOL     OW24463   4.792   6.187   4.319
 7855SOL    HW124464   4.786   6.106   4.262
 7855SOL    HW224465   4.827   6.264   4.265
 7856SOL     OW24466   1.746   4.841   5.166
 7856SOL    HW124467   1.715   4.926   5.124
 7856SOL    HW224468   1.719   4.763   5.109
 7857SOL     OW24469   5.005   4.164   0.612
 7857SOL    HW124470   4.942   4.216   0.670
 7857SOL    HW224471   4.956   4.130   0.532
 7858SOL     OW24472   6.866   5.600   4.777
 7858SOL    HW124473   6.932   5.561   4.713
 7858SOL    HW224474   6.868   5.700   4.770
 7859SOL     OW24475   4.519   3.257   6.679
 7859SOL    HW124476   4.552   3.186   6.617
 7859SOL    HW224477   4.495   3.339   6.627
 7860SOL     OW24478   3.931   1.400   4.106
 7860SOL    HW124479   3.932   1.451   4.019
 7860SOL    HW224480   3.840   1.405   4.147
 7861SOL     OW24481   2.582   5.569   2.042
 7861SOL    HW124482   2.677   5.573   2.074
 7861SOL    HW224483   2.526   5.525   2.112
 7862SOL     OW24484   2.468   5.246   2.101
 7862SOL    HW124485   2.372   5.265   2.123
 7862SOL    HW224486   2.510   5.198   2.177
 7863SOL     OW24487   0.462   4.310   3.462
 7863SOL    HW124488   0.365   4.327   3.476
 7863SOL    HW224489   0.500   4.267   3.544
 7864SOL     OW24490   2.159   5.942   6.296
 7864SOL    HW124491   2.164   5.862   6.357
 7864SOL    HW224492   2.160   6.026   6.351
 7865SOL     OW24493   6.007   6.176   4.130
 7865SOL    HW124494   5.946   6.134   4.063
 7865SOL    HW224495   6.002   6.276   4.121
 7866SOL     OW24496   2.092   0.272   4.784
 7866SOL    HW124497   2.106   0.241   4.690
 7866SOL    HW224498   2.000   0.310   4.793
 7867SOL     OW24499   5.531   0.035   3.584
 7867SOL    HW124500   5.570   0.039   3.492
 7867SOL    HW224501   5.438   7.021   3.580
 7868SOL     OW24502   3.711   5.281   1.098
 7868SOL    HW124503   3.755   5.302   1.186
 7868SOL    HW224504   3.743   5.345   1.029
 7869SOL     OW24505   4.873   4.907   5.811
 7869SOL    HW124506   4.812   4.858   5.750
 7869SOL    HW224507   4.947   4.847   5.841
 7870SOL     OW24508   4.932   0.287   4.984
 7870SOL    HW124509   4.915   0.194   5.016
 7870SOL    HW224510   5.030   0.302   4.975
 7871SOL     OW24511   5.758   1.317   1.854
 7871SOL    HW124512   5.727   1.325   1.949
 7871SOL    HW224513   5.689   1.357   1.793
 7872SOL     OW24514   1.759   4.805   2.744
 7872SOL    HW124515   1.773   4.725   2.685
 7872SOL    HW224516   1.843   4.825   2.795
 7873SOL     OW24517   6.232   1.312   0.749
 7873SOL    HW124518   6.289   1.345   0.674
 7873SOL    HW224519   6.274   1.230   0.789
 7874SOL     OW24520   5.623   2.737   1.050
 7874SOL    HW124521   5.683   2.726   0.970
 7874SOL    HW224522   5.612   2.649   1.096
 7875SOL     OW24523   3.884   3.729   6.887
 7875SOL    HW124524   3.932   3.755   6.803
 7875SOL    HW224525   3.786   3.749   6.878
 7876SOL     OW24526   0.961   0.440   2.863
 7876SOL    HW124527   0.921   0.527   2.833
 7876SOL    HW224528   0.939   0.369   2.796
 7877SOL     OW24529   6.586   1.575   2.874
 7877SOL    HW124530   6.553   1.656   2.922
 7877SOL    HW224531   6.602   1.502   2.940
 7878SOL     OW24532   4.870   3.803   3.475
 7878SOL    HW124533   4.955   3.759   3.447
 7878SOL    HW224534   4.889   3.894   3.512
 7879SOL     OW24535   3.282   5.182   3.202
 7879SOL    HW124536   3.252   5.149   3.113
 7879SOL    HW224537   3.221   5.254   3.234
 7880SOL     OW24538   2.177   3.508   0.846
 7880SOL    HW124539   2.206   3.601   0.824
 7880SOL    HW224540   2.085   3.492   0.810
 7881SOL     OW24541   5.137   4.144   4.383
 7881SOL    HW124542   5.104   4.051   4.395
 7881SOL    HW224543   5.227   4.142   4.340
 7882SOL     OW24544   2.518   3.848   1.658
 7882SOL    HW124545   2.608   3.874   1.624
 7882SOL    HW224546   2.471   3.929   1.693
 7883SOL     OW24547   0.914   0.542   5.622
 7883SOL    HW124548   0.896   0.630   5.667
 7883SOL    HW224549   0.920   0.556   5.523
 7884SOL     OW24550   0.795   3.712   3.946
 7884SOL    HW124551   0.713   3.768   3.959
 7884SOL    HW224552   0.873   3.772   3.928
 7885SOL     OW24553   6.302   5.346   0.884
 7885SOL    HW124554   6.301   5.308   0.977
 7885SOL    HW224555   6.228   5.411   0.874
 7886SOL     OW24556   4.569   6.069   0.422
 7886SOL    HW124557   4.597   6.138   0.489
 7886SOL    HW224558   4.469   6.059   0.425
 7887SOL     OW24559   3.615   2.051   7.016
 7887SOL    HW124560   3.653   2.134   6.976
 7887SOL    HW224561   3.556   2.075   0.070
 7888SOL     OW24562   5.281   0.302   3.685
 7888SOL    HW124563   5.327   0.259   3.763
 7888SOL    HW224564   5.329   0.386   3.661
 7889SOL     OW24565   0.617   5.664   1.443
 7889SOL    HW124566   0.642   5.573   1.409
 7889SOL    HW224567   0.700   5.718   1.456
 7890SOL     OW24568   2.129   3.985   2.216
 7890SOL    HW124569   2.071   3.911   2.181
 7890SOL    HW224570   2.158   4.043   2.140
 7891SOL     OW24571   2.324   5.015   2.288
 7891SOL    HW124572   2.403   5.037   2.344
 7891SOL    HW224573   2.268   5.097   2.276
 7892SOL     OW24574   1.860   2.387   5.029
 7892SOL    HW124575   1.847   2.424   5.121
 7892SOL    HW224576   1.957   2.368   5.014
 7893SOL     OW24577   5.834   6.686   1.383
 7893SOL    HW124578   5.756   6.745   1.360
 7893SOL    HW224579   5.801   6.596   1.412
 7894SOL     OW24580   2.509   6.432   1.852
 7894SOL    HW124581   2.421   6.451   1.895
 7894SOL    HW224582   2.526   6.500   1.780
 7895SOL     OW24583   6.528   1.225   4.936
 7895SOL    HW124584   6.578   1.191   5.016
 7895SOL    HW224585   6.448   1.277   4.966
 7896SOL     OW24586   4.593   3.799   5.601
 7896SOL    HW124587   4.607   3.895   5.624
 7896SOL    HW224588   4.609   3.786   5.503
 7897SOL     OW24589   2.149   3.992   6.246
 7897SOL    HW124590   2.149   4.046   6.330
 7897SOL    HW224591   2.127   4.050   6.168
 7898SOL     OW24592   4.781   2.146   3.928
 7898SOL    HW124593   4.830   2.154   3.841
 7898SOL    HW224594   4.760   2.238   3.963
 7899SOL     OW24595   6.746   2.007   2.248
 7899SOL    HW124596   6.753   2.095   2.203
 7899SOL    HW224597   6.661   2.004   2.302
 7900SOL     OW24598   1.509   5.324   1.422
 7900SOL    HW124599   1.552   5.339   1.511
 7900SOL    HW224600   1.522   5.404   1.364
 7901SOL     OW24601   5.883   0.371   5.962
 7901SOL    HW124602   5.934   0.301   5.913
 7901SOL    HW224603   5.862   0.339   6.054
 7902SOL     OW24604   4.956   4.930   1.420
 7902SOL    HW124605   4.935   4.894   1.329
 7902SOL    HW224606   4.922   4.867   1.490
 7903SOL     OW24607   6.158   1.815   0.194
 7903SOL    HW124608   6.192   1.845   0.283
 7903SOL    HW224609   6.071   1.861   0.173
 7904SOL     OW24610   6.460   1.003   2.434
 7904SOL    HW124611   6.360   1.001   2.442
 7904SOL    HW224612   6.485   0.985   2.339
 7905SOL     OW24613   4.384   1.674   1.184
 7905SOL    HW124614   4.399   1.751   1.246
 7905SOL    HW224615   4.442   1.685   1.103
 7906SOL     OW24616   6.385   6.068   6.725
 7906SOL    HW124617   6.380   5.979   6.679
 7906SOL    HW224618   6.397   6.140   6.657
 7907SOL     OW24619   6.343   2.584   4.432
 7907SOL    HW124620   6.253   2.581   4.475
 7907SOL    HW224621   6.334   2.606   4.335
 7908SOL     OW24622   0.976   0.909   3.394
 7908SOL    HW124623   1.025   0.992   3.421
 7908SOL    HW224624   0.903   0.890   3.460
 7909SOL     OW24625   4.877   3.809   4.864
 7909SOL    HW124626   4.820   3.891   4.867
 7909SOL    HW224627   4.837   3.739   4.923
 7910SOL     OW24628   4.052   3.018   5.476
 7910SOL    HW124629   4.129   2.984   5.531
 7910SOL    HW224630   4.007   2.941   5.431
 7911SOL     OW24631   6.840   5.008   0.487
 7911SOL    HW124632   6.918   5.009   0.550
 7911SOL    HW224633   6.801   4.917   0.483
 7912SOL     OW24634   6.241   5.377   6.772
 7912SOL    HW124635   6.201   5.466   6.753
 7912SOL    HW224636   6.207   5.342   6.859
 7913SOL     OW24637   0.416   5.294   6.221
 7913SOL    HW124638   0.446   5.382   6.184
 7913SOL    HW224639   0.317   5.288   6.219
 7914SOL     OW24640   6.615   5.223   1.292
 7914SOL    HW124641   6.625   5.310   1.339
 7914SOL    HW224642   6.541   5.170   1.334
 7915SOL     OW24643   5.059   2.162   2.870
 7915SOL    HW124644   5.068   2.148   2.969
 7915SOL    HW224645   4.964   2.150   2.843
 7916SOL     OW24646   5.628   3.492   5.420
 7916SOL    HW124647   5.551   3.449   5.468
 7916SOL    HW224648   5.689   3.535   5.486
 7917SOL     OW24649   4.100   3.505   4.194
 7917SOL    HW124650   4.160   3.540   4.123
 7917SOL    HW224651   4.044   3.431   4.157
 7918SOL     OW24652   5.850   1.570   1.584
 7918SOL    HW124653   5.865   1.546   1.680
 7918SOL    HW224654   5.805   1.495   1.537
 7919SOL     OW24655   6.397   4.014   2.963
 7919SOL    HW124656   6.450   4.007   2.878
 7919SOL    HW224657   6.301   4.028   2.941
 7920SOL     OW24658   0.047   4.671   1.674
 7920SOL    HW124659   0.103   4.688   1.593
 7920SOL    HW224660   0.104   4.675   1.756
 7921SOL     OW24661   3.001   6.324   1.309
 7921SOL    HW124662   3.048   6.260   1.368
 7921SOL    HW224663   2.912   6.286   1.281
 7922SOL     OW24664   6.739   5.513   0.145
 7922SOL    HW124665   6.819   5.535   0.089
 7922SOL    HW224666   6.659   5.561   0.108
 7923SOL     OW24667   1.703   1.614   2.865
 7923SOL    HW124668   1.690   1.662   2.952
 7923SOL    HW224669   1.740   1.677   2.797
 7924SOL     OW24670   2.865   6.316   3.905
 7924SOL    HW124671   2.772   6.290   3.930
 7924SOL    HW224672   2.869   6.415   3.889
 7925SOL     OW24673   6.729   1.728   6.116
 7925SOL    HW124674   6.826   1.718   6.137
 7925SOL    HW224675   6.674   1.690   6.190
 7926SOL     OW24676   3.373   0.718   3.641
 7926SOL    HW124677   3.289   0.702   3.590
 7926SOL    HW224678   3.351   0.755   3.732
 7927SOL     OW24679   4.475   5.526   4.916
 7927SOL    HW124680   4.387   5.524   4.869
 7927SOL    HW224681   4.544   5.480   4.861
 7928SOL     OW24682   1.699   4.808   3.088
 7928SOL    HW124683   1.786   4.769   3.118
 7928SOL    HW224684   1.649   4.843   3.167
 7929SOL     OW24685   4.063   3.778   4.630
 7929SOL    HW124686   4.000   3.707   4.598
 7929SOL    HW224687   4.011   3.858   4.660
 7930SOL     OW24688   4.829   5.575   3.772
 7930SOL    HW124689   4.804   5.634   3.695
 7930SOL    HW224690   4.839   5.631   3.855
 7931SOL     OW24691   2.048   2.750   6.929
 7931SOL    HW124692   2.046   2.652   6.946
 7931SOL    HW224693   2.081   2.768   6.836
 7932SOL     OW24694   2.614   0.393   6.962
 7932SOL    HW124695   2.686   0.444   7.009
 7932SOL    HW224696   2.539   0.374   0.004
 7933SOL     OW24697   1.055   6.297   6.756
 7933SOL    HW124698   1.049   6.294   6.656
 7933SOL    HW224699   0.969   6.333   6.793
 7934SOL     OW24700   2.490   3.371   0.594
 7934SOL    HW124701   2.482   3.293   0.532
 7934SOL    HW224702   2.418   3.437   0.573
 7935SOL     OW24703   4.803   5.865   0.164
 7935SOL    HW124704   4.901   5.886   0.168
 7935SOL    HW224705   4.785   5.804   0.086
 7936SOL     OW24706   3.439   6.096   3.200
 7936SOL    HW124707   3.488   6.163   3.143
 7936SOL    HW224708   3.502   6.057   3.267
 7937SOL     OW24709   5.329   0.006   5.214
 7937SOL    HW124710   5.319   0.035   5.309
 7937SOL    HW224711   5.426   7.016   5.193
 7938SOL     OW24712   4.578   5.021   4.696
 7938SOL    HW124713   4.542   4.928   4.705
 7938SOL    HW224714   4.503   5.085   4.680
 7939SOL     OW24715   1.011   1.354   5.755
 7939SOL    HW124716   0.989   1.313   5.844
 7939SOL    HW224717   1.063   1.288   5.701
 7940SOL     OW24718   2.624   5.375   1.817
 7940SOL    HW124719   2.590   5.428   1.895
 7940SOL    HW224720   2.617   5.278   1.836
 7941SOL     OW24721   0.082   0.757   1.170
 7941SOL    HW124722   0.173   0.752   1.211
 7941SOL    HW224723   0.078   0.836   1.108
 7942SOL     OW24724   0.542   6.370   1.877
 7942SOL    HW124725   0.582   6.400   1.963
 7942SOL    HW224726   0.469   6.433   1.851
 7943SOL     OW24727   5.494   2.105   1.161
 7943SOL    HW124728   5.564   2.145   1.220
 7943SOL    HW224729   5.403   2.130   1.195
 7944SOL     OW24730   0.097   3.172   1.647
 7944SOL    HW124731   0.095   3.256   1.592
 7944SOL    HW224732   0.006   3.155   1.685
 7945SOL     OW24733   5.117   0.124   2.768
 7945SOL    HW124734   5.118   0.164   2.859
 7945SOL    HW224735   5.049   0.170   2.712
 7946SOL     OW24736   1.695   2.120   5.912
 7946SOL    HW124737   1.769   2.141   5.848
 7946SOL    HW224738   1.701   2.024   5.940
 7947SOL     OW24739   4.040   2.821   6.764
 7947SOL    HW124740   4.076   2.912   6.746
 7947SOL    HW224741   4.044   2.766   6.680
 7948SOL     OW24742   6.974   6.934   0.687
 7948SOL    HW124743   6.903   6.999   0.658
 7948SOL    HW224744   6.947   6.842   0.660
 7949SOL     OW24745   5.316   4.729   4.345
 7949SOL    HW124746   5.401   4.757   4.299
 7949SOL    HW224747   5.290   4.798   4.412
 7950SOL     OW24748   4.436   5.134   3.522
 7950SOL    HW124749   4.411   5.037   3.519
 7950SOL    HW224750   4.418   5.175   3.432
 7951SOL     OW24751   2.414   3.604   1.031
 7951SOL    HW124752   2.471   3.675   1.073
 7951SOL    HW224753   2.467   3.556   0.961
 7952SOL     OW24754   6.871   3.091   6.476
 7952SOL    HW124755   6.829   3.066   6.563
 7952SOL    HW224756   6.963   3.125   6.492
 7953SOL     OW24757   2.213   2.667   3.326
 7953SOL    HW124758   2.129   2.715   3.300
 7953SOL    HW224759   2.209   2.645   3.424
 7954SOL     OW24760   4.452   5.383   4.430
 7954SOL    HW124761   4.414   5.450   4.494
 7954SOL    HW224762   4.489   5.430   4.350
 7955SOL     OW24763   7.020   6.508   6.763
 7955SOL    HW124764   0.029   6.514   6.857
 7955SOL    HW224765   6.937   6.454   6.759
 7956SOL     OW24766   0.463   6.089   3.473
 7956SOL    HW124767   0.499   6.094   3.380
 7956SOL    HW224768   0.487   6.172   3.523
 7957SOL     OW24769   1.601   1.895   0.015
 7957SOL    HW124770   1.586   1.798   0.039
 7957SOL    HW224771   1.694   1.907   7.003
 7958SOL     OW24772   3.754   5.778   4.334
 7958SOL    HW124773   3.752   5.804   4.431
 7958SOL    HW224774   3.660   5.769   4.301
 7959SOL     OW24775   5.558   4.446   0.432
 7959SOL    HW124776   5.577   4.387   0.354
 7959SOL    HW224777   5.467   4.424   0.468
 7960SOL     OW24778   3.399   1.884   1.293
 7960SOL    HW124779   3.337   1.905   1.217
 7960SOL    HW224780   3.431   1.970   1.335
 7961SOL     OW24781   1.826   6.562   6.269
 7961SOL    HW124782   1.799   6.470   6.299
 7961SOL    HW224783   1.851   6.559   6.172
 7962SOL     OW24784   2.233   0.953   0.939
 7962SOL    HW124785   2.237   0.953   0.839
 7962SOL    HW224786   2.304   0.892   0.974
 7963SOL     OW24787   0.246   1.265   5.325
 7963SOL    HW124788   0.192   1.253   5.409
 7963SOL    HW224789   0.185   1.266   5.246
 7964SOL     OW24790   5.778   4.903   3.739
 7964SOL    HW124791   5.826   4.842   3.803
 7964SOL    HW224792   5.812   4.996   3.750
 7965SOL     OW24793   4.129   2.432   0.041
 7965SOL    HW124794   4.110   2.498   6.991
 7965SOL    HW224795   4.203   2.467   0.099
 7966SOL     OW24796   1.528   4.017   5.011
 7966SOL    HW124797   1.608   3.975   5.055
 7966SOL    HW224798   1.463   4.047   5.081
 7967SOL     OW24799   2.873   5.559   3.368
 7967SOL    HW124800   2.951   5.498   3.363
 7967SOL    HW224801   2.858   5.586   3.463
 7968SOL     OW24802   2.490   2.548   3.440
 7968SOL    HW124803   2.573   2.501   3.470
 7968SOL    HW224804   2.475   2.629   3.497
 7969SOL     OW24805   3.771   0.121   2.409
 7969SOL    HW124806   3.755   0.025   2.432
 7969SOL    HW224807   3.698   0.177   2.447
 7970SOL     OW24808   0.128   3.880   3.041
 7970SOL    HW124809   0.128   3.912   2.947
 7970SOL    HW224810   0.082   3.791   3.047
 7971SOL     OW24811   2.874   0.989   2.308
 7971SOL    HW124812   2.910   1.028   2.223
 7971SOL    HW224813   2.835   0.899   2.290
 7972SOL     OW24814   6.597   4.596   1.440
 7972SOL    HW124815   6.533   4.586   1.364
 7972SOL    HW224816   6.662   4.521   1.439
 7973SOL     OW24817   5.409   3.571   3.756
 7973SOL    HW124818   5.414   3.670   3.748
 7973SOL    HW224819   5.493   3.536   3.797
 7974SOL     OW24820   5.784   0.494   4.601
 7974SOL    HW124821   5.824   0.580   4.634
 7974SOL    HW224822   5.707   0.469   4.659
 7975SOL     OW24823   4.453   0.645   4.091
 7975SOL    HW124824   4.453   0.575   4.163
 7975SOL    HW224825   4.413   0.729   4.127
 7976SOL     OW24826   0.796   6.883   5.588
 7976SOL    HW124827   0.822   6.874   5.492
 7976SOL    HW224828   0.747   6.801   5.617
 7977SOL     OW24829   4.812   5.946   2.717
 7977SOL    HW124830   4.763   5.878   2.663
 7977SOL    HW224831   4.795   6.037   2.680
 7978SOL     OW24832   4.518   4.089   6.489
 7978SOL    HW124833   4.591   4.145   6.529
 7978SOL    HW224834   4.512   4.108   6.391
 7979SOL     OW24835   3.285   0.232   4.616
 7979SOL    HW124836   3.319   0.143   4.587
 7979SOL    HW224837   3.357   0.300   4.607
 7980SOL     OW24838   3.628   5.691   0.245
 7980SOL    HW124839   3.711   5.746   0.244
 7980SOL    HW224840   3.577   5.707   0.161
 7981SOL     OW24841   0.868   5.284   2.057
 7981SOL    HW124842   0.903   5.222   2.128
 7981SOL    HW224843   0.838   5.369   2.100
 7982SOL     OW24844   6.802   2.473   0.286
 7982SOL    HW124845   6.770   2.508   0.198
 7982SOL    HW224846   6.792   2.543   0.356
 7983SOL     OW24847   5.740   1.687   3.396
 7983SOL    HW124848   5.709   1.598   3.429
 7983SOL    HW224849   5.820   1.716   3.449
 7984SOL     OW24850   0.849   2.091   1.864
 7984SOL    HW124851   0.836   2.073   1.766
 7984SOL    HW224852   0.922   2.158   1.876
 7985SOL     OW24853   1.498   0.575   2.181
 7985SOL    HW124854   1.488   0.633   2.262
 7985SOL    HW224855   1.572   0.610   2.124
 7986SOL     OW24856   3.749   1.466   6.841
 7986SOL    HW124857   3.659   1.431   6.817
 7986SOL    HW224858   3.760   1.465   6.941
 7987SOL     OW24859   0.180   3.339   5.740
 7987SOL    HW124860   0.134   3.387   5.665
 7987SOL    HW224861   0.252   3.398   5.778
 7988SOL     OW24862   2.570   2.280   4.946
 7988SOL    HW124863   2.586   2.358   5.006
 7988SOL    HW224864   2.635   2.207   4.969
 7989SOL     OW24865   3.625   2.781   5.181
 7989SOL    HW124866   3.655   2.846   5.251
 7989SOL    HW224867   3.533   2.749   5.203
 7990SOL     OW24868   1.166   3.055   3.835
 7990SOL    HW124869   1.243   3.045   3.899
 7990SOL    HW224870   1.087   3.092   3.884
 7991SOL     OW24871   6.967   2.676   6.299
 7991SOL    HW124872   6.941   2.700   6.393
 7991SOL    HW224873   0.041   2.650   6.297
 7992SOL     OW24874   1.309   6.418   1.187
 7992SOL    HW124875   1.230   6.479   1.187
 7992SOL    HW224876   1.357   6.425   1.099
 7993SOL     OW24877   2.031   5.580   6.812
 7993SOL    HW124878   1.968   5.577   6.889
 7993SOL    HW224879   2.052   5.675   6.790
 7994SOL     OW24880   4.716   0.700   4.016
 7994SOL    HW124881   4.758   0.751   4.091
 7994SOL    HW224882   4.618   0.693   4.032
 7995SOL     OW24883   4.262   5.902   3.978
 7995SOL    HW124884   4.165   5.927   3.981
 7995SOL    HW224885   4.279   5.844   3.898
 7996SOL     OW24886   3.610   6.665   4.408
 7996SOL    HW124887   3.619   6.585   4.349
 7996SOL    HW224888   3.682   6.731   4.386
 7997SOL     OW24889   6.494   1.715   1.050
 7997SOL    HW124890   6.495   1.793   1.113
 7997SOL    HW224891   6.428   1.647   1.082
 7998SOL     OW24892   4.923   5.211   0.181
 7998SOL    HW124893   4.994   5.240   0.245
 7998SOL    HW224894   4.917   5.277   0.106
 7999SOL     OW24895   1.251   0.116   5.213
 7999SOL    HW124896   1.197   0.190   5.173
 7999SOL    HW224897   1.204   0.029   5.199
 8000SOL     OW24898   5.833   0.413   6.404
 8000SOL    HW124899   5.921   0.369   6.424
 8000SOL    HW224900   5.766   0.383   6.471
 8001SOL     OW24901   2.358   6.315   1.550
 8001SOL    HW124902   2.320   6.275   1.633
 8001SOL    HW224903   2.367   6.244   1.480
 8002SOL     OW24904   0.001   3.514   5.266
 8002SOL    HW124905   0.071   3.531   5.198
 8002SOL    HW224906   6.945   3.469   5.223
 8003SOL     OW24907   2.981   4.793   2.974
 8003SOL    HW124908   3.057   4.859   2.975
 8003SOL    HW224909   2.999   4.721   3.040
 8004SOL     OW24910   2.232   4.281   3.057
 8004SOL    HW124911   2.179   4.201   3.029
 8004SOL    HW224912   2.281   4.317   2.978
 8005SOL     OW24913   3.217   1.092   2.309
 8005SOL    HW124914   3.208   1.187   2.337
 8005SOL    HW224915   3.175   1.033   2.378
 8006SOL     OW24916   2.599   5.830   0.481
 8006SOL    HW124917   2.509   5.869   0.460
 8006SOL    HW224918   2.668   5.873   0.424
 8007SOL     OW24919   0.862   0.192   3.851
 8007SOL    HW124920   0.853   0.224   3.756
 8007SOL    HW224921   0.944   0.136   3.859
 8008SOL     OW24922   5.238   6.376   6.378
 8008SOL    HW124923   5.264   6.286   6.414
 8008SOL    HW224924   5.173   6.364   6.302
 8009SOL     OW24925   6.432   0.622   3.042
 8009SOL    HW124926   6.373   0.618   3.122
 8009SOL    HW224927   6.527   0.632   3.071
 8010SOL     OW24928   2.524   1.677   6.677
 8010SOL    HW124929   2.620   1.681   6.649
 8010SOL    HW224930   2.508   1.742   6.751
 8011SOL     OW24931   2.392   2.094   1.311
 8011SOL    HW124932   2.310   2.119   1.363
 8011SOL    HW224933   2.383   2.000   1.279
 8012SOL     OW24934   1.419   6.191   1.035
 8012SOL    HW124935   1.450   6.229   1.123
 8012SOL    HW224936   1.475   6.229   0.962
 8013SOL     OW24937   6.071   4.813   4.385
 8013SOL    HW124938   6.151   4.871   4.366
 8013SOL    HW224939   6.064   4.742   4.314
 8014SOL     OW24940   1.568   5.808   6.336
 8014SOL    HW124941   1.483   5.860   6.326
 8014SOL    HW224942   1.546   5.714   6.363
 8015SOL     OW24943   3.023   2.311   0.901
 8015SOL    HW124944   3.058   2.404   0.909
 8015SOL    HW224945   2.939   2.301   0.955
 8016SOL     OW24946   4.499   0.411   0.457
 8016SOL    HW124947   4.542   0.321   0.458
 8016SOL    HW224948   4.479   0.440   0.550
 8017SOL     OW24949   0.328   4.334   5.443
 8017SOL    HW124950   0.296   4.275   5.517
 8017SOL    HW224951   0.387   4.406   5.480
 8018SOL     OW24952   5.106   1.904   5.670
 8018SOL    HW124953   5.108   1.808   5.700
 8018SOL    HW224954   5.135   1.963   5.745
 8019SOL     OW24955   1.755   4.522   0.597
 8019SOL    HW124956   1.772   4.537   0.695
 8019SOL    HW224957   1.761   4.424   0.577
 8020SOL     OW24958   5.553   6.274   6.673
 8020SOL    HW124959   5.611   6.259   6.593
 8020SOL    HW224960   5.575   6.206   6.743
 8021SOL     OW24961   0.861   1.251   1.758
 8021SOL    HW124962   0.842   1.156   1.734
 8021SOL    HW224963   0.811   1.312   1.697
 8022SOL     OW24964   4.044   0.974   2.603
 8022SOL    HW124965   4.007   1.064   2.578
 8022SOL    HW224966   4.144   0.978   2.603
 8023SOL     OW24967   6.197   6.545   2.917
 8023SOL    HW124968   6.230   6.498   2.999
 8023SOL    HW224969   6.262   6.615   2.890
 8024SOL     OW24970   3.667   5.199   6.416
 8024SOL    HW124971   3.626   5.284   6.449
 8024SOL    HW224972   3.726   5.161   6.487
 8025SOL     OW24973   3.461   6.576   6.249
 8025SOL    HW124974   3.395   6.619   6.188
 8025SOL    HW224975   3.554   6.593   6.215
 8026SOL     OW24976   0.439   3.909   6.996
 8026SOL    HW124977   0.429   4.006   7.017
 8026SOL    HW224978   0.349   3.865   6.999
 8027SOL     OW24979   4.701   2.089   5.164
 8027SOL    HW124980   4.709   2.156   5.090
 8027SOL    HW224981   4.740   2.127   5.248
 8028SOL     OW24982   4.360   5.334   6.038
 8028SOL    HW124983   4.328   5.239   6.042
 8028SOL    HW224984   4.281   5.395   6.033
 8029SOL     OW24985   5.137   4.266   6.389
 8029SOL    HW124986   5.067   4.218   6.337
 8029SOL    HW224987   5.214   4.205   6.406
 8030SOL     OW24988   5.418   4.244   5.710
 8030SOL    HW124989   5.361   4.278   5.635
 8030SOL    HW224990   5.443   4.319   5.771
 8031SOL     OW24991   4.521   5.007   2.286
 8031SOL    HW124992   4.529   4.920   2.238
 8031SOL    HW224993   4.583   5.008   2.365
 8032SOL     OW24994   6.171   3.700   5.091
 8032SOL    HW124995   6.228   3.747   5.024
 8032SOL    HW224996   6.132   3.766   5.155
 8033SOL     OW24997   5.319   2.747   7.003
 8033SOL    HW124998   5.368   2.774   0.063
 8033SOL    HW224999   5.223   2.730   0.003
 8034SOL     OW25000   6.705   0.172   5.322
 8034SOL    HW125001   6.673   0.244   5.260
 8034SOL    HW225002   6.769   0.210   5.388
 8035SOL     OW25003   5.826   6.485   5.506
 8035SOL    HW125004   5.736   6.444   5.491
 8035SOL    HW225005   5.863   6.455   5.594
 8036SOL     OW25006   1.915   3.771   1.484
 8036SOL    HW125007   1.974   3.691   1.494
 8036SOL    HW225008   1.961   3.852   1.522
 8037SOL     OW25009   1.934   3.232   0.986
 8037SOL    HW125010   2.019   3.259   0.941
 8037SOL    HW225011   1.943   3.139   1.022
 8038SOL     OW25012   5.924   2.098   3.428
 8038SOL    HW125013   6.011   2.058   3.400
 8038SOL    HW225014   5.940   2.187   3.470
 8039SOL     OW25015   1.708   6.823   2.980
 8039SOL    HW125016   1.623   6.871   3.000
 8039SOL    HW225017   1.704   6.730   3.015
 8040SOL     OW25018   0.516   5.488   0.824
 8040SOL    HW125019   0.613   5.474   0.804
 8040SOL    HW225020   0.485   5.572   0.779
 8041SOL     OW25021   3.591   1.668   1.153
 8041SOL    HW125022   3.633   1.611   1.223
 8041SOL    HW225023   3.607   1.764   1.174
 8042SOL     OW25024   3.529   2.828   1.983
 8042SOL    HW125025   3.580   2.762   1.928
 8042SOL    HW225026   3.577   2.843   2.070
 8043SOL     OW25027   2.525   0.574   0.862
 8043SOL    HW125028   2.434   0.536   0.878
 8043SOL    HW225029   2.593   0.501   0.864
 8044SOL     OW25030   3.147   3.020   1.496
 8044SOL    HW125031   3.193   3.080   1.431
 8044SOL    HW225032   3.215   2.964   1.543
 8045SOL     OW25033   5.816   1.431   2.769
 8045SOL    HW125034   5.892   1.475   2.722
 8045SOL    HW225035   5.827   1.441   2.868
 8046SOL     OW25036   5.524   4.414   5.883
 8046SOL    HW125037   5.540   4.509   5.855
 8046SOL    HW225038   5.612   4.368   5.896
 8047SOL     OW25039   3.461   5.386   4.797
 8047SOL    HW125040   3.467   5.397   4.897
 8047SOL    HW225041   3.546   5.346   4.763
 8048SOL     OW25042   5.609   1.063   5.384
 8048SOL    HW125043   5.563   1.029   5.302
 8048SOL    HW225044   5.565   1.026   5.465
 8049SOL     OW25045   0.813   6.601   1.155
 8049SOL    HW125046   0.770   6.526   1.204
 8049SOL    HW225047   0.867   6.656   1.219
 8050SOL     OW25048   1.489   3.078   1.068
 8050SOL    HW125049   1.404   3.066   1.018
 8050SOL    HW225050   1.540   2.992   1.068
 8051SOL     OW25051   5.032   6.934   3.139
 8051SOL    HW125052   4.960   6.970   3.079
 8051SOL    HW225053   5.004   6.943   3.234
 8052SOL     OW25054   3.454   1.737   2.256
 8052SOL    HW125055   3.356   1.754   2.271
 8052SOL    HW225056   3.469   1.718   2.159
 8053SOL     OW25057   4.006   3.779   2.894
 8053SOL    HW125058   3.933   3.714   2.918
 8053SOL    HW225059   4.094   3.745   2.927
 8054SOL     OW25060   4.360   6.855   4.626
 8054SOL    HW125061   4.344   6.923   4.698
 8054SOL    HW225062   4.458   6.836   4.621
 8055SOL     OW25063   0.414   0.436   6.068
 8055SOL    HW125064   0.411   0.499   5.990
 8055SOL    HW225065   0.509   0.420   6.095
 8056SOL     OW25066   3.825   1.234   3.118
 8056SOL    HW125067   3.793   1.197   3.030
 8056SOL    HW225068   3.800   1.330   3.125
 8057SOL     OW25069   2.650   0.386   2.587
 8057SOL    HW125070   2.623   0.304   2.537
 8057SOL    HW225071   2.749   0.399   2.581
 8058SOL     OW25072   3.016   7.001   2.696
 8058SOL    HW125073   2.986   0.038   2.621
 8058SOL    HW225074   3.067   0.033   2.762
 8059SOL     OW25075   3.761   2.073   4.613
 8059SOL    HW125076   3.793   2.067   4.519
 8059SOL    HW225077   3.830   2.118   4.669
 8060SOL     OW25078   0.658   1.373   4.981
 8060SOL    HW125079   0.574   1.341   5.025
 8060SOL    HW225080   0.722   1.405   5.052
 8061SOL     OW25081   6.695   5.494   2.457
 8061SOL    HW125082   6.715   5.579   2.506
 8061SOL    HW225083   6.608   5.504   2.407
 8062SOL     OW25084   1.486   4.243   4.473
 8062SOL    HW125085   1.500   4.339   4.446
 8062SOL    HW225086   1.437   4.196   4.400
 8063SOL     OW25087   2.157   3.830   6.946
 8063SOL    HW125088   2.220   3.901   6.978
 8063SOL    HW225089   2.081   3.874   6.898
 8064SOL     OW25090   0.309   4.539   0.065
 8064SOL    HW125091   0.285   4.451   0.024
 8064SOL    HW225092   0.263   4.548   0.153
 8065SOL     OW25093   4.323   0.040   4.803
 8065SOL    HW125094   4.246   0.061   4.742
 8065SOL    HW225095   4.382   0.120   4.811
 8066SOL     OW25096   1.695   1.145   6.899
 8066SOL    HW125097   1.602   1.110   6.909
 8066SOL    HW225098   1.749   1.118   6.979
 8067SOL     OW25099   3.925   3.026   1.643
 8067SOL    HW125100   3.937   2.936   1.684
 8067SOL    HW225101   3.928   3.019   1.544
 8068SOL     OW25102   6.661   5.609   5.031
 8068SOL    HW125103   6.760   5.622   5.028
 8068SOL    HW225104   6.617   5.697   5.047
 8069SOL     OW25105   2.364   6.075   1.366
 8069SOL    HW125106   2.309   6.031   1.437
 8069SOL    HW225107   2.445   6.019   1.347
 8070SOL     OW25108   3.116   5.689   1.324
 8070SOL    HW125109   3.086   5.603   1.366
 8070SOL    HW225110   3.058   5.763   1.356
 8071SOL     OW25111   4.249   6.610   5.097
 8071SOL    HW125112   4.310   6.576   5.169
 8071SOL    HW225113   4.154   6.598   5.127
 8072SOL     OW25114   4.422   1.377   0.485
 8072SOL    HW125115   4.418   1.307   0.556
 8072SOL    HW225116   4.441   1.334   0.397
 8073SOL     OW25117   5.011   6.965   6.252
 8073SOL    HW125118   5.009   6.903   6.331
 8073SOL    HW225119   4.943   6.935   6.185
 8074SOL     OW25120   2.847   3.768   0.608
 8074SOL    HW125121   2.779   3.700   0.637
 8074SOL    HW225122   2.827   3.795   0.514
 8075SOL     OW25123   6.642   1.413   1.667
 8075SOL    HW125124   6.653   1.442   1.572
 8075SOL    HW225125   6.730   1.381   1.702
 8076SOL     OW25126   4.723   2.496   5.472
 8076SOL    HW125127   4.822   2.481   5.463
 8076SOL    HW225128   4.674   2.426   5.421
 8077SOL     OW25129   0.966   6.762   1.323
 8077SOL    HW125130   1.024   6.745   1.402
 8077SOL    HW225131   0.913   6.846   1.338
 8078SOL     OW25132   6.505   1.642   0.495
 8078SOL    HW125133   6.501   1.737   0.462
 8078SOL    HW225134   6.508   1.641   0.595
 8079SOL     OW25135   6.391   2.160   3.085
 8079SOL    HW125136   6.452   2.134   3.160
 8079SOL    HW225137   6.408   2.255   3.060
 8080SOL     OW25138   2.021   3.528   0.529
 8080SOL    HW125139   1.948   3.487   0.584
 8080SOL    HW225140   2.013   3.627   0.533
 8081SOL     OW25141   5.565   1.382   5.408
 8081SOL    HW125142   5.653   1.338   5.395
 8081SOL    HW225143   5.515   1.335   5.481
 8082SOL     OW25144   5.797   2.557   3.208
 8082SOL    HW125145   5.893   2.531   3.215
 8082SOL    HW225146   5.747   2.522   3.287
 8083SOL     OW25147   5.202   3.356   2.377
 8083SOL    HW125148   5.196   3.433   2.314
 8083SOL    HW225149   5.289   3.308   2.363
 8084SOL     OW25150   6.571   5.999   1.242
 8084SOL    HW125151   6.561   6.093   1.207
 8084SOL    HW225152   6.544   5.997   1.338
 8085SOL     OW25153   5.629   6.895   1.311
 8085SOL    HW125154   5.541   6.856   1.285
 8085SOL    HW225155   5.668   6.945   1.234
 8086SOL     OW25156   4.237   0.226   4.091
 8086SOL    HW125157   4.277   0.249   4.180
 8086SOL    HW225158   4.259   0.298   4.025
 8087SOL     OW25159   2.676   2.467   1.072
 8087SOL    HW125160   2.725   2.384   1.044
 8087SOL    HW225161   2.740   2.543   1.081
 8088SOL     OW25162   6.137   1.073   1.968
 8088SOL    HW125163   6.115   1.112   2.057
 8088SOL    HW225164   6.070   1.003   1.944
 8089SOL     OW25165   5.181   3.471   0.067
 8089SOL    HW125166   5.182   3.422   7.002
 8089SOL    HW225167   5.087   3.497   0.090
 8090SOL     OW25168   5.302   2.135   6.580
 8090SOL    HW125169   5.283   2.197   6.504
 8090SOL    HW225170   5.331   2.047   6.544
 8091SOL     OW25171   3.196   4.601   0.036
 8091SOL    HW125172   3.163   4.681   0.087
 8091SOL    HW225173   3.160   4.604   6.966
 8092SOL     OW25174   1.164   1.255   4.669
 8092SOL    HW125175   1.068   1.281   4.682
 8092SOL    HW225176   1.200   1.218   4.754
 8093SOL     OW25177   6.212   5.492   1.293
 8093SOL    HW125178   6.126   5.509   1.245
 8093SOL    HW225179   6.224   5.394   1.306
 8094SOL     OW25180   1.673   4.317   6.217
 8094SOL    HW125181   1.645   4.235   6.168
 8094SOL    HW225182   1.628   4.318   6.307
 8095SOL     OW25183   5.901   3.655   4.653
 8095SOL    HW125184   5.920   3.557   4.658
 8095SOL    HW225185   5.973   3.700   4.601
 8096SOL     OW25186   2.858   5.483   2.870
 8096SOL    HW125187   2.888   5.487   2.965
 8096SOL    HW225188   2.937   5.477   2.809
 8097SOL     OW25189   4.967   0.203   3.255
 8097SOL    HW125190   4.955   0.296   3.218
 8097SOL    HW225191   4.893   0.145   3.223
 8098SOL     OW25192   2.378   5.816   4.065
 8098SOL    HW125193   2.346   5.851   3.977
 8098SOL    HW225194   2.304   5.822   4.132
 8099SOL     OW25195   6.041   6.974   4.456
 8099SOL    HW125196   6.070   0.013   4.530
 8099SOL    HW225197   6.121   6.943   4.405
 8100SOL     OW25198   0.359   6.649   0.153
 8100SOL    HW125199   0.418   6.605   0.085
 8100SOL    HW225200   0.307   6.579   0.202
 8101SOL     OW25201   1.456   6.974   5.262
 8101SOL    HW125202   1.391   0.027   5.252
 8101SOL    HW225203   1.413   6.898   5.311
 8102SOL     OW25204   0.687   5.140   6.251
 8102SOL    HW125205   0.605   5.177   6.209
 8102SOL    HW225206   0.686   5.160   6.349
 8103SOL     OW25207   4.055   1.460   1.845
 8103SOL    HW125208   4.067   1.533   1.777
 8103SOL    HW225209   4.127   1.467   1.914
 8104SOL     OW25210   4.005   6.922   5.582
 8104SOL    HW125211   4.071   6.928   5.508
 8104SOL    HW225212   4.044   6.960   5.666
 8105SOL     OW25213   2.456   2.166   3.768
 8105SOL    HW125214   2.401   2.142   3.688
 8105SOL    HW225215   2.533   2.103   3.776
 8106SOL     OW25216   1.435   4.630   3.377
 8106SOL    HW125217   1.382   4.579   3.310
 8106SOL    HW225218   1.375   4.697   3.422
 8107SOL     OW25219   2.214   6.274   5.854
 8107SOL    HW125220   2.182   6.181   5.875
 8107SOL    HW225221   2.199   6.293   5.757
 8108SOL     OW25222   6.653   3.551   4.789
 8108SOL    HW125223   6.555   3.549   4.811
 8108SOL    HW225224   6.701   3.609   4.856
 8109SOL     OW25225   2.162   4.790   5.150
 8109SOL    HW125226   2.118   4.701   5.139
 8109SOL    HW225227   2.107   4.848   5.210
 8110SOL     OW25228   2.205   6.488   0.395
 8110SOL    HW125229   2.204   6.538   0.482
 8110SOL    HW225230   2.282   6.518   0.340
 8111SOL     OW25231   2.554   6.509   5.175
 8111SOL    HW125232   2.624   6.566   5.132
 8111SOL    HW225233   2.554   6.419   5.133
 8112SOL     OW25234   2.877   0.573   5.510
 8112SOL    HW125235   2.780   0.555   5.493
 8112SOL    HW225236   2.890   0.670   5.531
 8113SOL     OW25237   3.412   2.392   0.552
 8113SOL    HW125238   3.496   2.443   0.535
 8113SOL    HW225239   3.343   2.418   0.485
 8114SOL     OW25240   2.194   3.011   2.608
 8114SOL    HW125241   2.187   3.043   2.514
 8114SOL    HW225242   2.235   2.920   2.610
 8115SOL     OW25243   3.696   1.498   1.320
 8115SOL    HW125244   3.782   1.452   1.299
 8115SOL    HW225245   3.681   1.498   1.419
 8116SOL     OW25246   6.109   6.792   5.218
 8116SOL    HW125247   6.162   6.830   5.142
 8116SOL    HW225248   6.150   6.820   5.305
 8117SOL     OW25249   1.433   1.823   4.178
 8117SOL    HW125250   1.438   1.916   4.215
 8117SOL    HW225251   1.373   1.767   4.236
 8118SOL     OW25252   0.983   4.241   5.458
 8118SOL    HW125253   1.001   4.292   5.374
 8118SOL    HW225254   0.923   4.163   5.437
 8119SOL     OW25255   0.562   5.013   3.576
 8119SOL    HW125256   0.657   5.039   3.563
 8119SOL    HW225257   0.528   5.050   3.663
 8120SOL     OW25258   4.111   4.512   0.576
 8120SOL    HW125259   4.190   4.472   0.529
 8120SOL    HW225260   4.142   4.571   0.650
 8121SOL     OW25261   0.231   6.572   2.885
 8121SOL    HW125262   0.244   6.610   2.977
 8121SOL    HW225263   0.143   6.601   2.849
 8122SOL     OW25264   0.728   5.379   1.401
 8122SOL    HW125265   0.707   5.323   1.321
 8122SOL    HW225266   0.806   5.438   1.382
 8123SOL     OW25267   0.977   7.013   6.263
 8123SOL    HW125268   0.941   6.951   6.333
 8123SOL    HW225269   1.074   6.995   6.249
 8124SOL     OW25270   1.780   5.949   1.164
 8124SOL    HW125271   1.815   5.855   1.171
 8124SOL    HW225272   1.784   5.978   1.068
 8125SOL     OW25273   6.172   4.640   2.716
 8125SOL    HW125274   6.142   4.719   2.768
 8125SOL    HW225275   6.218   4.670   2.632
 8126SOL     OW25276   5.644   4.326   3.018
 8126SOL    HW125277   5.606   4.397   3.078
 8126SOL    HW225278   5.657   4.365   2.926
 8127SOL     OW25279   2.072   5.368   0.860
 8127SOL    HW125280   2.049   5.446   0.801
 8127SOL    HW225281   1.992   5.309   0.870
 8128SOL     OW25282   3.181   2.801   6.606
 8128SOL    HW125283   3.117   2.859   6.555
 8128SOL    HW225284   3.157   2.802   6.703
 8129SOL     OW25285   5.603   0.785   6.324
 8129SOL    HW125286   5.512   0.753   6.351
 8129SOL    HW225287   5.623   0.872   6.369
 8130SOL     OW25288   0.965   5.277   6.187
 8130SOL    HW125289   0.867   5.258   6.182
 8130SOL    HW225290   0.988   5.353   6.127
 8131SOL     OW25291   3.395   1.259   0.457
 8131SOL    HW125292   3.316   1.252   0.396
 8131SOL    HW225293   3.406   1.173   0.507
 8132SOL     OW25294   6.195   5.334   4.612
 8132SOL    HW125295   6.272   5.359   4.671
 8132SOL    HW225296   6.201   5.385   4.526
 8133SOL     OW25297   3.130   5.411   3.339
 8133SOL    HW125298   3.126   5.351   3.420
 8133SOL    HW225299   3.194   5.486   3.356
 8134SOL     OW25300   1.833   2.041   4.295
 8134SOL    HW125301   1.805   1.947   4.315
 8134SOL    HW225302   1.924   2.057   4.333
 8135SOL     OW25303   3.178   4.959   2.102
 8135SOL    HW125304   3.233   4.925   2.026
 8135SOL    HW225305   3.093   4.906   2.108
 8136SOL     OW25306   3.771   5.248   2.407
 8136SOL    HW125307   3.862   5.206   2.415
 8136SOL    HW225308   3.747   5.256   2.310
 8137SOL     OW25309   1.906   3.261   4.963
 8137SOL    HW125310   1.933   3.252   4.867
 8137SOL    HW225311   1.987   3.278   5.020
 8138SOL     OW25312   5.601   1.811   2.029
 8138SOL    HW125313   5.541   1.755   2.086
 8138SOL    HW225314   5.603   1.904   2.066
 8139SOL     OW25315   0.722   3.120   3.362
 8139SOL    HW125316   0.632   3.150   3.394
 8139SOL    HW225317   0.734   3.146   3.266
 8140SOL     OW25318   4.503   6.805   0.122
 8140SOL    HW125319   4.500   6.903   0.139
 8140SOL    HW225320   4.506   6.755   0.209
 8141SOL     OW25321   4.883   1.514   5.632
 8141SOL    HW125322   4.954   1.454   5.594
 8141SOL    HW225323   4.810   1.526   5.565
 8142SOL     OW25324   2.370   5.900   0.363
 8142SOL    HW125325   2.319   5.878   0.446
 8142SOL    HW225326   2.309   5.896   0.284
 8143SOL     OW25327   5.298   4.682   0.616
 8143SOL    HW125328   5.253   4.621   0.681
 8143SOL    HW225329   5.240   4.695   0.536
 8144SOL     OW25330   0.485   5.888   5.489
 8144SOL    HW125331   0.423   5.916   5.417
 8144SOL    HW225332   0.488   5.958   5.561
 8145SOL     OW25333   5.760   5.718   0.606
 8145SOL    HW125334   5.810   5.804   0.598
 8145SOL    HW225335   5.671   5.735   0.647
 8146SOL     OW25336   5.910   0.135   4.735
 8146SOL    HW125337   5.925   0.224   4.692
 8146SOL    HW225338   5.812   0.118   4.744
 8147SOL     OW25339   0.794   0.445   6.414
 8147SOL    HW125340   0.815   0.527   6.466
 8147SOL    HW225341   0.852   0.369   6.444
 8148SOL     OW25342   4.141   3.907   6.984
 8148SOL    HW125343   4.210   3.962   6.938
 8148SOL    HW225344   4.160   3.905   0.060
 8149SOL     OW25345   1.445   0.161   4.581
 8149SOL    HW125346   1.426   0.245   4.630
 8149SOL    HW225347   1.484   0.182   4.491
 8150SOL     OW25348   0.853   3.200   1.027
 8150SOL    HW125349   0.788   3.249   1.085
 8150SOL    HW225350   0.824   3.206   0.932
 8151SOL     OW25351   6.050   4.739   3.708
 8151SOL    HW125352   6.114   4.698   3.773
 8151SOL    HW225353   5.976   4.784   3.758
 8152SOL     OW25354   4.540   1.884   3.170
 8152SOL    HW125355   4.480   1.805   3.183
 8152SOL    HW225356   4.574   1.884   3.076
 8153SOL     OW25357   0.804   0.347   3.606
 8153SOL    HW125358   0.899   0.354   3.578
 8153SOL    HW225359   0.744   0.375   3.531
 8154SOL     OW25360   2.394   1.664   3.464
 8154SOL    HW125361   2.296   1.675   3.482
 8154SOL    HW225362   2.407   1.606   3.384
 8155SOL     OW25363   1.271   4.456   2.385
 8155SOL    HW125364   1.323   4.371   2.378
 8155SOL    HW225365   1.251   4.475   2.481
 8156SOL     OW25366   5.845   5.414   1.305
 8156SOL    HW125367   5.820   5.460   1.391
 8156SOL    HW225368   5.884   5.481   1.242
 8157SOL     OW25369   6.076   3.458   6.225
 8157SOL    HW125370   6.059   3.365   6.257
 8157SOL    HW225371   6.175   3.474   6.220
 8158SOL     OW25372   5.554   4.938   6.098
 8158SOL    HW125373   5.507   5.023   6.121
 8158SOL    HW225374   5.634   4.927   6.157
 8159SOL     OW25375   3.999   6.723   5.892
 8159SOL    HW125376   3.933   6.699   5.820
 8159SOL    HW225377   4.031   6.816   5.879
 8160SOL     OW25378   5.553   1.488   3.238
 8160SOL    HW125379   5.588   1.476   3.331
 8160SOL    HW225380   5.480   1.422   3.221
 8161SOL     OW25381   5.503   3.520   0.370
 8161SOL    HW125382   5.431   3.461   0.406
 8161SOL    HW225383   5.469   3.569   0.290
 8162SOL     OW25384   0.107   4.910   6.874
 8162SOL    HW125385   0.067   4.951   6.955
 8162SOL    HW225386   0.035   4.884   6.810
 8163SOL     OW25387   4.219   4.827   5.429
 8163SOL    HW125388   4.270   4.910   5.405
 8163SOL    HW225389   4.177   4.839   5.519
 8164SOL     OW25390   4.754   0.543   0.040
 8164SOL    HW125391   4.704   0.623   0.007
 8164SOL    HW225392   4.762   0.476   6.989
 8165SOL     OW25393   6.520   3.056   6.466
 8165SOL    HW125394   6.434   3.016   6.433
 8165SOL    HW225395   6.591   3.041   6.397
 8166SOL     OW25396   1.464   2.176   3.905
 8166SOL    HW125397   1.464   2.078   3.886
 8166SOL    HW225398   1.509   2.193   3.993
 8167SOL     OW25399   6.442   1.124   4.090
 8167SOL    HW125400   6.424   1.034   4.129
 8167SOL    HW225401   6.390   1.193   4.139
 8168SOL     OW25402   2.153   0.763   1.462
 8168SOL    HW125403   2.193   0.746   1.372
 8168SOL    HW225404   2.119   0.678   1.500
 8169SOL     OW25405   4.789   1.614   7.017
 8169SOL    HW125406   4.760   1.596   0.089
 8169SOL    HW225407   4.760   1.538   6.959
 8170SOL     OW25408   6.735   3.911   2.030
 8170SOL    HW125409   6.776   3.985   1.976
 8170SOL    HW225410   6.799   3.883   2.102
 8171SOL     OW25411   1.576   1.390   6.926
 8171SOL    HW125412   1.599   1.293   6.917
 8171SOL    HW225413   1.499   1.412   6.867
 8172SOL     OW25414   0.309   1.945   1.591
 8172SOL    HW125415   0.277   2.005   1.664
 8172SOL    HW225416   0.347   1.861   1.630
 8173SOL     OW25417   5.931   2.510   2.557
 8173SOL    HW125418   5.833   2.501   2.540
 8173SOL    HW225419   5.980   2.434   2.514
 8174SOL     OW25420   1.520   6.075   2.225
 8174SOL    HW125421   1.547   6.161   2.268
 8174SOL    HW225422   1.446   6.092   2.159
 8175SOL     OW25423   1.075   2.343   4.168
 8175SOL    HW125424   1.052   2.250   4.139
 8175SOL    HW225425   1.155   2.375   4.117
 8176SOL     OW25426   1.921   4.398   1.366
 8176SOL    HW125427   1.910   4.319   1.427
 8176SOL    HW225428   1.995   4.381   1.302
 8177SOL     OW25429   3.466   1.164   3.039
 8177SOL    HW125430   3.542   1.135   2.982
 8177SOL    HW225431   3.449   1.261   3.025
 8178SOL     OW25432   2.644   6.543   0.381
 8178SOL    HW125433   2.590   6.525   0.463
 8178SOL    HW225434   2.741   6.552   0.407
 8179SOL     OW25435   5.298   0.784   4.387
 8179SOL    HW125436   5.360   0.708   4.405
 8179SOL    HW225437   5.346   0.870   4.402
 8180SOL     OW25438   5.678   6.706   6.511
 8180SOL    HW125439   5.582   6.688   6.529
 8180SOL    HW225440   5.694   6.805   6.507
 8181SOL     OW25441   0.786   0.966   0.658
 8181SOL    HW125442   0.788   0.869   0.633
 8181SOL    HW225443   0.866   0.987   0.713
 8182SOL     OW25444   3.751   3.702   5.049
 8182SOL    HW125445   3.668   3.657   5.080
 8182SOL    HW225446   3.791   3.650   4.974
 8183SOL     OW25447   6.519   0.826   4.967
 8183SOL    HW125448   6.454   0.859   4.899
 8183SOL    HW225449   6.514   0.885   5.048
 8184SOL     OW25450   1.338   7.000   6.673
 8184SOL    HW125451   1.409   6.932   6.694
 8184SOL    HW225452   1.375   0.069   6.686
 8185SOL     OW25453   1.701   0.699   0.966
 8185SOL    HW125454   1.615   0.750   0.960
 8185SOL    HW225455   1.768   0.754   1.016
 8186SOL     OW25456   1.528   5.011   6.433
 8186SOL    HW125457   1.442   5.002   6.382
 8186SOL    HW225458   1.573   5.096   6.406
 8187SOL     OW25459   2.189   1.887   5.368
 8187SOL    HW125460   2.241   1.829   5.306
 8187SOL    HW225461   2.218   1.982   5.356
 8188SOL     OW25462   4.394   1.944   3.890
 8188SOL    HW125463   4.408   2.011   3.964
 8188SOL    HW225464   4.440   1.977   3.807
 8189SOL     OW25465   4.830   4.992   3.654
 8189SOL    HW125466   4.912   4.936   3.644
 8189SOL    HW225467   4.787   4.973   3.743
 8190SOL     OW25468   5.686   3.858   3.125
 8190SOL    HW125469   5.665   3.771   3.080
 8190SOL    HW225470   5.718   3.841   3.218
 8191SOL     OW25471   4.525   4.989   1.952
 8191SOL    HW125472   4.526   4.902   1.999
 8191SOL    HW225473   4.587   5.053   1.999
 8192SOL     OW25474   1.813   5.153   2.855
 8192SOL    HW125475   1.761   5.234   2.826
 8192SOL    HW225476   1.750   5.076   2.865
 8193SOL     OW25477   6.957   5.370   4.562
 8193SOL    HW125478   6.923   5.338   4.651
 8193SOL    HW225479   6.888   5.354   4.492
 8194SOL     OW25480   4.409   7.014   0.968
 8194SOL    HW125481   4.434   0.004   1.064
 8194SOL    HW225482   4.453   0.063   0.913
 8195SOL     OW25483   5.948   6.465   4.040
 8195SOL    HW125484   5.915   6.542   4.095
 8195SOL    HW225485   5.880   6.443   3.970
 8196SOL     OW25486   4.824   0.505   0.301
 8196SOL    HW125487   4.790   0.526   0.210
 8196SOL    HW225488   4.810   0.584   0.361
 8197SOL     OW25489   5.020   1.679   1.806
 8197SOL    HW125490   5.112   1.703   1.838
 8197SOL    HW225491   4.963   1.761   1.804
 8198SOL     OW25492   2.884   0.657   1.811
 8198SOL    HW125493   2.887   0.742   1.863
 8198SOL    HW225494   2.788   0.630   1.798
 8199SOL     OW25495   4.409   2.695   5.969
 8199SOL    HW125496   4.498   2.733   5.945
 8199SOL    HW225497   4.400   2.603   5.931
 8200SOL     OW25498   5.710   4.135   1.801
 8200SOL    HW125499   5.654   4.209   1.839
 8200SOL    HW225500   5.792   4.124   1.857
 8201SOL     OW25501   0.270   0.825   4.844
 8201SOL    HW125502   0.351   0.785   4.888
 8201SOL    HW225503   0.198   0.756   4.838
 8202SOL     OW25504   0.487   6.263   2.171
 8202SOL    HW125505   0.435   6.257   2.086
 8202SOL    HW225506   0.481   6.176   2.220
 8203SOL     OW25507   2.080   2.152   6.869
 8203SOL    HW125508   2.096   2.210   6.948
 8203SOL    HW225509   2.164   2.141   6.817
 8204SOL     OW25510   4.234   3.613   0.910
 8204SOL    HW125511   4.167   3.687   0.902
 8204SOL    HW225512   4.266   3.588   0.818
 8205SOL     OW25513   0.692   2.306   0.328
 8205SOL    HW125514   0.627   2.336   0.398
 8205SOL    HW225515   0.649   2.236   0.271
 8206SOL     OW25516   4.404   1.305   6.926
 8206SOL    HW125517   4.401   1.207   6.906
 8206SOL    HW225518   4.375   1.355   6.844
 8207SOL     OW25519   3.249   3.416   4.019
 8207SOL    HW125520   3.216   3.475   3.945
 8207SOL    HW225521   3.231   3.320   3.996
 8208SOL     OW25522   0.549   1.179   0.251
 8208SOL    HW125523   0.614   1.145   0.318
 8208SOL    HW225524   0.545   1.117   0.173
 8209SOL     OW25525   0.182   0.988   5.082
 8209SOL    HW125526   0.192   1.004   4.984
 8209SOL    HW225527   0.264   0.940   5.116
 8210SOL     OW25528   1.738   2.677   0.188
 8210SOL    HW125529   1.734   2.771   0.220
 8210SOL    HW225530   1.762   2.616   0.264
 8211SOL     OW25531   3.274   4.286   1.274
 8211SOL    HW125532   3.359   4.267   1.323
 8211SOL    HW225533   3.199   4.293   1.340
 8212SOL     OW25534   1.093   2.100   3.142
 8212SOL    HW125535   1.044   2.015   3.122
 8212SOL    HW225536   1.038   2.178   3.111
 8213SOL     OW25537   6.927   4.587   2.221
 8213SOL    HW125538   6.854   4.575   2.288
 8213SOL    HW225539   6.922   4.514   2.153
 8214SOL     OW25540   5.663   4.940   3.284
 8214SOL    HW125541   5.736   4.884   3.323
 8214SOL    HW225542   5.689   4.969   3.192
 8215SOL     OW25543   3.350   5.810   5.135
 8215SOL    HW125544   3.355   5.898   5.183
 8215SOL    HW225545   3.417   5.809   5.060
 8216SOL     OW25546   5.327   5.658   4.287
 8216SOL    HW125547   5.232   5.643   4.260
 8216SOL    HW225548   5.335   5.651   4.387
 8217SOL     OW25549   2.073   4.485   0.418
 8217SOL    HW125550   2.082   4.448   0.510
 8217SOL    HW225551   2.148   4.549   0.401
 8218SOL     OW25552   0.717   1.626   6.731
 8218SOL    HW125553   0.795   1.687   6.740
 8218SOL    HW225554   0.678   1.609   6.822
 8219SOL     OW25555   4.785   1.988   0.597
 8219SOL    HW125556   4.816   2.048   0.523
 8219SOL    HW225557   4.776   2.041   0.681
 8220SOL     OW25558   3.656   2.874   3.365
 8220SOL    HW125559   3.641   2.909   3.457
 8220SOL    HW225560   3.750   2.892   3.337
 8221SOL     OW25561   4.822   5.917   4.204
 8221SOL    HW125562   4.816   5.824   4.239
 8221SOL    HW225563   4.773   5.923   4.117
 8222SOL     OW25564   5.431   1.653   2.152
 8222SOL    HW125565   5.401   1.646   2.057
 8222SOL    HW225566   5.352   1.645   2.213
 8223SOL     OW25567   1.013   4.558   5.464
 8223SOL    HW125568   1.003   4.479   5.404
 8223SOL    HW225569   1.050   4.635   5.412
 8224SOL     OW25570   1.037   2.642   2.884
 8224SOL    HW125571   1.080   2.701   2.952
 8224SOL    HW225572   0.957   2.599   2.924
 8225SOL     OW25573   4.284   1.201   0.690
 8225SOL    HW125574   4.331   1.214   0.778
 8225SOL    HW225575   4.218   1.127   0.698
 8226SOL     OW25576   4.618   0.665   1.889
 8226SOL    HW125577   4.688   0.718   1.842
 8226SOL    HW225578   4.626   0.569   1.863
 8227SOL     OW25579   0.720   2.403   3.877
 8227SOL    HW125580   0.784   2.367   3.809
 8227SOL    HW225581   0.771   2.440   3.954
 8228SOL     OW25582   6.884   2.779   6.053
 8228SOL    HW125583   6.920   2.758   6.144
 8228SOL    HW225584   6.941   2.850   6.010
 8229SOL     OW25585   3.412   4.768   0.288
 8229SOL    HW125586   3.449   4.839   0.347
 8229SOL    HW225587   3.483   4.736   0.226
 8230SOL     OW25588   5.366   0.114   5.449
 8230SOL    HW125589   5.381   0.208   5.419
 8230SOL    HW225590   5.284   0.110   5.507
 8231SOL     OW25591   3.877   6.065   1.755
 8231SOL    HW125592   3.823   6.095   1.834
 8231SOL    HW225593   3.836   6.101   1.672
 8232SOL     OW25594   4.686   1.192   0.629
 8232SOL    HW125595   4.599   1.178   0.677
 8232SOL    HW225596   4.754   1.127   0.665
 8233SOL     OW25597   0.813   5.892   6.314
 8233SOL    HW125598   0.806   5.906   6.215
 8233SOL    HW225599   0.903   5.925   6.346
 8234SOL     OW25600   2.472   3.158   0.429
 8234SOL    HW125601   2.468   3.208   0.342
 8234SOL    HW225602   2.477   3.060   0.410
 8235SOL     OW25603   2.318   2.844   0.756
 8235SOL    HW125604   2.306   2.918   0.822
 8235SOL    HW225605   2.229   2.813   0.723
 8236SOL     OW25606   6.570   3.885   0.140
 8236SOL    HW125607   6.593   3.792   0.168
 8236SOL    HW225608   6.539   3.937   0.219
 8237SOL     OW25609   4.877   6.371   4.563
 8237SOL    HW125610   4.880   6.402   4.658
 8237SOL    HW225611   4.959   6.402   4.515
 8238SOL     OW25612   1.680   4.006   0.051
 8238SOL    HW125613   1.721   4.093   0.022
 8238SOL    HW225614   1.583   4.019   0.067
 8239SOL     OW25615   6.309   1.768   5.643
 8239SOL    HW125616   6.382   1.721   5.693
 8239SOL    HW225617   6.344   1.852   5.603
 8240SOL     OW25618   3.531   3.759   2.598
 8240SOL    HW125619   3.570   3.743   2.689
 8240SOL    HW225620   3.584   3.707   2.530
 8241SOL     OW25621   3.545   6.387   0.355
 8241SOL    HW125622   3.578   6.316   0.418
 8241SOL    HW225623   3.580   6.368   0.264
 8242SOL     OW25624   1.277   4.752   5.760
 8242SOL    HW125625   1.352   4.797   5.808
 8242SOL    HW225626   1.274   4.656   5.786
 8243SOL     OW25627   1.127   2.980   6.950
 8243SOL    HW125628   1.090   2.888   6.937
 8243SOL    HW225629   1.198   2.997   6.882
 8244SOL     OW25630   0.569   6.510   3.374
 8244SOL    HW125631   0.625   6.496   3.292
 8244SOL    HW225632   0.598   6.593   3.421
 8245SOL     OW25633   3.553   1.091   2.654
 8245SOL    HW125634   3.489   1.163   2.627
 8245SOL    HW225635   3.602   1.059   2.573
 8246SOL     OW25636   6.924   3.915   5.643
 8246SOL    HW125637   6.905   4.000   5.692
 8246SOL    HW225638   7.018   3.917   5.607
 8247SOL     OW25639   1.129   0.938   1.585
 8247SOL    HW125640   1.224   0.929   1.556
 8247SOL    HW225641   1.073   0.869   1.538
 8248SOL     OW25642   5.694   4.585   3.368
 8248SOL    HW125643   5.746   4.584   3.282
 8248SOL    HW225644   5.713   4.671   3.416
 8249SOL     OW25645   1.967   3.689   4.772
 8249SOL    HW125646   2.013   3.769   4.811
 8249SOL    HW225647   1.902   3.652   4.838
 8250SOL     OW25648   3.137   4.019   2.339
 8250SOL    HW125649   3.236   4.025   2.329
 8250SOL    HW225650   3.102   4.103   2.381
 8251SOL     OW25651   6.145   2.586   4.600
 8251SOL    HW125652   6.081   2.652   4.559
 8251SOL    HW225653   6.096   2.501   4.620
 8252SOL     OW25654   3.151   3.321   0.244
 8252SOL    HW125655   3.156   3.419   0.226
 8252SOL    HW225656   3.155   3.305   0.342
 8253SOL     OW25657   3.359   3.904   4.909
 8253SOL    HW125658   3.408   3.871   4.829
 8253SOL    HW225659   3.411   3.884   4.992
 8254SOL     OW25660   4.429   4.614   4.478
 8254SOL    HW125661   4.476   4.548   4.421
 8254SOL    HW225662   4.417   4.699   4.427
 8255SOL     OW25663   3.735   5.968   4.860
 8255SOL    HW125664   3.754   6.042   4.925
 8255SOL    HW225665   3.705   5.887   4.909
 8256SOL     OW25666   6.357   0.137   2.578
 8256SOL    HW125667   6.440   0.191   2.569
 8256SOL    HW225668   6.278   0.199   2.583
 8257SOL     OW25669   6.571   3.887   3.428
 8257SOL    HW125670   6.666   3.878   3.398
 8257SOL    HW225671   6.562   3.970   3.484
 8258SOL     OW25672   5.197   1.206   0.473
 8258SOL    HW125673   5.236   1.193   0.382
 8258SOL    HW225674   5.242   1.283   0.518
 8259SOL     OW25675   3.993   1.771   3.859
 8259SOL    HW125676   4.021   1.824   3.939
 8259SOL    HW225677   4.003   1.828   3.777
 8260SOL     OW25678   2.832   0.585   1.171
 8260SOL    HW125679   2.897   0.652   1.135
 8260SOL    HW225680   2.759   0.632   1.220
 8261SOL     OW25681   6.017   1.392   1.225
 8261SOL    HW125682   6.007   1.417   1.321
 8261SOL    HW225683   6.070   1.463   1.178
 8262SOL     OW25684   0.776   2.638   0.858
 8262SOL    HW125685   0.825   2.707   0.912
 8262SOL    HW225686   0.719   2.684   0.790
 8263SOL     OW25687   6.962   2.279   0.183
 8263SOL    HW125688   6.894   2.328   0.238
 8263SOL    HW225689   6.963   2.317   0.090
 8264SOL     OW25690   1.381   5.896   2.418
 8264SOL    HW125691   1.303   5.852   2.375
 8264SOL    HW225692   1.434   5.947   2.349
 8265SOL     OW25693   1.185   6.757   1.525
 8265SOL    HW125694   1.212   6.671   1.570
 8265SOL    HW225695   1.265   6.798   1.481
 8266SOL     OW25696   1.988   0.436   3.175
 8266SOL    HW125697   2.025   0.351   3.211
 8266SOL    HW225698   1.923   0.416   3.102
 8267SOL     OW25699   1.975   2.992   1.096
 8267SOL    HW125700   1.958   2.939   1.179
 8267SOL    HW225701   2.065   2.969   1.060
 8268SOL     OW25702   2.370   6.369   6.261
 8268SOL    HW125703   2.288   6.423   6.239
 8268SOL    HW225704   2.392   6.309   6.185
 8269SOL     OW25705   5.761   1.378   1.423
 8269SOL    HW125706   5.675   1.375   1.371
 8269SOL    HW225707   5.821   1.305   1.391
 8270SOL     OW25708   2.579   7.002   4.913
 8270SOL    HW125709   2.592   0.004   5.009
 8270SOL    HW225710   2.654   0.017   4.859
 8271SOL     OW25711   0.119   0.890   2.229
 8271SOL    HW125712   0.210   0.860   2.202
 8271SOL    HW225713   0.060   0.895   2.149
 8272SOL     OW25714   5.127   0.970   1.217
 8272SOL    HW125715   5.175   0.883   1.215
 8272SOL    HW225716   5.194   1.045   1.213
 8273SOL     OW25717   1.802   6.406   0.834
 8273SOL    HW125718   1.764   6.427   0.924
 8273SOL    HW225719   1.739   6.348   0.783
 8274SOL     OW25720   4.731   4.799   3.449
 8274SOL    HW125721   4.747   4.861   3.526
 8274SOL    HW225722   4.782   4.714   3.464
 8275SOL     OW25723   4.175   1.240   6.010
 8275SOL    HW125724   4.271   1.245   5.985
 8275SOL    HW225725   4.149   1.145   6.025
 8276SOL     OW25726   1.054   2.096   3.707
 8276SOL    HW125727   1.069   2.028   3.779
 8276SOL    HW225728   1.108   2.073   3.626
 8277SOL     OW25729   0.478   0.662   6.964
 8277SOL    HW125730   0.458   0.736   0.006
 8277SOL    HW225731   0.467   0.696   6.871
 8278SOL     OW25732   2.588   1.738   6.360
 8278SOL    HW125733   2.500   1.696   6.384
 8278SOL    HW225734   2.574   1.834   6.339
 8279SOL     OW25735   1.055   0.075   4.335
 8279SOL    HW125736   1.006   0.049   4.253
 8279SOL    HW225737   1.149   0.039   4.331
 8280SOL     OW25738   2.650   2.860   0.367
 8280SOL    HW125739   2.625   2.803   0.445
 8280SOL    HW225740   2.749   2.856   0.354
 8281SOL     OW25741   1.467   5.128   1.233
 8281SOL    HW125742   1.464   5.168   1.141
 8281SOL    HW225743   1.499   5.198   1.298
 8282SOL     OW25744   5.430   3.665   6.845
 8282SOL    HW125745   5.490   3.714   6.780
 8282SOL    HW225746   5.464   3.572   6.857
 8283SOL     OW25747   1.090   4.448   6.440
 8283SOL    HW125748   1.160   4.379   6.460
 8283SOL    HW225749   1.045   4.426   6.354
 8284SOL     OW25750   0.737   3.694   1.517
 8284SOL    HW125751   0.835   3.714   1.514
 8284SOL    HW225752   0.705   3.670   1.425
 8285SOL     OW25753   3.956   3.077   5.151
 8285SOL    HW125754   4.043   3.089   5.200
 8285SOL    HW225755   3.958   3.131   5.066
 8286SOL     OW25756   5.189   3.527   6.736
 8286SOL    HW125757   5.198   3.458   6.808
 8286SOL    HW225758   5.272   3.582   6.732
 8287SOL     OW25759   2.325   5.125   4.260
 8287SOL    HW125760   2.310   5.152   4.356
 8287SOL    HW225761   2.395   5.183   4.219
 8288SOL     OW25762   2.657   1.798   1.896
 8288SOL    HW125763   2.586   1.793   1.966
 8288SOL    HW225764   2.619   1.837   1.813
 8289SOL     OW25765   0.443   6.527   1.486
 8289SOL    HW125766   0.543   6.533   1.490
 8289SOL    HW225767   0.415   6.431   1.491
 8290SOL     OW25768   6.031   0.840   0.499
 8290SOL    HW125769   6.113   0.855   0.443
 8290SOL    HW225770   6.036   0.899   0.580
 8291SOL     OW25771   4.558   6.185   6.504
 8291SOL    HW125772   4.505   6.253   6.454
 8291SOL    HW225773   4.528   6.182   6.599
 8292SOL     OW25774   2.828   6.417   6.810
 8292SOL    HW125775   2.730   6.406   6.794
 8292SOL    HW225776   2.873   6.445   6.725
 8293SOL     OW25777   3.279   6.866   0.230
 8293SOL    HW125778   3.192   6.883   0.185
 8293SOL    HW225779   3.281   6.772   0.266
 8294SOL     OW25780   5.894   4.379   5.089
 8294SOL    HW125781   5.988   4.360   5.060
 8294SOL    HW225782   5.884   4.356   5.186
 8295SOL     OW25783   5.613   5.241   2.157
 8295SOL    HW125784   5.712   5.241   2.141
 8295SOL    HW225785   5.565   5.224   2.071
 8296SOL     OW25786   2.547   6.863   6.483
 8296SOL    HW125787   2.611   6.833   6.554
 8296SOL    HW225788   2.511   6.783   6.435
 8297SOL     OW25789   6.648   2.731   2.279
 8297SOL    HW125790   6.602   2.746   2.367
 8297SOL    HW225791   6.698   2.644   2.282
 8298SOL     OW25792   5.860   2.334   1.520
 8298SOL    HW125793   5.922   2.397   1.568
 8298SOL    HW225794   5.861   2.245   1.566
 8299SOL     OW25795   6.980   2.812   1.839
 8299SOL    HW125796   6.973   2.892   1.779
 8299SOL    HW225797   6.960   2.839   1.933
 8300SOL     OW25798   1.105   5.611   5.640
 8300SOL    HW125799   1.121   5.516   5.614
 8300SOL    HW225800   1.118   5.670   5.560
 8301SOL     OW25801   3.881   2.023   1.619
 8301SOL    HW125802   3.819   2.101   1.624
 8301SOL    HW225803   3.828   1.939   1.605
 8302SOL     OW25804   5.791   5.899   6.028
 8302SOL    HW125805   5.723   5.854   6.087
 8302SOL    HW225806   5.776   5.871   5.933
 8303SOL     OW25807   6.759   0.796   3.577
 8303SOL    HW125808   6.721   0.730   3.641
 8303SOL    HW225809   6.808   0.867   3.629
 8304SOL     OW25810   1.427   2.970   6.988
 8304SOL    HW125811   1.356   2.958   0.035
 8304SOL    HW225812   1.494   3.038   7.020
 8305SOL     OW25813   4.174   4.906   4.331
 8305SOL    HW125814   4.087   4.902   4.281
 8305SOL    HW225815   4.166   4.853   4.416
 8306SOL     OW25816   0.412   2.983   5.214
 8306SOL    HW125817   0.350   2.932   5.273
 8306SOL    HW225818   0.458   2.920   5.152
 8307SOL     OW25819   4.248   5.230   1.701
 8307SOL    HW125820   4.203   5.269   1.781
 8307SOL    HW225821   4.299   5.302   1.654
 8308SOL     OW25822   4.240   5.980   1.296
 8308SOL    HW125823   4.165   6.021   1.245
 8308SOL    HW225824   4.326   5.994   1.247
 8309SOL     OW25825   6.291   5.816   3.413
 8309SOL    HW125826   6.388   5.793   3.426
 8309SOL    HW225827   6.272   5.905   3.453
 8310SOL     OW25828   1.214   3.999   0.541
 8310SOL    HW125829   1.163   3.923   0.501
 8310SOL    HW225830   1.172   4.085   0.511
 8311SOL     OW25831   0.444   1.216   5.111
 8311SOL    HW125832   0.503   1.140   5.134
 8311SOL    HW225833   0.375   1.228   5.182
 8312SOL     OW25834   4.229   5.876   1.552
 8312SOL    HW125835   4.235   5.920   1.463
 8312SOL    HW225836   4.202   5.943   1.621
 8313SOL     OW25837   4.534   1.044   2.230
 8313SOL    HW125838   4.534   1.122   2.167
 8313SOL    HW225839   4.587   0.969   2.190
 8314SOL     OW25840   4.612   6.414   1.468
 8314SOL    HW125841   4.528   6.430   1.520
 8314SOL    HW225842   4.635   6.495   1.415
 8315SOL     OW25843   3.889   3.684   1.050
 8315SOL    HW125844   3.845   3.689   1.140
 8315SOL    HW225845   3.964   3.618   1.054
 8316SOL     OW25846   1.085   2.804   1.677
 8316SOL    HW125847   1.064   2.709   1.701
 8316SOL    HW225848   1.182   2.821   1.691
 8317SOL     OW25849   2.144   3.043   2.330
 8317SOL    HW125850   2.045   3.059   2.332
 8317SOL    HW225851   2.184   3.088   2.250
 8318SOL     OW25852   4.124   1.734   4.668
 8318SOL    HW125853   4.053   1.717   4.599
 8318SOL    HW225854   4.136   1.832   4.680
 8319SOL     OW25855   3.238   1.796   6.560
 8319SOL    HW125856   3.251   1.895   6.554
 8319SOL    HW225857   3.326   1.750   6.545
 8320SOL     OW25858   3.448   4.828   1.354
 8320SOL    HW125859   3.390   4.749   1.333
 8320SOL    HW225860   3.400   4.888   1.418
 8321SOL     OW25861   6.874   1.383   6.774
 8321SOL    HW125862   6.944   1.313   6.790
 8321SOL    HW225863   6.793   1.361   6.827
 8322SOL     OW25864   0.434   0.062   0.234
 8322SOL    HW125865   0.430   0.079   0.136
 8322SOL    HW225866   0.384   7.000   0.255
 8323SOL     OW25867   6.663   6.535   3.042
 8323SOL    HW125868   6.625   6.477   3.114
 8323SOL    HW225869   6.608   6.618   3.032
 8324SOL     OW25870   6.442   0.614   2.018
 8324SOL    HW125871   6.521   0.572   1.973
 8324SOL    HW225872   6.466   0.638   2.112
 8325SOL     OW25873   3.366   3.361   4.503
 8325SOL    HW125874   3.290   3.409   4.548
 8325SOL    HW225875   3.374   3.269   4.540
 8326SOL     OW25876   4.399   3.289   5.374
 8326SOL    HW125877   4.356   3.295   5.464
 8326SOL    HW225878   4.393   3.378   5.328
 8327SOL     OW25879   5.283   2.721   6.031
 8327SOL    HW125880   5.347   2.792   6.001
 8327SOL    HW225881   5.190   2.756   6.026
 8328SOL     OW25882   2.430   4.091   6.056
 8328SOL    HW125883   2.351   4.062   6.003
 8328SOL    HW225884   2.489   4.150   6.000
 8329SOL     OW25885   0.292   3.795   6.272
 8329SOL    HW125886   0.382   3.756   6.250
 8329SOL    HW225887   0.251   3.744   6.348
 8330SOL     OW25888   1.988   7.001   0.548
 8330SOL    HW125889   2.080   0.019   0.540
 8330SOL    HW225890   1.925   0.047   0.585
 8331SOL     OW25891   2.623   0.955   1.088
 8331SOL    HW125892   2.636   1.007   1.172
 8331SOL    HW225893   2.653   1.010   1.010
 8332SOL     OW25894   4.942   4.882   2.673
 8332SOL    HW125895   4.907   4.902   2.582
 8332SOL    HW225896   4.966   4.786   2.680
 8333SOL     OW25897   0.411   6.247   6.440
 8333SOL    HW125898   0.484   6.205   6.388
 8333SOL    HW225899   0.388   6.190   6.519
 8334SOL     OW25900   4.836   1.603   3.689
 8334SOL    HW125901   4.871   1.511   3.710
 8334SOL    HW225902   4.872   1.632   3.600
 8335SOL     OW25903   6.505   5.353   5.390
 8335SOL    HW125904   6.589   5.299   5.382
 8335SOL    HW225905   6.453   5.346   5.305
 8336SOL     OW25906   0.217   0.587   1.636
 8336SOL    HW125907   0.211   0.572   1.537
 8336SOL    HW225908   0.190   0.681   1.657
 8337SOL     OW25909   0.715   6.462   3.149
 8337SOL    HW125910   0.688   6.390   3.085
 8337SOL    HW225911   0.814   6.475   3.146
 8338SOL     OW25912   1.514   5.000   2.201
 8338SOL    HW125913   1.485   5.082   2.251
 8338SOL    HW225914   1.508   4.920   2.261
 8339SOL     OW25915   5.815   0.561   1.309
 8339SOL    HW125916   5.888   0.573   1.376
 8339SOL    HW225917   5.782   0.651   1.279
 8340SOL     OW25918   4.940   4.054   0.898
 8340SOL    HW125919   4.911   4.140   0.856
 8340SOL    HW225920   5.039   4.044   0.887
 8341SOL     OW25921   2.848   6.258   0.052
 8341SOL    HW125922   2.828   6.298   6.985
 8341SOL    HW225923   2.763   6.247   0.103
 8342SOL     OW25924   3.494   0.841   1.580
 8342SOL    HW125925   3.510   0.829   1.482
 8342SOL    HW225926   3.406   0.799   1.604
 8343SOL     OW25927   0.981   4.893   6.510
 8343SOL    HW125928   1.061   4.836   6.526
 8343SOL    HW225929   0.977   4.918   6.413
 8344SOL     OW25930   4.817   0.307   5.635
 8344SOL    HW125931   4.894   0.243   5.636
 8344SOL    HW225932   4.755   0.283   5.561
 8345SOL     OW25933   5.321   2.250   3.361
 8345SOL    HW125934   5.273   2.328   3.401
 8345SOL    HW225935   5.419   2.267   3.362
 8346SOL     OW25936   2.925   5.104   0.198
 8346SOL    HW125937   2.873   5.055   0.268
 8346SOL    HW225938   2.877   5.100   0.111
 8347SOL     OW25939   3.503   0.051   4.580
 8347SOL    HW125940   3.450   6.988   4.584
 8347SOL    HW225941   3.597   0.031   4.554
 8348SOL     OW25942   1.347   0.018   1.561
 8348SOL    HW125943   1.358   6.975   1.486
 8348SOL    HW225944   1.252   0.021   1.590
 8349SOL     OW25945   6.060   5.257   1.377
 8349SOL    HW125946   5.989   5.323   1.355
 8349SOL    HW225947   6.029   5.165   1.352
 8350SOL     OW25948   4.458   1.127   4.493
 8350SOL    HW125949   4.425   1.218   4.467
 8350SOL    HW225950   4.545   1.135   4.542
 8351SOL     OW25951   4.750   5.149   4.506
 8351SOL    HW125952   4.803   5.207   4.567
 8351SOL    HW225953   4.698   5.082   4.559
 8352SOL     OW25954   6.822   6.931   2.186
 8352SOL    HW125955   6.779   6.915   2.098
 8352SOL    HW225956   6.764   6.990   2.242
 8353SOL     OW25957   5.572   3.957   2.014
 8353SOL    HW125958   5.581   4.015   1.933
 8353SOL    HW225959   5.597   3.863   1.990
 8354SOL     OW25960   3.430   0.720   6.779
 8354SOL    HW125961   3.358   0.774   6.823
 8354SOL    HW225962   3.514   0.729   6.833
 8355SOL     OW25963   3.430   0.458   6.744
 8355SOL    HW125964   3.411   0.553   6.719
 8355SOL    HW225965   3.346   0.413   6.773
 8356SOL     OW25966   1.382   6.711   0.638
 8356SOL    HW125967   1.345   6.631   0.591
 8356SOL    HW225968   1.330   6.727   0.722
 8357SOL     OW25969   3.591   6.488   5.970
 8357SOL    HW125970   3.662   6.551   6.002
 8357SOL    HW225971   3.569   6.509   5.875
 8358SOL     OW25972   1.523   2.596   4.817
 8358SOL    HW125973   1.522   2.530   4.742
 8358SOL    HW225974   1.610   2.588   4.866
 8359SOL     OW25975   3.207   5.810   4.283
 8359SOL    HW125976   3.204   5.862   4.198
 8359SOL    HW225977   3.125   5.752   4.290
 8360SOL     OW25978   3.339   6.339   2.209
 8360SOL    HW125979   3.293   6.376   2.289
 8360SOL    HW225980   3.434   6.370   2.207
 8361SOL     OW25981   1.864   0.867   1.889
 8361SOL    HW125982   1.792   0.935   1.871
 8361SOL    HW225983   1.953   0.911   1.884
 8362SOL     OW25984   2.276   2.307   0.419
 8362SOL    HW125985   2.250   2.232   0.359
 8362SOL    HW225986   2.194   2.353   0.452
 8363SOL     OW25987   0.729   2.544   0.163
 8363SOL    HW125988   0.826   2.566   0.155
 8363SOL    HW225989   0.718   2.464   0.222
 8364SOL     OW25990   6.851   3.445   3.493
 8364SOL    HW125991   6.755   3.470   3.483
 8364SOL    HW225992   6.860   3.371   3.560
 8365SOL     OW25993   1.656   3.930   1.620
 8365SOL    HW125994   1.733   3.883   1.579
 8365SOL    HW225995   1.611   3.870   1.686
 8366SOL     OW25996   4.106   5.541   2.413
 8366SOL    HW125997   4.108   5.626   2.360
 8366SOL    HW225998   4.108   5.463   2.351
 8367SOL     OW25999   3.950   6.147   4.216
 8367SOL    HW126000   4.023   6.117   4.277
 8367SOL    HW226001   3.990   6.188   4.134
 8368SOL     OW26002   2.906   6.549   6.010
 8368SOL    HW126003   2.971   6.559   6.086
 8368SOL    HW226004   2.835   6.484   6.036
 8369SOL     OW26005   1.918   0.808   6.770
 8369SOL    HW126006   1.827   0.810   6.811
 8369SOL    HW226007   1.987   0.802   6.843
 8370SOL     OW26008   3.125   2.199   5.901
 8370SOL    HW126009   3.081   2.203   5.812
 8370SOL    HW226010   3.191   2.124   5.903
 8371SOL     OW26011   1.729   4.172   0.876
 8371SOL    HW126012   1.641   4.150   0.835
 8371SOL    HW226013   1.722   4.165   0.976
 8372SOL     OW26014   0.345   6.142   2.993
 8372SOL    HW126015   0.296   6.170   3.076
 8372SOL    HW226016   0.352   6.220   2.931
 8373SOL     OW26017   0.839   0.521   4.944
 8373SOL    HW126018   0.821   0.423   4.957
 8373SOL    HW226019   0.854   0.539   4.847
 8374SOL     OW26020   6.473   0.420   6.392
 8374SOL    HW126021   6.412   0.341   6.389
 8374SOL    HW226022   6.432   0.495   6.339
 8375SOL     OW26023   3.380   6.503   5.739
 8375SOL    HW126024   3.348   6.486   5.833
 8375SOL    HW226025   3.366   6.421   5.683
 8376SOL     OW26026   1.995   6.762   4.318
 8376SOL    HW126027   2.079   6.812   4.338
 8376SOL    HW226028   1.919   6.804   4.367
 8377SOL     OW26029   5.773   5.850   1.586
 8377SOL    HW126030   5.684   5.854   1.539
 8377SOL    HW226031   5.828   5.929   1.560
 8378SOL     OW26032   4.488   4.580   2.903
 8378SOL    HW126033   4.426   4.635   2.847
 8378SOL    HW226034   4.500   4.490   2.860
 8379SOL     OW26035   6.934   2.918   1.025
 8379SOL    HW126036   6.863   2.903   0.956
 8379SOL    HW226037   6.965   2.829   1.060
 8380SOL     OW26038   6.799   1.159   2.219
 8380SOL    HW126039   6.826   1.064   2.233
 8380SOL    HW226040   6.739   1.188   2.294
 8381SOL     OW26041   0.640   4.118   4.803
 8381SOL    HW126042   0.678   4.032   4.837
 8381SOL    HW226043   0.654   4.123   4.704
 8382SOL     OW26044   1.136   1.406   2.154
 8382SOL    HW126045   1.121   1.451   2.243
 8382SOL    HW226046   1.183   1.319   2.169
 8383SOL     OW26047   2.268   1.633   6.277
 8383SOL    HW126048   2.281   1.677   6.366
 8383SOL    HW226049   2.336   1.560   6.266
 8384SOL     OW26050   0.334   6.880   0.334
 8384SOL    HW126051   0.319   6.794   0.285
 8384SOL    HW226052   0.262   6.893   0.402
 8385SOL     OW26053   5.832   2.898   1.516
 8385SOL    HW126054   5.900   2.970   1.501
 8385SOL    HW226055   5.786   2.877   1.430
 8386SOL     OW26056   1.034   4.035   2.469
 8386SOL    HW126057   1.087   4.045   2.385
 8386SOL    HW226058   0.967   4.109   2.475
 8387SOL     OW26059   0.839   1.533   1.236
 8387SOL    HW126060   0.935   1.509   1.221
 8387SOL    HW226061   0.835   1.611   1.299
 8388SOL     OW26062   1.697   6.162   0.712
 8388SOL    HW126063   1.777   6.135   0.658
 8388SOL    HW226064   1.634   6.215   0.655
 8389SOL     OW26065   5.480   3.247   2.339
 8389SOL    HW126066   5.517   3.336   2.364
 8389SOL    HW226067   5.550   3.194   2.292
 8390SOL     OW26068   3.624   1.408   6.243
 8390SOL    HW126069   3.657   1.396   6.150
 8390SOL    HW226070   3.683   1.472   6.292
 8391SOL     OW26071   5.918   6.359   0.888
 8391SOL    HW126072   6.010   6.364   0.850
 8391SOL    HW226073   5.903   6.270   0.931
 8392SOL     OW26074   5.770   3.887   3.825
 8392SOL    HW126075   5.842   3.888   3.894
 8392SOL    HW226076   5.798   3.832   3.747
 8393SOL     OW26077   5.687   0.797   2.560
 8393SOL    HW126078   5.710   0.762   2.651
 8393SOL    HW226079   5.723   0.735   2.490
 8394SOL     OW26080   5.811   2.940   2.030
 8394SOL    HW126081   5.882   2.927   1.961
 8394SOL    HW226082   5.726   2.897   1.999
 8395SOL     OW26083   3.145   6.675   5.719
 8395SOL    HW126084   3.222   6.612   5.713
 8395SOL    HW226085   3.171   6.755   5.773
 8396SOL     OW26086   4.442   4.882   3.416
 8396SOL    HW126087   4.462   4.897   3.319
 8396SOL    HW226088   4.527   4.889   3.469
 8397SOL     OW26089   0.825   0.878   3.612
 8397SOL    HW126090   0.735   0.918   3.600
 8397SOL    HW226091   0.817   0.793   3.664
 8398SOL     OW26092   5.052   2.159   6.692
 8398SOL    HW126093   5.045   2.168   6.791
 8398SOL    HW226094   5.147   2.140   6.667
 8399SOL     OW26095   6.401   6.602   6.630
 8399SOL    HW126096   6.360   6.691   6.650
 8399SOL    HW226097   6.485   6.591   6.684
 8400SOL     OW26098   1.416   2.309   4.280
 8400SOL    HW126099   1.378   2.366   4.207
 8400SOL    HW226100   1.498   2.262   4.247
 8401SOL     OW26101   2.182   0.860   5.525
 8401SOL    HW126102   2.114   0.790   5.551
 8401SOL    HW226103   2.219   0.902   5.608
 8402SOL     OW26104   5.399   1.348   5.986
 8402SOL    HW126105   5.417   1.386   6.077
 8402SOL    HW226106   5.441   1.408   5.917
 8403SOL     OW26107   0.641   3.760   4.279
 8403SOL    HW126108   0.736   3.757   4.312
 8403SOL    HW226109   0.592   3.834   4.325
 8404SOL     OW26110   3.330   0.514   5.823
 8404SOL    HW126111   3.387   0.563   5.889
 8404SOL    HW226112   3.272   0.449   5.871
 8405SOL     OW26113   3.400   1.678   6.001
 8405SOL    HW126114   3.413   1.587   6.041
 8405SOL    HW226115   3.392   1.745   6.075
 8406SOL     OW26116   4.239   0.143   0.640
 8406SOL    HW126117   4.162   0.151   0.577
 8406SOL    HW226118   4.299   0.069   0.610
 8407SOL     OW26119   4.593   6.738   3.426
 8407SOL    HW126120   4.668   6.748   3.491
 8407SOL    HW226121   4.551   6.647   3.437
 8408SOL     OW26122   5.190   5.339   0.099
 8408SOL    HW126123   5.134   5.261   0.071
 8408SOL    HW226124   5.284   5.325   0.067
 8409SOL     OW26125   4.824   2.418   2.006
 8409SOL    HW126126   4.789   2.339   2.057
 8409SOL    HW226127   4.753   2.489   2.002
 8410SOL     OW26128   5.881   2.127   1.745
 8410SOL    HW126129   5.945   2.090   1.812
 8410SOL    HW226130   5.831   2.204   1.785
 8411SOL     OW26131   0.400   6.143   0.946
 8411SOL    HW126132   0.435   6.211   0.882
 8411SOL    HW226133   0.306   6.121   0.923
 8412SOL     OW26134   4.090   2.881   0.960
 8412SOL    HW126135   4.178   2.880   0.911
 8412SOL    HW226136   4.077   2.793   1.005
 8413SOL     OW26137   4.050   5.557   6.277
 8413SOL    HW126138   4.062   5.654   6.296
 8413SOL    HW226139   3.955   5.531   6.290
 8414SOL     OW26140   1.894   1.473   2.282
 8414SOL    HW126141   1.807   1.513   2.311
 8414SOL    HW226142   1.944   1.441   2.362
 8415SOL     OW26143   2.560   6.674   3.909
 8415SOL    HW126144   2.478   6.620   3.889
 8415SOL    HW226145   2.565   6.751   3.846
 8416SOL     OW26146   6.508   1.587   4.800
 8416SOL    HW126147   6.454   1.611   4.719
 8416SOL    HW226148   6.538   1.492   4.794
 8417SOL     OW26149   2.045   3.232   5.407
 8417SOL    HW126150   2.093   3.230   5.495
 8417SOL    HW226151   2.003   3.322   5.394
 8418SOL     OW26152   0.344   5.767   2.145
 8418SOL    HW126153   0.382   5.806   2.061
 8418SOL    HW226154   0.271   5.827   2.179
 8419SOL     OW26155   6.203   1.692   3.327
 8419SOL    HW126156   6.173   1.787   3.315
 8419SOL    HW226157   6.140   1.645   3.388
 8420SOL     OW26158   3.124   6.733   2.145
 8420SOL    HW126159   3.130   6.833   2.144
 8420SOL    HW226160   3.028   6.706   2.150
 8421SOL     OW26161   3.038   5.553   6.842
 8421SOL    HW126162   3.058   5.640   6.798
 8421SOL    HW226163   3.027   5.482   6.773
 8422SOL     OW26164   4.524   2.552   2.266
 8422SOL    HW126165   4.471   2.469   2.253
 8422SOL    HW226166   4.476   2.630   2.226
 8423SOL     OW26167   4.435   4.186   5.637
 8423SOL    HW126168   4.492   4.135   5.701
 8423SOL    HW226169   4.474   4.277   5.623
 8424SOL     OW26170   1.980   1.553   3.433
 8424SOL    HW126171   2.051   1.570   3.502
 8424SOL    HW226172   1.968   1.454   3.421
 8425SOL     OW26173   3.598   3.797   4.260
 8425SOL    HW126174   3.566   3.885   4.224
 8425SOL    HW226175   3.698   3.794   4.253
 8426SOL     OW26176   3.618   3.138   2.468
 8426SOL    HW126177   3.567   3.130   2.382
 8426SOL    HW226178   3.716   3.125   2.450
 8427SOL     OW26179   3.314   3.631   3.202
 8427SOL    HW126180   3.234   3.672   3.245
 8427SOL    HW226181   3.295   3.615   3.106
 8428SOL     OW26182   0.442   0.084   1.259
 8428SOL    HW126183   0.348   0.109   1.236
 8428SOL    HW226184   0.466   7.021   1.212
 8429SOL     OW26185   1.998   5.237   5.933
 8429SOL    HW126186   1.980   5.318   5.877
 8429SOL    HW226187   1.972   5.255   6.028
 8430SOL     OW26188   3.884   4.970   3.760
 8430SOL    HW126189   3.936   4.888   3.783
 8430SOL    HW226190   3.943   5.034   3.710
 8431SOL     OW26191   3.099   4.318   6.772
 8431SOL    HW126192   3.187   4.360   6.748
 8431SOL    HW226193   3.108   4.271   6.860
 8432SOL     OW26194   6.934   5.009   5.640
 8432SOL    HW126195   7.006   4.983   5.577
 8432SOL    HW226196   6.891   5.094   5.609
 8433SOL     OW26197   4.424   2.612   1.149
 8433SOL    HW126198   4.395   2.546   1.080
 8433SOL    HW226199   4.519   2.592   1.175
 8434SOL     OW26200   2.112   6.112   4.275
 8434SOL    HW126201   2.119   6.185   4.207
 8434SOL    HW226202   2.201   6.100   4.320
 8435SOL     OW26203   5.306   0.536   3.005
 8435SOL    HW126204   5.227   0.535   3.066
 8435SOL    HW226205   5.337   0.442   2.989
 8436SOL     OW26206   2.801   5.959   3.814
 8436SOL    HW126207   2.883   5.915   3.850
 8436SOL    HW226208   2.783   5.926   3.722
 8437SOL     OW26209   1.832   2.684   2.442
 8437SOL    HW126210   1.762   2.613   2.436
 8437SOL    HW226211   1.815   2.741   2.522
 8438SOL     OW26212   2.178   3.912   3.153
 8438SOL    HW126213   2.088   3.947   3.180
 8438SOL    HW226214   2.243   3.988   3.147
 8439SOL     OW26215   6.408   5.268   3.364
 8439SOL    HW126216   6.391   5.299   3.271
 8439SOL    HW226217   6.504   5.285   3.388
 8440SOL     OW26218   2.159   1.606   3.691
 8440SOL    HW126219   2.114   1.549   3.760
 8440SOL    HW226220   2.170   1.699   3.727
 8441SOL     OW26221   5.492   5.653   5.548
 8441SOL    HW126222   5.394   5.638   5.561
 8441SOL    HW226223   5.543   5.601   5.616
 8442SOL     OW26224   3.493   0.588   5.179
 8442SOL    HW126225   3.537   0.623   5.261
 8442SOL    HW226226   3.482   0.489   5.186
 8443SOL     OW26227   2.155   5.045   3.682
 8443SOL    HW126228   2.216   5.070   3.606
 8443SOL    HW226229   2.101   4.965   3.655
 8444SOL     OW26230   3.476   6.302   3.640
 8444SOL    HW126231   3.400   6.362   3.614
 8444SOL    HW226232   3.505   6.324   3.733
 8445SOL     OW26233   2.414   0.475   0.502
 8445SOL    HW126234   2.397   0.568   0.533
 8445SOL    HW226235   2.512   0.455   0.507
 8446SOL     OW26236   6.873   6.077   4.935
 8446SOL    HW126237   6.820   6.111   5.012
 8446SOL    HW226238   6.945   6.143   4.912
 8447SOL     OW26239   3.472   1.626   1.984
 8447SOL    HW126240   3.405   1.571   2.033
 8447SOL    HW226241   3.463   1.611   1.886
 8448SOL     OW26242   4.754   6.148   3.624
 8448SOL    HW126243   4.848   6.181   3.631
 8448SOL    HW226244   4.696   6.198   3.688
 8449SOL     OW26245   0.673   3.155   3.982
 8449SOL    HW126246   0.640   3.196   4.066
 8449SOL    HW226247   0.705   3.226   3.919
 8450SOL     OW26248   0.340   0.596   0.938
 8450SOL    HW126249   0.311   0.657   1.011
 8450SOL    HW226250   0.303   0.504   0.955
 8451SOL     OW26251   3.088   0.932   0.505
 8451SOL    HW126252   3.002   0.884   0.489
 8451SOL    HW226253   3.111   0.987   0.425
 8452SOL     OW26254   5.023   2.212   4.175
 8452SOL    HW126255   5.101   2.255   4.220
 8452SOL    HW226256   4.995   2.268   4.097
 8453SOL     OW26257   0.358   5.087   6.811
 8453SOL    HW126258   0.441   5.038   6.787
 8453SOL    HW226259   0.289   5.021   6.843
 8454SOL     OW26260   0.550   4.645   0.143
 8454SOL    HW126261   0.538   4.709   0.218
 8454SOL    HW226262   0.461   4.616   0.109
 8455SOL     OW26263   6.924   1.270   2.930
 8455SOL    HW126264   6.951   1.324   3.010
 8455SOL    HW226265   6.851   1.207   2.956
 8456SOL     OW26266   4.712   0.675   3.599
 8456SOL    HW126267   4.780   0.702   3.668
 8456SOL    HW226268   4.698   0.751   3.536
 8457SOL     OW26269   6.680   6.462   4.522
 8457SOL    HW126270   6.656   6.372   4.486
 8457SOL    HW226271   6.779   6.466   4.539
 8458SOL     OW26272   0.954   0.304   0.530
 8458SOL    HW126273   0.913   0.254   0.606
 8458SOL    HW226274   1.028   0.249   0.491
 8459SOL     OW26275   1.666   5.962   3.249
 8459SOL    HW126276   1.675   5.869   3.285
 8459SOL    HW226277   1.587   6.007   3.290
 8460SOL     OW26278   4.353   3.998   5.416
 8460SOL    HW126279   4.385   4.080   5.464
 8460SOL    HW226280   4.427   3.930   5.415
 8461SOL     OW26281   0.690   2.465   5.432
 8461SOL    HW126282   0.719   2.370   5.438
 8461SOL    HW226283   0.596   2.470   5.400
 8462SOL     OW26284   3.278   1.939   1.043
 8462SOL    HW126285   3.230   2.023   1.067
 8462SOL    HW226286   3.212   1.866   1.024
 8463SOL     OW26287   6.540   6.948   1.656
 8463SOL    HW126288   6.468   6.936   1.724
 8463SOL    HW226289   6.579   0.017   1.664
 8464SOL     OW26290   5.525   3.546   4.593
 8464SOL    HW126291   5.568   3.622   4.545
 8464SOL    HW226292   5.481   3.485   4.527
 8465SOL     OW26293   1.737   1.945   0.505
 8465SOL    HW126294   1.784   1.857   0.511
 8465SOL    HW226295   1.669   1.941   0.432
 8466SOL     OW26296   1.227   5.702   3.816
 8466SOL    HW126297   1.167   5.661   3.885
 8466SOL    HW226298   1.200   5.670   3.725
 8467SOL     OW26299   3.157   5.798   0.654
 8467SOL    HW126300   3.059   5.781   0.648
 8467SOL    HW226301   3.206   5.711   0.661
 8468SOL     OW26302   3.892   2.064   0.517
 8468SOL    HW126303   3.858   1.970   0.520
 8468SOL    HW226304   3.898   2.094   0.422
 8469SOL     OW26305   3.059   3.261   6.558
 8469SOL    HW126306   3.151   3.263   6.597
 8469SOL    HW226307   3.022   3.354   6.555
 8470SOL     OW26308   2.159   2.681   1.415
 8470SOL    HW126309   2.208   2.605   1.457
 8470SOL    HW226310   2.106   2.730   1.484
 8471SOL     OW26311   2.570   0.581   3.767
 8471SOL    HW126312   2.558   0.581   3.667
 8471SOL    HW226313   2.530   0.498   3.805
 8472SOL     OW26314   0.478   6.654   4.830
 8472SOL    HW126315   0.478   6.729   4.764
 8472SOL    HW226316   0.413   6.584   4.801
 8473SOL     OW26317   0.140   5.749   6.926
 8473SOL    HW126318   0.190   5.714   6.847
 8473SOL    HW226319   0.055   5.793   6.895
 8474SOL     OW26320   3.056   3.198   1.729
 8474SOL    HW126321   3.036   3.295   1.741
 8474SOL    HW226322   3.120   3.186   1.653
 8475SOL     OW26323   6.361   1.932   2.575
 8475SOL    HW126324   6.303   1.998   2.527
 8475SOL    HW226325   6.317   1.842   2.572
 8476SOL     OW26326   6.223   0.005   1.783
 8476SOL    HW126327   6.263   0.021   1.873
 8476SOL    HW226328   6.185   6.935   1.780
 8477SOL     OW26329   2.860   6.468   0.952
 8477SOL    HW126330   2.824   6.507   1.037
 8477SOL    HW226331   2.960   6.473   0.952
 8478SOL     OW26332   1.833   0.422   5.706
 8478SOL    HW126333   1.797   0.493   5.765
 8478SOL    HW226334   1.928   0.401   5.731
 8479SOL     OW26335   6.234   1.015   0.312
 8479SOL    HW126336   6.288   0.932   0.298
 8479SOL    HW226337   6.285   1.078   0.372
 8480SOL     OW26338   3.281   1.159   1.498
 8480SOL    HW126339   3.349   1.128   1.565
 8480SOL    HW226340   3.297   1.255   1.476
 8481SOL     OW26341   4.061   1.187   4.460
 8481SOL    HW126342   4.121   1.130   4.516
 8481SOL    HW226343   4.109   1.217   4.378
 8482SOL     OW26344   2.168   0.333   2.176
 8482SOL    HW126345   2.209   0.369   2.093
 8482SOL    HW226346   2.123   0.407   2.226
 8483SOL     OW26347   3.209   5.470   2.894
 8483SOL    HW126348   3.224   5.379   2.855
 8483SOL    HW226349   3.177   5.532   2.822
 8484SOL     OW26350   6.909   4.775   3.113
 8484SOL    HW126351   6.978   4.778   3.041
 8484SOL    HW226352   6.852   4.694   3.102
 8485SOL     OW26353   1.769   3.723   0.310
 8485SOL    HW126354   1.784   3.654   0.380
 8485SOL    HW226355   1.818   3.698   0.227
 8486SOL     OW26356   5.192   1.146   2.682
 8486SOL    HW126357   5.152   1.150   2.590
 8486SOL    HW226358   5.285   1.109   2.676
 8487SOL     OW26359   5.191   0.278   1.002
 8487SOL    HW126360   5.183   0.184   1.035
 8487SOL    HW226361   5.185   0.279   0.902
 8488SOL     OW26362   5.599   5.555   4.695
 8488SOL    HW126363   5.618   5.615   4.774
 8488SOL    HW226364   5.685   5.528   4.653
 8489SOL     OW26365   5.803   5.564   1.523
 8489SOL    HW126366   5.874   5.550   1.591
 8489SOL    HW226367   5.788   5.663   1.511
 8490SOL     OW26368   4.799   5.734   3.515
 8490SOL    HW126369   4.760   5.649   3.481
 8490SOL    HW226370   4.889   5.748   3.474
 8491SOL     OW26371   2.624   0.654   1.715
 8491SOL    HW126372   2.586   0.743   1.737
 8491SOL    HW226373   2.570   0.611   1.643
 8492SOL     OW26374   4.958   3.758   5.462
 8492SOL    HW126375   5.051   3.786   5.486
 8492SOL    HW226376   4.939   3.782   5.367
 8493SOL     OW26377   3.535   1.618   0.377
 8493SOL    HW126378   3.532   1.585   0.471
 8493SOL    HW226379   3.560   1.543   0.315
 8494SOL     OW26380   2.039   5.182   6.647
 8494SOL    HW126381   2.068   5.278   6.646
 8494SOL    HW226382   2.071   5.137   6.563
 8495SOL     OW26383   7.016   3.248   0.778
 8495SOL    HW126384   0.071   3.186   0.769
 8495SOL    HW226385   0.026   3.342   0.782
 8496SOL     OW26386   0.790   1.573   3.626
 8496SOL    HW126387   0.760   1.482   3.597
 8496SOL    HW226388   0.713   1.623   3.665
 8497SOL     OW26389   5.294   5.923   4.270
 8497SOL    HW126390   5.300   5.946   4.367
 8497SOL    HW226391   5.305   5.824   4.258
 8498SOL     OW26392   0.251   6.823   1.760
 8498SOL    HW126393   0.301   6.895   1.807
 8498SOL    HW226394   0.194   6.863   1.689
 8499SOL     OW26395   2.400   5.046   6.546
 8499SOL    HW126396   2.341   4.965   6.556
 8499SOL    HW226397   2.488   5.018   6.509
 8500SOL     OW26398   2.649   6.959   5.354
 8500SOL    HW126399   2.679   0.010   5.293
 8500SOL    HW226400   2.558   6.927   5.326
 8501SOL     OW26401   1.636   2.917   6.779
 8501SOL    HW126402   1.612   2.826   6.812
 8501SOL    HW226403   1.733   2.935   6.798
 8502SOL     OW26404   0.608   5.186   1.576
 8502SOL    HW126405   0.624   5.270   1.525
 8502SOL    HW226406   0.642   5.108   1.523
 8503SOL     OW26407   0.765   5.192   3.471
 8503SOL    HW126408   0.735   5.256   3.541
 8503SOL    HW226409   0.846   5.143   3.503
 8504SOL     OW26410   1.536   6.268   3.478
 8504SOL    HW126411   1.611   6.268   3.544
 8504SOL    HW226412   1.556   6.202   3.405
 8505SOL     OW26413   5.355   4.171   3.679
 8505SOL    HW126414   5.309   4.125   3.603
 8505SOL    HW226415   5.297   4.168   3.760
 8506SOL     OW26416   1.058   6.651   0.073
 8506SOL    HW126417   1.144   6.627   0.029
 8506SOL    HW226418   0.983   6.637   0.009
 8507SOL     OW26419   2.394   0.809   5.358
 8507SOL    HW126420   2.402   0.855   5.270
 8507SOL    HW226421   2.299   0.812   5.389
 8508SOL     OW26422   6.260   3.037   5.038
 8508SOL    HW126423   6.316   3.022   4.956
 8508SOL    HW226424   6.182   2.975   5.037
 8509SOL     OW26425   5.803   1.109   4.582
 8509SOL    HW126426   5.748   1.093   4.664
 8509SOL    HW226427   5.841   1.202   4.585
 8510SOL     OW26428   6.551   5.763   3.445
 8510SOL    HW126429   6.580   5.747   3.351
 8510SOL    HW226430   6.620   5.818   3.493
 8511SOL     OW26431   5.443   4.160   1.629
 8511SOL    HW126432   5.514   4.218   1.670
 8511SOL    HW226433   5.362   4.159   1.688
 8512SOL     OW26434   4.232   2.139   0.214
 8512SOL    HW126435   4.147   2.092   0.191
 8512SOL    HW226436   4.212   2.228   0.253
 8513SOL     OW26437   4.730   3.926   1.045
 8513SOL    HW126438   4.807   3.947   0.985
 8513SOL    HW226439   4.764   3.901   1.136
 8514SOL     OW26440   2.644   2.383   3.794
 8514SOL    HW126441   2.670   2.402   3.699
 8514SOL    HW226442   2.566   2.321   3.796
 8515SOL     OW26443   0.036   1.196   6.908
 8515SOL    HW126444   0.123   1.174   6.865
 8515SOL    HW226445   0.009   1.121   6.968
 8516SOL     OW26446   6.107   2.987   2.520
 8516SOL    HW126447   6.064   3.074   2.544
 8516SOL    HW226448   6.186   3.004   2.462
 8517SOL     OW26449   2.021   2.627   5.925
 8517SOL    HW126450   2.017   2.607   6.023
 8517SOL    HW226451   1.947   2.577   5.879
 8518SOL     OW26452   5.010   4.047   6.039
 8518SOL    HW126453   4.961   3.970   5.998
 8518SOL    HW226454   5.015   4.122   5.974
 8519SOL     OW26455   0.885   4.432   0.419
 8519SOL    HW126456   0.906   4.516   0.468
 8519SOL    HW226457   0.835   4.453   0.335
 8520SOL     OW26458   3.338   3.171   5.137
 8520SOL    HW126459   3.347   3.162   5.237
 8520SOL    HW226460   3.428   3.162   5.095
 8521SOL     OW26461   2.195   6.511   5.466
 8521SOL    HW126462   2.231   6.487   5.376
 8521SOL    HW226463   2.264   6.561   5.518
 8522SOL     OW26464   0.758   0.279   0.991
 8522SOL    HW126465   0.790   0.226   1.069
 8522SOL    HW226466   0.658   0.279   0.990
 8523SOL     OW26467   3.166   0.062   6.704
 8523SOL    HW126468   3.217   0.035   6.785
 8523SOL    HW226469   3.069   0.045   6.718
 8524SOL     OW26470   1.476   4.403   4.751
 8524SOL    HW126471   1.460   4.393   4.653
 8524SOL    HW226472   1.392   4.383   4.801
 8525SOL     OW26473   5.579   5.041   1.422
 8525SOL    HW126474   5.537   5.013   1.508
 8525SOL    HW226475   5.641   4.969   1.391
 8526SOL     OW26476   3.283   6.323   0.457
 8526SOL    HW126477   3.226   6.246   0.487
 8526SOL    HW226478   3.377   6.308   0.485
 8527SOL     OW26479   3.579   0.930   6.956
 8527SOL    HW126480   3.526   1.013   6.939
 8527SOL    HW226481   3.552   0.890   0.021
 8528SOL     OW26482   4.640   1.777   1.276
 8528SOL    HW126483   4.628   1.873   1.303
 8528SOL    HW226484   4.700   1.772   1.197
 8529SOL     OW26485   1.422   6.732   6.650
 8529SOL    HW126486   1.357   6.760   6.579
 8529SOL    HW226487   1.500   6.686   6.608
 8530SOL     OW26488   3.363   4.108   4.562
 8530SOL    HW126489   3.288   4.070   4.508
 8530SOL    HW226490   3.360   4.070   4.654
 8531SOL     OW26491   6.923   5.607   2.953
 8531SOL    HW126492   7.003   5.596   2.894
 8531SOL    HW226493   6.908   5.523   3.005
 8532SOL     OW26494   3.920   6.750   4.433
 8532SOL    HW126495   4.007   6.702   4.422
 8532SOL    HW226496   3.903   6.807   4.352
 8533SOL     OW26497   1.371   6.137   6.984
 8533SOL    HW126498   1.402   6.224   6.946
 8533SOL    HW226499   1.447   6.072   6.985
 8534SOL     OW26500   4.522   2.547   3.680
 8534SOL    HW126501   4.509   2.548   3.581
 8534SOL    HW226502   4.446   2.498   3.723
 8535SOL     OW26503   5.899   1.251   4.200
 8535SOL    HW126504   5.948   1.324   4.246
 8535SOL    HW226505   5.956   1.211   4.129
 8536SOL     OW26506   1.174   2.322   4.929
 8536SOL    HW126507   1.100   2.275   4.881
 8536SOL    HW226508   1.161   2.313   5.028
 8537SOL     OW26509   6.047   1.583   3.520
 8537SOL    HW126510   6.031   1.485   3.513
 8537SOL    HW226511   5.978   1.625   3.578
 8538SOL     OW26512   1.856   1.424   6.944
 8538SOL    HW126513   1.883   1.401   0.015
 8538SOL    HW226514   1.757   1.414   6.934
 8539SOL     OW26515   6.493   2.021   2.358
 8539SOL    HW126516   6.415   2.039   2.298
 8539SOL    HW226517   6.464   1.959   2.431
 8540SOL     OW26518   5.638   0.509   6.804
 8540SOL    HW126519   5.691   0.474   6.881
 8540SOL    HW226520   5.678   0.475   6.719
 8541SOL     OW26521   3.320   1.801   3.486
 8541SOL    HW126522   3.300   1.891   3.446
 8541SOL    HW226523   3.414   1.800   3.519
 8542SOL     OW26524   3.069   4.260   6.454
 8542SOL    HW126525   3.125   4.222   6.380
 8542SOL    HW226526   3.059   4.193   6.526
 8543SOL     OW26527   1.648   1.690   0.992
 8543SOL    HW126528   1.704   1.770   1.013
 8543SOL    HW226529   1.552   1.715   0.999
 8544SOL     OW26530   5.558   2.897   4.023
 8544SOL    HW126531   5.514   2.819   4.065
 8544SOL    HW226532   5.489   2.963   3.993
 8545SOL     OW26533   4.753   6.586   6.183
 8545SOL    HW126534   4.731   6.527   6.261
 8545SOL    HW226535   4.810   6.535   6.118
 8546SOL     OW26536   6.375   2.428   3.786
 8546SOL    HW126537   6.315   2.411   3.865
 8546SOL    HW226538   6.336   2.386   3.705
 8547SOL     OW26539   1.702   6.035   6.257
 8547SOL    HW126540   1.737   6.089   6.333
 8547SOL    HW226541   1.665   5.949   6.292
 8548SOL     OW26542   6.404   2.511   4.954
 8548SOL    HW126543   6.367   2.543   5.042
 8548SOL    HW226544   6.333   2.459   4.905
 8549SOL     OW26545   0.205   3.528   4.512
 8549SOL    HW126546   0.251   3.524   4.600
 8549SOL    HW226547   0.118   3.577   4.522
 8550SOL     OW26548   1.805   4.926   0.112
 8550SOL    HW126549   1.895   4.968   0.117
 8550SOL    HW226550   1.764   4.947   0.023
 8551SOL     OW26551   3.448   4.297   6.511
 8551SOL    HW126552   3.450   4.335   6.419
 8551SOL    HW226553   3.395   4.357   6.570
 8552SOL     OW26554   2.882   5.989   3.435
 8552SOL    HW126555   2.814   5.926   3.472
 8552SOL    HW226556   2.854   6.018   3.343
 8553SOL     OW26557   5.278   5.794   0.132
 8553SOL    HW126558   5.373   5.783   0.162
 8553SOL    HW226559   5.223   5.719   0.170
 8554SOL     OW26560   0.435   4.852   0.331
 8554SOL    HW126561   0.393   4.907   0.404
 8554SOL    HW226562   0.438   4.906   0.247
 8555SOL     OW26563   1.200   0.508   2.982
 8555SOL    HW126564   1.253   0.542   2.904
 8555SOL    HW226565   1.114   0.469   2.951
 8556SOL     OW26566   0.796   0.141   3.036
 8556SOL    HW126567   0.884   0.185   3.018
 8556SOL    HW226568   0.765   0.167   3.128
 8557SOL     OW26569   6.511   0.508   1.723
 8557SOL    HW126570   6.564   0.474   1.800
 8557SOL    HW226571   6.555   0.481   1.637
 8558SOL     OW26572   2.632   5.390   2.775
 8558SOL    HW126573   2.614   5.311   2.834
 8558SOL    HW226574   2.713   5.438   2.807
 8559SOL     OW26575   0.393   0.603   2.243
 8559SOL    HW126576   0.333   0.606   2.323
 8559SOL    HW226577   0.419   0.696   2.217
 8560SOL     OW26578   6.835   0.291   0.769
 8560SOL    HW126579   6.810   0.358   0.699
 8560SOL    HW226580   6.788   0.314   0.855
 8561SOL     OW26581   4.352   5.847   2.328
 8561SOL    HW126582   4.348   5.946   2.339
 8561SOL    HW226583   4.273   5.816   2.275
 8562SOL     OW26584   5.222   6.488   4.747
 8562SOL    HW126585   5.154   6.560   4.760
 8562SOL    HW226586   5.189   6.403   4.789
 8563SOL     OW26587   2.901   3.461   6.811
 8563SOL    HW126588   2.931   3.529   6.744
 8563SOL    HW226589   2.801   3.450   6.805
 8564SOL     OW26590   1.539   0.775   3.290
 8564SOL    HW126591   1.525   0.864   3.246
 8564SOL    HW226592   1.451   0.740   3.321
 8565SOL     OW26593   3.986   6.854   1.489
 8565SOL    HW126594   3.928   6.799   1.550
 8565SOL    HW226595   4.006   6.802   1.407
 8566SOL     OW26596   0.938   1.526   2.931
 8566SOL    HW126597   0.893   1.438   2.942
 8566SOL    HW226598   0.878   1.589   2.883
 8567SOL     OW26599   6.352   1.559   1.378
 8567SOL    HW126600   6.381   1.601   1.464
 8567SOL    HW226601   6.270   1.504   1.394
 8568SOL     OW26602   5.081   1.534   6.791
 8568SOL    HW126603   4.998   1.485   6.765
 8568SOL    HW226604   5.106   1.510   6.885
 8569SOL     OW26605   4.705   1.557   5.397
 8569SOL    HW126606   4.712   1.577   5.300
 8569SOL    HW226607   4.608   1.546   5.422
 8570SOL     OW26608   1.062   3.884   5.952
 8570SOL    HW126609   1.060   3.978   5.917
 8570SOL    HW226610   0.998   3.828   5.900
 8571SOL     OW26611   0.155   5.336   5.617
 8571SOL    HW126612   0.059   5.309   5.608
 8571SOL    HW226613   0.213   5.256   5.600
 8572SOL     OW26614   2.595   5.212   5.825
 8572SOL    HW126615   2.663   5.187   5.756
 8572SOL    HW226616   2.618   5.301   5.864
 8573SOL     OW26617   3.954   5.890   6.786
 8573SOL    HW126618   3.917   5.827   6.718
 8573SOL    HW226619   3.990   5.837   6.864
 8574SOL     OW26620   1.054   4.942   5.827
 8574SOL    HW126621   1.119   4.865   5.823
 8574SOL    HW226622   1.067   5.001   5.748
 8575SOL     OW26623   2.576   2.466   6.563
 8575SOL    HW126624   2.664   2.502   6.534
 8575SOL    HW226625   2.589   2.406   6.643
 8576SOL     OW26626   0.671   6.817   1.473
 8576SOL    HW126627   0.634   6.745   1.414
 8576SOL    HW226628   0.628   6.813   1.563
 8577SOL     OW26629   6.254   5.218   4.161
 8577SOL    HW126630   6.301   5.265   4.235
 8577SOL    HW226631   6.262   5.270   4.077
 8578SOL     OW26632   4.832   0.400   4.438
 8578SOL    HW126633   4.846   0.368   4.344
 8578SOL    HW226634   4.774   0.335   4.487
 8579SOL     OW26635   1.100   4.939   3.481
 8579SOL    HW126636   1.173   4.972   3.541
 8579SOL    HW226637   1.019   4.917   3.536
 8580SOL     OW26638   2.375   6.882   1.841
 8580SOL    HW126639   2.445   6.855   1.775
 8580SOL    HW226640   2.401   6.850   1.932
 8581SOL     OW26641   3.479   2.119   1.410
 8581SOL    HW126642   3.390   2.129   1.456
 8581SOL    HW226643   3.483   2.180   1.331
 8582SOL     OW26644   4.954   4.585   2.330
 8582SOL    HW126645   5.014   4.506   2.336
 8582SOL    HW226646   4.984   4.655   2.396
 8583SOL     OW26647   6.211   0.956   6.458
 8583SOL    HW126648   6.288   0.911   6.504
 8583SOL    HW226649   6.137   0.890   6.446
 8584SOL     OW26650   0.275   4.463   0.535
 8584SOL    HW126651   0.252   4.506   0.449
 8584SOL    HW226652   0.199   4.472   0.599
 8585SOL     OW26653   0.243   0.347   0.986
 8585SOL    HW126654   0.184   0.312   0.914
 8585SOL    HW226655   0.193   0.347   1.073
 8586SOL     OW26656   2.755   6.514   3.001
 8586SOL    HW126657   2.767   6.613   3.002
 8586SOL    HW226658   2.833   6.471   3.047
 8587SOL     OW26659   0.654   0.958   3.040
 8587SOL    HW126660   0.706   1.026   3.092
 8587SOL    HW226661   0.612   1.002   2.961
 8588SOL     OW26662   3.550   1.807   0.917
 8588SOL    HW126663   3.551   1.762   1.006
 8588SOL    HW226664   3.576   1.741   0.847
 8589SOL     OW26665   3.652   1.516   4.577
 8589SOL    HW126666   3.732   1.465   4.544
 8589SOL    HW226667   3.670   1.614   4.570
 8590SOL     OW26668   6.721   5.736   4.492
 8590SOL    HW126669   6.628   5.770   4.474
 8590SOL    HW226670   6.746   5.757   4.587
 8591SOL     OW26671   0.646   4.411   6.736
 8591SOL    HW126672   0.726   4.369   6.694
 8591SOL    HW226673   0.667   4.437   6.830
 8592SOL     OW26674   0.164   4.598   0.318
 8592SOL    HW126675   0.087   4.541   0.288
 8592SOL    HW226676   0.135   4.694   0.322
 8593SOL     OW26677   1.131   6.769   1.902
 8593SOL    HW126678   1.230   6.755   1.890
 8593SOL    HW226679   1.084   6.682   1.884
 8594SOL     OW26680   3.178   4.017   4.294
 8594SOL    HW126681   3.245   4.055   4.231
 8594SOL    HW226682   3.139   3.933   4.254
 8595SOL     OW26683   2.030   2.192   2.933
 8595SOL    HW126684   2.040   2.167   3.029
 8595SOL    HW226685   2.032   2.109   2.877
 8596SOL     OW26686   6.084   5.446   2.337
 8596SOL    HW126687   6.072   5.531   2.389
 8596SOL    HW226688   6.000   5.391   2.342
 8597SOL     OW26689   4.048   2.033   1.277
 8597SOL    HW126690   4.086   2.044   1.369
 8597SOL    HW226691   3.948   2.034   1.281
 8598SOL     OW26692   6.915   5.282   0.886
 8598SOL    HW126693   6.929   5.184   0.870
 8598SOL    HW226694   6.937   5.333   0.803
 8599SOL     OW26695   0.986   3.157   4.008
 8599SOL    HW126696   1.033   3.169   4.096
 8599SOL    HW226697   0.892   3.188   4.016
 8600SOL     OW26698   6.370   4.535   6.582
 8600SOL    HW126699   6.330   4.529   6.673
 8600SOL    HW226700   6.328   4.611   6.533
 8601SOL     OW26701   0.263   1.285   4.909
 8601SOL    HW126702   0.316   1.243   4.983
 8601SOL    HW226703   0.285   1.382   4.904
 8602SOL     OW26704   2.793   6.775   2.983
 8602SOL    HW126705   2.724   6.845   2.965
 8602SOL    HW226706   2.840   6.796   3.069
 8603SOL     OW26707   3.555   3.846   6.999
 8603SOL    HW126708   3.486   3.901   6.952
 8603SOL    HW226709   3.602   3.788   6.932
 8604SOL     OW26710   6.329   2.673   3.533
 8604SOL    HW126711   6.326   2.749   3.468
 8604SOL    HW226712   6.413   2.679   3.587
 8605SOL     OW26713   3.834   5.167   4.324
 8605SOL    HW126714   3.839   5.071   4.353
 8605SOL    HW226715   3.759   5.178   4.260
 8606SOL     OW26716   2.455   4.123   5.760
 8606SOL    HW126717   2.439   4.105   5.663
 8606SOL    HW226718   2.533   4.185   5.771
 8607SOL     OW26719   3.643   5.560   1.346
 8607SOL    HW126720   3.692   5.479   1.377
 8607SOL    HW226721   3.550   5.535   1.318
 8608SOL     OW26722   4.245   5.018   2.593
 8608SOL    HW126723   4.311   4.951   2.558
 8608SOL    HW226724   4.290   5.077   2.660
 8609SOL     OW26725   3.508   0.225   4.306
 8609SOL    HW126726   3.496   0.314   4.261
 8609SOL    HW226727   3.540   0.239   4.400
 8610SOL     OW26728   1.257   0.023   3.001
 8610SOL    HW126729   1.243   0.075   2.916
 8610SOL    HW226730   1.353   0.026   3.026
 8611SOL     OW26731   1.474   2.283   4.638
 8611SOL    HW126732   1.465   2.356   4.571
 8611SOL    HW226733   1.529   2.209   4.599
 8612SOL     OW26734   3.034   3.540   6.457
 8612SOL    HW126735   3.059   3.634   6.478
 8612SOL    HW226736   3.112   3.493   6.415
 8613SOL     OW26737   2.203   1.437   1.207
 8613SOL    HW126738   2.150   1.493   1.144
 8613SOL    HW226739   2.226   1.350   1.163
 8614SOL     OW26740   0.738   4.110   3.070
 8614SOL    HW126741   0.798   4.030   3.073
 8614SOL    HW226742   0.786   4.186   3.025
 8615SOL     OW26743   4.679   2.041   5.525
 8615SOL    HW126744   4.585   2.009   5.521
 8615SOL    HW226745   4.740   1.967   5.494
 8616SOL     OW26746   0.481   4.632   0.510
 8616SOL    HW126747   0.449   4.541   0.487
 8616SOL    HW226748   0.427   4.700   0.461
 8617SOL     OW26749   6.523   1.938   0.378
 8617SOL    HW126750   6.620   1.959   0.377
 8617SOL    HW226751   6.479   1.975   0.296
 8618SOL     OW26752   4.425   6.852   1.907
 8618SOL    HW126753   4.408   6.832   1.811
 8618SOL    HW226754   4.368   6.930   1.936
 8619SOL     OW26755   4.080   5.116   0.554
 8619SOL    HW126756   4.002   5.080   0.605
 8619SOL    HW226757   4.133   5.178   0.612
 8620SOL     OW26758   6.068   6.800   2.554
 8620SOL    HW126759   6.167   6.799   2.561
 8620SOL    HW226760   6.033   6.889   2.585
 8621SOL     OW26761   6.290   1.205   3.871
 8621SOL    HW126762   6.355   1.177   3.941
 8621SOL    HW226763   6.197   1.194   3.905
 8622SOL     OW26764   5.006   4.409   0.178
 8622SOL    HW126765   5.104   4.393   0.183
 8622SOL    HW226766   4.989   4.507   0.168
 8623SOL     OW26767   0.526   4.518   2.940
 8623SOL    HW126768   0.593   4.590   2.959
 8623SOL    HW226769   0.514   4.462   3.022
 8624SOL     OW26770   1.158   4.674   3.501
 8624SOL    HW126771   1.073   4.624   3.487
 8624SOL    HW226772   1.142   4.772   3.485
 8625SOL     OW26773   4.673   0.653   4.398
 8625SOL    HW126774   4.720   0.574   4.439
 8625SOL    HW226775   4.590   0.622   4.352
 8626SOL     OW26776   3.782   3.551   4.168
 8626SOL    HW126777   3.736   3.476   4.216
 8626SOL    HW226778   3.729   3.577   4.087
 8627SOL     OW26779   1.243   0.670   1.922
 8627SOL    HW126780   1.328   0.668   1.869
 8627SOL    HW226781   1.166   0.686   1.860
 8628SOL     OW26782   6.289   6.842   0.651
 8628SOL    HW126783   6.201   6.879   0.620
 8628SOL    HW226784   6.273   6.779   0.727
 8629SOL     OW26785   1.733   4.560   4.268
 8629SOL    HW126786   1.739   4.640   4.208
 8629SOL    HW226787   1.825   4.523   4.283
 8630SOL     OW26788   6.088   4.030   5.004
 8630SOL    HW126789   6.045   3.948   4.967
 8630SOL    HW226790   6.100   4.019   5.103
 8631SOL     OW26791   3.927   6.269   5.905
 8631SOL    HW126792   3.962   6.278   5.812
 8631SOL    HW226793   3.948   6.352   5.957
 8632SOL     OW26794   3.440   6.626   4.110
 8632SOL    HW126795   3.495   6.547   4.139
 8632SOL    HW226796   3.343   6.606   4.126
 8633SOL     OW26797   5.559   1.494   4.271
 8633SOL    HW126798   5.590   1.458   4.183
 8633SOL    HW226799   5.553   1.419   4.338
 8634SOL     OW26800   6.493   3.655   1.352
 8634SOL    HW126801   6.506   3.747   1.314
 8634SOL    HW226802   6.419   3.656   1.418
 8635SOL     OW26803   6.007   3.898   5.855
 8635SOL    HW126804   5.981   3.830   5.924
 8635SOL    HW226805   5.926   3.923   5.801
 8636SOL     OW26806   6.313   4.831   6.508
 8636SOL    HW126807   6.366   4.806   6.427
 8636SOL    HW226808   6.338   4.923   6.538
 8637SOL     OW26809   1.809   1.142   0.427
 8637SOL    HW126810   1.795   1.221   0.487
 8637SOL    HW226811   1.734   1.136   0.362
 8638SOL     OW26812   2.131   3.283   0.182
 8638SOL    HW126813   2.106   3.270   0.086
 8638SOL    HW226814   2.193   3.361   0.190
 8639SOL     OW26815   5.487   2.504   1.870
 8639SOL    HW126816   5.463   2.495   1.967
 8639SOL    HW226817   5.409   2.477   1.813
 8640SOL     OW26818   4.803   3.924   0.453
 8640SOL    HW126819   4.759   3.834   0.445
 8640SOL    HW226820   4.817   3.963   0.362
 8641SOL     OW26821   6.628   3.618   3.979
 8641SOL    HW126822   6.651   3.715   3.973
 8641SOL    HW226823   6.540   3.601   3.935
 8642SOL     OW26824   4.814   0.305   2.440
 8642SOL    HW126825   4.872   0.278   2.517
 8642SOL    HW226826   4.864   0.368   2.381
 8643SOL     OW26827   4.790   6.781   0.081
 8643SOL    HW126828   4.746   6.697   0.110
 8643SOL    HW226829   4.723   6.841   0.036
 8644SOL     OW26830   5.249   2.778   5.192
 8644SOL    HW126831   5.256   2.863   5.243
 8644SOL    HW226832   5.198   2.711   5.245
 8645SOL     OW26833   5.778   4.877   1.326
 8645SOL    HW126834   5.823   4.909   1.244
 8645SOL    HW226835   5.843   4.829   1.384
 8646SOL     OW26836   5.098   0.945   0.829
 8646SOL    HW126837   5.105   0.847   0.842
 8646SOL    HW226838   5.174   0.990   0.877
 8647SOL     OW26839   3.632   4.718   0.107
 8647SOL    HW126840   3.689   4.644   0.073
 8647SOL    HW226841   3.685   4.775   0.170
 8648SOL     OW26842   5.678   1.004   4.844
 8648SOL    HW126843   5.733   0.960   4.915
 8648SOL    HW226844   5.626   1.079   4.884
 8649SOL     OW26845   5.854   4.638   5.446
 8649SOL    HW126846   5.793   4.689   5.385
 8649SOL    HW226847   5.947   4.676   5.440
 8650SOL     OW26848   2.077   4.950   3.961
 8650SOL    HW126849   2.106   4.855   3.974
 8650SOL    HW226850   2.115   4.985   3.875
 8651SOL     OW26851   3.936   0.959   0.397
 8651SOL    HW126852   3.851   0.940   0.446
 8651SOL    HW226853   3.978   0.872   0.368
 8652SOL     OW26854   1.859   4.304   3.302
 8652SOL    HW126855   1.766   4.281   3.275
 8652SOL    HW226856   1.868   4.294   3.401
 8653SOL     OW26857   6.508   2.583   6.471
 8653SOL    HW126858   6.539   2.584   6.376
 8653SOL    HW226859   6.451   2.664   6.488
 8654SOL     OW26860   0.370   5.928   2.538
 8654SOL    HW126861   0.322   5.886   2.615
 8654SOL    HW226862   0.363   6.027   2.544
 8655SOL     OW26863   6.104   0.339   4.218
 8655SOL    HW126864   6.165   0.398   4.166
 8655SOL    HW226865   6.009   0.363   4.196
 8656SOL     OW26866   6.130   0.931   1.201
 8656SOL    HW126867   6.169   0.961   1.288
 8656SOL    HW226868   6.095   1.010   1.151
 8657SOL     OW26869   4.146   5.229   6.292
 8657SOL    HW126870   4.048   5.217   6.303
 8657SOL    HW226871   4.172   5.210   6.197
 8658SOL     OW26872   4.645   5.278   0.117
 8658SOL    HW126873   4.643   5.308   0.022
 8658SOL    HW226874   4.688   5.187   0.123
 8659SOL     OW26875   4.838   0.825   3.166
 8659SOL    HW126876   4.785   0.824   3.081
 8659SOL    HW226877   4.928   0.865   3.148
 8660SOL     OW26878   6.047   3.864   0.554
 8660SOL    HW126879   5.988   3.785   0.572
 8660SOL    HW226880   6.019   3.907   0.468
 8661SOL     OW26881   5.938   4.108   1.964
 8661SOL    HW126882   5.925   4.117   2.062
 8661SOL    HW226883   5.991   4.186   1.930
 8662SOL     OW26884   5.781   6.549   1.846
 8662SOL    HW126885   5.762   6.485   1.771
 8662SOL    HW226886   5.875   6.537   1.877
 8663SOL     OW26887   2.435   5.654   0.611
 8663SOL    HW126888   2.482   5.619   0.692
 8663SOL    HW226889   2.492   5.724   0.567
 8664SOL     OW26890   4.527   5.001   0.357
 8664SOL    HW126891   4.584   4.945   0.296
 8664SOL    HW226892   4.567   5.092   0.366
 8665SOL     OW26893   5.255   5.664   5.777
 8665SOL    HW126894   5.278   5.570   5.800
 8665SOL    HW226895   5.214   5.667   5.685
 8666SOL     OW26896   5.337   2.396   5.188
 8666SOL    HW126897   5.402   2.332   5.229
 8666SOL    HW226898   5.318   2.367   5.094
 8667SOL     OW26899   5.097   2.193   3.184
 8667SOL    HW126900   5.036   2.272   3.187
 8667SOL    HW226901   5.163   2.199   3.259
 8668SOL     OW26902   5.025   2.449   3.700
 8668SOL    HW126903   4.992   2.512   3.630
 8668SOL    HW226904   5.043   2.499   3.785
 8669SOL     OW26905   3.831   0.185   6.461
 8669SOL    HW126906   3.827   0.109   6.526
 8669SOL    HW226907   3.750   0.244   6.474
 8670SOL     OW26908   3.711   5.327   5.448
 8670SOL    HW126909   3.702   5.351   5.351
 8670SOL    HW226910   3.803   5.350   5.479
 8671SOL     OW26911   5.293   0.743   3.981
 8671SOL    HW126912   5.234   0.707   4.054
 8671SOL    HW226913   5.255   0.717   3.892
 8672SOL     OW26914   2.331   6.050   4.488
 8672SOL    HW126915   2.319   5.985   4.563
 8672SOL    HW226916   2.429   6.065   4.473
 8673SOL     OW26917   0.534   0.599   0.379
 8673SOL    HW126918   0.561   0.613   0.474
 8673SOL    HW226919   0.593   0.529   0.338
 8674SOL     OW26920   6.726   6.010   2.211
 8674SOL    HW126921   6.820   5.989   2.184
 8674SOL    HW226922   6.710   5.977   2.304
 8675SOL     OW26923   3.524   2.073   4.183
 8675SOL    HW126924   3.547   1.978   4.162
 8675SOL    HW226925   3.441   2.099   4.133
 8676SOL     OW26926   3.256   0.072   3.190
 8676SOL    HW126927   3.210   0.150   3.147
 8676SOL    HW226928   3.216   0.054   3.279
 8677SOL     OW26929   2.313   5.659   6.502
 8677SOL    HW126930   2.229   5.630   6.456
 8677SOL    HW226931   2.369   5.579   6.523
 8678SOL     OW26932   0.727   0.056   6.974
 8678SOL    HW126933   0.793   0.029   0.022
 8678SOL    HW226934   0.666   7.001   6.955
 8679SOL     OW26935   5.740   2.311   4.132
 8679SOL    HW126936   5.797   2.298   4.213
 8679SOL    HW226937   5.667   2.242   4.132
 8680SOL     OW26938   0.764   3.611   1.240
 8680SOL    HW126939   0.824   3.547   1.288
 8680SOL    HW226940   0.790   3.617   1.144
 8681SOL     OW26941   4.829   4.647   6.886
 8681SOL    HW126942   4.851   4.744   6.884
 8681SOL    HW226943   4.746   4.633   6.940
 8682SOL     OW26944   3.602   6.505   2.881
 8682SOL    HW126945   3.640   6.565   2.951
 8682SOL    HW226946   3.505   6.528   2.867
 8683SOL     OW26947   1.428   2.377   2.377
 8683SOL    HW126948   1.381   2.331   2.302
 8683SOL    HW226949   1.417   2.325   2.461
 8684SOL     OW26950   0.520   3.226   4.385
 8684SOL    HW126951   0.549   3.131   4.381
 8684SOL    HW226952   0.434   3.233   4.435
 8685SOL     OW26953   1.431   1.990   5.901
 8685SOL    HW126954   1.449   2.083   5.869
 8685SOL    HW226955   1.423   1.990   6.000
 8686SOL     OW26956   6.576   1.826   1.938
 8686SOL    HW126957   6.552   1.773   2.019
 8686SOL    HW226958   6.493   1.854   1.890
 8687SOL     OW26959   3.549   6.285   2.699
 8687SOL    HW126960   3.554   6.251   2.605
 8687SOL    HW226961   3.618   6.356   2.712
 8688SOL     OW26962   3.081   6.310   6.897
 8688SOL    HW126963   3.060   6.215   6.922
 8688SOL    HW226964   3.017   6.341   6.827
 8689SOL     OW26965   3.425   6.054   0.181
 8689SOL    HW126966   3.436   6.039   0.280
 8689SOL    HW226967   3.386   5.972   0.139
 8690SOL     OW26968   1.686   2.402   3.838
 8690SOL    HW126969   1.693   2.303   3.828
 8690SOL    HW226970   1.638   2.441   3.760
 8691SOL     OW26971   4.341   2.758   6.465
 8691SOL    HW126972   4.352   2.849   6.505
 8691SOL    HW226973   4.315   2.766   6.369
 8692SOL     OW26974   3.612   2.133   2.504
 8692SOL    HW126975   3.624   2.056   2.441
 8692SOL    HW226976   3.548   2.199   2.465
 8693SOL     OW26977   5.689   1.802   1.105
 8693SOL    HW126978   5.597   1.823   1.071
 8693SOL    HW226979   5.740   1.753   1.035
 8694SOL     OW26980   4.608   0.285   6.724
 8694SOL    HW126981   4.667   0.237   6.659
 8694SOL    HW226982   4.656   0.293   6.812
 8695SOL     OW26983   4.408   2.382   5.971
 8695SOL    HW126984   4.350   2.343   5.899
 8695SOL    HW226985   4.502   2.387   5.939
 8696SOL     OW26986   3.420   5.776   0.880
 8696SOL    HW126987   3.392   5.852   0.820
 8696SOL    HW226988   3.484   5.717   0.831
 8697SOL     OW26989   6.528   3.780   0.901
 8697SOL    HW126990   6.507   3.875   0.877
 8697SOL    HW226991   6.621   3.758   0.873
 8698SOL     OW26992   5.594   6.031   3.797
 8698SOL    HW126993   5.592   6.104   3.728
 8698SOL    HW226994   5.645   5.953   3.761
 8699SOL     OW26995   0.785   2.240   5.521
 8699SOL    HW126996   0.742   2.174   5.583
 8699SOL    HW226997   0.854   2.293   5.571
 8700SOL     OW26998   2.510   0.728   4.944
 8700SOL    HW126999   2.489   0.631   4.956
 8700SOL    HW227000   2.497   0.776   5.031
 8701SOL     OW27001   1.060   0.843   6.274
 8701SOL    HW127002   0.991   0.876   6.211
 8701SOL    HW227003   1.083   0.748   6.253
 8702SOL     OW27004   5.405   4.781   0.195
 8702SOL    HW127005   5.480   4.716   0.184
 8702SOL    HW227006   5.408   4.849   0.122
 8703SOL     OW27007   3.029   5.906   1.517
 8703SOL    HW127008   2.974   5.886   1.598
 8703SOL    HW227009   2.971   5.950   1.448
 8704SOL     OW27010   6.464   3.607   2.830
 8704SOL    HW127011   6.411   3.612   2.745
 8704SOL    HW227012   6.421   3.665   2.899
 8705SOL     OW27013   5.248   1.057   6.976
 8705SOL    HW127014   5.221   0.969   6.938
 8705SOL    HW227015   5.201   1.073   0.040
 8706SOL     OW27016   4.637   2.379   5.865
 8706SOL    HW127017   4.721   2.421   5.899
 8706SOL    HW227018   4.657   2.288   5.829
 8707SOL     OW27019   4.994   2.344   0.330
 8707SOL    HW127020   4.979   2.293   0.414
 8707SOL    HW227021   5.041   2.287   0.263
 8708SOL     OW27022   4.226   1.501   2.046
 8708SOL    HW127023   4.254   1.587   2.003
 8708SOL    HW227024   4.294   1.474   2.114
 8709SOL     OW27025   6.473   5.310   6.589
 8709SOL    HW127026   6.396   5.327   6.651
 8709SOL    HW227027   6.484   5.212   6.576
 8710SOL     OW27028   2.144   2.992   3.279
 8710SOL    HW127029   2.054   2.953   3.262
 8710SOL    HW227030   2.172   2.975   3.374
 8711SOL     OW27031   0.106   6.328   2.247
 8711SOL    HW127032   0.030   6.279   2.203
 8711SOL    HW227033   0.139   6.400   2.187
 8712SOL     OW27034   4.060   1.919   4.058
 8712SOL    HW127035   4.017   1.963   4.138
 8712SOL    HW227036   4.142   1.870   4.087
 8713SOL     OW27037   6.877   4.186   3.561
 8713SOL    HW127038   6.854   4.106   3.616
 8713SOL    HW227039   6.976   4.198   3.559
 8714SOL     OW27040   0.766   1.113   5.844
 8714SOL    HW127041   0.791   1.140   5.751
 8714SOL    HW227042   0.829   1.156   5.909
 8715SOL     OW27043   5.177   0.697   1.228
 8715SOL    HW127044   5.164   0.599   1.210
 8715SOL    HW227045   5.104   0.730   1.288
 8716SOL     OW27046   1.143   1.803   1.191
 8716SOL    HW127047   1.085   1.775   1.267
 8716SOL    HW227048   1.088   1.851   1.123
 8717SOL     OW27049   4.165   3.605   2.294
 8717SOL    HW127050   4.248   3.552   2.308
 8717SOL    HW227051   4.156   3.673   2.367
 8718SOL     OW27052   0.827   2.258   5.243
 8718SOL    HW127053   0.800   2.248   5.339
 8718SOL    HW227054   0.914   2.305   5.237
 8719SOL     OW27055   2.106   0.295   6.030
 8719SOL    HW127056   2.204   0.315   6.032
 8719SOL    HW227057   2.085   0.221   6.093
 8720SOL     OW27058   6.795   5.396   5.296
 8720SOL    HW127059   6.754   5.484   5.318
 8720SOL    HW227060   6.776   5.373   5.200
 8721SOL     OW27061   6.198   2.395   3.992
 8721SOL    HW127062   6.200   2.354   4.083
 8721SOL    HW227063   6.104   2.395   3.958
 8722SOL     OW27064   4.008   0.372   0.929
 8722SOL    HW127065   3.989   0.374   1.028
 8722SOL    HW227066   4.058   0.288   0.907
 8723SOL     OW27067   5.682   5.859   1.019
 8723SOL    HW127068   5.682   5.861   0.919
 8723SOL    HW227069   5.591   5.886   1.052
 8724SOL     OW27070   5.869   0.004   5.070
 8724SOL    HW127071   5.883   6.941   5.019
 8724SOL    HW227072   5.793   7.015   5.133
 8725SOL     OW27073   1.921   0.546   0.189
 8725SOL    HW127074   2.003   0.529   0.135
 8725SOL    HW227075   1.910   0.474   0.257
 8726SOL     OW27076   6.585   0.471   1.449
 8726SOL    HW127077   6.531   0.482   1.366
 8726SOL    HW227078   6.682   0.474   1.426
 8727SOL     OW27079   6.758   6.609   1.840
 8727SOL    HW127080   6.768   6.596   1.741
 8727SOL    HW227081   6.848   6.600   1.883
 8728SOL     OW27082   4.149   0.388   5.000
 8728SOL    HW127083   4.191   0.394   4.910
 8728SOL    HW227084   4.153   0.293   5.032
 8729SOL     OW27085   5.071   5.760   3.414
 8729SOL    HW127086   5.099   5.664   3.427
 8729SOL    HW227087   5.145   5.809   3.368
 8730SOL     OW27088   6.690   5.670   2.827
 8730SOL    HW127089   6.682   5.761   2.788
 8730SOL    HW227090   6.776   5.663   2.878
 8731SOL     OW27091   2.087   1.878   2.989
 8731SOL    HW127092   2.155   1.828   2.936
 8731SOL    HW227093   2.133   1.934   3.058
 8732SOL     OW27094   5.263   4.261   2.031
 8732SOL    HW127095   5.258   4.213   2.119
 8732SOL    HW227096   5.259   4.195   1.956
 8733SOL     OW27097   1.419   6.066   3.311
 8733SOL    HW127098   1.361   6.102   3.238
 8733SOL    HW227099   1.362   6.030   3.385
 8734SOL     OW27100   1.260   4.850   1.566
 8734SOL    HW127101   1.329   4.922   1.561
 8734SOL    HW227102   1.282   4.787   1.640
 8735SOL     OW27103   0.705   1.960   0.005
 8735SOL    HW127104   0.660   1.889   0.058
 8735SOL    HW227105   0.802   1.965   0.029
 8736SOL     OW27106   0.544   6.461   0.051
 8736SOL    HW127107   0.594   6.530   0.104
 8736SOL    HW227108   0.595   6.440   6.990
 8737SOL     OW27109   3.770   6.820   6.308
 8737SOL    HW127110   3.860   6.863   6.307
 8737SOL    HW227111   3.751   6.783   6.399
 8738SOL     OW27112   1.523   3.851   4.270
 8738SOL    HW127113   1.588   3.909   4.320
 8738SOL    HW227114   1.507   3.767   4.321
 8739SOL     OW27115   6.522   5.038   6.529
 8739SOL    HW127116   6.584   4.973   6.572
 8739SOL    HW227117   6.521   5.023   6.431
 8740SOL     OW27118   4.086   0.836   5.901
 8740SOL    HW127119   4.095   0.740   5.874
 8740SOL    HW227120   4.090   0.894   5.819
 8741SOL     OW27121   1.927   1.809   1.720
 8741SOL    HW127122   1.862   1.750   1.673
 8741SOL    HW227123   1.902   1.815   1.817
 8742SOL     OW27124   4.889   5.809   1.765
 8742SOL    HW127125   4.856   5.729   1.716
 8742SOL    HW227126   4.844   5.815   1.854
 8743SOL     OW27127   1.934   6.956   2.554
 8743SOL    HW127128   1.908   6.987   2.463
 8743SOL    HW227129   2.024   6.994   2.578
 8744SOL     OW27130   3.781   2.410   6.070
 8744SOL    HW127131   3.748   2.498   6.038
 8744SOL    HW227132   3.705   2.345   6.074
 8745SOL     OW27133   6.065   2.493   5.850
 8745SOL    HW127134   6.110   2.468   5.764
 8745SOL    HW227135   5.976   2.449   5.856
 8746SOL     OW27136   4.155   4.221   5.608
 8746SOL    HW127137   4.253   4.240   5.619
 8746SOL    HW227138   4.134   4.211   5.511
 8747SOL     OW27139   0.641   2.553   3.596
 8747SOL    HW127140   0.566   2.594   3.648
 8747SOL    HW227141   0.728   2.583   3.634
 8748SOL     OW27142   0.870   0.589   6.775
 8748SOL    HW127143   0.946   0.565   6.715
 8748SOL    HW227144   0.814   0.508   6.793
 8749SOL     OW27145   2.862   0.320   4.682
 8749SOL    HW127146   2.880   0.370   4.767
 8749SOL    HW227147   2.912   0.362   4.606
 8750SOL     OW27148   2.352   2.992   5.384
 8750SOL    HW127149   2.355   3.087   5.415
 8750SOL    HW227150   2.382   2.987   5.289
 8751SOL     OW27151   6.820   0.325   2.097
 8751SOL    HW127152   6.762   0.246   2.121
 8751SOL    HW227153   6.911   0.293   2.070
 8752SOL     OW27154   3.002   4.095   0.160
 8752SOL    HW127155   2.906   4.121   0.151
 8752SOL    HW227156   3.053   4.170   0.203
 8753SOL     OW27157   5.024   1.519   4.651
 8753SOL    HW127158   5.026   1.524   4.551
 8753SOL    HW227159   5.089   1.449   4.681
 8754SOL     OW27160   0.622   2.060   5.698
 8754SOL    HW127161   0.624   2.014   5.787
 8754SOL    HW227162   0.527   2.076   5.672
 8755SOL     OW27163   2.897   1.604   6.771
 8755SOL    HW127164   2.835   1.657   6.714
 8755SOL    HW227165   2.986   1.597   6.726
 8756SOL     OW27166   2.154   3.252   3.489
 8756SOL    HW127167   2.121   3.299   3.571
 8756SOL    HW227168   2.178   3.157   3.513
 8757SOL     OW27169   6.126   6.284   6.150
 8757SOL    HW127170   6.194   6.331   6.093
 8757SOL    HW227171   6.039   6.278   6.101
 8758SOL     OW27172   5.458   6.006   2.281
 8758SOL    HW127173   5.365   6.042   2.285
 8758SOL    HW227174   5.509   6.054   2.210
 8759SOL     OW27175   4.405   1.316   6.312
 8759SOL    HW127176   4.328   1.359   6.360
 8759SOL    HW227177   4.389   1.218   6.303
 8760SOL     OW27178   1.972   1.571   4.766
 8760SOL    HW127179   1.913   1.496   4.797
 8760SOL    HW227180   1.988   1.561   4.667
 8761SOL     OW27181   4.803   0.516   1.111
 8761SOL    HW127182   4.770   0.475   1.026
 8761SOL    HW227183   4.903   0.509   1.115
 8762SOL     OW27184   1.300   3.380   2.827
 8762SOL    HW127185   1.332   3.285   2.833
 8762SOL    HW227186   1.374   3.441   2.855
 8763SOL     OW27187   5.869   6.038   4.984
 8763SOL    HW127188   5.863   6.073   4.891
 8763SOL    HW227189   5.925   6.099   5.039
 8764SOL     OW27190   5.051   1.245   3.932
 8764SOL    HW127191   5.040   1.333   3.977
 8764SOL    HW227192   5.091   1.179   3.996
 8765SOL     OW27193   5.997   6.698   4.956
 8765SOL    HW127194   5.933   6.625   4.933
 8765SOL    HW227195   6.038   6.680   5.045
 8766SOL     OW27196   3.435   4.937   3.587
 8766SOL    HW127197   3.451   5.005   3.515
 8766SOL    HW227198   3.519   4.886   3.604
 8767SOL     OW27199   4.318   0.497   2.787
 8767SOL    HW127200   4.283   0.551   2.710
 8767SOL    HW227201   4.242   0.465   2.843
 8768SOL     OW27202   2.258   2.972   0.074
 8768SOL    HW127203   2.269   2.978   0.174
 8768SOL    HW227204   2.189   2.903   0.053
 8769SOL     OW27205   0.952   0.129   5.335
 8769SOL    HW127206   0.866   0.093   5.298
 8769SOL    HW227207   1.023   0.060   5.327
 8770SOL     OW27208   4.940   3.965   2.037
 8770SOL    HW127209   4.911   4.019   2.116
 8770SOL    HW227210   4.990   3.884   2.068
 8771SOL     OW27211   2.169   1.081   6.153
 8771SOL    HW127212   2.139   0.993   6.116
 8771SOL    HW227213   2.088   1.135   6.180
 8772SOL     OW27214   5.629   0.219   6.946
 8772SOL    HW127215   5.722   0.244   6.919
 8772SOL    HW227216   5.623   0.215   0.023
 8773SOL     OW27217   4.057   2.180   3.377
 8773SOL    HW127218   4.138   2.175   3.317
 8773SOL    HW227219   3.984   2.126   3.337
 8774SOL     OW27220   1.701   1.487   0.504
 8774SOL    HW127221   1.732   1.483   0.599
 8774SOL    HW227222   1.603   1.507   0.502
 8775SOL     OW27223   5.754   0.063   4.216
 8775SOL    HW127224   5.756   0.128   4.292
 8775SOL    HW227225   5.805   0.101   4.138
 8776SOL     OW27226   3.832   2.953   4.841
 8776SOL    HW127227   3.880   2.881   4.891
 8776SOL    HW227228   3.736   2.929   4.832
 8777SOL     OW27229   0.039   4.808   1.426
 8777SOL    HW127230   0.038   4.903   1.394
 8777SOL    HW227231   6.987   4.794   1.491
 8778SOL     OW27232   0.475   1.861   3.822
 8778SOL    HW127233   0.529   1.778   3.837
 8778SOL    HW227234   0.458   1.872   3.724
 8779SOL     OW27235   1.572   5.537   2.526
 8779SOL    HW127236   1.620   5.605   2.581
 8779SOL    HW227237   1.570   5.450   2.574
 8780SOL     OW27238   1.643   5.617   3.521
 8780SOL    HW127239   1.597   5.528   3.513
 8780SOL    HW227240   1.640   5.664   3.433
 8781SOL     OW27241   6.615   1.276   3.636
 8781SOL    HW127242   6.548   1.349   3.644
 8781SOL    HW227243   6.575   1.190   3.667
 8782SOL     OW27244   5.983   0.885   1.831
 8782SOL    HW127245   5.986   0.846   1.739
 8782SOL    HW227246   6.031   0.824   1.894
 8783SOL     OW27247   6.141   3.783   3.731
 8783SOL    HW127248   6.211   3.774   3.661
 8783SOL    HW227249   6.180   3.758   3.820
 8784SOL     OW27250   5.043   4.768   5.220
 8784SOL    HW127251   4.971   4.734   5.159
 8784SOL    HW227252   5.063   4.863   5.197
 8785SOL     OW27253   5.643   3.853   0.429
 8785SOL    HW127254   5.714   3.820   0.367
 8785SOL    HW227255   5.584   3.776   0.455
 8786SOL     OW27256   2.215   6.954   6.820
 8786SOL    HW127257   2.189   6.858   6.815
 8786SOL    HW227258   2.242   6.986   6.730
 8787SOL     OW27259   1.530   3.064   2.403
 8787SOL    HW127260   1.570   3.091   2.491
 8787SOL    HW227261   1.567   3.122   2.331
 8788SOL     OW27262   6.421   2.310   5.254
 8788SOL    HW127263   6.338   2.330   5.306
 8788SOL    HW227264   6.500   2.350   5.300
 8789SOL     OW27265   6.317   0.203   6.349
 8789SOL    HW127266   6.296   0.107   6.369
 8789SOL    HW227267   6.351   0.212   6.256
 8790SOL     OW27268   6.553   1.099   0.133
 8790SOL    HW127269   6.591   1.190   0.150
 8790SOL    HW227270   6.601   1.057   0.056
 8791SOL     OW27271   5.173   0.096   5.673
 8791SOL    HW127272   5.102   0.130   5.612
 8791SOL    HW227273   5.207   0.171   5.730
 8792SOL     OW27274   3.660   6.797   3.225
 8792SOL    HW127275   3.606   6.860   3.281
 8792SOL    HW227276   3.700   6.726   3.283
 8793SOL     OW27277   2.026   5.639   4.052
 8793SOL    HW127278   2.078   5.611   3.970
 8793SOL    HW227279   1.953   5.573   4.069
 8794SOL     OW27280   3.450   6.671   3.108
 8794SOL    HW127281   3.528   6.725   3.139
 8794SOL    HW227282   3.419   6.705   3.019
 8795SOL     OW27283   1.690   6.583   5.384
 8795SOL    HW127284   1.784   6.583   5.348
 8795SOL    HW227285   1.636   6.512   5.338
 8796SOL     OW27286   4.186   1.799   5.400
 8796SOL    HW127287   4.211   1.729   5.334
 8796SOL    HW227288   4.197   1.763   5.493
 8797SOL     OW27289   1.782   6.191   6.472
 8797SOL    HW127290   1.785   6.189   6.572
 8797SOL    HW227291   1.860   6.243   6.438
 8798SOL     OW27292   6.066   4.172   5.851
 8798SOL    HW127293   6.072   4.074   5.869
 8798SOL    HW227294   6.108   4.192   5.762
 8799SOL     OW27295   2.185   4.469   3.563
 8799SOL    HW127296   2.218   4.441   3.473
 8799SOL    HW227297   2.106   4.530   3.552
 8800SOL     OW27298   5.261   3.836   5.529
 8800SOL    HW127299   5.332   3.848   5.460
 8800SOL    HW227300   5.265   3.910   5.595
 8801SOL     OW27301   2.180   1.319   4.071
 8801SOL    HW127302   2.278   1.335   4.088
 8801SOL    HW227303   2.146   1.388   4.007
 8802SOL     OW27304   1.233   0.164   1.277
 8802SOL    HW127305   1.191   0.212   1.199
 8802SOL    HW227306   1.194   0.200   1.362
 8803SOL     OW27307   1.507   4.719   6.114
 8803SOL    HW127308   1.576   4.657   6.079
 8803SOL    HW227309   1.530   4.746   6.207
 8804SOL     OW27310   4.422   0.958   1.912
 8804SOL    HW127311   4.384   1.042   1.874
 8804SOL    HW227312   4.478   0.980   1.992
 8805SOL     OW27313   1.522   0.074   3.639
 8805SOL    HW127314   1.476   0.077   3.550
 8805SOL    HW227315   1.488   0.148   3.697
 8806SOL     OW27316   2.250   5.058   1.371
 8806SOL    HW127317   2.325   4.994   1.385
 8806SOL    HW227318   2.164   5.014   1.399
 8807SOL     OW27319   6.557   5.759   5.840
 8807SOL    HW127320   6.509   5.737   5.756
 8807SOL    HW227321   6.620   5.684   5.863
 8808SOL     OW27322   5.344   1.455   0.482
 8808SOL    HW127323   5.286   1.534   0.497
 8808SOL    HW227324   5.374   1.418   0.570
 8809SOL     OW27325   5.318   3.628   1.700
 8809SOL    HW127326   5.397   3.686   1.721
 8809SOL    HW227327   5.234   3.678   1.717
 8810SOL     OW27328   6.011   1.773   4.862
 8810SOL    HW127329   5.933   1.722   4.899
 8810SOL    HW227330   6.086   1.710   4.843
 8811SOL     OW27331   2.284   1.862   4.068
 8811SOL    HW127332   2.186   1.875   4.074
 8811SOL    HW227333   2.317   1.819   4.152
 8812SOL     OW27334   0.411   0.629   0.671
 8812SOL    HW127335   0.335   0.654   0.612
 8812SOL    HW227336   0.379   0.622   0.766
 8813SOL     OW27337   1.190   5.127   1.288
 8813SOL    HW127338   1.283   5.122   1.324
 8813SOL    HW227339   1.193   5.143   1.189
 8814SOL     OW27340   0.131   0.620   7.015
 8814SOL    HW127341   0.192   0.611   0.072
 8814SOL    HW227342   0.077   0.537   7.006
 8815SOL     OW27343   6.571   5.881   0.930
 8815SOL    HW127344   6.575   5.801   0.869
 8815SOL    HW227345   6.510   5.861   1.006
 8816SOL     OW27346   1.405   6.853   1.368
 8816SOL    HW127347   1.484   6.793   1.381
 8816SOL    HW227348   1.421   6.913   1.290
 8817SOL     OW27349   0.752   6.184   5.521
 8817SOL    HW127350   0.774   6.263   5.464
 8817SOL    HW227351   0.766   6.209   5.617
 8818SOL     OW27352   6.898   3.722   3.541
 8818SOL    HW127353   6.973   3.717   3.607
 8818SOL    HW227354   6.845   3.637   3.545
 8819SOL     OW27355   4.423   6.672   4.045
 8819SOL    HW127356   4.472   6.623   3.973
 8819SOL    HW227357   4.437   6.625   4.133
 8820SOL     OW27358   2.117   2.572   4.263
 8820SOL    HW127359   2.073   2.576   4.173
 8820SOL    HW227360   2.207   2.530   4.254
 8821SOL     OW27361   1.890   6.747   6.535
 8821SOL    HW127362   1.802   6.793   6.522
 8821SOL    HW227363   1.957   6.782   6.469
 8822SOL     OW27364   0.609   0.666   3.088
 8822SOL    HW127365   0.666   0.615   3.153
 8822SOL    HW227366   0.636   0.762   3.089
 8823SOL     OW27367   1.866   0.403   1.033
 8823SOL    HW127368   1.846   0.493   0.994
 8823SOL    HW227369   1.792   0.339   1.010
 8824SOL     OW27370   2.643   3.582   0.648
 8824SOL    HW127371   2.606   3.636   0.572
 8824SOL    HW227372   2.592   3.496   0.656
 8825SOL     OW27373   1.191   1.004   2.686
 8825SOL    HW127374   1.269   0.949   2.658
 8825SOL    HW227375   1.194   1.018   2.785
 8826SOL     OW27376   6.022   2.140   0.394
 8826SOL    HW127377   6.056   2.185   0.476
 8826SOL    HW227378   5.945   2.081   0.417
 8827SOL     OW27379   2.865   0.695   3.264
 8827SOL    HW127380   2.865   0.795   3.257
 8827SOL    HW227381   2.898   0.668   3.355
 8828SOL     OW27382   3.813   5.523   3.791
 8828SOL    HW127383   3.824   5.444   3.730
 8828SOL    HW227384   3.855   5.502   3.879
 8829SOL     OW27385   6.958   3.587   0.173
 8829SOL    HW127386   7.011   3.504   0.190
 8829SOL    HW227387   6.952   3.603   0.074
 8830SOL     OW27388   6.639   1.284   6.877
 8830SOL    HW127389   6.552   1.333   6.871
 8830SOL    HW227390   6.663   1.270   6.973
 8831SOL     OW27391   5.805   1.163   3.554
 8831SOL    HW127392   5.856   1.096   3.501
 8831SOL    HW227393   5.737   1.116   3.611
 8832SOL     OW27394   0.203   6.498   2.052
 8832SOL    HW127395   0.276   6.454   2.001
 8832SOL    HW227396   0.231   6.591   2.077
 8833SOL     OW27397   1.986   5.853   5.096
 8833SOL    HW127398   2.069   5.896   5.060
 8833SOL    HW227399   1.911   5.866   5.032
 8834SOL     OW27400   5.417   2.952   4.370
 8834SOL    HW127401   5.513   2.927   4.365
 8834SOL    HW227402   5.399   3.028   4.307
 8835SOL     OW27403   6.278   0.273   5.520
 8835SOL    HW127404   6.187   0.314   5.524
 8835SOL    HW227405   6.320   0.295   5.432
 8836SOL     OW27406   4.195   0.785   1.103
 8836SOL    HW127407   4.144   0.803   1.019
 8836SOL    HW227408   4.220   0.871   1.147
 8837SOL     OW27409   1.199   0.398   2.529
 8837SOL    HW127410   1.282   0.444   2.559
 8837SOL    HW227411   1.215   0.357   2.439
 8838SOL     OW27412   2.670   5.170   3.526
 8838SOL    HW127413   2.683   5.148   3.622
 8838SOL    HW227414   2.748   5.137   3.473
 8839SOL     OW27415   5.620   6.245   3.019
 8839SOL    HW127416   5.702   6.279   3.066
 8839SOL    HW227417   5.555   6.320   3.008
 8840SOL     OW27418   6.522   2.435   2.223
 8840SOL    HW127419   6.616   2.460   2.248
 8840SOL    HW227420   6.474   2.399   2.303
 8841SOL     OW27421   1.205   1.204   4.953
 8841SOL    HW127422   1.253   1.118   4.940
 8841SOL    HW227423   1.272   1.278   4.963
 8842SOL     OW27424   3.761   2.763   0.912
 8842SOL    HW127425   3.742   2.802   0.821
 8842SOL    HW227426   3.856   2.783   0.937
 8843SOL     OW27427   1.362   2.984   5.558
 8843SOL    HW127428   1.268   3.018   5.547
 8843SOL    HW227429   1.369   2.894   5.514
 8844SOL     OW27430   5.777   1.488   6.225
 8844SOL    HW127431   5.774   1.551   6.147
 8844SOL    HW227432   5.705   1.420   6.215
 8845SOL     OW27433   4.204   3.918   0.208
 8845SOL    HW127434   4.133   3.977   0.246
 8845SOL    HW227435   4.286   3.923   0.264
 8846SOL     OW27436   1.883   5.480   3.628
 8846SOL    HW127437   1.792   5.518   3.609
 8846SOL    HW227438   1.901   5.485   3.726
 8847SOL     OW27439   2.884   0.654   2.243
 8847SOL    HW127440   2.845   0.642   2.334
 8847SOL    HW227441   2.969   0.706   2.249
 8848SOL     OW27442   2.261   1.178   1.158
 8848SOL    HW127443   2.277   1.138   1.248
 8848SOL    HW227444   2.302   1.120   1.088
 8849SOL     OW27445   2.292   5.836   3.064
 8849SOL    HW127446   2.246   5.827   2.976
 8849SOL    HW227447   2.307   5.745   3.103
 8850SOL     OW27448   2.830   1.604   0.286
 8850SOL    HW127449   2.853   1.560   0.373
 8850SOL    HW227450   2.730   1.606   0.276
 8851SOL     OW27451   1.619   4.764   2.349
 8851SOL    HW127452   1.705   4.740   2.304
 8851SOL    HW227453   1.546   4.705   2.315
 8852SOL     OW27454   0.981   2.146   5.798
 8852SOL    HW127455   0.966   2.225   5.739
 8852SOL    HW227456   1.056   2.091   5.761
 8853SOL     OW27457   3.025   1.094   2.106
 8853SOL    HW127458   3.097   1.075   2.172
 8853SOL    HW227459   3.057   1.163   2.041
 8854SOL     OW27460   1.645   2.881   5.086
 8854SOL    HW127461   1.635   2.952   5.156
 8854SOL    HW227462   1.742   2.863   5.069
 8855SOL     OW27463   6.311   5.742   1.344
 8855SOL    HW127464   6.297   5.643   1.344
 8855SOL    HW227465   6.362   5.768   1.262
 8856SOL     OW27466   6.128   5.607   6.415
 8856SOL    HW127467   6.032   5.628   6.396
 8856SOL    HW227468   6.139   5.508   6.424
 8857SOL     OW27469   6.818   2.047   5.222
 8857SOL    HW127470   6.872   2.118   5.177
 8857SOL    HW227471   6.803   2.072   5.318
 8858SOL     OW27472   0.566   4.802   5.247
 8858SOL    HW127473   0.549   4.703   5.245
 8858SOL    HW227474   0.586   4.830   5.341
 8859SOL     OW27475   0.827   0.624   3.735
 8859SOL    HW127476   0.812   0.531   3.700
 8859SOL    HW227477   0.919   0.631   3.772
 8860SOL     OW27478   7.002   2.679   1.142
 8860SOL    HW127479   6.998   2.627   1.228
 8860SOL    HW227480   0.040   2.632   1.078
 8861SOL     OW27481   3.990   1.336   0.980
 8861SOL    HW127482   4.079   1.379   0.990
 8861SOL    HW227483   3.938   1.382   0.907
 8862SOL     OW27484   4.803   5.676   4.321
 8862SOL    HW127485   4.735   5.611   4.287
 8862SOL    HW227486   4.764   5.727   4.398
 8863SOL     OW27487   1.962   4.610   3.488
 8863SOL    HW127488   1.864   4.627   3.485
 8863SOL    HW227489   1.993   4.577   3.398
 8864SOL     OW27490   4.851   3.880   6.483
 8864SOL    HW127491   4.886   3.792   6.517
 8864SOL    HW227492   4.793   3.864   6.403
 8865SOL     OW27493   2.752   1.794   5.520
 8865SOL    HW127494   2.715   1.828   5.606
 8865SOL    HW227495   2.677   1.760   5.463
 8866SOL     OW27496   5.494   6.046   2.562
 8866SOL    HW127497   5.457   6.139   2.559
 8866SOL    HW227498   5.513   6.015   2.469
 8867SOL     OW27499   6.540   3.337   2.881
 8867SOL    HW127500   6.509   3.423   2.841
 8867SOL    HW227501   6.511   3.261   2.823
 8868SOL     OW27502   6.734   3.134   2.603
 8868SOL    HW127503   6.770   3.055   2.553
 8868SOL    HW227504   6.689   3.197   2.539
 8869SOL     OW27505   4.637   5.387   4.758
 8869SOL    HW127506   4.622   5.306   4.816
 8869SOL    HW227507   4.643   5.359   4.663
 8870SOL     OW27508   2.027   6.910   1.836
 8870SOL    HW127509   2.055   6.820   1.801
 8870SOL    HW227510   2.030   6.908   1.936
 8871SOL     OW27511   1.489   0.808   2.913
 8871SOL    HW127512   1.499   0.711   2.937
 8871SOL    HW227513   1.395   0.838   2.929
 8872SOL     OW27514   0.612   4.410   6.298
 8872SOL    HW127515   0.594   4.398   6.201
 8872SOL    HW227516   0.609   4.507   6.321
 8873SOL     OW27517   2.009   0.526   1.927
 8873SOL    HW127518   1.954   0.449   1.894
 8873SOL    HW227519   2.090   0.536   1.869
 8874SOL     OW27520   1.870   5.123   0.872
 8874SOL    HW127521   1.906   5.075   0.952
 8874SOL    HW227522   1.772   5.107   0.865
 8875SOL     OW27523   6.862   2.992   3.789
 8875SOL    HW127524   6.787   2.926   3.782
 8875SOL    HW227525   6.879   3.013   3.885
 8876SOL     OW27526   2.866   0.641   6.324
 8876SOL    HW127527   2.901   0.603   6.239
 8876SOL    HW227528   2.820   0.728   6.305
 8877SOL     OW27529   1.403   3.335   1.904
 8877SOL    HW127530   1.363   3.245   1.922
 8877SOL    HW227531   1.374   3.367   1.814
 8878SOL     OW27532   3.594   4.611   0.700
 8878SOL    HW127533   3.671   4.669   0.674
 8878SOL    HW227534   3.608   4.518   0.666
 8879SOL     OW27535   6.416   4.706   2.588
 8879SOL    HW127536   6.500   4.708   2.643
 8879SOL    HW227537   6.437   4.668   2.498
 8880SOL     OW27538   4.355   6.767   3.643
 8880SOL    HW127539   4.291   6.831   3.600
 8880SOL    HW227540   4.419   6.818   3.700
 8881SOL     OW27541   4.692   4.973   4.113
 8881SOL    HW127542   4.694   4.883   4.156
 8881SOL    HW227543   4.679   5.043   4.183
 8882SOL     OW27544   3.665   0.988   0.411
 8882SOL    HW127545   3.640   0.946   0.324
 8882SOL    HW227546   3.609   0.948   0.484
 8883SOL     OW27547   0.062   6.994   6.192
 8883SOL    HW127548   6.998   6.960   6.229
 8883SOL    HW227549   0.048   0.064   6.156
 8884SOL     OW27550   5.330   4.319   4.867
 8884SOL    HW127551   5.428   4.311   4.887
 8884SOL    HW227552   5.301   4.414   4.880
 8885SOL     OW27553   5.527   5.365   0.173
 8885SOL    HW127554   5.614   5.323   0.200
 8885SOL    HW227555   5.497   5.326   0.086
 8886SOL     OW27556   3.720   5.069   6.670
 8886SOL    HW127557   3.812   5.102   6.688
 8886SOL    HW227558   3.663   5.083   6.751
 8887SOL     OW27559   4.128   0.077   0.306
 8887SOL    HW127560   4.059   0.101   0.374
 8887SOL    HW227561   4.108   7.009   0.269
 8888SOL     OW27562   2.033   1.811   3.891
 8888SOL    HW127563   2.111   1.838   3.835
 8888SOL    HW227564   2.019   1.879   3.963
 8889SOL     OW27565   6.839   6.717   6.097
 8889SOL    HW127566   6.861   6.633   6.047
 8889SOL    HW227567   6.907   6.787   6.077
 8890SOL     OW27568   6.767   6.164   6.958
 8890SOL    HW127569   6.836   6.149   0.006
 8890SOL    HW227570   6.699   6.229   6.992
 8891SOL     OW27571   5.669   4.541   6.672
 8891SOL    HW127572   5.671   4.442   6.658
 8891SOL    HW227573   5.668   4.561   6.770
 8892SOL     OW27574   3.420   4.914   3.900
 8892SOL    HW127575   3.448   4.939   3.808
 8892SOL    HW227576   3.348   4.977   3.931
 8893SOL     OW27577   1.633   5.044   5.029
 8893SOL    HW127578   1.660   5.130   4.985
 8893SOL    HW227579   1.534   5.044   5.042
 8894SOL     OW27580   5.182   1.985   0.895
 8894SOL    HW127581   5.212   2.027   0.809
 8894SOL    HW227582   5.084   2.000   0.908
 8895SOL     OW27583   0.799   2.917   0.736
 8895SOL    HW127584   0.744   2.865   0.671
 8895SOL    HW227585   0.799   2.872   0.825
 8896SOL     OW27586   0.694   2.837   4.659
 8896SOL    HW127587   0.769   2.902   4.667
 8896SOL    HW227588   0.726   2.746   4.683
 8897SOL     OW27589   1.828   3.768   3.812
 8897SOL    HW127590   1.756   3.702   3.833
 8897SOL    HW227591   1.830   3.786   3.714
 8898SOL     OW27592   5.056   3.528   2.563
 8898SOL    HW127593   5.150   3.530   2.597
 8898SOL    HW227594   5.056   3.503   2.466
 8899SOL     OW27595   6.843   4.699   6.284
 8899SOL    HW127596   6.914   4.674   6.350
 8899SOL    HW227597   6.780   4.622   6.272
 8900SOL     OW27598   5.791   2.004   3.645
 8900SOL    HW127599   5.834   2.046   3.565
 8900SOL    HW227600   5.738   2.073   3.695
 8901SOL     OW27601   0.702   2.077   3.669
 8901SOL    HW127602   0.740   2.012   3.604
 8901SOL    HW227603   0.746   2.166   3.657
 8902SOL     OW27604   1.385   4.721   0.188
 8902SOL    HW127605   1.427   4.711   0.098
 8902SOL    HW227606   1.455   4.746   0.255
 8903SOL     OW27607   1.473   1.217   4.812
 8903SOL    HW127608   1.483   1.144   4.745
 8903SOL    HW227609   1.543   1.207   4.883
 8904SOL     OW27610   0.265   1.550   2.572
 8904SOL    HW127611   0.321   1.469   2.555
 8904SOL    HW227612   0.285   1.620   2.503
 8905SOL     OW27613   1.794   3.023   2.518
 8905SOL    HW127614   1.848   2.990   2.596
 8905SOL    HW227615   1.734   3.097   2.548
 8906SOL     OW27616   0.815   6.736   0.681
 8906SOL    HW127617   0.851   6.678   0.608
 8906SOL    HW227618   0.802   6.681   0.764
 8907SOL     OW27619   3.319   2.650   5.258
 8907SOL    HW127620   3.283   2.558   5.244
 8907SOL    HW227621   3.263   2.716   5.209
 8908SOL     OW27622   1.275   4.653   0.517
 8908SOL    HW127623   1.227   4.719   0.459
 8908SOL    HW227624   1.210   4.610   0.579
 8909SOL     OW27625   2.772   1.094   6.208
 8909SOL    HW127626   2.716   1.177   6.215
 8909SOL    HW227627   2.865   1.114   6.240
 8910SOL     OW27628   0.951   2.619   5.196
 8910SOL    HW127629   0.880   2.672   5.242
 8910SOL    HW227630   0.910   2.555   5.131
 8911SOL     OW27631   5.263   1.902   4.138
 8911SOL    HW127632   5.218   1.863   4.218
 8911SOL    HW227633   5.196   1.921   4.066
 8912SOL     OW27634   3.990   3.680   5.343
 8912SOL    HW127635   3.929   3.607   5.313
 8912SOL    HW227636   3.965   3.708   5.436
 8913SOL     OW27637   5.535   4.891   6.933
 8913SOL    HW127638   5.462   4.825   6.917
 8913SOL    HW227639   5.515   4.975   6.883
 8914SOL     OW27640   5.247   6.397   5.142
 8914SOL    HW127641   5.320   6.466   5.148
 8914SOL    HW227642   5.214   6.375   5.233
 8915SOL     OW27643   1.227   1.126   3.942
 8915SOL    HW127644   1.202   1.200   4.004
 8915SOL    HW227645   1.156   1.115   3.872
 8916SOL     OW27646   5.707   1.722   6.689
 8916SOL    HW127647   5.661   1.633   6.692
 8916SOL    HW227648   5.765   1.726   6.607
 8917SOL     OW27649   6.088   1.554   0.741
 8917SOL    HW127650   6.099   1.576   0.644
 8917SOL    HW227651   6.144   1.474   0.764
 8918SOL     OW27652   1.699   5.440   1.108
 8918SOL    HW127653   1.670   5.458   1.202
 8918SOL    HW227654   1.796   5.462   1.099
 8919SOL     OW27655   5.435   4.498   6.516
 8919SOL    HW127656   5.507   4.558   6.552
 8919SOL    HW227657   5.398   4.441   6.590
 8920SOL     OW27658   0.301   1.140   6.830
 8920SOL    HW127659   0.347   1.213   6.880
 8920SOL    HW227660   0.356   1.115   6.750
 8921SOL     OW27661   1.215   2.612   1.391
 8921SOL    HW127662   1.284   2.673   1.429
 8921SOL    HW227663   1.154   2.664   1.331
 8922SOL     OW27664   3.519   6.849   2.702
 8922SOL    HW127665   3.462   6.819   2.778
 8922SOL    HW227666   3.586   6.915   2.735
 8923SOL     OW27667   1.461   1.689   5.843
 8923SOL    HW127668   1.447   1.778   5.886
 8923SOL    HW227669   1.538   1.642   5.886
 8924SOL     OW27670   5.354   5.645   4.563
 8924SOL    HW127671   5.432   5.619   4.619
 8924SOL    HW227672   5.283   5.685   4.621
 8925SOL     OW27673   0.764   1.221   2.733
 8925SOL    HW127674   0.724   1.129   2.738
 8925SOL    HW227675   0.745   1.270   2.817
 8926SOL     OW27676   6.429   4.055   5.633
 8926SOL    HW127677   6.408   4.039   5.730
 8926SOL    HW227678   6.492   3.985   5.601
 8927SOL     OW27679   6.381   2.259   5.562
 8927SOL    HW127680   6.346   2.348   5.532
 8927SOL    HW227681   6.403   2.262   5.659
 8928SOL     OW27682   2.303   0.391   5.507
 8928SOL    HW127683   2.268   0.406   5.415
 8928SOL    HW227684   2.310   0.293   5.525
 8929SOL     OW27685   6.307   2.650   5.179
 8929SOL    HW127686   6.358   2.727   5.218
 8929SOL    HW227687   6.211   2.676   5.168
 8930SOL     OW27688   1.061   3.694   2.832
 8930SOL    HW127689   1.067   3.598   2.860
 8930SOL    HW227690   1.079   3.701   2.734
 8931SOL     OW27691   3.411   2.701   1.564
 8931SOL    HW127692   3.335   2.729   1.622
 8931SOL    HW227693   3.488   2.764   1.577
 8932SOL     OW27694   0.426   1.659   3.240
 8932SOL    HW127695   0.483   1.740   3.228
 8932SOL    HW227696   0.331   1.681   3.215
 8933SOL     OW27697   3.124   2.485   6.507
 8933SOL    HW127698   3.065   2.414   6.469
 8933SOL    HW227699   3.210   2.488   6.457
 8934SOL     OW27700   3.694   5.347   4.465
 8934SOL    HW127701   3.747   5.275   4.421
 8934SOL    HW227702   3.678   5.324   4.561
 8935SOL     OW27703   0.216   5.271   0.993
 8935SOL    HW127704   0.265   5.357   1.003
 8935SOL    HW227705   0.120   5.289   0.973
 8936SOL     OW27706   1.520   3.509   0.739
 8936SOL    HW127707   1.476   3.554   0.662
 8936SOL    HW227708   1.527   3.411   0.720
 8937SOL     OW27709   0.050   6.823   5.210
 8937SOL    HW127710   0.068   6.912   5.252
 8937SOL    HW227711   0.137   6.781   5.184
 8938SOL     OW27712   0.411   5.325   1.314
 8938SOL    HW127713   0.475   5.358   1.245
 8938SOL    HW227714   0.322   5.370   1.301
 8939SOL     OW27715   4.794   2.453   4.758
 8939SOL    HW127716   4.771   2.517   4.685
 8939SOL    HW227717   4.870   2.489   4.812
 8940SOL     OW27718   6.899   0.923   3.790
 8940SOL    HW127719   6.837   0.959   3.859
 8940SOL    HW227720   6.978   0.880   3.835
 8941SOL     OW27721   5.949   2.177   5.546
 8941SOL    HW127722   5.999   2.090   5.551
 8941SOL    HW227723   5.935   2.213   5.638
 8942SOL     OW27724   0.008   3.141   5.762
 8942SOL    HW127725   0.081   3.209   5.753
 8942SOL    HW227726   6.960   3.175   5.823
 8943SOL     OW27727   5.363   4.343   0.592
 8943SOL    HW127728   5.313   4.387   0.667
 8943SOL    HW227729   5.325   4.252   0.575
 8944SOL     OW27730   5.150   5.380   5.571
 8944SOL    HW127731   5.202   5.315   5.516
 8944SOL    HW227732   5.103   5.331   5.644
 8945SOL     OW27733   2.023   0.118   4.368
 8945SOL    HW127734   2.084   0.094   4.443
 8945SOL    HW227735   2.015   0.217   4.362
 8946SOL     OW27736   3.310   2.050   4.954
 8946SOL    HW127737   3.276   2.053   4.860
 8946SOL    HW227738   3.257   2.114   5.011
 8947SOL     OW27739   1.747   3.883   5.031
 8947SOL    HW127740   1.715   3.841   4.946
 8947SOL    HW227741   1.774   3.811   5.096
 8948SOL     OW27742   5.551   5.513   3.775
 8948SOL    HW127743   5.481   5.548   3.836
 8948SOL    HW227744   5.527   5.533   3.680
 8949SOL     OW27745   2.240   0.130   6.993
 8949SOL    HW127746   2.158   0.182   7.020
 8949SOL    HW227747   2.215   0.063   6.923
 8950SOL     OW27748   4.698   3.139   5.589
 8950SOL    HW127749   4.639   3.063   5.616
 8950SOL    HW227750   4.732   3.123   5.496
 8951SOL     OW27751   1.608   2.114   5.340
 8951SOL    HW127752   1.599   2.194   5.281
 8951SOL    HW227753   1.552   2.039   5.304
 8952SOL     OW27754   1.189   1.142   2.215
 8952SOL    HW127755   1.150   1.141   2.307
 8952SOL    HW227756   1.130   1.089   2.153
 8953SOL     OW27757   1.251   3.535   6.738
 8953SOL    HW127758   1.297   3.623   6.739
 8953SOL    HW227759   1.296   3.472   6.802
 8954SOL     OW27760   0.208   6.199   5.183
 8954SOL    HW127761   0.157   6.119   5.152
 8954SOL    HW227762   0.219   6.196   5.282
 8955SOL     OW27763   6.928   4.218   3.178
 8955SOL    HW127764   6.837   4.182   3.155
 8955SOL    HW227765   6.971   4.160   3.246
 8956SOL     OW27766   6.704   1.444   6.542
 8956SOL    HW127767   6.773   1.441   6.614
 8956SOL    HW227768   6.664   1.353   6.531
 8957SOL     OW27769   3.186   4.430   1.493
 8957SOL    HW127770   3.127   4.350   1.502
 8957SOL    HW227771   3.151   4.504   1.549
 8958SOL     OW27772   0.720   0.389   4.331
 8958SOL    HW127773   0.730   0.307   4.274
 8958SOL    HW227774   0.627   0.423   4.323
 8959SOL     OW27775   1.290   4.341   0.707
 8959SOL    HW127776   1.232   4.407   0.660
 8959SOL    HW227777   1.290   4.360   0.805
 8960SOL     OW27778   4.298   5.560   2.878
 8960SOL    HW127779   4.362   5.502   2.929
 8960SOL    HW227780   4.284   5.522   2.787
 8961SOL     OW27781   1.336   2.043   4.315
 8961SOL    HW127782   1.346   2.141   4.300
 8961SOL    HW227783   1.301   2.027   4.407
 8962SOL     OW27784   5.788   6.680   2.532
 8962SOL    HW127785   5.759   6.775   2.548
 8962SOL    HW227786   5.887   6.677   2.521
 8963SOL     OW27787   4.877   6.388   4.182
 8963SOL    HW127788   4.817   6.456   4.141
 8963SOL    HW227789   4.970   6.399   4.147
 8964SOL     OW27790   5.763   4.666   2.297
 8964SOL    HW127791   5.707   4.744   2.268
 8964SOL    HW227792   5.860   4.688   2.286
 8965SOL     OW27793   1.666   4.836   1.008
 8965SOL    HW127794   1.722   4.918   1.017
 8965SOL    HW227795   1.663   4.788   1.095
 8966SOL     OW27796   1.800   3.009   5.472
 8966SOL    HW127797   1.808   2.926   5.528
 8966SOL    HW227798   1.866   3.077   5.504
 8967SOL     OW27799   3.099   6.301   1.795
 8967SOL    HW127800   3.169   6.232   1.815
 8967SOL    HW227801   3.101   6.372   1.865
 8968SOL     OW27802   4.752   5.377   2.701
 8968SOL    HW127803   4.846   5.405   2.718
 8968SOL    HW227804   4.690   5.432   2.757
 8969SOL     OW27805   6.136   0.634   3.897
 8969SOL    HW127806   6.063   0.640   3.965
 8969SOL    HW227807   6.101   0.661   3.808
 8970SOL     OW27808   3.252   2.607   0.424
 8970SOL    HW127809   3.226   2.574   0.514
 8970SOL    HW227810   3.297   2.696   0.432
 8971SOL     OW27811   3.355   5.778   2.263
 8971SOL    HW127812   3.314   5.732   2.342
 8971SOL    HW227813   3.289   5.781   2.189
 8972SOL     OW27814   4.655   6.087   0.165
 8972SOL    HW127815   4.705   6.007   0.131
 8972SOL    HW227816   4.605   6.061   0.248
 8973SOL     OW27817   1.228   3.957   1.876
 8973SOL    HW127818   1.131   3.982   1.880
 8973SOL    HW227819   1.280   4.034   1.839
 8974SOL     OW27820   1.005   4.366   6.187
 8974SOL    HW127821   0.986   4.427   6.110
 8974SOL    HW227822   1.026   4.274   6.153
 8975SOL     OW27823   2.655   1.037   0.199
 8975SOL    HW127824   2.682   1.074   0.110
 8975SOL    HW227825   2.647   0.937   0.193
 8976SOL     OW27826   1.268   5.154   5.392
 8976SOL    HW127827   1.351   5.122   5.437
 8976SOL    HW227828   1.287   5.176   5.297
 8977SOL     OW27829   6.037   1.416   6.576
 8977SOL    HW127830   6.104   1.484   6.546
 8977SOL    HW227831   6.084   1.329   6.592
 8978SOL     OW27832   6.215   6.178   6.911
 8978SOL    HW127833   6.276   6.149   6.837
 8978SOL    HW227834   6.120   6.178   6.879
 8979SOL     OW27835   1.670   3.334   4.407
 8979SOL    HW127836   1.710   3.294   4.489
 8979SOL    HW227837   1.642   3.428   4.426
 8980SOL     OW27838   2.679   3.501   5.703
 8980SOL    HW127839   2.581   3.524   5.709
 8980SOL    HW227840   2.733   3.585   5.697
 8981SOL     OW27841   3.975   1.427   5.071
 8981SOL    HW127842   3.875   1.421   5.074
 8981SOL    HW227843   4.003   1.521   5.054
 8982SOL     OW27844   1.443   3.006   0.306
 8982SOL    HW127845   1.347   2.980   0.291
 8982SOL    HW227846   1.481   2.950   0.380
 8983SOL     OW27847   3.094   5.788   6.666
 8983SOL    HW127848   3.073   5.722   6.594
 8983SOL    HW227849   3.023   5.858   6.668
 8984SOL     OW27850   1.515   6.960   3.084
 8984SOL    HW127851   1.461   6.892   3.135
 8984SOL    HW227852   1.559   7.022   3.149
 8985SOL     OW27853   4.056   2.349   0.878
 8985SOL    HW127854   3.973   2.383   0.834
 8985SOL    HW227855   4.033   2.312   0.968
 8986SOL     OW27856   4.131   4.773   2.714
 8986SOL    HW127857   4.067   4.784   2.790
 8986SOL    HW227858   4.177   4.860   2.696
 8987SOL     OW27859   3.905   6.396   2.773
 8987SOL    HW127860   3.862   6.320   2.822
 8987SOL    HW227861   3.891   6.385   2.675
 8988SOL     OW27862   1.250   5.346   4.047
 8988SOL    HW127863   1.168   5.350   4.104
 8988SOL    HW227864   1.314   5.417   4.075
 8989SOL     OW27865   4.349   3.258   6.885
 8989SOL    HW127866   4.320   3.350   6.911
 8989SOL    HW227867   4.426   3.264   6.822
 8990SOL     OW27868   0.698   4.799   4.194
 8990SOL    HW127869   0.662   4.885   4.230
 8990SOL    HW227870   0.707   4.806   4.094
 8991SOL     OW27871   1.321   3.704   4.454
 8991SOL    HW127872   1.240   3.646   4.446
 8991SOL    HW227873   1.308   3.770   4.528
 8992SOL     OW27874   4.832   1.786   1.087
 8992SOL    HW127875   4.875   1.875   1.070
 8992SOL    HW227876   4.838   1.730   1.004
 8993SOL     OW27877   3.815   3.530   0.185
 8993SOL    HW127878   3.825   3.628   0.166
 8993SOL    HW227879   3.725   3.513   0.224
 8994SOL     OW27880   1.454   4.814   4.715
 8994SOL    HW127881   1.395   4.764   4.778
 8994SOL    HW227882   1.525   4.862   4.766
 8995SOL     OW27883   0.027   1.752   6.994
 8995SOL    HW127884   7.012   1.708   6.913
 8995SOL    HW227885   6.976   1.797   0.023
 8996SOL     OW27886   5.629   4.254   6.490
 8996SOL    HW127887   5.681   4.244   6.405
 8996SOL    HW227888   5.535   4.223   6.474
 8997SOL     OW27889   4.459   1.213   5.937
 8997SOL    HW127890   4.522   1.281   5.899
 8997SOL    HW227891   4.510   1.147   5.992
 8998SOL     OW27892   5.840   3.191   4.455
 8998SOL    HW127893   5.744   3.164   4.467
 8998SOL    HW227894   5.852   3.232   4.365
 8999SOL     OW27895   4.960   6.651   6.349
 8999SOL    HW127896   4.937   6.570   6.404
 8999SOL    HW227897   4.909   6.649   6.264
 9000SOL     OW27898   1.875   3.170   2.317
 9000SOL    HW127899   1.843   3.089   2.365
 9000SOL    HW227900   1.800   3.209   2.264
 9001SOL     OW27901   0.867   5.064   1.504
 9001SOL    HW127902   0.858   5.064   1.604
 9001SOL    HW227903   0.923   5.142   1.476
 9002SOL     OW27904   2.052   4.714   5.504
 9002SOL    HW127905   2.030   4.735   5.408
 9002SOL    HW227906   2.137   4.662   5.508
 9003SOL     OW27907   5.334   3.885   1.093
 9003SOL    HW127908   5.275   3.823   1.040
 9003SOL    HW227909   5.379   3.833   1.166
 9004SOL     OW27910   4.305   5.037   0.880
 9004SOL    HW127911   4.301   4.954   0.824
 9004SOL    HW227912   4.398   5.053   0.911
 9005SOL     OW27913   6.661   1.971   5.592
 9005SOL    HW127914   6.668   1.944   5.688
 9005SOL    HW227915   6.565   1.981   5.567
 9006SOL     OW27916   3.142   6.278   1.076
 9006SOL    HW127917   3.105   6.312   1.162
 9006SOL    HW227918   3.169   6.356   1.018
 9007SOL     OW27919   2.754   1.189   2.696
 9007SOL    HW127920   2.701   1.224   2.619
 9007SOL    HW227921   2.833   1.249   2.712
 9008SOL     OW27922   7.000   4.841   2.553
 9008SOL    HW127923   7.022   4.915   2.617
 9008SOL    HW227924   0.008   4.866   2.461
 9009SOL     OW27925   3.451   5.253   1.091
 9009SOL    HW127926   3.440   5.202   1.176
 9009SOL    HW227927   3.548   5.270   1.075
 9010SOL     OW27928   1.848   6.324   4.270
 9010SOL    HW127929   1.816   6.418   4.253
 9010SOL    HW227930   1.945   6.318   4.246
 9011SOL     OW27931   4.192   0.631   1.527
 9011SOL    HW127932   4.282   0.589   1.529
 9011SOL    HW227933   4.197   0.724   1.565
 9012SOL     OW27934   2.249   5.364   0.187
 9012SOL    HW127935   2.240   5.366   0.088
 9012SOL    HW227936   2.334   5.409   0.215
 9013SOL     OW27937   1.051   0.990   5.828
 9013SOL    HW127938   1.103   1.056   5.884
 9013SOL    HW227939   1.115   0.925   5.787
 9014SOL     OW27940   6.226   2.568   0.886
 9014SOL    HW127941   6.199   2.539   0.794
 9014SOL    HW227942   6.265   2.490   0.935
 9015SOL     OW27943   4.824   2.155   1.803
 9015SOL    HW127944   4.920   2.139   1.779
 9015SOL    HW227945   4.818   2.221   1.877
 9016SOL     OW27946   5.928   5.544   6.929
 9016SOL    HW127947   5.980   5.584   7.004
 9016SOL    HW227948   5.852   5.604   6.905
 9017SOL     OW27949   4.762   1.186   4.082
 9017SOL    HW127950   4.837   1.120   4.079
 9017SOL    HW227951   4.783   1.262   4.020
 9018SOL     OW27952   2.367   3.501   5.344
 9018SOL    HW127953   2.466   3.492   5.358
 9018SOL    HW227954   2.344   3.596   5.327
 9019SOL     OW27955   1.019   4.645   2.648
 9019SOL    HW127956   0.966   4.655   2.564
 9019SOL    HW227957   0.958   4.644   2.727
 9020SOL     OW27958   6.775   4.295   0.979
 9020SOL    HW127959   6.851   4.306   1.043
 9020SOL    HW227960   6.694   4.265   1.030
 9021SOL     OW27961   6.296   1.312   3.019
 9021SOL    HW127962   6.227   1.308   3.092
 9021SOL    HW227963   6.265   1.376   2.948
 9022SOL     OW27964   3.502   1.400   6.749
 9022SOL    HW127965   3.491   1.425   6.653
 9022SOL    HW227966   3.446   1.460   6.806
 9023SOL     OW27967   3.960   3.898   1.606
 9023SOL    HW127968   3.988   3.813   1.651
 9023SOL    HW227969   3.864   3.894   1.582
 9024SOL     OW27970   1.483   4.422   5.220
 9024SOL    HW127971   1.557   4.355   5.228
 9024SOL    HW227972   1.487   4.487   5.296
 9025SOL     OW27973   0.239   5.556   0.926
 9025SOL    HW127974   0.156   5.611   0.920
 9025SOL    HW227975   0.261   5.518   0.836
 9026SOL     OW27976   3.806   2.478   0.843
 9026SOL    HW127977   3.785   2.573   0.867
 9026SOL    HW227978   3.721   2.428   0.826
 9027SOL     OW27979   0.734   3.209   3.102
 9027SOL    HW127980   0.704   3.304   3.108
 9027SOL    HW227981   0.654   3.150   3.093
 9028SOL     OW27982   3.716   3.209   5.294
 9028SOL    HW127983   3.647   3.148   5.333
 9028SOL    HW227984   3.801   3.158   5.279
 9029SOL     OW27985   3.723   6.648   5.063
 9029SOL    HW127986   3.638   6.598   5.077
 9029SOL    HW227987   3.705   6.747   5.067
 9030SOL     OW27988   2.320   2.134   4.013
 9030SOL    HW127989   2.361   2.130   3.922
 9030SOL    HW227990   2.313   2.042   4.051
 9031SOL     OW27991   4.309   6.947   4.335
 9031SOL    HW127992   4.228   6.923   4.280
 9031SOL    HW227993   4.292   6.925   4.431
 9032SOL     OW27994   4.982   4.123   1.159
 9032SOL    HW127995   4.958   4.126   1.061
 9032SOL    HW227996   4.954   4.035   1.197
 9033SOL     OW27997   0.641   4.524   2.152
 9033SOL    HW127998   0.646   4.425   2.140
 9033SOL    HW227999   0.630   4.545   2.249
 9034SOL     OW28000   3.426   6.020   4.657
 9034SOL    HW128001   3.351   6.083   4.641
 9034SOL    HW228002   3.452   5.976   4.571
 9035SOL     OW28003   2.016   5.497   0.291
 9035SOL    HW128004   2.103   5.469   0.249
 9035SOL    HW228005   2.035   5.562   0.365
 9036SOL     OW28006   1.789   3.935   5.413
 9036SOL    HW128007   1.868   3.996   5.422
 9036SOL    HW228008   1.706   3.982   5.442
 9037SOL     OW28009   1.197   3.405   4.016
 9037SOL    HW128010   1.202   3.399   4.116
 9037SOL    HW228011   1.107   3.438   3.989
 9038SOL     OW28012   4.354   2.627   0.069
 9038SOL    HW128013   4.384   2.551   0.011
 9038SOL    HW228014   4.434   2.671   0.110
 9039SOL     OW28015   3.010   4.722   6.376
 9039SOL    HW128016   2.993   4.645   6.437
 9039SOL    HW228017   3.028   4.804   6.431
 9040SOL     OW28018   2.696   2.218   2.225
 9040SOL    HW128019   2.776   2.256   2.177
 9040SOL    HW228020   2.655   2.146   2.169
 9041SOL     OW28021   1.409   2.232   1.154
 9041SOL    HW128022   1.482   2.175   1.193
 9041SOL    HW228023   1.449   2.305   1.099
 9042SOL     OW28024   3.770   0.137   4.263
 9042SOL    HW128025   3.822   0.173   4.186
 9042SOL    HW228026   3.673   0.157   4.250
 9043SOL     OW28027   2.475   1.432   6.283
 9043SOL    HW128028   2.534   1.399   6.357
 9043SOL    HW228029   2.513   1.401   6.195
 9044SOL     OW28030   6.978   0.972   0.048
 9044SOL    HW128031   0.021   0.971   0.123
 9044SOL    HW228032   6.988   0.889   7.016
 9045SOL     OW28033   3.574   0.702   2.846
 9045SOL    HW128034   3.486   0.654   2.841
 9045SOL    HW228035   3.560   0.795   2.880
 9046SOL     OW28036   3.934   3.936   2.667
 9046SOL    HW128037   3.852   3.991   2.680
 9046SOL    HW228038   3.955   3.885   2.750
 9047SOL     OW28039   1.268   3.942   4.574
 9047SOL    HW128040   1.178   3.982   4.556
 9047SOL    HW228041   1.319   4.000   4.637
 9048SOL     OW28042   6.180   2.433   6.136
 9048SOL    HW128043   6.150   2.498   6.206
 9048SOL    HW228044   6.153   2.466   6.046
 9049SOL     OW28045   4.308   6.307   5.476
 9049SOL    HW128046   4.305   6.217   5.519
 9049SOL    HW228047   4.318   6.377   5.547
 9050SOL     OW28048   0.225   3.428   1.753
 9050SOL    HW128049   0.312   3.427   1.705
 9050SOL    HW228050   0.150   3.434   1.687
 9051SOL     OW28051   2.319   0.365   1.950
 9051SOL    HW128052   2.309   0.265   1.948
 9051SOL    HW228053   2.277   0.404   1.868
 9052SOL     OW28054   1.974   2.881   4.080
 9052SOL    HW128055   2.036   2.958   4.067
 9052SOL    HW228056   1.925   2.891   4.166
 9053SOL     OW28057   1.816   1.308   1.131
 9053SOL    HW128058   1.723   1.335   1.157
 9053SOL    HW228059   1.811   1.226   1.073
 9054SOL     OW28060   2.322   5.904   4.709
 9054SOL    HW128061   2.224   5.884   4.713
 9054SOL    HW228062   2.373   5.822   4.735
 9055SOL     OW28063   6.391   2.804   4.007
 9055SOL    HW128064   6.447   2.723   4.022
 9055SOL    HW228065   6.312   2.802   4.069
 9056SOL     OW28066   6.695   1.934   1.696
 9056SOL    HW128067   6.746   2.018   1.718
 9056SOL    HW228068   6.659   1.895   1.781
 9057SOL     OW28069   4.664   2.399   5.209
 9057SOL    HW128070   4.633   2.494   5.203
 9057SOL    HW228071   4.647   2.354   5.122
 9058SOL     OW28072   1.440   0.599   1.101
 9058SOL    HW128073   1.406   0.693   1.097
 9058SOL    HW228074   1.475   0.579   1.193
 9059SOL     OW28075   0.926   2.306   3.041
 9059SOL    HW128076   0.917   2.261   2.952
 9059SOL    HW228077   0.912   2.404   3.030
 9060SOL     OW28078   5.936   2.584   4.217
 9060SOL    HW128079   5.910   2.672   4.256
 9060SOL    HW228080   5.958   2.520   4.291
 9061SOL     OW28081   3.075   5.509   2.402
 9061SOL    HW128082   2.984   5.512   2.442
 9061SOL    HW228083   3.074   5.448   2.322
 9062SOL     OW28084   1.262   5.712   1.536
 9062SOL    HW128085   1.224   5.791   1.583
 9062SOL    HW228086   1.251   5.724   1.437
 9063SOL     OW28087   2.939   0.567   3.520
 9063SOL    HW128088   2.843   0.556   3.546
 9063SOL    HW228089   2.982   0.477   3.513
 9064SOL     OW28090   6.732   3.654   6.467
 9064SOL    HW128091   6.748   3.558   6.446
 9064SOL    HW228092   6.793   3.711   6.412
 9065SOL     OW28093   3.661   0.383   0.541
 9065SOL    HW128094   3.673   0.324   0.621
 9065SOL    HW228095   3.630   0.473   0.570
 9066SOL     OW28096   5.211   0.279   0.727
 9066SOL    HW128097   5.145   0.234   0.666
 9066SOL    HW228098   5.199   0.378   0.722
 9067SOL     OW28099   1.598   0.372   3.348
 9067SOL    HW128100   1.659   0.438   3.304
 9067SOL    HW228101   1.545   0.324   3.278
 9068SOL     OW28102   0.618   0.005   4.883
 9068SOL    HW128103   0.690   0.048   4.828
 9068SOL    HW228104   0.554   6.980   4.823
 9069SOL     OW28105   1.323   3.013   6.738
 9069SOL    HW128106   1.390   2.999   6.811
 9069SOL    HW228107   1.356   3.084   6.676
 9070SOL     OW28108   2.255   4.139   4.702
 9070SOL    HW128109   2.185   4.071   4.682
 9070SOL    HW228110   2.339   4.093   4.730
 9071SOL     OW28111   6.611   6.140   0.863
 9071SOL    HW128112   6.608   6.052   0.911
 9071SOL    HW228113   6.550   6.137   0.784
 9072SOL     OW28114   6.846   3.179   1.000
 9072SOL    HW128115   6.881   3.091   1.032
 9072SOL    HW228116   6.906   3.214   0.928
 9073SOL     OW28117   1.772   6.985   1.783
 9073SOL    HW128118   1.760   6.899   1.833
 9073SOL    HW228119   1.869   7.001   1.767
 9074SOL     OW28120   1.476   0.677   2.444
 9074SOL    HW128121   1.498   0.750   2.508
 9074SOL    HW228122   1.383   0.688   2.411
 9075SOL     OW28123   6.526   0.902   2.189
 9075SOL    HW128124   6.623   0.878   2.178
 9075SOL    HW228125   6.500   0.971   2.122
 9076SOL     OW28126   0.589   1.334   6.291
 9076SOL    HW128127   0.519   1.383   6.240
 9076SOL    HW228128   0.581   1.357   6.388
 9077SOL     OW28129   4.424   6.367   2.072
 9077SOL    HW128130   4.469   6.410   2.151
 9077SOL    HW228131   4.484   6.371   1.993
 9078SOL     OW28132   4.024   3.411   5.087
 9078SOL    HW128133   4.101   3.458   5.046
 9078SOL    HW228134   3.995   3.336   5.028
 9079SOL     OW28135   2.910   0.471   4.462
 9079SOL    HW128136   2.964   0.510   4.387
 9079SOL    HW228137   2.841   0.538   4.491
 9080SOL     OW28138   5.042   2.717   0.074
 9080SOL    HW128139   5.006   2.803   0.037
 9080SOL    HW228140   4.971   2.672   0.128
 9081SOL     OW28141   5.286   6.144   2.897
 9081SOL    HW128142   5.289   6.209   2.821
 9081SOL    HW228143   5.356   6.074   2.883
 9082SOL     OW28144   1.629   6.922   4.119
 9082SOL    HW128145   1.641   6.835   4.073
 9082SOL    HW228146   1.718   6.961   4.141
 9083SOL     OW28147   4.859   4.577   5.923
 9083SOL    HW128148   4.764   4.547   5.931
 9083SOL    HW228149   4.874   4.619   5.834
 9084SOL     OW28150   3.729   3.441   2.684
 9084SOL    HW128151   3.672   3.373   2.732
 9084SOL    HW228152   3.807   3.464   2.741
 9085SOL     OW28153   2.436   0.726   0.633
 9085SOL    HW128154   2.477   0.730   0.724
 9085SOL    HW228155   2.351   0.778   0.632
 9086SOL     OW28156   0.653   3.909   0.541
 9086SOL    HW128157   0.663   3.954   0.452
 9086SOL    HW228158   0.733   3.928   0.597
 9087SOL     OW28159   5.131   3.147   2.531
 9087SOL    HW128160   5.115   3.097   2.446
 9087SOL    HW228161   5.154   3.242   2.509
 9088SOL     OW28162   6.244   0.286   0.315
 9088SOL    HW128163   6.222   0.357   0.382
 9088SOL    HW228164   6.279   0.205   0.362
 9089SOL     OW28165   5.223   6.183   5.774
 9089SOL    HW128166   5.215   6.183   5.874
 9089SOL    HW228167   5.244   6.090   5.743
 9090SOL     OW28168   6.357   0.879   4.783
 9090SOL    HW128169   6.368   0.973   4.750
 9090SOL    HW228170   6.302   0.826   4.718
 9091SOL     OW28171   2.986   3.707   6.962
 9091SOL    HW128172   2.920   3.662   0.000
 9091SOL    HW228173   2.951   3.707   6.869
 9092SOL     OW28174   6.362   1.334   6.834
 9092SOL    HW128175   6.332   1.274   6.908
 9092SOL    HW228176   6.326   1.426   6.850
 9093SOL     OW28177   1.403   5.928   5.341
 9093SOL    HW128178   1.401   5.828   5.349
 9093SOL    HW228179   1.327   5.958   5.284
 9094SOL     OW28180   0.538   3.617   2.939
 9094SOL    HW128181   0.587   3.558   2.875
 9094SOL    HW228182   0.526   3.708   2.899
 9095SOL     OW28183   4.334   4.999   5.807
 9095SOL    HW128184   4.383   5.024   5.723
 9095SOL    HW228185   4.245   4.959   5.783
 9096SOL     OW28186   6.626   5.045   3.388
 9096SOL    HW128187   6.722   5.017   3.389
 9096SOL    HW228188   6.583   5.020   3.475
 9097SOL     OW28189   1.094   2.686   6.405
 9097SOL    HW128190   1.125   2.612   6.346
 9097SOL    HW228191   1.011   2.657   6.454
 9098SOL     OW28192   2.153   2.256   4.963
 9098SOL    HW128193   2.173   2.159   4.954
 9098SOL    HW228194   2.146   2.280   5.060
 9099SOL     OW28195   2.551   3.159   5.685
 9099SOL    HW128196   2.606   3.078   5.665
 9099SOL    HW228197   2.498   3.144   5.769
 9100SOL     OW28198   1.411   4.198   2.384
 9100SOL    HW128199   1.358   4.170   2.303
 9100SOL    HW228200   1.453   4.117   2.425
 9101SOL     OW28201   2.935   1.641   2.378
 9101SOL    HW128202   2.981   1.554   2.394
 9101SOL    HW228203   2.934   1.694   2.462
 9102SOL     OW28204   4.600   6.413   2.719
 9102SOL    HW128205   4.568   6.477   2.649
 9102SOL    HW228206   4.574   6.446   2.810
 9103SOL     OW28207   6.050   1.763   6.850
 9103SOL    HW128208   6.073   1.844   6.903
 9103SOL    HW228209   6.036   1.788   6.754
 9104SOL     OW28210   0.114   1.021   1.008
 9104SOL    HW128211   0.212   1.033   1.021
 9104SOL    HW228212   0.078   1.097   0.954
 9105SOL     OW28213   1.765   0.129   5.543
 9105SOL    HW128214   1.837   0.187   5.505
 9105SOL    HW228215   1.713   0.181   5.611
 9106SOL     OW28216   0.882   3.929   0.289
 9106SOL    HW128217   0.793   3.886   0.278
 9106SOL    HW228218   0.905   3.980   0.206
 9107SOL     OW28219   2.520   0.715   6.181
 9107SOL    HW128220   2.568   0.644   6.131
 9107SOL    HW228221   2.459   0.673   6.249
 9108SOL     OW28222   5.034   4.936   5.477
 9108SOL    HW128223   5.036   4.849   5.526
 9108SOL    HW228224   5.127   4.967   5.462
 9109SOL     OW28225   5.644   3.136   2.155
 9109SOL    HW128226   5.610   3.171   2.068
 9109SOL    HW228227   5.682   3.044   2.142
 9110SOL     OW28228   1.386   5.649   5.325
 9110SOL    HW128229   1.376   5.608   5.416
 9110SOL    HW228230   1.413   5.578   5.260
 9111SOL     OW28231   4.550   2.905   5.631
 9111SOL    HW128232   4.581   2.875   5.540
 9111SOL    HW228233   4.546   2.825   5.692
 9112SOL     OW28234   2.087   5.192   2.753
 9112SOL    HW128235   2.063   5.245   2.672
 9112SOL    HW228236   2.003   5.168   2.803
 9113SOL     OW28237   5.361   2.201   3.049
 9113SOL    HW128238   5.367   2.228   2.952
 9113SOL    HW228239   5.270   2.226   3.084
 9114SOL     OW28240   1.588   6.422   4.582
 9114SOL    HW128241   1.550   6.401   4.492
 9114SOL    HW228242   1.668   6.365   4.598
 9115SOL     OW28243   5.479   5.109   3.437
 9115SOL    HW128244   5.541   5.175   3.478
 9115SOL    HW228245   5.532   5.044   3.381
 9116SOL     OW28246   0.316   6.523   3.199
 9116SOL    HW128247   0.389   6.483   3.255
 9116SOL    HW228248   0.228   6.503   3.240
 9117SOL     OW28249   4.163   0.871   6.946
 9117SOL    HW128250   4.149   0.773   6.958
 9117SOL    HW228251   4.141   0.918   0.009
 9118SOL     OW28252   6.276   4.013   0.296
 9118SOL    HW128253   6.200   3.950   0.310
 9118SOL    HW228254   6.282   4.037   0.199
 9119SOL     OW28255   3.770   6.031   1.287
 9119SOL    HW128256   3.780   5.961   1.358
 9119SOL    HW228257   3.705   6.000   1.218
 9120SOL     OW28258   6.468   2.494   5.960
 9120SOL    HW128259   6.430   2.586   5.956
 9120SOL    HW228260   6.560   2.497   5.999
 9121SOL     OW28261   3.989   0.339   5.856
 9121SOL    HW128262   4.043   0.321   5.938
 9121SOL    HW228263   3.892   0.344   5.880
 9122SOL     OW28264   2.359   4.448   1.978
 9122SOL    HW128265   2.435   4.474   1.917
 9122SOL    HW228266   2.342   4.523   2.043
 9123SOL     OW28267   1.216   0.712   3.439
 9123SOL    HW128268   1.146   0.724   3.369
 9123SOL    HW228269   1.262   0.624   3.425
 9124SOL     OW28270   3.447   5.182   1.380
 9124SOL    HW128271   3.523   5.162   1.441
 9124SOL    HW228272   3.361   5.170   1.428
 9125SOL     OW28273   3.356   6.323   6.900
 9125SOL    HW128274   3.362   6.310   6.998
 9125SOL    HW228275   3.260   6.336   6.873
 9126SOL     OW28276   4.067   4.762   0.747
 9126SOL    HW128277   4.003   4.802   0.812
 9126SOL    HW228278   4.161   4.781   0.776
 9127SOL     OW28279   0.036   3.341   4.903
 9127SOL    HW128280   0.046   3.440   4.894
 9127SOL    HW228281   0.025   3.318   5.000
 9128SOL     OW28282   5.939   2.964   4.645
 9128SOL    HW128283   5.966   3.040   4.585
 9128SOL    HW228284   5.864   2.993   4.704
 9129SOL     OW28285   2.260   1.868   0.950
 9129SOL    HW128286   2.241   1.807   0.874
 9129SOL    HW228287   2.302   1.952   0.916
 9130SOL     OW28288   2.767   4.350   5.473
 9130SOL    HW128289   2.835   4.360   5.400
 9130SOL    HW228290   2.678   4.382   5.440
 9131SOL     OW28291   6.234   3.018   0.789
 9131SOL    HW128292   6.186   2.959   0.854
 9131SOL    HW228293   6.286   3.088   0.839
 9132SOL     OW28294   1.001   4.298   3.214
 9132SOL    HW128295   0.974   4.221   3.271
 9132SOL    HW228296   1.100   4.300   3.204
 9133SOL     OW28297   4.229   0.522   1.233
 9133SOL    HW128298   4.182   0.525   1.321
 9133SOL    HW228299   4.205   0.604   1.179
 9134SOL     OW28300   4.702   5.549   1.125
 9134SOL    HW128301   4.659   5.516   1.042
 9134SOL    HW228302   4.774   5.615   1.102
 9135SOL     OW28303   1.038   6.076   1.809
 9135SOL    HW128304   0.954   6.130   1.801
 9135SOL    HW228305   1.018   5.990   1.856
 9136SOL     OW28306   5.279   4.708   6.513
 9136SOL    HW128307   5.233   4.724   6.600
 9136SOL    HW228308   5.329   4.622   6.517
 9137SOL     OW28309   4.113   5.777   6.504
 9137SOL    HW128310   4.094   5.872   6.479
 9137SOL    HW228311   4.094   5.764   6.602
 9138SOL     OW28312   3.130   2.461   0.231
 9138SOL    HW128313   3.177   2.510   0.305
 9138SOL    HW228314   3.052   2.515   0.201
 9139SOL     OW28315   6.962   0.090   1.167
 9139SOL    HW128316   6.933   0.033   1.245
 9139SOL    HW228317   6.935   0.045   1.082
 9140SOL     OW28318   0.743   4.008   2.449
 9140SOL    HW128319   0.721   4.043   2.358
 9140SOL    HW228320   0.828   3.956   2.445
 9141SOL     OW28321   6.712   5.447   6.140
 9141SOL    HW128322   6.707   5.534   6.189
 9141SOL    HW228323   6.725   5.372   6.205
 9142SOL     OW28324   1.099   3.797   2.543
 9142SOL    HW128325   1.103   3.895   2.524
 9142SOL    HW228326   1.009   3.761   2.520
 9143SOL     OW28327   0.339   3.612   3.128
 9143SOL    HW128328   0.337   3.710   3.146
 9143SOL    HW228329   0.409   3.592   3.059
 9144SOL     OW28330   2.720   5.050   5.145
 9144SOL    HW128331   2.788   5.118   5.118
 9144SOL    HW228332   2.752   5.002   5.227
 9145SOL     OW28333   1.163   6.727   6.511
 9145SOL    HW128334   1.149   6.723   6.610
 9145SOL    HW228335   1.113   6.805   6.474
 9146SOL     OW28336   5.517   3.667   3.502
 9146SOL    HW128337   5.469   3.580   3.491
 9146SOL    HW228338   5.451   3.740   3.519
 9147SOL     OW28339   5.362   0.150   3.893
 9147SOL    HW128340   5.313   0.207   3.959
 9147SOL    HW228341   5.312   0.065   3.879
 9148SOL     OW28342   6.553   0.207   1.532
 9148SOL    HW128343   6.461   0.167   1.535
 9148SOL    HW228344   6.546   0.305   1.511
 9149SOL     OW28345   5.986   4.022   1.462
 9149SOL    HW128346   5.959   4.026   1.366
 9149SOL    HW228347   5.966   3.931   1.499
 9150SOL     OW28348   3.149   3.871   0.138
 9150SOL    HW128349   3.106   3.825   0.060
 9150SOL    HW228350   3.095   3.951   0.164
 9151SOL     OW28351   1.612   3.573   3.802
 9151SOL    HW128352   1.514   3.563   3.787
 9151SOL    HW228353   1.662   3.526   3.729
 9152SOL     OW28354   1.806   4.127   3.604
 9152SOL    HW128355   1.882   4.089   3.551
 9152SOL    HW228356   1.831   4.217   3.639
 9153SOL     OW28357   0.385   2.757   6.465
 9153SOL    HW128358   0.371   2.750   6.564
 9153SOL    HW228359   0.482   2.771   6.446
 9154SOL     OW28360   6.073   4.910   2.993
 9154SOL    HW128361   6.106   4.849   3.065
 9154SOL    HW228362   6.136   4.908   2.915
 9155SOL     OW28363   0.612   5.735   2.526
 9155SOL    HW128364   0.559   5.810   2.566
 9155SOL    HW228365   0.661   5.687   2.599
 9156SOL     OW28366   6.729   4.133   0.323
 9156SOL    HW128367   6.667   4.177   0.388
 9156SOL    HW228368   6.764   4.201   0.259
 9157SOL     OW28369   3.166   4.414   6.088
 9157SOL    HW128370   3.164   4.506   6.128
 9157SOL    HW228371   3.258   4.377   6.094
 9158SOL     OW28372   0.269   3.633   3.890
 9158SOL    HW128373   0.364   3.663   3.890
 9158SOL    HW228374   0.266   3.533   3.890
 9159SOL     OW28375   3.497   0.933   3.507
 9159SOL    HW128376   3.456   0.842   3.499
 9159SOL    HW228377   3.511   0.972   3.416
 9160SOL     OW28378   0.313   4.579   6.590
 9160SOL    HW128379   0.408   4.573   6.560
 9160SOL    HW228380   0.310   4.610   6.685
 9161SOL     OW28381   5.486   3.887   1.605
 9161SOL    HW128382   5.450   3.852   1.519
 9161SOL    HW228383   5.458   3.982   1.617
 9162SOL     OW28384   5.331   2.113   2.357
 9162SOL    HW128385   5.236   2.084   2.358
 9162SOL    HW228386   5.346   2.175   2.280
 9163SOL     OW28387   1.346   2.054   2.983
 9163SOL    HW128388   1.296   2.004   2.912
 9163SOL    HW228389   1.289   2.059   3.065
 9164SOL     OW28390   2.460   0.554   6.797
 9164SOL    HW128391   2.506   0.548   6.709
 9164SOL    HW228392   2.526   0.539   6.871
 9165SOL     OW28393   4.961   2.947   5.527
 9165SOL    HW128394   4.887   2.882   5.507
 9165SOL    HW228395   4.941   3.033   5.480
 9166SOL     OW28396   5.125   5.491   1.727
 9166SOL    HW128397   5.029   5.485   1.701
 9166SOL    HW228398   5.175   5.413   1.690
 9167SOL     OW28399   1.664   0.616   5.574
 9167SOL    HW128400   1.692   0.659   5.660
 9167SOL    HW228401   1.732   0.635   5.504
 9168SOL     OW28402   6.531   6.100   4.558
 9168SOL    HW128403   6.527   6.151   4.472
 9168SOL    HW228404   6.611   6.130   4.611
 9169SOL     OW28405   6.434   6.433   0.525
 9169SOL    HW128406   6.358   6.494   0.504
 9169SOL    HW228407   6.399   6.351   0.571
 9170SOL     OW28408   1.569   1.182   6.099
 9170SOL    HW128409   1.482   1.222   6.130
 9170SOL    HW228410   1.585   1.207   6.003
 9171SOL     OW28411   3.192   4.794   0.535
 9171SOL    HW128412   3.276   4.796   0.590
 9171SOL    HW228413   3.183   4.706   0.490
 9172SOL     OW28414   5.285   1.447   4.275
 9172SOL    HW128415   5.355   1.473   4.341
 9172SOL    HW228416   5.195   1.469   4.311
 9173SOL     OW28417   6.241   2.619   4.160
 9173SOL    HW128418   6.156   2.603   4.211
 9173SOL    HW228419   6.234   2.575   4.070
 9174SOL     OW28420   0.319   5.665   0.108
 9174SOL    HW128421   0.252   5.691   0.040
 9174SOL    HW228422   0.338   5.744   0.168
 9175SOL     OW28423   1.479   0.275   6.681
 9175SOL    HW128424   1.532   0.289   6.597
 9175SOL    HW228425   1.535   0.300   6.760
 9176SOL     OW28426   1.496   1.513   2.594
 9176SOL    HW128427   1.434   1.462   2.535
 9176SOL    HW228428   1.446   1.546   2.674
 9177SOL     OW28429   0.125   4.162   3.569
 9177SOL    HW128430   0.126   4.126   3.663
 9177SOL    HW228431   0.181   4.103   3.511
 9178SOL     OW28432   1.489   6.444   0.551
 9178SOL    HW128433   1.484   6.433   0.452
 9178SOL    HW228434   1.567   6.502   0.575
 9179SOL     OW28435   4.490   6.316   4.889
 9179SOL    HW128436   4.412   6.257   4.908
 9179SOL    HW228437   4.459   6.395   4.837
 9180SOL     OW28438   0.189   1.462   4.248
 9180SOL    HW128439   0.264   1.527   4.238
 9180SOL    HW228440   0.193   1.394   4.175
 9181SOL     OW28441   3.662   2.094   3.910
 9181SOL    HW128442   3.738   2.135   3.960
 9181SOL    HW228443   3.686   2.000   3.885
 9182SOL     OW28444   1.623   1.049   3.204
 9182SOL    HW128445   1.686   1.090   3.270
 9182SOL    HW228446   1.675   1.010   3.128
 9183SOL     OW28447   5.990   2.779   6.030
 9183SOL    HW128448   5.969   2.769   6.128
 9183SOL    HW228449   6.047   2.702   6.001
 9184SOL     OW28450   3.934   3.305   1.265
 9184SOL    HW128451   3.958   3.397   1.294
 9184SOL    HW228452   3.897   3.308   1.172
 9185SOL     OW28453   0.677   0.394   6.139
 9185SOL    HW128454   0.738   0.429   6.211
 9185SOL    HW228455   0.723   0.322   6.088
 9186SOL     OW28456   5.293   0.691   6.136
 9186SOL    HW128457   5.297   0.720   6.231
 9186SOL    HW228458   5.343   0.606   6.124
 9187SOL     OW28459   5.184   1.677   0.486
 9187SOL    HW128460   5.201   1.736   0.407
 9187SOL    HW228461   5.087   1.653   0.489
 9188SOL     OW28462   0.868   0.015   2.224
 9188SOL    HW128463   0.963   0.014   2.191
 9188SOL    HW228464   0.808   0.051   2.153
 9189SOL     OW28465   3.543   1.490   3.705
 9189SOL    HW128466   3.526   1.395   3.681
 9189SOL    HW228467   3.467   1.525   3.760
 9190SOL     OW28468   6.238   3.833   5.690
 9190SOL    HW128469   6.293   3.773   5.749
 9190SOL    HW228470   6.173   3.884   5.746
 9191SOL     OW28471   4.989   6.164   6.462
 9191SOL    HW128472   4.983   6.251   6.511
 9191SOL    HW228473   5.057   6.106   6.506
 9192SOL     OW28474   6.709   4.318   5.636
 9192SOL    HW128475   6.686   4.401   5.685
 9192SOL    HW228476   6.650   4.309   5.556
 9193SOL     OW28477   3.662   2.996   3.603
 9193SOL    HW128478   3.615   3.048   3.531
 9193SOL    HW228479   3.693   3.058   3.674
 9194SOL     OW28480   2.750   4.958   3.118
 9194SOL    HW128481   2.786   4.876   3.162
 9194SOL    HW228482   2.748   4.944   3.019
 9195SOL     OW28483   0.507   3.076   3.087
 9195SOL    HW128484   0.420   3.099   3.130
 9195SOL    HW228485   0.514   2.977   3.078
 9196SOL     OW28486   4.849   0.455   3.480
 9196SOL    HW128487   4.799   0.511   3.546
 9196SOL    HW228488   4.904   0.388   3.529
 9197SOL     OW28489   3.259   2.890   6.140
 9197SOL    HW128490   3.284   2.878   6.237
 9197SOL    HW228491   3.187   2.826   6.117
 9198SOL     OW28492   5.703   2.959   5.560
 9198SOL    HW128493   5.648   2.879   5.537
 9198SOL    HW228494   5.767   2.978   5.486
 9199SOL     OW28495   1.263   4.246   6.442
 9199SOL    HW128496   1.264   4.217   6.346
 9199SOL    HW228497   1.289   4.169   6.500
 9200SOL     OW28498   6.359   0.200   0.672
 9200SOL    HW128499   6.354   0.297   0.648
 9200SOL    HW228500   6.293   0.180   0.745
 9201SOL     OW28501   0.455   3.770   2.258
 9201SOL    HW128502   0.517   3.692   2.245
 9201SOL    HW228503   0.382   3.744   2.321
 9202SOL     OW28504   3.128   5.506   4.536
 9202SOL    HW128505   3.051   5.499   4.599
 9202SOL    HW228506   3.100   5.555   4.454
 9203SOL     OW28507   5.211   1.064   5.647
 9203SOL    HW128508   5.214   1.058   5.746
 9203SOL    HW228509   5.249   1.152   5.617
 9204SOL     OW28510   5.100   4.270   3.064
 9204SOL    HW128511   5.160   4.338   3.105
 9204SOL    HW228512   5.125   4.179   3.098
 9205SOL     OW28513   5.835   2.688   2.840
 9205SOL    HW128514   5.839   2.624   2.764
 9205SOL    HW228515   5.748   2.678   2.888
 9206SOL     OW28516   1.004   6.383   3.234
 9206SOL    HW128517   1.038   6.470   3.270
 9206SOL    HW228518   0.942   6.341   3.300
 9207SOL     OW28519   4.017   6.133   6.998
 9207SOL    HW128520   4.002   6.192   0.055
 9207SOL    HW228521   3.929   6.102   6.963
 9208SOL     OW28522   5.470   3.526   1.951
 9208SOL    HW128523   5.533   3.478   1.890
 9208SOL    HW228524   5.379   3.487   1.944
 9209SOL     OW28525   4.334   1.064   2.870
 9209SOL    HW128526   4.259   1.050   2.934
 9209SOL    HW228527   4.330   0.995   2.798
 9210SOL     OW28528   1.998   0.068   1.358
 9210SOL    HW128529   1.907   0.110   1.357
 9210SOL    HW228530   1.997   7.009   1.416
 9211SOL     OW28531   5.059   1.450   6.332
 9211SOL    HW128532   5.156   1.468   6.315
 9211SOL    HW228533   5.007   1.535   6.327
 9212SOL     OW28534   5.743   4.080   4.393
 9212SOL    HW128535   5.820   4.020   4.412
 9212SOL    HW228536   5.734   4.148   4.466
 9213SOL     OW28537   5.665   6.767   3.640
 9213SOL    HW128538   5.651   6.857   3.681
 9213SOL    HW228539   5.728   6.714   3.696
 9214SOL     OW28540   2.342   2.194   4.410
 9214SOL    HW128541   2.344   2.160   4.504
 9214SOL    HW228542   2.436   2.200   4.375
 9215SOL     OW28543   0.501   4.090   2.936
 9215SOL    HW128544   0.441   4.139   2.999
 9215SOL    HW228545   0.596   4.095   2.969
 9216SOL     OW28546   2.072   5.799   4.670
 9216SOL    HW128547   2.001   5.847   4.617
 9216SOL    HW228548   2.052   5.701   4.669
 9217SOL     OW28549   4.464   0.786   6.553
 9217SOL    HW128550   4.385   0.836   6.589
 9217SOL    HW228551   4.475   0.700   6.601
 9218SOL     OW28552   6.159   5.767   5.932
 9218SOL    HW128553   6.089   5.718   5.984
 9218SOL    HW228554   6.232   5.796   5.993
 9219SOL     OW28555   3.594   3.144   5.044
 9219SOL    HW128556   3.635   3.161   5.133
 9219SOL    HW228557   3.565   3.048   5.038
 9220SOL     OW28558   1.759   6.282   3.263
 9220SOL    HW128559   1.859   6.292   3.260
 9220SOL    HW228560   1.733   6.199   3.213
 9221SOL     OW28561   2.466   0.890   6.557
 9221SOL    HW128562   2.558   0.893   6.518
 9221SOL    HW228563   2.402   0.937   6.496
 9222SOL     OW28564   1.406   3.903   3.333
 9222SOL    HW128565   1.469   3.826   3.321
 9222SOL    HW228566   1.375   3.908   3.428
 9223SOL     OW28567   1.050   4.073   4.419
 9223SOL    HW128568   1.076   4.026   4.335
 9223SOL    HW228569   1.005   4.160   4.397
 9224SOL     OW28570   1.999   4.171   3.932
 9224SOL    HW128571   1.928   4.235   3.962
 9224SOL    HW228572   2.059   4.217   3.867
 9225SOL     OW28573   4.754   6.918   6.542
 9225SOL    HW128574   4.674   6.876   6.499
 9225SOL    HW228575   4.753   7.017   6.524
 9226SOL     OW28576   0.780   0.707   0.617
 9226SOL    HW128577   0.813   0.645   0.688
 9226SOL    HW228578   0.822   0.684   0.530
 9227SOL     OW28579   2.306   5.329   0.670
 9227SOL    HW128580   2.386   5.384   0.649
 9227SOL    HW228581   2.257   5.306   0.586
 9228SOL     OW28582   3.161   2.945   5.639
 9228SOL    HW128583   3.231   2.968   5.705
 9228SOL    HW228584   3.135   2.849   5.649
 9229SOL     OW28585   6.963   4.682   6.956
 9229SOL    HW128586   6.971   4.645   6.864
 9229SOL    HW228587   7.022   4.762   6.966
 9230SOL     OW28588   5.029   1.489   4.032
 9230SOL    HW128589   5.098   1.553   3.998
 9230SOL    HW228590   4.953   1.541   4.072
 9231SOL     OW28591   0.645   5.281   4.742
 9231SOL    HW128592   0.663   5.370   4.785
 9231SOL    HW228593   0.713   5.265   4.670
 9232SOL     OW28594   1.245   5.303   1.615
 9232SOL    HW128595   1.279   5.390   1.651
 9232SOL    HW228596   1.191   5.321   1.533
 9233SOL     OW28597   0.924   0.444   0.025
 9233SOL    HW128598   0.917   0.544   0.032
 9233SOL    HW228599   0.906   0.403   0.115
 9234SOL     OW28600   2.089   4.725   1.012
 9234SOL    HW128601   2.100   4.703   0.915
 9234SOL    HW228602   2.092   4.641   1.066
 9235SOL     OW28603   2.534   2.556   4.216
 9235SOL    HW128604   2.462   2.494   4.187
 9235SOL    HW228605   2.499   2.650   4.217
 9236SOL     OW28606   2.079   3.613   6.159
 9236SOL    HW128607   2.165   3.615   6.209
 9236SOL    HW228608   2.003   3.604   6.223
 9237SOL     OW28609   6.292   5.158   3.575
 9237SOL    HW128610   6.343   5.075   3.598
 9237SOL    HW228611   6.332   5.200   3.494
 9238SOL     OW28612   1.767   3.375   5.264
 9238SOL    HW128613   1.750   3.434   5.185
 9238SOL    HW228614   1.789   3.283   5.233
 9239SOL     OW28615   0.597   4.896   7.014
 9239SOL    HW128616   0.635   4.805   0.009
 9239SOL    HW228617   0.539   4.923   0.068
 9240SOL     OW28618   4.789   2.749   3.033
 9240SOL    HW128619   4.784   2.816   2.959
 9240SOL    HW228620   4.713   2.684   3.024
 9241SOL     OW28621   5.846   6.716   0.984
 9241SOL    HW128622   5.814   6.644   1.045
 9241SOL    HW228623   5.879   6.676   0.899
 9242SOL     OW28624   1.308   2.013   1.417
 9242SOL    HW128625   1.246   2.092   1.420
 9242SOL    HW228626   1.256   1.930   1.395
 9243SOL     OW28627   1.149   0.307   0.816
 9243SOL    HW128628   1.065   0.334   0.769
 9243SOL    HW228629   1.157   0.360   0.901
 9244SOL     OW28630   4.518   6.606   4.764
 9244SOL    HW128631   4.461   6.662   4.826
 9244SOL    HW228632   4.611   6.603   4.799
 9245SOL     OW28633   0.920   4.666   2.919
 9245SOL    HW128634   0.836   4.640   2.966
 9245SOL    HW228635   0.996   4.668   2.984
 9246SOL     OW28636   0.122   0.919   4.524
 9246SOL    HW128637   0.160   0.975   4.597
 9246SOL    HW228638   0.193   0.897   4.457
 9247SOL     OW28639   3.912   5.881   3.333
 9247SOL    HW128640   3.957   5.971   3.326
 9247SOL    HW228641   3.954   5.830   3.408
 9248SOL     OW28642   2.718   0.869   5.174
 9248SOL    HW128643   2.704   0.855   5.272
 9248SOL    HW228644   2.673   0.954   5.146
 9249SOL     OW28645   3.599   5.029   1.970
 9249SOL    HW128646   3.580   5.050   1.874
 9249SOL    HW228647   3.550   4.946   1.996
 9250SOL     OW28648   0.156   3.100   3.913
 9250SOL    HW128649   0.221   3.106   3.989
 9250SOL    HW228650   0.083   3.167   3.928
 9251SOL     OW28651   3.421   2.653   0.825
 9251SOL    HW128652   3.437   2.555   0.834
 9251SOL    HW228653   3.501   2.696   0.783
 9252SOL     OW28654   5.426   0.383   5.406
 9252SOL    HW128655   5.333   0.399   5.437
 9252SOL    HW228656   5.491   0.409   5.478
 9253SOL     OW28657   1.290   4.857   5.198
 9253SOL    HW128658   1.388   4.871   5.210
 9253SOL    HW228659   1.247   4.941   5.167
 9254SOL     OW28660   6.392   5.003   3.227
 9254SOL    HW128661   6.470   5.014   3.288
 9254SOL    HW228662   6.339   5.088   3.226
 9255SOL     OW28663   6.462   4.766   0.696
 9255SOL    HW128664   6.422   4.733   0.610
 9255SOL    HW228665   6.545   4.715   0.716
 9256SOL     OW28666   2.108   6.344   1.989
 9256SOL    HW128667   2.170   6.416   2.020
 9256SOL    HW228668   2.054   6.310   2.066
 9257SOL     OW28669   0.150   5.152   3.917
 9257SOL    HW128670   0.098   5.109   3.990
 9257SOL    HW228671   0.214   5.219   3.957
 9258SOL     OW28672   3.402   4.277   0.617
 9258SOL    HW128673   3.384   4.206   0.549
 9258SOL    HW228674   3.498   4.302   0.615
 9259SOL     OW28675   2.358   2.238   6.743
 9259SOL    HW128676   2.325   2.332   6.734
 9259SOL    HW228677   2.444   2.237   6.795
 9260SOL     OW28678   5.531   3.102   4.955
 9260SOL    HW128679   5.477   3.052   4.887
 9260SOL    HW228680   5.518   3.200   4.943
 9261SOL     OW28681   4.139   2.051   1.533
 9261SOL    HW128682   4.194   2.097   1.603
 9261SOL    HW228683   4.047   2.037   1.568
 9262SOL     OW28684   6.197   6.304   3.850
 9262SOL    HW128685   6.250   6.226   3.818
 9262SOL    HW228686   6.103   6.297   3.815
 9263SOL     OW28687   2.072   3.554   3.669
 9263SOL    HW128688   2.096   3.542   3.765
 9263SOL    HW228689   2.000   3.489   3.644
 9264SOL     OW28690   4.819   4.247   0.071
 9264SOL    HW128691   4.882   4.312   0.113
 9264SOL    HW228692   4.840   4.238   6.996
 9265SOL     OW28693   5.038   1.887   0.280
 9265SOL    HW128694   4.949   1.860   0.317
 9265SOL    HW228695   5.073   1.815   0.220
 9266SOL     OW28696   6.996   4.328   1.117
 9266SOL    HW128697   7.018   4.234   1.146
 9266SOL    HW228698   7.003   4.389   1.196
 9267SOL     OW28699   0.440   1.056   3.896
 9267SOL    HW128700   0.529   1.011   3.887
 9267SOL    HW228701   0.423   1.077   3.993
 9268SOL     OW28702   0.844   6.356   1.789
 9268SOL    HW128703   0.829   6.325   1.882
 9268SOL    HW228704   0.784   6.434   1.769
 9269SOL     OW28705   3.981   0.179   0.540
 9269SOL    HW128706   3.958   0.272   0.511
 9269SOL    HW228707   3.901   0.136   0.583
 9270SOL     OW28708   2.637   0.769   5.428
 9270SOL    HW128709   2.542   0.785   5.399
 9270SOL    HW228710   2.641   0.685   5.482
 9271SOL     OW28711   1.041   0.315   6.194
 9271SOL    HW128712   1.114   0.255   6.229
 9271SOL    HW228713   0.992   0.269   6.120
 9272SOL     OW28714   6.837   6.486   5.924
 9272SOL    HW128715   6.839   6.386   5.915
 9272SOL    HW228716   6.748   6.521   5.897
 9273SOL     OW28717   5.034   5.179   4.179
 9273SOL    HW128718   5.079   5.232   4.251
 9273SOL    HW228719   4.944   5.219   4.161
 9274SOL     OW28720   0.731   3.269   0.503
 9274SOL    HW128721   0.800   3.339   0.488
 9274SOL    HW228722   0.711   3.224   0.416
 9275SOL     OW28723   0.883   6.245   1.090
 9275SOL    HW128724   0.894   6.318   1.157
 9275SOL    HW228725   0.965   6.187   1.090
 9276SOL     OW28726   3.138   4.800   0.252
 9276SOL    HW128727   3.235   4.815   0.272
 9276SOL    HW228728   3.087   4.884   0.272
 9277SOL     OW28729   4.908   4.886   2.361
 9277SOL    HW128730   4.825   4.833   2.374
 9277SOL    HW228731   4.986   4.824   2.349
 9278SOL     OW28732   0.641   0.693   4.457
 9278SOL    HW128733   0.586   0.685   4.540
 9278SOL    HW228734   0.603   0.633   4.386
 9279SOL     OW28735   3.898   5.646   1.575
 9279SOL    HW128736   3.996   5.631   1.568
 9279SOL    HW228737   3.861   5.667   1.485
 9280SOL     OW28738   1.603   1.328   2.827
 9280SOL    HW128739   1.685   1.276   2.848
 9280SOL    HW228740   1.627   1.425   2.817
 9281SOL     OW28741   3.044   4.580   0.395
 9281SOL    HW128742   3.087   4.653   0.342
 9281SOL    HW228743   3.112   4.512   0.420
 9282SOL     OW28744   3.409   0.165   4.900
 9282SOL    HW128745   3.471   0.137   4.827
 9282SOL    HW228746   3.333   0.217   4.860
 9283SOL     OW28747   4.456   6.125   6.763
 9283SOL    HW128748   4.368   6.091   6.798
 9283SOL    HW228749   4.499   6.183   6.832
 9284SOL     OW28750   3.048   4.099   5.120
 9284SOL    HW128751   2.998   4.153   5.188
 9284SOL    HW228752   3.140   4.138   5.108
 9285SOL     OW28753   6.712   3.962   2.381
 9285SOL    HW128754   6.789   3.918   2.336
 9285SOL    HW228755   6.715   3.942   2.479
 9286SOL     OW28756   4.843   5.620   1.574
 9286SOL    HW128757   4.923   5.664   1.535
 9286SOL    HW228758   4.863   5.524   1.595
 9287SOL     OW28759   3.250   4.575   6.371
 9287SOL    HW128760   3.318   4.640   6.403
 9287SOL    HW228761   3.161   4.620   6.366
 9288SOL     OW28762   4.252   1.935   3.333
 9288SOL    HW128763   4.228   1.997   3.258
 9288SOL    HW228764   4.295   1.852   3.296
 9289SOL     OW28765   4.839   6.364   0.053
 9289SOL    HW128766   4.781   6.328   7.002
 9289SOL    HW228767   4.835   6.302   0.132
 9290SOL     OW28768   5.665   0.593   5.018
 9290SOL    HW128769   5.709   0.517   5.064
 9290SOL    HW228770   5.631   0.564   4.929
 9291SOL     OW28771   1.423   5.303   5.665
 9291SOL    HW128772   1.362   5.245   5.718
 9291SOL    HW228773   1.444   5.259   5.578
 9292SOL     OW28774   1.502   1.752   6.380
 9292SOL    HW128775   1.484   1.793   6.291
 9292SOL    HW228776   1.590   1.786   6.415
 9293SOL     OW28777   5.067   3.038   5.773
 9293SOL    HW128778   5.167   3.037   5.787
 9293SOL    HW228779   5.046   3.006   5.681
 9294SOL     OW28780   4.697   1.583   0.276
 9294SOL    HW128781   4.641   1.504   0.301
 9294SOL    HW228782   4.637   1.661   0.257
 9295SOL     OW28783   0.797   1.224   5.251
 9295SOL    HW128784   0.858   1.183   5.183
 9295SOL    HW228785   0.811   1.179   5.339
 9296SOL     OW28786   2.368   4.643   0.583
 9296SOL    HW128787   2.381   4.619   0.679
 9296SOL    HW228788   2.349   4.560   0.530
 9297SOL     OW28789   6.066   6.551   2.678
 9297SOL    HW128790   6.062   6.645   2.645
 9297SOL    HW228791   6.131   6.546   2.755
 9298SOL     OW28792   1.505   6.303   5.853
 9298SOL    HW128793   1.519   6.399   5.874
 9298SOL    HW228794   1.512   6.249   5.937
 9299SOL     OW28795   2.396   2.668   4.868
 9299SOL    HW128796   2.387   2.571   4.846
 9299SOL    HW228797   2.477   2.705   4.822
 9300SOL     OW28798   1.703   6.137   5.719
 9300SOL    HW128799   1.684   6.098   5.629
 9300SOL    HW228800   1.620   6.181   5.755
 9301SOL     OW28801   0.403   4.115   4.626
 9301SOL    HW128802   0.426   4.212   4.626
 9301SOL    HW228803   0.459   4.068   4.695
 9302SOL     OW28804   2.152   3.476   4.709
 9302SOL    HW128805   2.105   3.555   4.748
 9302SOL    HW228806   2.134   3.472   4.610
 9303SOL     OW28807   2.578   4.752   1.032
 9303SOL    HW128808   2.579   4.674   0.969
 9303SOL    HW228809   2.485   4.788   1.038
 9304SOL     OW28810   5.162   5.044   0.251
 9304SOL    HW128811   5.239   5.092   0.294
 9304SOL    HW228812   5.081   5.052   0.309
 9305SOL     OW28813   3.102   1.665   1.421
 9305SOL    HW128814   3.008   1.672   1.387
 9305SOL    HW228815   3.117   1.734   1.491
 9306SOL     OW28816   0.546   4.976   4.999
 9306SOL    HW128817   0.554   4.947   5.094
 9306SOL    HW228818   0.449   4.991   4.977
 9307SOL     OW28819   2.743   2.848   1.676
 9307SOL    HW128820   2.666   2.802   1.722
 9307SOL    HW228821   2.822   2.786   1.674
 9308SOL     OW28822   1.874   4.206   1.549
 9308SOL    HW128823   1.865   4.231   1.646
 9308SOL    HW228824   1.916   4.115   1.543
 9309SOL     OW28825   4.381   5.665   5.281
 9309SOL    HW128826   4.375   5.758   5.315
 9309SOL    HW228827   4.467   5.654   5.229
 9310SOL     OW28828   4.794   6.243   6.244
 9310SOL    HW128829   4.856   6.235   6.322
 9310SOL    HW228830   4.765   6.151   6.216
 9311SOL     OW28831   4.895   3.485   2.015
 9311SOL    HW128832   4.876   3.477   1.918
 9311SOL    HW228833   4.888   3.396   2.059
 9312SOL     OW28834   0.751   2.319   1.087
 9312SOL    HW128835   0.712   2.379   1.157
 9312SOL    HW228836   0.843   2.350   1.063
 9313SOL     OW28837   0.955   6.975   1.920
 9313SOL    HW128838   0.995   0.024   1.979
 9313SOL    HW228839   1.018   6.897   1.916
 9314SOL     OW28840   4.833   2.934   0.508
 9314SOL    HW128841   4.739   2.960   0.532
 9314SOL    HW228842   4.832   2.843   0.466
 9315SOL     OW28843   5.792   0.978   6.582
 9315SOL    HW128844   5.863   1.033   6.537
 9315SOL    HW228845   5.705   1.026   6.575
 9316SOL     OW28846   3.891   1.267   5.588
 9316SOL    HW128847   3.864   1.348   5.536
 9316SOL    HW228848   3.988   1.250   5.575
 9317SOL     OW28849   3.649   5.979   3.385
 9317SOL    HW128850   3.587   5.952   3.458
 9317SOL    HW228851   3.721   5.910   3.375
 9318SOL     OW28852   4.838   5.780   1.022
 9318SOL    HW128853   4.757   5.834   1.044
 9318SOL    HW228854   4.837   5.756   0.925
 9319SOL     OW28855   2.339   4.397   0.828
 9319SOL    HW128856   2.293   4.393   0.917
 9319SOL    HW228857   2.312   4.318   0.773
 9320SOL     OW28858   6.300   6.554   6.358
 9320SOL    HW128859   6.267   6.483   6.296
 9320SOL    HW228860   6.366   6.514   6.422
 9321SOL     OW28861   0.255   3.525   5.142
 9321SOL    HW128862   0.322   3.551   5.211
 9321SOL    HW228863   0.302   3.502   5.057
 9322SOL     OW28864   5.837   4.285   5.829
 9322SOL    HW128865   5.924   4.236   5.834
 9322SOL    HW228866   5.850   4.371   5.781
 9323SOL     OW28867   1.416   3.029   3.416
 9323SOL    HW128868   1.357   3.082   3.477
 9323SOL    HW228869   1.408   2.932   3.438
 9324SOL     OW28870   0.295   4.055   1.463
 9324SOL    HW128871   0.354   4.035   1.541
 9324SOL    HW228872   0.200   4.034   1.487
 9325SOL     OW28873   1.372   5.162   2.426
 9325SOL    HW128874   1.454   5.184   2.480
 9325SOL    HW228875   1.329   5.080   2.463
 9326SOL     OW28876   4.243   4.075   0.560
 9326SOL    HW128877   4.241   4.150   0.627
 9326SOL    HW228878   4.288   3.996   0.601
 9327SOL     OW28879   4.411   0.794   3.343
 9327SOL    HW128880   4.429   0.824   3.250
 9327SOL    HW228881   4.460   0.852   3.408
 9328SOL     OW28882   2.862   6.228   4.240
 9328SOL    HW128883   2.830   6.138   4.210
 9328SOL    HW228884   2.920   6.218   4.321
 9329SOL     OW28885   0.344   5.918   6.423
 9329SOL    HW128886   0.321   5.928   6.520
 9329SOL    HW228887   0.396   5.998   6.393
 9330SOL     OW28888   5.780   6.353   6.184
 9330SOL    HW128889   5.682   6.348   6.166
 9330SOL    HW228890   5.829   6.299   6.115
 9331SOL     OW28891   1.624   3.503   4.786
 9331SOL    HW128892   1.665   3.466   4.869
 9331SOL    HW228893   1.678   3.473   4.707
 9332SOL     OW28894   4.679   5.458   0.871
 9332SOL    HW128895   4.770   5.433   0.839
 9332SOL    HW228896   4.635   5.517   0.802
 9333SOL     OW28897   3.535   4.969   0.422
 9333SOL    HW128898   3.606   5.036   0.443
 9333SOL    HW228899   3.497   4.934   0.508
 9334SOL     OW28900   5.231   6.448   5.684
 9334SOL    HW128901   5.254   6.356   5.717
 9334SOL    HW228902   5.181   6.497   5.756
 9335SOL     OW28903   2.139   2.405   1.285
 9335SOL    HW128904   2.174   2.388   1.193
 9335SOL    HW228905   2.166   2.497   1.315
 9336SOL     OW28906   6.638   1.180   5.169
 9336SOL    HW128907   6.551   1.216   5.203
 9336SOL    HW228908   6.691   1.143   5.246
 9337SOL     OW28909   3.734   0.353   5.905
 9337SOL    HW128910   3.721   0.294   5.985
 9337SOL    HW228911   3.656   0.343   5.843
 9338SOL     OW28912   6.464   5.895   0.131
 9338SOL    HW128913   6.478   5.851   0.042
 9338SOL    HW228914   6.453   5.994   0.117
 9339SOL     OW28915   6.087   4.815   5.453
 9339SOL    HW128916   6.151   4.879   5.495
 9339SOL    HW228917   6.136   4.756   5.389
 9340SOL     OW28918   3.569   6.188   2.458
 9340SOL    HW128919   3.489   6.141   2.419
 9340SOL    HW228920   3.650   6.165   2.404
 9341SOL     OW28921   5.505   4.258   6.930
 9341SOL    HW128922   5.428   4.222   6.877
 9341SOL    HW228923   5.590   4.245   6.878
 9342SOL     OW28924   2.520   6.936   4.043
 9342SOL    HW128925   2.516   7.011   4.109
 9342SOL    HW228926   2.469   6.858   4.077
 9343SOL     OW28927   4.812   4.274   1.984
 9343SOL    HW128928   4.715   4.273   2.005
 9343SOL    HW228929   4.846   4.368   1.983
 9344SOL     OW28930   6.435   5.396   5.044
 9344SOL    HW128931   6.439   5.337   4.964
 9344SOL    HW228932   6.515   5.456   5.045
 9345SOL     OW28933   0.161   6.169   0.313
 9345SOL    HW128934   0.084   6.147   0.373
 9345SOL    HW228935   0.130   6.166   0.218
 9346SOL     OW28936   5.754   6.821   1.870
 9346SOL    HW128937   5.779   6.724   1.868
 9346SOL    HW228938   5.667   6.832   1.917
 9347SOL     OW28939   4.369   5.724   0.430
 9347SOL    HW128940   4.452   5.776   0.447
 9347SOL    HW228941   4.393   5.631   0.403
 9348SOL     OW28942   2.324   5.947   2.000
 9348SOL    HW128943   2.302   5.958   2.096
 9348SOL    HW228944   2.350   5.852   1.982
 9349SOL     OW28945   6.279   4.921   1.560
 9349SOL    HW128946   6.213   4.984   1.602
 9349SOL    HW228947   6.256   4.827   1.584
 9350SOL     OW28948   0.100   1.287   5.107
 9350SOL    HW128949   0.024   1.226   5.129
 9350SOL    HW228950   0.130   1.270   5.013
 9351SOL     OW28951   2.801   1.168   5.711
 9351SOL    HW128952   2.768   1.262   5.706
 9351SOL    HW228953   2.752   1.119   5.783
 9352SOL     OW28954   3.076   2.453   5.986
 9352SOL    HW128955   3.030   2.479   5.901
 9352SOL    HW228956   3.131   2.371   5.971
 9353SOL     OW28957   0.993   3.810   1.485
 9353SOL    HW128958   0.965   3.895   1.441
 9353SOL    HW228959   1.026   3.746   1.416
 9354SOL     OW28960   5.938   1.769   1.273
 9354SOL    HW128961   5.858   1.710   1.259
 9354SOL    HW228962   5.907   1.862   1.293
 9355SOL     OW28963   6.739   0.061   3.550
 9355SOL    HW128964   6.761   0.131   3.618
 9355SOL    HW228965   6.823   0.016   3.520
 9356SOL     OW28966   4.383   5.301   1.958
 9356SOL    HW128967   4.351   5.358   2.033
 9356SOL    HW228968   4.409   5.359   1.881
 9357SOL     OW28969   3.185   3.041   0.838
 9357SOL    HW128970   3.091   3.070   0.854
 9357SOL    HW228971   3.212   3.067   0.745
 9358SOL     OW28972   6.150   4.270   1.936
 9358SOL    HW128973   6.200   4.200   1.988
 9358SOL    HW228974   6.213   4.313   1.870
 9359SOL     OW28975   6.976   4.183   6.511
 9359SOL    HW128976   0.046   4.222   6.511
 9359SOL    HW228977   6.966   4.119   6.587
 9360SOL     OW28978   2.248   0.621   5.946
 9360SOL    HW128979   2.294   0.534   5.967
 9360SOL    HW228980   2.203   0.614   5.857
 9361SOL     OW28981   3.009   6.358   2.195
 9361SOL    HW128982   3.062   6.295   2.139
 9361SOL    HW228983   3.071   6.426   2.235
 9362SOL     OW28984   2.431   1.147   1.961
 9362SOL    HW128985   2.487   1.069   1.989
 9362SOL    HW228986   2.379   1.181   2.039
 9363SOL     OW28987   3.188   6.084   2.898
 9363SOL    HW128988   3.220   6.087   2.803
 9363SOL    HW228989   3.267   6.083   2.960
 9364SOL     OW28990   4.193   3.010   6.355
 9364SOL    HW128991   4.233   2.996   6.265
 9364SOL    HW228992   4.260   3.055   6.415
 9365SOL     OW28993   2.791   1.840   5.088
 9365SOL    HW128994   2.879   1.793   5.076
 9365SOL    HW228995   2.725   1.802   5.023
 9366SOL     OW28996   3.531   1.870   0.542
 9366SOL    HW128997   3.490   1.815   0.469
 9366SOL    HW228998   3.630   1.859   0.541
 9367SOL     OW28999   6.758   5.914   3.505
 9367SOL    HW129000   6.823   5.987   3.485
 9367SOL    HW229001   6.806   5.826   3.508
 9368SOL     OW29002   3.258   2.041   1.856
 9368SOL    HW129003   3.306   2.125   1.830
 9368SOL    HW229004   3.173   2.034   1.804
 9369SOL     OW29005   6.525   1.609   5.786
 9369SOL    HW129006   6.472   1.525   5.797
 9369SOL    HW229007   6.619   1.587   5.762
 9370SOL     OW29008   6.005   0.814   2.804
 9370SOL    HW129009   6.073   0.841   2.872
 9370SOL    HW229010   5.913   0.833   2.839
 9371SOL     OW29011   1.149   5.494   0.190
 9371SOL    HW129012   1.086   5.501   0.113
 9371SOL    HW229013   1.140   5.404   0.232
 9372SOL     OW29014   5.711   6.662   3.363
 9372SOL    HW129015   5.637   6.676   3.297
 9372SOL    HW229016   5.690   6.710   3.448
 9373SOL     OW29017   4.400   1.487   3.411
 9373SOL    HW129018   4.430   1.519   3.501
 9373SOL    HW229019   4.333   1.414   3.422
 9374SOL     OW29020   5.508   2.736   0.168
 9374SOL    HW129021   5.465   2.689   0.245
 9374SOL    HW229022   5.593   2.779   0.197
 9375SOL     OW29023   6.621   0.952   2.782
 9375SOL    HW129024   6.555   0.915   2.716
 9375SOL    HW229025   6.659   1.037   2.748
 9376SOL     OW29026   3.063   3.633   0.727
 9376SOL    HW129027   3.017   3.571   0.791
 9376SOL    HW229028   2.997   3.699   0.691
 9377SOL     OW29029   6.473   5.628   3.842
 9377SOL    HW129030   6.428   5.629   3.752
 9377SOL    HW229031   6.569   5.602   3.830
 9378SOL     OW29032   2.871   0.014   6.722
 9378SOL    HW129033   2.785   6.988   6.738
 9378SOL    HW229034   2.859   0.078   6.647
 9379SOL     OW29035   4.601   4.309   3.826
 9379SOL    HW129036   4.535   4.372   3.785
 9379SOL    HW229037   4.605   4.325   3.925
 9380SOL     OW29038   6.536   6.527   5.602
 9380SOL    HW129039   6.627   6.507   5.566
 9380SOL    HW229040   6.482   6.443   5.605
 9381SOL     OW29041   2.648   2.806   5.351
 9381SOL    HW129042   2.575   2.821   5.417
 9381SOL    HW229043   2.623   2.849   5.264
 9382SOL     OW29044   4.110   0.559   3.179
 9382SOL    HW129045   4.021   0.563   3.224
 9382SOL    HW229046   4.176   0.516   3.240
 9383SOL     OW29047   3.257   6.944   4.686
 9383SOL    HW129048   3.201   6.969   4.764
 9383SOL    HW229049   3.235   6.851   4.657
 9384SOL     OW29050   4.639   6.030   2.419
 9384SOL    HW129051   4.543   6.058   2.419
 9384SOL    HW229052   4.650   5.947   2.365
 9385SOL     OW29053   3.855   1.509   3.195
 9385SOL    HW129054   3.802   1.594   3.190
 9385SOL    HW229055   3.886   1.495   3.288
 9386SOL     OW29056   3.527   6.425   5.066
 9386SOL    HW129057   3.450   6.365   5.088
 9386SOL    HW229058   3.540   6.426   4.967
 9387SOL     OW29059   3.309   6.570   1.396
 9387SOL    HW129060   3.391   6.620   1.368
 9387SOL    HW229061   3.328   6.472   1.400
 9388SOL     OW29062   1.154   6.261   2.757
 9388SOL    HW129063   1.137   6.163   2.771
 9388SOL    HW229064   1.131   6.285   2.663
 9389SOL     OW29065   2.645   0.418   5.204
 9389SOL    HW129066   2.631   0.423   5.303
 9389SOL    HW229067   2.717   0.483   5.178
 9390SOL     OW29068   4.349   5.966   3.292
 9390SOL    HW129069   4.375   5.906   3.217
 9390SOL    HW229070   4.430   6.008   3.332
 9391SOL     OW29071   1.784   0.954   5.369
 9391SOL    HW129072   1.763   0.931   5.464
 9391SOL    HW229073   1.872   1.002   5.365
 9392SOL     OW29074   0.546   6.480   5.243
 9392SOL    HW129075   0.452   6.463   5.216
 9392SOL    HW229076   0.605   6.477   5.162
 9393SOL     OW29077   3.551   1.770   4.904
 9393SOL    HW129078   3.563   1.851   4.846
 9393SOL    HW229079   3.587   1.788   4.995
 9394SOL     OW29080   6.223   2.704   3.202
 9394SOL    HW129081   6.142   2.759   3.182
 9394SOL    HW229082   6.293   2.762   3.244
 9395SOL     OW29083   2.883   2.324   0.372
 9395SOL    HW129084   2.934   2.291   0.293
 9395SOL    HW229085   2.942   2.327   0.452
 9396SOL     OW29086   0.038   6.491   4.947
 9396SOL    HW129087   0.104   6.563   4.924
 9396SOL    HW229088   6.992   6.528   5.010
 9397SOL     OW29089   2.181   0.338   0.481
 9397SOL    HW129090   2.273   0.377   0.470
 9397SOL    HW229091   2.189   0.240   0.499
 9398SOL     OW29092   2.422   1.118   6.949
 9398SOL    HW129093   2.502   1.071   6.986
 9398SOL    HW229094   2.451   1.204   6.907
 9399SOL     OW29095   6.623   2.262   6.725
 9399SOL    HW129096   6.669   2.347   6.751
 9399SOL    HW229097   6.619   2.254   6.626
 9400SOL     OW29098   5.289   3.419   1.522
 9400SOL    HW129099   5.306   3.504   1.573
 9400SOL    HW229100   5.353   3.349   1.554
 9401SOL     OW29101   2.369   6.390   3.513
 9401SOL    HW129102   2.381   6.302   3.558
 9401SOL    HW229103   2.399   6.463   3.575
 9402SOL     OW29104   2.285   4.823   6.466
 9402SOL    HW129105   2.272   4.779   6.555
 9402SOL    HW229106   2.274   4.755   6.394
 9403SOL     OW29107   5.077   1.566   3.359
 9403SOL    HW129108   5.003   1.626   3.389
 9403SOL    HW229109   5.044   1.472   3.355
 9404SOL     OW29110   0.460   5.054   6.461
 9404SOL    HW129111   0.524   5.101   6.522
 9404SOL    HW229112   0.512   5.005   6.391
 9405SOL     OW29113   5.960   6.794   1.603
 9405SOL    HW129114   5.901   6.869   1.631
 9405SOL    HW229115   5.918   6.746   1.526
 9406SOL     OW29116   0.148   2.215   5.428
 9406SOL    HW129117   0.183   2.168   5.348
 9406SOL    HW229118   0.098   2.297   5.400
 9407SOL     OW29119   3.344   6.726   2.866
 9407SOL    HW129120   3.275   6.784   2.911
 9407SOL    HW229121   3.298   6.656   2.812
 9408SOL     OW29122   3.773   1.116   6.023
 9408SOL    HW129123   3.767   1.210   5.990
 9408SOL    HW229124   3.682   1.076   6.028
 9409SOL     OW29125   4.844   4.198   4.385
 9409SOL    HW129126   4.941   4.182   4.399
 9409SOL    HW229127   4.824   4.197   4.287
 9410SOL     OW29128   3.453   6.230   1.980
 9410SOL    HW129129   3.455   6.310   1.920
 9410SOL    HW229130   3.428   6.259   2.073
 9411SOL     OW29131   3.691   5.017   1.046
 9411SOL    HW129132   3.725   5.106   1.075
 9411SOL    HW229133   3.685   4.956   1.124
 9412SOL     OW29134   0.822   2.919   1.724
 9412SOL    HW129135   0.911   2.885   1.693
 9412SOL    HW229136   0.830   3.017   1.744
 9413SOL     OW29137   4.219   5.934   5.267
 9413SOL    HW129138   4.135   5.898   5.225
 9413SOL    HW229139   4.294   5.928   5.201
 9414SOL     OW29140   3.005   1.697   2.644
 9414SOL    HW129141   3.040   1.635   2.713
 9414SOL    HW229142   2.972   1.781   2.687
 9415SOL     OW29143   1.621   6.633   2.521
 9415SOL    HW129144   1.569   6.684   2.452
 9415SOL    HW229145   1.570   6.633   2.607
 9416SOL     OW29146   0.758   1.275   1.371
 9416SOL    HW129147   0.806   1.333   1.305
 9416SOL    HW229148   0.742   1.327   1.455
 9417SOL     OW29149   3.336   6.815   5.526
 9417SOL    HW129150   3.295   6.856   5.608
 9417SOL    HW229151   3.319   6.875   5.448
 9418SOL     OW29152   2.292   5.685   1.006
 9418SOL    HW129153   2.307   5.748   1.083
 9418SOL    HW229154   2.196   5.688   0.978
 9419SOL     OW29155   3.380   6.697   5.054
 9419SOL    HW129156   3.427   6.617   5.018
 9419SOL    HW229157   3.358   6.759   4.979
 9420SOL     OW29158   0.186   1.602   5.108
 9420SOL    HW129159   0.253   1.582   5.036
 9420SOL    HW229160   0.096   1.568   5.080
 9421SOL     OW29161   2.287   5.475   5.421
 9421SOL    HW129162   2.215   5.542   5.439
 9421SOL    HW229163   2.297   5.464   5.322
 9422SOL     OW29164   5.397   0.068   2.271
 9422SOL    HW129165   5.322   0.011   2.303
 9422SOL    HW229166   5.459   0.087   2.347
 9423SOL     OW29167   4.521   0.332   3.103
 9423SOL    HW129168   4.533   0.314   3.005
 9423SOL    HW229169   4.588   0.278   3.154
 9424SOL     OW29170   5.086   0.717   5.600
 9424SOL    HW129171   5.033   0.689   5.519
 9424SOL    HW229172   5.024   0.754   5.669
 9425SOL     OW29173   0.376   3.147   5.704
 9425SOL    HW129174   0.297   3.206   5.686
 9425SOL    HW229175   0.345   3.056   5.730
 9426SOL     OW29176   2.832   1.416   0.505
 9426SOL    HW129177   2.896   1.409   0.581
 9426SOL    HW229178   2.752   1.469   0.533
 9427SOL     OW29179   3.026   4.790   5.236
 9427SOL    HW129180   2.981   4.701   5.234
 9427SOL    HW229181   2.970   4.856   5.286
 9428SOL     OW29182   5.616   6.940   2.606
 9428SOL    HW129183   5.690   6.949   2.673
 9428SOL    HW229184   5.609   0.002   2.552
 9429SOL     OW29185   1.608   3.921   2.219
 9429SOL    HW129186   1.598   3.850   2.150
 9429SOL    HW229187   1.705   3.938   2.237
 9430SOL     OW29188   6.544   6.619   2.214
 9430SOL    HW129189   6.498   6.556   2.276
 9430SOL    HW229190   6.487   6.634   2.133
 9431SOL     OW29191   6.209   4.218   0.044
 9431SOL    HW129192   6.152   4.139   0.023
 9431SOL    HW229193   6.298   4.208   7.021
 9432SOL     OW29194   6.216   0.092   4.084
 9432SOL    HW129195   6.268   0.033   4.146
 9432SOL    HW229196   6.191   0.176   4.133
 9433SOL     OW29197   3.462   4.920   4.753
 9433SOL    HW129198   3.472   4.928   4.653
 9433SOL    HW229199   3.383   4.973   4.783
 9434SOL     OW29200   5.557   4.412   3.539
 9434SOL    HW129201   5.608   4.466   3.472
 9434SOL    HW229202   5.468   4.387   3.501
 9435SOL     OW29203   1.364   1.348   4.524
 9435SOL    HW129204   1.356   1.289   4.443
 9435SOL    HW229205   1.293   1.325   4.590
 9436SOL     OW29206   1.164   3.301   1.298
 9436SOL    HW129207   1.238   3.357   1.262
 9436SOL    HW229208   1.190   3.264   1.388
 9437SOL     OW29209   1.213   5.781   3.059
 9437SOL    HW129210   1.119   5.813   3.067
 9437SOL    HW229211   1.266   5.845   3.003
 9438SOL     OW29212   0.999   6.099   1.457
 9438SOL    HW129213   0.951   6.018   1.424
 9438SOL    HW229214   1.064   6.131   1.389
 9439SOL     OW29215   6.844   2.980   2.363
 9439SOL    HW129216   6.831   2.882   2.346
 9439SOL    HW229217   6.825   3.031   2.279
 9440SOL     OW29218   4.856   5.985   5.066
 9440SOL    HW129219   4.850   5.888   5.089
 9440SOL    HW229220   4.775   6.013   5.016
 9441SOL     OW29221   1.066   5.348   5.504
 9441SOL    HW129222   1.123   5.281   5.457
 9441SOL    HW229223   1.031   5.308   5.589
 9442SOL     OW29224   6.433   1.746   0.155
 9442SOL    HW129225   6.338   1.769   0.175
 9442SOL    HW229226   6.487   1.830   0.150
 9443SOL     OW29227   2.184   4.239   1.720
 9443SOL    HW129228   2.114   4.277   1.780
 9443SOL    HW229229   2.174   4.277   1.628
 9444SOL     OW29230   0.486   3.225   0.072
 9444SOL    HW129231   0.530   3.277   0.145
 9444SOL    HW229232   0.548   3.153   0.040
 9445SOL     OW29233   5.225   3.414   1.935
 9445SOL    HW129234   5.165   3.381   2.009
 9445SOL    HW229235   5.169   3.446   1.859
 9446SOL     OW29236   6.496   6.772   3.003
 9446SOL    HW129237   6.471   6.741   2.912
 9446SOL    HW229238   6.483   6.871   3.009
 9447SOL     OW29239   5.539   3.652   2.959
 9447SOL    HW129240   5.441   3.652   2.979
 9447SOL    HW229241   5.573   3.557   2.960
 9448SOL     OW29242   5.439   6.012   6.248
 9448SOL    HW129243   5.387   5.928   6.261
 9448SOL    HW229244   5.424   6.047   6.155
 9449SOL     OW29245   6.806   5.469   5.750
 9449SOL    HW129246   6.713   5.504   5.750
 9449SOL    HW229247   6.870   5.545   5.762
 9450SOL     OW29248   2.588   4.876   4.991
 9450SOL    HW129249   2.594   4.784   5.029
 9450SOL    HW229250   2.621   4.942   5.058
 9451SOL     OW29251   4.771   5.963   6.143
 9451SOL    HW129252   4.674   5.968   6.168
 9451SOL    HW229253   4.780   5.918   6.054
 9452SOL     OW29254   2.002   3.226   0.412
 9452SOL    HW129255   1.983   3.316   0.449
 9452SOL    HW229256   2.054   3.235   0.327
 9453SOL     OW29257   1.737   3.890   3.136
 9453SOL    HW129258   1.768   3.795   3.138
 9453SOL    HW229259   1.648   3.895   3.090
 9454SOL     OW29260   1.310   3.727   5.879
 9454SOL    HW129261   1.398   3.706   5.921
 9454SOL    HW229262   1.296   3.826   5.878
 9455SOL     OW29263   3.468   1.505   2.764
 9455SOL    HW129264   3.535   1.573   2.734
 9455SOL    HW229265   3.480   1.488   2.862
 9456SOL     OW29266   0.128   4.376   0.893
 9456SOL    HW129267   0.166   4.291   0.855
 9456SOL    HW229268   0.082   4.356   0.979
 9457SOL     OW29269   1.546   3.882   6.237
 9457SOL    HW129270   1.572   3.819   6.310
 9457SOL    HW229271   1.549   3.835   6.149
 9458SOL     OW29272   0.428   4.756   6.234
 9458SOL    HW129273   0.512   4.796   6.200
 9458SOL    HW229274   0.386   4.700   6.162
 9459SOL     OW29275   6.537   5.313   1.823
 9459SOL    HW129276   6.538   5.219   1.788
 9459SOL    HW229277   6.585   5.316   1.911
 9460SOL     OW29278   6.954   2.399   5.348
 9460SOL    HW129279   6.885   2.349   5.400
 9460SOL    HW229280   6.931   2.496   5.347
 9461SOL     OW29281   6.448   1.554   3.342
 9461SOL    HW129282   6.394   1.471   3.357
 9461SOL    HW229283   6.393   1.621   3.293
 9462SOL     OW29284   1.731   3.246   3.111
 9462SOL    HW129285   1.651   3.200   3.149
 9462SOL    HW229286   1.798   3.261   3.184
 9463SOL     OW29287   6.953   0.585   0.934
 9463SOL    HW129288   6.895   0.655   0.975
 9463SOL    HW229289   6.923   0.494   0.965
 9464SOL     OW29290   5.404   6.802   6.308
 9464SOL    HW129291   5.397   6.769   6.402
 9464SOL    HW229292   5.350   6.744   6.248
 9465SOL     OW29293   0.022   0.525   3.167
 9465SOL    HW129294   0.106   0.554   3.212
 9465SOL    HW229295   6.966   0.551   3.223
 9466SOL     OW29296   3.061   3.345   5.530
 9466SOL    HW129297   3.038   3.248   5.519
 9466SOL    HW229298   3.019   3.398   5.457
 9467SOL     OW29299   1.636   2.481   1.648
 9467SOL    HW129300   1.688   2.437   1.721
 9467SOL    HW229301   1.658   2.579   1.645
 9468SOL     OW29302   5.697   3.091   6.032
 9468SOL    HW129303   5.699   2.992   6.042
 9468SOL    HW229304   5.675   3.115   5.937
 9469SOL     OW29305   6.259   5.554   2.144
 9469SOL    HW129306   6.188   5.524   2.207
 9469SOL    HW229307   6.335   5.489   2.145
 9470SOL     OW29308   4.842   2.947   6.613
 9470SOL    HW129309   4.783   2.868   6.632
 9470SOL    HW229310   4.934   2.915   6.593
 9471SOL     OW29311   6.628   2.543   5.428
 9471SOL    HW129312   6.528   2.552   5.433
 9471SOL    HW229313   6.661   2.581   5.342
 9472SOL     OW29314   6.570   3.896   4.594
 9472SOL    HW129315   6.631   3.840   4.651
 9472SOL    HW229316   6.618   3.920   4.509
 9473SOL     OW29317   3.808   6.738   5.363
 9473SOL    HW129318   3.727   6.678   5.357
 9473SOL    HW229319   3.783   6.830   5.334
 9474SOL     OW29320   5.920   4.563   1.694
 9474SOL    HW129321   5.897   4.601   1.784
 9474SOL    HW229322   5.881   4.472   1.685
 9475SOL     OW29323   3.538   3.306   1.079
 9475SOL    HW129324   3.484   3.223   1.090
 9475SOL    HW229325   3.521   3.346   0.989
 9476SOL     OW29326   3.046   3.112   4.418
 9476SOL    HW129327   2.957   3.149   4.392
 9476SOL    HW229328   3.043   3.083   4.513
 9477SOL     OW29329   0.935   3.425   1.390
 9477SOL    HW129330   0.957   3.460   1.481
 9477SOL    HW229331   1.020   3.410   1.339
 9478SOL     OW29332   5.565   3.729   5.799
 9478SOL    HW129333   5.541   3.810   5.853
 9478SOL    HW229334   5.592   3.655   5.860
 9479SOL     OW29335   6.044   5.869   6.220
 9479SOL    HW129336   5.986   5.884   6.140
 9479SOL    HW229337   6.140   5.884   6.195
 9480SOL     OW29338   4.231   4.579   6.702
 9480SOL    HW129339   4.254   4.661   6.649
 9480SOL    HW229340   4.295   4.506   6.679
 9481SOL     OW29341   6.304   3.604   1.566
 9481SOL    HW129342   6.269   3.696   1.587
 9481SOL    HW229343   6.257   3.537   1.624
 9482SOL     OW29344   5.761   0.857   2.915
 9482SOL    HW129345   5.770   0.946   2.871
 9482SOL    HW229346   5.709   0.868   3.000
 9483SOL     OW29347   2.132   1.724   0.755
 9483SOL    HW129348   2.062   1.792   0.777
 9483SOL    HW229349   2.094   1.632   0.770
 9484SOL     OW29350   5.892   1.755   3.649
 9484SOL    HW129351   5.867   1.851   3.633
 9484SOL    HW229352   5.876   1.732   3.745
 9485SOL     OW29353   1.363   0.325   1.601
 9485SOL    HW129354   1.264   0.319   1.593
 9485SOL    HW229355   1.406   0.275   1.526
 9486SOL     OW29356   2.195   5.087   1.092
 9486SOL    HW129357   2.104   5.054   1.069
 9486SOL    HW229358   2.207   5.084   1.192
 9487SOL     OW29359   3.056   3.781   3.221
 9487SOL    HW129360   3.020   3.790   3.128
 9487SOL    HW229361   3.097   3.867   3.250
 9488SOL     OW29362   2.379   6.169   0.877
 9488SOL    HW129363   2.340   6.077   0.873
 9488SOL    HW229364   2.350   6.215   0.961
 9489SOL     OW29365   3.303   4.261   0.877
 9489SOL    HW129366   3.365   4.301   0.810
 9489SOL    HW229367   3.297   4.162   0.862
 9490SOL     OW29368   5.726   0.073   1.120
 9490SOL    HW129369   5.785   0.148   1.151
 9490SOL    HW229370   5.652   0.109   1.064
 9491SOL     OW29371   6.777   4.981   5.073
 9491SOL    HW129372   6.702   4.932   5.029
 9491SOL    HW229373   6.791   4.944   5.165
 9492SOL     OW29374   3.321   3.460   2.387
 9492SOL    HW129375   3.378   3.504   2.456
 9492SOL    HW229376   3.317   3.518   2.306
 9493SOL     OW29377   5.102   5.058   3.779
 9493SOL    HW129378   5.049   5.126   3.727
 9493SOL    HW229379   5.044   5.019   3.851
 9494SOL     OW29380   5.206   4.459   0.784
 9494SOL    HW129381   5.274   4.485   0.853
 9494SOL    HW229382   5.115   4.461   0.825
 9495SOL     OW29383   6.553   2.269   4.141
 9495SOL    HW129384   6.646   2.232   4.142
 9495SOL    HW229385   6.526   2.295   4.233
 9496SOL     OW29386   5.196   4.392   6.636
 9496SOL    HW129387   5.167   4.344   6.553
 9496SOL    HW229388   5.124   4.455   6.666
 9497SOL     OW29389   4.125   4.254   0.839
 9497SOL    HW129390   4.166   4.345   0.841
 9497SOL    HW229391   4.196   4.185   0.855
 9498SOL     OW29392   5.294   0.416   6.041
 9498SOL    HW129393   5.386   0.380   6.062
 9498SOL    HW229394   5.286   0.431   5.943
 9499SOL     OW29395   2.075   4.052   5.418
 9499SOL    HW129396   2.153   4.087   5.366
 9499SOL    HW229397   2.076   3.952   5.417
 9500SOL     OW29398   3.278   6.677   1.646
 9500SOL    HW129399   3.337   6.758   1.645
 9500SOL    HW229400   3.282   6.632   1.557
 9501SOL     OW29401   3.334   1.785   4.698
 9501SOL    HW129402   3.267   1.855   4.723
 9501SOL    HW229403   3.420   1.803   4.747
 9502SOL     OW29404   6.939   2.269   5.095
 9502SOL    HW129405   6.922   2.340   5.027
 9502SOL    HW229406   6.953   2.312   5.184
 9503SOL     OW29407   0.042   1.088   1.274
 9503SOL    HW129408   0.039   1.047   1.183
 9503SOL    HW229409   0.079   1.181   1.266
 9504SOL     OW29410   6.664   2.617   0.801
 9504SOL    HW129411   6.713   2.533   0.778
 9504SOL    HW229412   6.614   2.603   0.887
 9505SOL     OW29413   5.763   4.144   3.742
 9505SOL    HW129414   5.763   4.145   3.642
 9505SOL    HW229415   5.770   4.050   3.775
 9506SOL     OW29416   0.201   3.215   0.014
 9506SOL    HW129417   0.150   3.175   6.960
 9506SOL    HW229418   0.297   3.225   7.011
 9507SOL     OW29419   2.222   0.910   4.188
 9507SOL    HW129420   2.284   0.988   4.195
 9507SOL    HW229421   2.276   0.826   4.188
 9508SOL     OW29422   5.618   2.413   0.364
 9508SOL    HW129423   5.600   2.473   0.442
 9508SOL    HW229424   5.532   2.371   0.334
 9509SOL     OW29425   1.521   6.788   5.592
 9509SOL    HW129426   1.484   6.725   5.524
 9509SOL    HW229427   1.471   6.875   5.588
 9510SOL     OW29428   0.345   3.790   1.677
 9510SOL    HW129429   0.435   3.761   1.708
 9510SOL    HW229430   0.339   3.890   1.683
 9511SOL     OW29431   0.560   2.118   0.178
 9511SOL    HW129432   0.489   2.057   0.212
 9511SOL    HW229433   0.596   2.083   0.092
 9512SOL     OW29434   6.278   1.862   3.908
 9512SOL    HW129435   6.347   1.934   3.915
 9512SOL    HW229436   6.212   1.885   3.836
 9513SOL     OW29437   1.864   3.224   4.590
 9513SOL    HW129438   1.898   3.291   4.524
 9513SOL    HW229439   1.934   3.208   4.660
 9514SOL     OW29440   1.541   3.822   6.628
 9514SOL    HW129441   1.603   3.897   6.650
 9514SOL    HW229442   1.478   3.807   6.705
 9515SOL     OW29443   1.127   6.032   6.834
 9515SOL    HW129444   1.097   6.123   6.807
 9515SOL    HW229445   1.208   6.039   6.892
 9516SOL     OW29446   5.118   3.311   4.171
 9516SOL    HW129447   5.137   3.390   4.229
 9516SOL    HW229448   5.056   3.337   4.097
 9517SOL     OW29449   1.601   5.053   0.845
 9517SOL    HW129450   1.585   5.047   0.747
 9517SOL    HW229451   1.615   4.961   0.882
 9518SOL     OW29452   1.854   2.243   6.614
 9518SOL    HW129453   1.918   2.306   6.569
 9518SOL    HW229454   1.777   2.225   6.552
 9519SOL     OW29455   3.181   2.967   3.047
 9519SOL    HW129456   3.231   2.910   2.981
 9519SOL    HW229457   3.134   3.041   2.998
 9520SOL     OW29458   6.756   1.078   4.240
 9520SOL    HW129459   6.768   1.091   4.338
 9520SOL    HW229460   6.788   1.159   4.191
 9521SOL     OW29461   3.259   4.943   1.514
 9521SOL    HW129462   3.209   4.953   1.428
 9521SOL    HW229463   3.203   4.978   1.589
 9522SOL     OW29464   4.337   5.463   2.564
 9522SOL    HW129465   4.265   5.505   2.509
 9522SOL    HW229466   4.366   5.377   2.520
 9523SOL     OW29467   2.337   5.487   4.945
 9523SOL    HW129468   2.330   5.387   4.943
 9523SOL    HW229469   2.308   5.523   4.856
 9524SOL     OW29470   1.946   3.142   1.584
 9524SOL    HW129471   1.921   3.185   1.497
 9524SOL    HW229472   2.006   3.202   1.635
 9525SOL     OW29473   1.977   1.554   5.857
 9525SOL    HW129474   2.063   1.591   5.821
 9525SOL    HW229475   1.994   1.514   5.947
 9526SOL     OW29476   5.762   5.170   0.712
 9526SOL    HW129477   5.808   5.091   0.671
 9526SOL    HW229478   5.736   5.148   0.805
 9527SOL     OW29479   2.664   6.783   4.373
 9527SOL    HW129480   2.662   6.720   4.295
 9527SOL    HW229481   2.737   6.756   4.436
 9528SOL     OW29482   6.114   1.496   1.563
 9528SOL    HW129483   6.024   1.539   1.570
 9528SOL    HW229484   6.118   1.417   1.623
 9529SOL     OW29485   5.658   3.928   0.723
 9529SOL    HW129486   5.648   4.013   0.775
 9529SOL    HW229487   5.589   3.925   0.650
 9530SOL     OW29488   1.111   4.999   4.148
 9530SOL    HW129489   1.090   4.934   4.220
 9530SOL    HW229490   1.204   4.983   4.115
 9531SOL     OW29491   4.116   5.014   3.258
 9531SOL    HW129492   4.020   5.038   3.277
 9531SOL    HW229493   4.129   4.916   3.272
 9532SOL     OW29494   6.422   5.040   1.380
 9532SOL    HW129495   6.362   5.107   1.338
 9532SOL    HW229496   6.369   4.981   1.442
 9533SOL     OW29497   0.848   5.350   3.927
 9533SOL    HW129498   0.877   5.445   3.942
 9533SOL    HW229499   0.858   5.298   4.011
 9534SOL     OW29500   6.129   4.298   4.977
 9534SOL    HW129501   6.130   4.203   5.008
 9534SOL    HW229502   6.211   4.345   5.011
 9535SOL     OW29503   2.251   1.648   5.777
 9535SOL    HW129504   2.250   1.745   5.750
 9535SOL    HW229505   2.342   1.623   5.810
 9536SOL     OW29506   3.417   3.182   4.749
 9536SOL    HW129507   3.475   3.158   4.826
 9536SOL    HW229508   3.473   3.199   4.668
 9537SOL     OW29509   2.685   2.104   3.956
 9537SOL    HW129510   2.706   2.184   4.013
 9537SOL    HW229511   2.767   2.077   3.906
 9538SOL     OW29512   4.637   1.362   4.271
 9538SOL    HW129513   4.682   1.359   4.361
 9538SOL    HW229514   4.649   1.275   4.225
 9539SOL     OW29515   3.175   3.150   3.983
 9539SOL    HW129516   3.083   3.167   4.016
 9539SOL    HW229517   3.174   3.145   3.883
 9540SOL     OW29518   4.791   5.253   4.143
 9540SOL    HW129519   4.744   5.290   4.063
 9540SOL    HW229520   4.731   5.258   4.223
 9541SOL     OW29521   1.557   0.896   5.785
 9541SOL    HW129522   1.517   0.870   5.873
 9541SOL    HW229523   1.490   0.946   5.731
 9542SOL     OW29524   5.458   4.966   4.800
 9542SOL    HW129525   5.393   4.899   4.764
 9542SOL    HW229526   5.523   4.990   4.728
 9543SOL     OW29527   2.766   0.330   5.935
 9543SOL    HW129528   2.800   0.359   5.845
 9543SOL    HW229529   2.788   0.234   5.950
 9544SOL     OW29530   5.104   3.726   4.166
 9544SOL    HW129531   5.021   3.689   4.125
 9544SOL    HW229532   5.148   3.656   4.223
 9545SOL     OW29533   6.918   5.271   2.123
 9545SOL    HW129534   6.951   5.365   2.129
 9545SOL    HW229535   6.818   5.271   2.117
 9546SOL     OW29536   3.781   1.867   5.652
 9546SOL    HW129537   3.792   1.956   5.694
 9546SOL    HW229538   3.731   1.806   5.714
 9547SOL     OW29539   2.775   5.504   4.124
 9547SOL    HW129540   2.737   5.592   4.096
 9547SOL    HW229541   2.743   5.432   4.062
 9548SOL     OW29542   0.987   5.678   4.704
 9548SOL    HW129543   1.081   5.643   4.695
 9548SOL    HW229544   0.986   5.775   4.680
 9549SOL     OW29545   3.296   0.640   2.445
 9549SOL    HW129546   3.232   0.711   2.472
 9549SOL    HW229547   3.384   0.681   2.420
 9550SOL     OW29548   6.455   2.008   0.749
 9550SOL    HW129549   6.479   2.064   0.670
 9550SOL    HW229550   6.355   2.003   0.758
 9551SOL     OW29551   6.445   3.483   5.961
 9551SOL    HW129552   6.426   3.521   6.051
 9551SOL    HW229553   6.404   3.542   5.891
 9552SOL     OW29554   2.170   6.595   6.243
 9552SOL    HW129555   2.074   6.614   6.221
 9552SOL    HW229556   2.225   6.600   6.160
 9553SOL     OW29557   5.373   2.044   0.018
 9553SOL    HW129558   5.426   2.072   6.960
 9553SOL    HW229559   5.413   1.961   0.057
 9554SOL     OW29560   1.710   6.670   4.024
 9554SOL    HW129561   1.799   6.675   4.070
 9554SOL    HW229562   1.724   6.671   3.925
 9555SOL     OW29563   0.610   1.156   3.364
 9555SOL    HW129564   0.533   1.159   3.300
 9555SOL    HW229565   0.609   1.237   3.422
 9556SOL     OW29566   2.048   4.232   1.015
 9556SOL    HW129567   2.119   4.301   1.024
 9556SOL    HW229568   2.015   4.206   1.106
 9557SOL     OW29569   5.123   0.072   1.554
 9557SOL    HW129570   5.196   0.009   1.579
 9557SOL    HW229571   5.140   0.161   1.596
 9558SOL     OW29572   5.393   6.143   5.393
 9558SOL    HW129573   5.424   6.238   5.405
 9558SOL    HW229574   5.459   6.081   5.434
 9559SOL     OW29575   1.314   4.016   6.579
 9559SOL    HW129576   1.391   3.954   6.586
 9559SOL    HW229577   1.255   4.007   6.660
 9560SOL     OW29578   2.482   0.884   2.447
 9560SOL    HW129579   2.519   0.800   2.408
 9560SOL    HW229580   2.529   0.906   2.532
 9561SOL     OW29581   0.442   0.651   1.408
 9561SOL    HW129582   0.428   0.728   1.345
 9561SOL    HW229583   0.360   0.594   1.409
 9562SOL     OW29584   2.606   6.323   4.198
 9562SOL    HW129585   2.589   6.260   4.122
 9562SOL    HW229586   2.701   6.317   4.227
 9563SOL     OW29587   0.407   6.650   6.749
 9563SOL    HW129588   0.313   6.656   6.781
 9563SOL    HW229589   0.444   6.559   6.769
 9564SOL     OW29590   2.235   1.252   0.875
 9564SOL    HW129591   2.225   1.242   0.776
 9564SOL    HW229592   2.192   1.173   0.921
 9565SOL     OW29593   3.016   1.205   4.576
 9565SOL    HW129594   2.979   1.130   4.522
 9565SOL    HW229595   3.076   1.169   4.648
 9566SOL     OW29596   2.570   5.598   0.168
 9566SOL    HW129597   2.614   5.678   0.209
 9566SOL    HW229598   2.530   5.623   0.080
 9567SOL     OW29599   5.826   4.347   0.724
 9567SOL    HW129600   5.849   4.250   0.720
 9567SOL    HW229601   5.862   4.394   0.643
 9568SOL     OW29602   4.457   1.394   0.194
 9568SOL    HW129603   4.448   1.365   0.099
 9568SOL    HW229604   4.410   1.482   0.207
 9569SOL     OW29605   0.253   1.071   1.856
 9569SOL    HW129606   0.224   0.975   1.857
 9569SOL    HW229607   0.305   1.091   1.939
 9570SOL     OW29608   0.144   2.760   0.860
 9570SOL    HW129609   0.140   2.661   0.874
 9570SOL    HW229610   0.239   2.790   0.860
 9571SOL     OW29611   3.031   3.119   5.949
 9571SOL    HW129612   3.113   3.072   5.917
 9571SOL    HW229613   2.994   3.175   5.875
 9572SOL     OW29614   1.592   4.959   2.591
 9572SOL    HW129615   1.591   4.910   2.504
 9572SOL    HW229616   1.636   4.904   2.661
 9573SOL     OW29617   6.986   1.342   6.186
 9573SOL    HW129618   0.041   1.316   6.243
 9573SOL    HW229619   6.993   1.297   6.097
 9574SOL     OW29620   3.252   2.836   2.033
 9574SOL    HW129621   3.347   2.819   2.010
 9574SOL    HW229622   3.226   2.782   2.113
 9575SOL     OW29623   6.585   1.010   1.834
 9575SOL    HW129624   6.585   0.911   1.816
 9575SOL    HW229625   6.679   1.044   1.827
 9576SOL     OW29626   1.913   2.033   0.285
 9576SOL    HW129627   1.897   2.017   0.383
 9576SOL    HW229628   1.962   2.119   0.274
 9577SOL     OW29629   0.427   6.613   5.784
 9577SOL    HW129630   0.430   6.690   5.848
 9577SOL    HW229631   0.349   6.555   5.805
 9578SOL     OW29632   1.570   2.666   2.704
 9578SOL    HW129633   1.491   2.714   2.667
 9578SOL    HW229634   1.554   2.567   2.701
 9579SOL     OW29635   6.979   6.103   3.272
 9579SOL    HW129636   6.999   6.005   3.276
 9579SOL    HW229637   6.923   6.122   3.192
 9580SOL     OW29638   5.070   3.819   1.221
 9580SOL    HW129639   5.170   3.818   1.227
 9580SOL    HW229640   5.043   3.818   1.125
 9581SOL     OW29641   0.601   0.098   6.583
 9581SOL    HW129642   0.685   0.086   6.635
 9581SOL    HW229643   0.552   0.011   6.578
 9582SOL     OW29644   3.670   5.835   4.611
 9582SOL    HW129645   3.583   5.786   4.610
 9582SOL    HW229646   3.676   5.892   4.693
 9583SOL     OW29647   3.032   3.719   1.283
 9583SOL    HW129648   2.986   3.691   1.367
 9583SOL    HW229649   3.115   3.769   1.305
 9584SOL     OW29650   0.889   4.811   6.012
 9584SOL    HW129651   0.864   4.718   5.983
 9584SOL    HW229652   0.956   4.849   5.949
 9585SOL     OW29653   5.177   6.597   2.796
 9585SOL    HW129654   5.201   6.619   2.891
 9585SOL    HW229655   5.215   6.666   2.735
 9586SOL     OW29656   4.442   5.716   2.528
 9586SOL    HW129657   4.389   5.762   2.457
 9586SOL    HW229658   4.410   5.621   2.537
 9587SOL     OW29659   1.002   7.020   1.647
 9587SOL    HW129660   0.962   7.006   1.738
 9587SOL    HW229661   1.051   6.938   1.619
 9588SOL     OW29662   6.029   6.648   0.231
 9588SOL    HW129663   5.963   6.720   0.251
 9588SOL    HW229664   5.991   6.585   0.163
 9589SOL     OW29665   1.668   4.051   6.650
 9589SOL    HW129666   1.714   4.126   6.697
 9589SOL    HW229667   1.709   4.039   6.559
 9590SOL     OW29668   6.070   2.497   1.627
 9590SOL    HW129669   6.108   2.496   1.534
 9590SOL    HW229670   6.135   2.454   1.690
 9591SOL     OW29671   3.909   5.344   5.830
 9591SOL    HW129672   3.838   5.413   5.815
 9591SOL    HW229673   3.954   5.323   5.743
 9592SOL     OW29674   3.354   4.851   1.006
 9592SOL    HW129675   3.415   4.852   1.085
 9592SOL    HW229676   3.288   4.926   1.013
 9593SOL     OW29677   0.892   1.449   6.194
 9593SOL    HW129678   0.837   1.401   6.263
 9593SOL    HW229679   0.954   1.513   6.240
 9594SOL     OW29680   2.733   6.076   4.560
 9594SOL    HW129681   2.654   6.115   4.514
 9594SOL    HW229682   2.755   6.130   4.641
 9595SOL     OW29683   0.425   2.381   3.823
 9595SOL    HW129684   0.521   2.352   3.825
 9595SOL    HW229685   0.379   2.349   3.906
 9596SOL     OW29686   0.652   5.253   0.133
 9596SOL    HW129687   0.726   5.186   0.143
 9596SOL    HW229688   0.689   5.345   0.147
 9597SOL     OW29689   6.755   4.207   1.273
 9597SOL    HW129690   6.796   4.117   1.255
 9597SOL    HW229691   6.669   4.195   1.324
 9598SOL     OW29692   2.016   4.482   3.210
 9598SOL    HW129693   1.958   4.401   3.222
 9598SOL    HW229694   2.100   4.456   3.162
 9599SOL     OW29695   3.020   0.319   3.454
 9599SOL    HW129696   3.111   0.279   3.441
 9599SOL    HW229697   2.953   0.246   3.463
 9600SOL     OW29698   3.062   0.529   6.670
 9600SOL    HW129699   3.007   0.601   6.712
 9600SOL    HW229700   3.089   0.463   6.739
 9601SOL     OW29701   5.507   4.927   0.405
 9601SOL    HW129702   5.488   5.022   0.430
 9601SOL    HW229703   5.437   4.894   0.342
 9602SOL     OW29704   5.599   3.756   6.241
 9602SOL    HW129705   5.601   3.822   6.317
 9602SOL    HW229706   5.655   3.677   6.266
 9603SOL     OW29707   4.331   0.293   6.677
 9603SOL    HW129708   4.297   0.303   6.771
 9603SOL    HW229709   4.427   0.263   6.680
 9604SOL     OW29710   4.785   0.089   1.174
 9604SOL    HW129711   4.805   0.122   1.082
 9604SOL    HW229712   4.715   0.018   1.170
 9605SOL     OW29713   1.256   5.640   3.289
 9605SOL    HW129714   1.232   5.550   3.255
 9605SOL    HW229715   1.232   5.709   3.221
 9606SOL     OW29716   1.642   6.608   6.475
 9606SOL    HW129717   1.648   6.524   6.528
 9606SOL    HW229718   1.725   6.621   6.422
 9607SOL     OW29719   2.754   1.445   6.972
 9607SOL    HW129720   2.795   1.516   6.915
 9607SOL    HW229721   2.811   1.428   0.029
 9608SOL     OW29722   0.066   4.268   1.437
 9608SOL    HW129723   0.151   4.316   1.415
 9608SOL    HW229724   0.066   4.244   1.534
 9609SOL     OW29725   3.255   2.776   0.168
 9609SOL    HW129726   3.175   2.824   0.205
 9609SOL    HW229727   3.288   2.710   0.235
 9610SOL     OW29728   1.555   4.889   3.315
 9610SOL    HW129729   1.457   4.881   3.300
 9610SOL    HW229730   1.572   4.913   3.411
 9611SOL     OW29731   1.446   6.302   0.772
 9611SOL    HW129732   1.453   6.362   0.693
 9611SOL    HW229733   1.365   6.244   0.762
 9612SOL     OW29734   0.097   3.312   1.980
 9612SOL    HW129735   0.148   3.319   1.895
 9612SOL    HW229736   0.064   3.403   2.007
 9613SOL     OW29737   4.989   6.733   3.389
 9613SOL    HW129738   4.946   6.707   3.476
 9613SOL    HW229739   4.949   6.679   3.315
 9614SOL     OW29740   4.006   2.219   2.038
 9614SOL    HW129741   4.007   2.184   2.132
 9614SOL    HW229742   3.912   2.226   2.006
 9615SOL     OW29743   2.639   1.074   1.330
 9615SOL    HW129744   2.729   1.064   1.373
 9615SOL    HW229745   2.569   1.084   1.400
 9616SOL     OW29746   3.526   4.271   1.384
 9616SOL    HW129747   3.625   4.263   1.370
 9616SOL    HW229748   3.508   4.287   1.481
 9617SOL     OW29749   1.897   2.884   3.264
 9617SOL    HW129750   1.867   2.935   3.344
 9617SOL    HW229751   1.833   2.809   3.246
 9618SOL     OW29752   2.711   6.826   0.503
 9618SOL    HW129753   2.720   6.750   0.568
 9618SOL    HW229754   2.801   6.853   0.471
 9619SOL     OW29755   2.089   0.356   6.375
 9619SOL    HW129756   2.050   0.365   6.467
 9619SOL    HW229757   2.018   0.331   6.310
 9620SOL     OW29758   4.457   0.228   6.307
 9620SOL    HW129759   4.399   0.252   6.229
 9620SOL    HW229760   4.549   0.267   6.293
 9621SOL     OW29761   1.805   2.827   2.198
 9621SOL    HW129762   1.875   2.875   2.146
 9621SOL    HW229763   1.845   2.790   2.282
 9622SOL     OW29764   7.013   1.467   0.445
 9622SOL    HW129765   6.923   1.512   0.442
 9622SOL    HW229766   7.007   1.378   0.401
 9623SOL     OW29767   2.718   3.785   5.537
 9623SOL    HW129768   2.682   3.801   5.629
 9623SOL    HW229769   2.647   3.804   5.470
 9624SOL     OW29770   0.061   4.171   2.826
 9624SOL    HW129771   0.084   4.086   2.778
 9624SOL    HW229772   6.987   4.170   2.851
 9625SOL     OW29773   4.537   5.358   6.880
 9625SOL    HW129774   4.536   5.455   6.906
 9625SOL    HW229775   4.500   5.348   6.788
 9626SOL     OW29776   4.630   5.280   0.526
 9626SOL    HW129777   4.595   5.374   0.526
 9626SOL    HW229778   4.723   5.279   0.488
 9627SOL     OW29779   0.223   5.784   5.061
 9627SOL    HW129780   0.194   5.842   5.137
 9627SOL    HW229781   0.258   5.698   5.096
 9628SOL     OW29782   4.573   5.078   0.732
 9628SOL    HW129783   4.644   5.073   0.803
 9628SOL    HW229784   4.587   5.160   0.677
 9629SOL     OW29785   1.229   0.569   1.631
 9629SOL    HW129786   1.282   0.494   1.591
 9629SOL    HW229787   1.180   0.536   1.711
 9630SOL     OW29788   6.365   0.039   4.518
 9630SOL    HW129789   6.347   0.137   4.510
 9630SOL    HW229790   6.363   0.012   4.615
 9631SOL     OW29791   0.232   6.948   6.457
 9631SOL    HW129792   0.217   6.993   6.545
 9631SOL    HW229793   0.235   7.016   6.384
 9632SOL     OW29794   1.563   0.290   2.914
 9632SOL    HW129795   1.549   0.388   2.929
 9632SOL    HW229796   1.544   0.268   2.819
 9633SOL     OW29797   4.771   5.185   5.876
 9633SOL    HW129798   4.794   5.098   5.831
 9633SOL    HW229799   4.688   5.173   5.931
 9634SOL     OW29800   1.444   6.043   4.184
 9634SOL    HW129801   1.370   6.111   4.188
 9634SOL    HW229802   1.421   5.973   4.116
 9635SOL     OW29803   1.764   5.872   4.948
 9635SOL    HW129804   1.685   5.911   4.996
 9635SOL    HW229805   1.773   5.917   4.859
 9636SOL     OW29806   4.066   1.945   5.812
 9636SOL    HW129807   3.976   1.961   5.852
 9636SOL    HW229808   4.063   1.863   5.754
 9637SOL     OW29809   2.752   2.252   6.333
 9637SOL    HW129810   2.744   2.249   6.433
 9637SOL    HW229811   2.719   2.340   6.299
 9638SOL     OW29812   6.941   3.762   6.318
 9638SOL    HW129813   6.935   3.859   6.294
 9638SOL    HW229814   0.012   3.739   6.345
 9639SOL     OW29815   4.181   1.478   2.486
 9639SOL    HW129816   4.137   1.534   2.416
 9639SOL    HW229817   4.129   1.394   2.499
 9640SOL     OW29818   2.041   2.309   3.856
 9640SOL    HW129819   2.017   2.314   3.953
 9640SOL    HW229820   1.963   2.275   3.804
 9641SOL     OW29821   4.058   6.513   1.028
 9641SOL    HW129822   4.000   6.443   0.985
 9641SOL    HW229823   4.055   6.502   1.127
 9642SOL     OW29824   3.103   6.834   4.948
 9642SOL    HW129825   3.009   6.860   4.972
 9642SOL    HW229826   3.167   6.887   5.003
 9643SOL     OW29827   5.435   5.022   3.812
 9643SOL    HW129828   5.455   4.924   3.812
 9643SOL    HW229829   5.337   5.036   3.798
 9644SOL     OW29830   0.957   4.105   6.116
 9644SOL    HW129831   0.871   4.120   6.164
 9644SOL    HW229832   0.960   4.010   6.084
 9645SOL     OW29833   2.608   5.470   5.079
 9645SOL    HW129834   2.666   5.425   5.011
 9645SOL    HW229835   2.512   5.463   5.052
 9646SOL     OW29836   2.832   5.018   1.942
 9646SOL    HW129837   2.774   4.953   1.894
 9646SOL    HW229838   2.844   4.989   2.037
 9647SOL     OW29839   6.207   4.808   1.107
 9647SOL    HW129840   6.213   4.771   1.014
 9647SOL    HW229841   6.297   4.808   1.149
 9648SOL     OW29842   4.388   1.211   0.975
 9648SOL    HW129843   4.348   1.276   1.039
 9648SOL    HW229844   4.475   1.247   0.940
 9649SOL     OW29845   2.949   6.914   0.406
 9649SOL    HW129846   2.979   7.008   0.424
 9649SOL    HW229847   2.961   6.893   0.309
 9650SOL     OW29848   6.622   5.297   2.076
 9650SOL    HW129849   6.555   5.342   2.134
 9650SOL    HW229850   6.640   5.205   2.110
 9651SOL     OW29851   6.985   1.791   5.893
 9651SOL    HW129852   7.001   1.767   5.989
 9651SOL    HW229853   6.970   1.707   5.840
 9652SOL     OW29854   1.633   4.671   1.216
 9652SOL    HW129855   1.643   4.573   1.234
 9652SOL    HW229856   1.551   4.705   1.263
 9653SOL     OW29857   4.223   4.737   4.635
 9653SOL    HW129858   4.247   4.754   4.731
 9653SOL    HW229859   4.267   4.652   4.604
 9654SOL     OW29860   3.097   2.560   1.062
 9654SOL    HW129861   3.013   2.606   1.090
 9654SOL    HW229862   3.135   2.605   0.981
 9655SOL     OW29863   0.297   0.899   6.958
 9655SOL    HW129864   0.224   0.836   6.929
 9655SOL    HW229865   0.287   0.986   6.910
 9656SOL     OW29866   2.523   0.929   1.743
 9656SOL    HW129867   2.621   0.950   1.743
 9656SOL    HW229868   2.476   0.987   1.810
 9657SOL     OW29869   5.564   0.416   4.195
 9657SOL    HW129870   5.557   0.337   4.256
 9657SOL    HW229871   5.482   0.421   4.139
 9658SOL     OW29872   6.997   1.831   2.969
 9658SOL    HW129873   6.941   1.793   3.043
 9658SOL    HW229874   6.982   1.780   2.885
 9659SOL     OW29875   6.383   4.590   0.490
 9659SOL    HW129876   6.415   4.514   0.434
 9659SOL    HW229877   6.312   4.640   0.441
 9660SOL     OW29878   0.390   5.688   0.721
 9660SOL    HW129879   0.348   5.778   0.719
 9660SOL    HW229880   0.324   5.620   0.688
 9661SOL     OW29881   4.405   5.589   1.395
 9661SOL    HW129882   4.501   5.616   1.404
 9661SOL    HW229883   4.347   5.670   1.387
 9662SOL     OW29884   6.463   3.120   4.332
 9662SOL    HW129885   6.497   3.157   4.418
 9662SOL    HW229886   6.374   3.160   4.311
 9663SOL     OW29887   1.691   5.662   4.049
 9663SOL    HW129888   1.730   5.752   4.065
 9663SOL    HW229889   1.609   5.670   3.993
 9664SOL     OW29890   5.338   6.975   2.819
 9664SOL    HW129891   5.250   0.001   2.821
 9664SOL    HW229892   5.341   6.915   2.740
 9665SOL     OW29893   5.844   5.026   5.722
 9665SOL    HW129894   5.750   5.039   5.754
 9665SOL    HW229895   5.846   5.032   5.622
 9666SOL     OW29896   5.752   3.849   1.697
 9666SOL    HW129897   5.656   3.852   1.671
 9666SOL    HW229898   5.784   3.941   1.719
 9667SOL     OW29899   4.122   3.588   4.818
 9667SOL    HW129900   4.201   3.597   4.878
 9667SOL    HW229901   4.137   3.639   4.733
 9668SOL     OW29902   6.616   1.968   6.071
 9668SOL    HW129903   6.677   2.029   6.122
 9668SOL    HW229904   6.654   1.875   6.072
 9669SOL     OW29905   0.621   1.433   0.658
 9669SOL    HW129906   0.581   1.509   0.709
 9669SOL    HW229907   0.715   1.418   0.689
 9670SOL     OW29908   4.771   4.674   5.672
 9670SOL    HW129909   4.817   4.700   5.587
 9670SOL    HW229910   4.680   4.638   5.651
 9671SOL     OW29911   0.605   5.318   5.953
 9671SOL    HW129912   0.536   5.260   5.997
 9671SOL    HW229913   0.673   5.261   5.907
 9672SOL     OW29914   1.130   0.125   4.843
 9672SOL    HW129915   1.162   0.128   4.749
 9672SOL    HW229916   1.198   0.169   4.903
 9673SOL     OW29917   4.228   4.486   6.953
 9673SOL    HW129918   4.327   4.473   6.951
 9673SOL    HW229919   4.200   4.541   6.875
 9674SOL     OW29920   2.848   5.927   2.664
 9674SOL    HW129921   2.896   5.921   2.752
 9674SOL    HW229922   2.914   5.924   2.589
 9675SOL     OW29923   5.903   0.755   2.167
 9675SOL    HW129924   5.893   0.854   2.177
 9675SOL    HW229925   5.980   0.723   2.223
 9676SOL     OW29926   1.329   3.462   5.430
 9676SOL    HW129927   1.428   3.470   5.422
 9676SOL    HW229928   1.299   3.501   5.517
 9677SOL     OW29929   2.694   4.603   5.947
 9677SOL    HW129930   2.653   4.589   5.857
 9677SOL    HW229931   2.751   4.525   5.970
 9678SOL     OW29932   3.548   4.138   2.651
 9678SOL    HW129933   3.576   4.065   2.713
 9678SOL    HW229934   3.591   4.224   2.679
 9679SOL     OW29935   0.685   1.809   1.971
 9679SOL    HW129936   0.600   1.860   1.961
 9679SOL    HW229937   0.760   1.858   1.926
 9680SOL     OW29938   5.861   7.007   3.642
 9680SOL    HW129939   5.799   0.039   3.585
 9680SOL    HW229940   5.936   6.974   3.586
 9681SOL     OW29941   2.682   0.781   1.287
 9681SOL    HW129942   2.598   0.734   1.312
 9681SOL    HW229943   2.663   0.853   1.220
 9682SOL     OW29944   4.696   5.446   3.012
 9682SOL    HW129945   4.743   5.506   3.076
 9682SOL    HW229946   4.675   5.497   2.928
 9683SOL     OW29947   4.091   5.451   0.671
 9683SOL    HW129948   4.146   5.455   0.587
 9683SOL    HW229949   4.149   5.419   0.746
 9684SOL     OW29950   0.386   3.800   4.916
 9684SOL    HW129951   0.389   3.782   4.818
 9684SOL    HW229952   0.480   3.801   4.952
 9685SOL     OW29953   2.422   2.676   1.092
 9685SOL    HW129954   2.517   2.708   1.096
 9685SOL    HW229955   2.362   2.747   1.127
 9686SOL     OW29956   6.433   1.637   0.763
 9686SOL    HW129957   6.334   1.648   0.770
 9686SOL    HW229958   6.474   1.642   0.854
 9687SOL     OW29959   1.863   0.546   2.807
 9687SOL    HW129960   1.933   0.578   2.871
 9687SOL    HW229961   1.872   0.447   2.795
 9688SOL     OW29962   6.569   2.390   3.461
 9688SOL    HW129963   6.523   2.424   3.379
 9688SOL    HW229964   6.579   2.291   3.455
 9689SOL     OW29965   1.674   6.980   0.331
 9689SOL    HW129966   1.659   0.050   0.364
 9689SOL    HW229967   1.595   6.923   0.353
 9690SOL     OW29968   5.718   5.038   6.570
 9690SOL    HW129969   5.705   4.939   6.568
 9690SOL    HW229970   5.809   5.059   6.605
 9691SOL     OW29971   2.510   4.593   1.554
 9691SOL    HW129972   2.425   4.577   1.604
 9691SOL    HW229973   2.519   4.691   1.535
 9692SOL     OW29974   2.332   5.372   2.964
 9692SOL    HW129975   2.304   5.386   2.869
 9692SOL    HW229976   2.417   5.319   2.967
 9693SOL     OW29977   6.925   5.281   1.745
 9693SOL    HW129978   6.849   5.307   1.685
 9693SOL    HW229979   6.915   5.185   1.770
 9694SOL     OW29980   2.056   1.316   6.502
 9694SOL    HW129981   2.153   1.294   6.511
 9694SOL    HW229982   2.007   1.281   6.582
 9695SOL     OW29983   5.559   4.555   1.356
 9695SOL    HW129984   5.524   4.488   1.291
 9695SOL    HW229985   5.659   4.545   1.364
 9696SOL     OW29986   4.582   2.550   1.699
 9696SOL    HW129987   4.617   2.503   1.618
 9696SOL    HW229988   4.537   2.635   1.671
 9697SOL     OW29989   0.185   5.266   0.023
 9697SOL    HW129990   0.223   5.212   6.971
 9697SOL    HW229991   0.099   5.225   0.054
 9698SOL     OW29992   6.219   0.794   5.353
 9698SOL    HW129993   6.120   0.788   5.335
 9698SOL    HW229994   6.250   0.888   5.334
 9699SOL     OW29995   0.700   3.981   6.165
 9699SOL    HW129996   0.767   3.926   6.215
 9699SOL    HW229997   0.652   4.042   6.228
 9700SOL     OW29998   4.010   4.808   5.968
 9700SOL    HW129999   4.061   4.804   6.054
 9700SOL    HW230000   3.914   4.824   5.987
 9701SOL     OW30001   3.963   5.656   5.058
 9701SOL    HW130002   3.921   5.644   4.967
 9701SOL    HW230003   3.893   5.641   5.128
 9702SOL     OW30004   5.395   0.610   6.909
 9702SOL    HW130005   5.412   0.648   7.000
 9702SOL    HW230006   5.476   0.562   6.877
 9703SOL     OW30007   3.488   5.897   4.268
 9703SOL    HW130008   3.389   5.884   4.274
 9703SOL    HW230009   3.510   5.993   4.286
 9704SOL     OW30010   2.928   0.427   2.553
 9704SOL    HW130011   2.979   0.452   2.636
 9704SOL    HW230012   2.992   0.389   2.486
 9705SOL     OW30013   5.177   4.743   0.370
 9705SOL    HW130014   5.271   4.744   0.335
 9705SOL    HW230015   5.116   4.785   0.303
 9706SOL     OW30016   6.795   2.016   0.717
 9706SOL    HW130017   6.756   1.961   0.791
 9706SOL    HW230018   6.751   2.106   0.716
 9707SOL     OW30019   0.283   4.188   1.944
 9707SOL    HW130020   0.303   4.188   2.043
 9707SOL    HW230021   0.324   4.269   1.902
 9708SOL     OW30022   1.812   2.292   3.527
 9708SOL    HW130023   1.858   2.345   3.456
 9708SOL    HW230024   1.714   2.290   3.508
 9709SOL     OW30025   0.588   5.735   3.642
 9709SOL    HW130026   0.568   5.677   3.721
 9709SOL    HW230027   0.520   5.808   3.635
 9710SOL     OW30028   0.390   1.187   3.223
 9710SOL    HW130029   0.351   1.111   3.171
 9710SOL    HW230030   0.321   1.223   3.285
 9711SOL     OW30031   1.314   3.502   5.699
 9711SOL    HW130032   1.389   3.438   5.718
 9711SOL    HW230033   1.297   3.558   5.780
 9712SOL     OW30034   5.134   3.137   4.860
 9712SOL    HW130035   5.041   3.111   4.833
 9712SOL    HW230036   5.188   3.055   4.876
 9713SOL     OW30037   0.158   4.591   2.965
 9713SOL    HW130038   0.121   4.648   2.891
 9713SOL    HW230039   0.082   4.557   3.021
 9714SOL     OW30040   1.752   1.447   1.689
 9714SOL    HW130041   1.796   1.493   1.612
 9714SOL    HW230042   1.703   1.366   1.656
 9715SOL     OW30043   6.906   5.661   4.276
 9715SOL    HW130044   6.871   5.742   4.229
 9715SOL    HW230045   6.870   5.659   4.370
 9716SOL     OW30046   3.955   2.251   6.942
 9716SOL    HW130047   4.032   2.306   6.973
 9716SOL    HW230048   3.987   2.162   6.911
 9717SOL     OW30049   5.698   5.804   4.981
 9717SOL    HW130050   5.619   5.816   4.921
 9717SOL    HW230051   5.758   5.884   4.974
 9718SOL     OW30052   4.744   2.881   1.692
 9718SOL    HW130053   4.724   2.793   1.735
 9718SOL    HW230054   4.693   2.953   1.740
 9719SOL     OW30055   0.647   2.345   6.852
 9719SOL    HW130056   0.584   2.333   6.928
 9719SOL    HW230057   0.596   2.341   6.766
 9720SOL     OW30058   0.440   5.596   1.679
 9720SOL    HW130059   0.513   5.591   1.611
 9720SOL    HW230060   0.355   5.562   1.640
 9721SOL     OW30061   0.877   2.562   1.930
 9721SOL    HW130062   0.879   2.656   1.963
 9721SOL    HW230063   0.785   2.524   1.943
 9722SOL     OW30064   0.395   0.007   3.380
 9722SOL    HW130065   0.455   0.049   3.448
 9722SOL    HW230066   0.450   6.995   3.304
 9723SOL     OW30067   0.996   6.125   3.128
 9723SOL    HW130068   0.977   6.222   3.113
 9723SOL    HW230069   0.919   6.070   3.094
 9724SOL     OW30070   3.007   2.746   1.680
 9724SOL    HW130071   3.019   2.658   1.726
 9724SOL    HW230072   3.017   2.820   1.748
 9725SOL     OW30073   3.973   3.467   6.220
 9725SOL    HW130074   3.944   3.382   6.177
 9725SOL    HW230075   4.001   3.532   6.150
 9726SOL     OW30076   4.931   0.827   4.867
 9726SOL    HW130077   4.948   0.872   4.780
 9726SOL    HW230078   4.905   0.895   4.936
 9727SOL     OW30079   1.555   4.067   5.349
 9727SOL    HW130080   1.478   4.110   5.396
 9727SOL    HW230081   1.528   3.975   5.319
 9728SOL     OW30082   1.388   6.666   6.922
 9728SOL    HW130083   1.452   6.733   6.961
 9728SOL    HW230084   1.368   6.690   6.827
 9729SOL     OW30085   1.285   4.704   2.684
 9729SOL    HW130086   1.188   4.721   2.701
 9729SOL    HW230087   1.337   4.713   2.769
 9730SOL     OW30088   0.229   3.377   2.954
 9730SOL    HW130089   0.139   3.334   2.956
 9730SOL    HW230090   0.268   3.377   3.046
 9731SOL     OW30091   4.090   5.120   1.093
 9731SOL    HW130092   4.010   5.130   1.152
 9731SOL    HW230093   4.105   5.023   1.073
 9732SOL     OW30094   6.028   6.025   3.077
 9732SOL    HW130095   5.973   6.108   3.067
 9732SOL    HW230096   6.124   6.045   3.058
 9733SOL     OW30097   6.036   5.150   4.497
 9733SOL    HW130098   5.978   5.093   4.555
 9733SOL    HW230099   6.101   5.201   4.554
 9734SOL     OW30100   5.638   1.866   3.985
 9734SOL    HW130101   5.574   1.801   4.026
 9734SOL    HW230102   5.627   1.865   3.885
 9735SOL     OW30103   2.068   4.632   2.888
 9735SOL    HW130104   2.148   4.572   2.892
 9735SOL    HW230105   1.997   4.589   2.833
 9736SOL     OW30106   5.094   1.209   6.142
 9736SOL    HW130107   5.023   1.149   6.106
 9736SOL    HW230108   5.052   1.279   6.199
 9737SOL     OW30109   4.565   2.662   5.204
 9737SOL    HW130110   4.610   2.750   5.212
 9737SOL    HW230111   4.467   2.674   5.220
 9738SOL     OW30112   1.837   0.267   2.946
 9738SOL    HW130113   1.815   0.178   2.905
 9738SOL    HW230114   1.753   0.312   2.975
 9739SOL     OW30115   0.649   4.905   1.424
 9739SOL    HW130116   0.737   4.953   1.429
 9739SOL    HW230117   0.657   4.828   1.361
 9740SOL     OW30118   6.210   3.529   3.201
 9740SOL    HW130119   6.274   3.452   3.198
 9740SOL    HW230120   6.218   3.583   3.117
 9741SOL     OW30121   4.512   1.255   2.789
 9741SOL    HW130122   4.546   1.343   2.822
 9741SOL    HW230123   4.444   1.219   2.853
 9742SOL     OW30124   4.783   0.083   2.993
 9742SOL    HW130125   4.819   0.174   2.974
 9742SOL    HW230126   4.735   0.084   3.080
 9743SOL     OW30127   1.911   2.275   5.779
 9743SOL    HW130128   1.883   2.371   5.779
 9743SOL    HW230129   1.979   2.260   5.707
 9744SOL     OW30130   0.918   0.341   2.129
 9744SOL    HW130131   0.830   0.298   2.110
 9744SOL    HW230132   0.923   0.368   2.225
 9745SOL     OW30133   0.635   2.564   5.707
 9745SOL    HW130134   0.690   2.541   5.787
 9745SOL    HW230135   0.680   2.532   5.624
 9746SOL     OW30136   5.073   1.825   5.010
 9746SOL    HW130137   4.982   1.828   5.052
 9746SOL    HW230138   5.114   1.916   5.013
 9747SOL     OW30139   1.621   1.223   1.601
 9747SOL    HW130140   1.533   1.267   1.616
 9747SOL    HW230141   1.622   1.179   1.511
 9748SOL     OW30142   1.111   6.910   5.224
 9748SOL    HW130143   1.086   6.838   5.289
 9748SOL    HW230144   1.061   6.896   5.139
 9749SOL     OW30145   1.536   2.405   5.590
 9749SOL    HW130146   1.455   2.370   5.543
 9749SOL    HW230147   1.600   2.330   5.607
 9750SOL     OW30148   5.887   5.171   3.817
 9750SOL    HW130149   5.986   5.173   3.805
 9750SOL    HW230150   5.855   5.262   3.842
 9751SOL     OW30151   2.069   1.879   1.320
 9751SOL    HW130152   2.167   1.870   1.302
 9751SOL    HW230153   2.054   1.896   1.417
 9752SOL     OW30154   4.674   0.606   6.240
 9752SOL    HW130155   4.583   0.643   6.260
 9752SOL    HW230156   4.742   0.657   6.294
 9753SOL     OW30157   6.404   6.515   4.642
 9753SOL    HW130158   6.491   6.523   4.592
 9753SOL    HW230159   6.334   6.480   4.580
 9754SOL     OW30160   1.230   1.781   0.248
 9754SOL    HW130161   1.179   1.699   0.274
 9754SOL    HW230162   1.166   1.853   0.221
 9755SOL     OW30163   4.206   3.775   5.241
 9755SOL    HW130164   4.127   3.740   5.291
 9755SOL    HW230165   4.238   3.859   5.284
 9756SOL     OW30166   5.733   2.857   0.252
 9756SOL    HW130167   5.754   2.840   0.348
 9756SOL    HW230168   5.782   2.939   0.221
 9757SOL     OW30169   4.897   3.139   3.825
 9757SOL    HW130170   4.922   3.072   3.755
 9757SOL    HW230171   4.849   3.093   3.900
 9758SOL     OW30172   1.645   0.233   5.784
 9758SOL    HW130173   1.710   0.309   5.776
 9758SOL    HW230174   1.650   0.193   5.875
 9759SOL     OW30175   2.172   0.080   0.919
 9759SOL    HW130176   2.161   0.172   0.958
 9759SOL    HW230177   2.114   0.016   0.969
 9760SOL     OW30178   5.196   4.503   5.182
 9760SOL    HW130179   5.234   4.445   5.253
 9760SOL    HW230180   5.144   4.578   5.224
 9761SOL     OW30181   5.853   5.762   1.828
 9761SOL    HW130182   5.794   5.686   1.855
 9761SOL    HW230183   5.818   5.804   1.745
 9762SOL     OW30184   2.341   1.787   4.588
 9762SOL    HW130185   2.376   1.881   4.594
 9762SOL    HW230186   2.311   1.769   4.494
 9763SOL     OW30187   4.877   1.452   2.087
 9763SOL    HW130188   4.806   1.481   2.152
 9763SOL    HW230189   4.838   1.450   1.995
 9764SOL     OW30190   1.499   1.980   3.330
 9764SOL    HW130191   1.591   2.007   3.301
 9764SOL    HW230192   1.490   1.993   3.429
 9765SOL     OW30193   6.438   1.974   4.948
 9765SOL    HW130194   6.502   2.040   4.988
 9765SOL    HW230195   6.349   2.019   4.936
 9766SOL     OW30196   2.520   0.420   2.833
 9766SOL    HW130197   2.421   0.433   2.823
 9766SOL    HW230198   2.561   0.409   2.742
 9767SOL     OW30199   5.279   2.091   4.471
 9767SOL    HW130200   5.207   2.083   4.539
 9767SOL    HW230201   5.364   2.053   4.507
 9768SOL     OW30202   5.261   2.301   2.156
 9768SOL    HW130203   5.164   2.324   2.155
 9768SOL    HW230204   5.315   2.383   2.138
 9769SOL     OW30205   1.286   2.343   1.442
 9769SOL    HW130206   1.326   2.329   1.351
 9769SOL    HW230207   1.229   2.425   1.441
 9770SOL     OW30208   5.756   5.527   5.980
 9770SOL    HW130209   5.761   5.450   6.045
 9770SOL    HW230210   5.847   5.543   5.942
 9771SOL     OW30211   4.708   4.445   0.996
 9771SOL    HW130212   4.615   4.449   0.957
 9771SOL    HW230213   4.704   4.403   1.086
 9772SOL     OW30214   6.967   6.899   1.869
 9772SOL    HW130215   6.919   6.933   1.950
 9772SOL    HW230216   0.021   6.842   1.898
 9773SOL     OW30217   5.934   6.208   3.724
 9773SOL    HW130218   5.885   6.218   3.637
 9773SOL    HW230219   5.877   6.159   3.789
 9774SOL     OW30220   5.827   4.815   3.456
 9774SOL    HW130221   5.927   4.805   3.460
 9774SOL    HW230222   5.795   4.862   3.538
 9775SOL     OW30223   2.082   2.014   4.797
 9775SOL    HW130224   1.990   2.040   4.771
 9775SOL    HW230225   2.081   1.922   4.837
 9776SOL     OW30226   0.010   5.314   4.176
 9776SOL    HW130227   6.988   5.336   4.090
 9776SOL    HW230228   6.968   5.325   4.251
 9777SOL     OW30229   6.277   4.906   5.957
 9777SOL    HW130230   6.181   4.915   5.933
 9777SOL    HW230231   6.288   4.834   6.026
 9778SOL     OW30232   5.257   0.131   3.344
 9778SOL    HW130233   5.283   0.109   3.438
 9778SOL    HW230234   5.162   0.105   3.328
 9779SOL     OW30235   2.746   1.569   4.719
 9779SOL    HW130236   2.720   1.515   4.639
 9779SOL    HW230237   2.834   1.615   4.701
 9780SOL     OW30238   2.070   2.797   0.625
 9780SOL    HW130239   2.080   2.844   0.537
 9780SOL    HW230240   1.995   2.732   0.620
 9781SOL     OW30241   1.483   4.687   4.054
 9781SOL    HW130242   1.497   4.590   4.074
 9781SOL    HW230243   1.548   4.741   4.107
 9782SOL     OW30244   6.496   0.277   1.144
 9782SOL    HW130245   6.447   0.265   1.230
 9782SOL    HW230246   6.443   0.336   1.083
 9783SOL     OW30247   6.262   0.765   1.504
 9783SOL    HW130248   6.244   0.705   1.426
 9783SOL    HW230249   6.263   0.712   1.588
 9784SOL     OW30250   4.256   1.246   3.420
 9784SOL    HW130251   4.298   1.229   3.331
 9784SOL    HW230252   4.324   1.229   3.492
 9785SOL     OW30253   0.480   2.790   3.172
 9785SOL    HW130254   0.450   2.751   3.259
 9785SOL    HW230255   0.508   2.717   3.110
 9786SOL     OW30256   1.872   4.570   6.314
 9786SOL    HW130257   1.778   4.537   6.302
 9786SOL    HW230258   1.910   4.596   6.225
 9787SOL     OW30259   5.099   3.245   1.742
 9787SOL    HW130260   5.031   3.187   1.786
 9787SOL    HW230261   5.123   3.208   1.653
 9788SOL     OW30262   0.110   7.005   4.449
 9788SOL    HW130263   0.083   0.021   4.361
 9788SOL    HW230264   0.064   0.032   4.523
 9789SOL     OW30265   2.508   5.193   6.232
 9789SOL    HW130266   2.574   5.119   6.218
 9789SOL    HW230267   2.459   5.178   6.318
 9790SOL     OW30268   5.529   2.126   3.912
 9790SOL    HW130269   5.592   2.177   3.853
 9790SOL    HW230270   5.565   2.034   3.928
 9791SOL     OW30271   1.120   1.250   1.450
 9791SOL    HW130272   1.126   1.164   1.500
 9791SOL    HW230273   1.096   1.324   1.513
 9792SOL     OW30274   4.659   5.158   1.662
 9792SOL    HW130275   4.589   5.226   1.642
 9792SOL    HW230276   4.637   5.072   1.617
 9793SOL     OW30277   5.048   5.820   2.851
 9793SOL    HW130278   4.998   5.893   2.804
 9793SOL    HW230279   5.043   5.835   2.950
 9794SOL     OW30280   4.859   3.304   6.402
 9794SOL    HW130281   4.951   3.270   6.420
 9794SOL    HW230282   4.863   3.399   6.371
 9795SOL     OW30283   1.231   2.778   4.224
 9795SOL    HW130284   1.137   2.805   4.242
 9795SOL    HW230285   1.293   2.836   4.277
 9796SOL     OW30286   3.136   5.002   1.007
 9796SOL    HW130287   3.061   4.942   1.033
 9796SOL    HW230288   3.115   5.045   0.919
 9797SOL     OW30289   4.694   3.540   6.952
 9797SOL    HW130290   4.677   3.568   6.857
 9797SOL    HW230291   4.620   3.575   7.010
 9798SOL     OW30292   2.356   0.372   1.225
 9798SOL    HW130293   2.366   0.471   1.223
 9798SOL    HW230294   2.391   0.333   1.139
 9799SOL     OW30295   3.414   2.949   2.534
 9799SOL    HW130296   3.406   2.927   2.437
 9799SOL    HW230297   3.502   2.995   2.551
 9800SOL     OW30298   4.292   5.736   6.262
 9800SOL    HW130299   4.314   5.639   6.274
 9800SOL    HW230300   4.290   5.781   6.351
 9801SOL     OW30301   5.023   5.573   0.156
 9801SOL    HW130302   5.092   5.503   0.143
 9801SOL    HW230303   5.012   5.626   0.072
 9802SOL     OW30304   0.485   3.435   1.649
 9802SOL    HW130305   0.506   3.480   1.562
 9802SOL    HW230306   0.490   3.502   1.723
 9803SOL     OW30307   6.191   0.072   6.606
 9803SOL    HW130308   6.283   0.094   6.573
 9803SOL    HW230309   6.197   7.022   6.675
 9804SOL     OW30310   6.776   5.250   3.248
 9804SOL    HW130311   6.696   5.199   3.278
 9804SOL    HW230312   6.845   5.250   3.320
 9805SOL     OW30313   1.158   5.564   6.573
 9805SOL    HW130314   1.138   5.662   6.564
 9805SOL    HW230315   1.254   5.547   6.551
 9806SOL     OW30316   0.527   2.683   1.574
 9806SOL    HW130317   0.473   2.645   1.499
 9806SOL    HW230318   0.612   2.631   1.583
 9807SOL     OW30319   4.201   1.669   0.056
 9807SOL    HW130320   4.188   1.572   0.033
 9807SOL    HW230321   4.219   1.677   0.154
 9808SOL     OW30322   5.909   1.457   4.971
 9808SOL    HW130323   5.998   1.474   4.929
 9808SOL    HW230324   5.896   1.359   4.982
 9809SOL     OW30325   0.970   1.516   5.542
 9809SOL    HW130326   0.961   1.451   5.617
 9809SOL    HW230327   0.897   1.501   5.476
 9810SOL     OW30328   2.436   1.463   3.231
 9810SOL    HW130329   2.486   1.381   3.260
 9810SOL    HW230330   2.339   1.451   3.252
 9811SOL     OW30331   6.659   6.483   3.451
 9811SOL    HW130332   6.634   6.504   3.546
 9811SOL    HW230333   6.723   6.552   3.417
 9812SOL     OW30334   4.497   1.895   6.056
 9812SOL    HW130335   4.453   1.813   6.092
 9812SOL    HW230336   4.428   1.955   6.015
 9813SOL     OW30337   6.058   5.833   0.134
 9813SOL    HW130338   6.138   5.778   0.109
 9813SOL    HW230339   5.985   5.773   0.167
 9814SOL     OW30340   6.604   0.330   5.748
 9814SOL    HW130341   6.561   0.403   5.695
 9814SOL    HW230342   6.553   0.245   5.736
 9815SOL     OW30343   6.612   3.391   1.356
 9815SOL    HW130344   6.647   3.367   1.266
 9815SOL    HW230345   6.592   3.489   1.359
 9816SOL     OW30346   6.543   0.532   6.841
 9816SOL    HW130347   6.516   0.606   6.779
 9816SOL    HW230348   6.477   0.456   6.833
 9817SOL     OW30349   3.094   5.640   1.806
 9817SOL    HW130350   3.037   5.569   1.764
 9817SOL    HW230351   3.122   5.611   1.897
 9818SOL     OW30352   1.931   1.273   3.443
 9818SOL    HW130353   1.850   1.218   3.460
 9818SOL    HW230354   1.998   1.220   3.391
 9819SOL     OW30355   5.826   3.367   4.937
 9819SOL    HW130356   5.850   3.453   4.981
 9819SOL    HW230357   5.856   3.290   4.994
 9820SOL     OW30358   2.964   1.896   6.563
 9820SOL    HW130359   2.935   1.945   6.480
 9820SOL    HW230360   3.062   1.874   6.555
 9821SOL     OW30361   4.386   2.008   1.958
 9821SOL    HW130362   4.473   2.047   1.989
 9821SOL    HW230363   4.389   1.995   1.859
 9822SOL     OW30364   4.203   5.871   4.632
 9822SOL    HW130365   4.122   5.860   4.575
 9822SOL    HW230366   4.282   5.829   4.586
 9823SOL     OW30367   0.911   0.621   2.048
 9823SOL    HW130368   0.831   0.649   1.994
 9823SOL    HW230369   0.901   0.525   2.074
 9824SOL     OW30370   2.129   6.290   5.601
 9824SOL    HW130371   2.175   6.366   5.553
 9824SOL    HW230372   2.170   6.204   5.573
 9825SOL     OW30373   5.099   6.157   5.435
 9825SOL    HW130374   5.070   6.070   5.475
 9825SOL    HW230375   5.189   6.181   5.469
 9826SOL     OW30376   3.293   6.878   5.265
 9826SOL    HW130377   3.307   6.785   5.231
 9826SOL    HW230378   3.300   6.943   5.189
 9827SOL     OW30379   2.151   5.822   2.840
 9827SOL    HW130380   2.077   5.758   2.817
 9827SOL    HW230381   2.135   5.910   2.796
 9828SOL     OW30382   3.888   1.796   4.963
 9828SOL    HW130383   3.831   1.756   5.034
 9828SOL    HW230384   3.901   1.893   4.981
 9829SOL     OW30385   4.372   6.014   5.825
 9829SOL    HW130386   4.454   6.070   5.839
 9829SOL    HW230387   4.356   5.958   5.906
 9830SOL     OW30388   5.864   1.822   2.901
 9830SOL    HW130389   5.801   1.841   2.825
 9830SOL    HW230390   5.933   1.757   2.870
 9831SOL     OW30391   0.863   3.752   2.360
 9831SOL    HW130392   0.790   3.686   2.344
 9831SOL    HW230393   0.888   3.797   2.274
 9832SOL     OW30394   4.744   4.559   4.539
 9832SOL    HW130395   4.825   4.521   4.584
 9832SOL    HW230396   4.698   4.622   4.601
 9833SOL     OW30397   3.540   4.108   4.033
 9833SOL    HW130398   3.524   4.129   4.129
 9833SOL    HW230399   3.632   4.072   4.021
 9834SOL     OW30400   2.706   5.566   5.731
 9834SOL    HW130401   2.715   5.483   5.788
 9834SOL    HW230402   2.630   5.555   5.668
 9835SOL     OW30403   3.316   4.195   5.117
 9835SOL    HW130404   3.401   4.168   5.161
 9835SOL    HW230405   3.335   4.225   5.023
 9836SOL     OW30406   0.673   3.288   5.942
 9836SOL    HW130407   0.630   3.310   5.855
 9836SOL    HW230408   0.768   3.320   5.941
 9837SOL     OW30409   5.768   1.889   1.624
 9837SOL    HW130410   5.807   1.964   1.678
 9837SOL    HW230411   5.781   1.802   1.673
 9838SOL     OW30412   0.720   5.647   0.998
 9838SOL    HW130413   0.715   5.716   0.926
 9838SOL    HW230414   0.637   5.649   1.053
 9839SOL     OW30415   4.307   1.111   2.389
 9839SOL    HW130416   4.378   1.061   2.339
 9839SOL    HW230417   4.224   1.115   2.334
 9840SOL     OW30418   5.752   1.789   0.323
 9840SOL    HW130419   5.797   1.714   0.372
 9840SOL    HW230420   5.684   1.752   0.260
 9841SOL     OW30421   0.173   5.324   3.588
 9841SOL    HW130422   0.221   5.374   3.516
 9841SOL    HW230423   0.164   5.383   3.669
 9842SOL     OW30424   3.395   2.115   0.172
 9842SOL    HW130425   3.383   2.016   0.176
 9842SOL    HW230426   3.409   2.151   0.264
 9843SOL     OW30427   6.915   6.143   0.872
 9843SOL    HW130428   6.903   6.067   0.936
 9843SOL    HW230429   6.920   6.229   0.922
 9844SOL     OW30430   5.201   0.067   4.253
 9844SOL    HW130431   5.135   7.018   4.278
 9844SOL    HW230432   5.173   0.109   4.167
 9845SOL     OW30433   1.665   2.722   1.962
 9845SOL    HW130434   1.675   2.730   2.061
 9845SOL    HW230435   1.754   2.735   1.918
 9846SOL     OW30436   5.564   1.088   1.342
 9846SOL    HW130437   5.660   1.094   1.313
 9846SOL    HW230438   5.560   1.056   1.436
 9847SOL     OW30439   3.620   3.716   0.945
 9847SOL    HW130440   3.703   3.736   0.999
 9847SOL    HW230441   3.548   3.683   1.006
 9848SOL     OW30442   3.519   3.541   4.970
 9848SOL    HW130443   3.426   3.508   4.956
 9848SOL    HW230444   3.584   3.474   4.934
 9849SOL     OW30445   1.043   1.215   6.411
 9849SOL    HW130446   1.127   1.202   6.357
 9849SOL    HW230447   0.964   1.215   6.350
 9850SOL     OW30448   0.466   0.518   4.302
 9850SOL    HW130449   0.372   0.546   4.318
 9850SOL    HW230450   0.473   0.471   4.215
 9851SOL     OW30451   3.985   4.890   4.142
 9851SOL    HW130452   3.910   4.835   4.178
 9851SOL    HW230453   3.950   4.979   4.114
 9852SOL     OW30454   1.705   1.283   6.329
 9852SOL    HW130455   1.745   1.226   6.402
 9852SOL    HW230456   1.644   1.227   6.273
 9853SOL     OW30457   6.962   4.248   4.137
 9853SOL    HW130458   7.006   4.316   4.196
 9853SOL    HW230459   6.949   4.287   4.046
 9854SOL     OW30460   0.698   5.946   5.815
 9854SOL    HW130461   0.634   6.010   5.773
 9854SOL    HW230462   0.780   5.938   5.758
 9855SOL     OW30463   1.147   3.194   0.770
 9855SOL    HW130464   1.166   3.097   0.752
 9855SOL    HW230465   1.115   3.204   0.865
 9856SOL     OW30466   5.652   4.132   3.476
 9856SOL    HW130467   5.641   4.049   3.422
 9856SOL    HW230468   5.592   4.204   3.441
 9857SOL     OW30469   4.888   2.110   3.460
 9857SOL    HW130470   4.874   2.205   3.432
 9857SOL    HW230471   4.946   2.063   3.394
 9858SOL     OW30472   0.165   5.866   2.367
 9858SOL    HW130473   0.241   5.902   2.422
 9858SOL    HW230474   0.141   5.775   2.399
 9859SOL     OW30475   0.292   4.962   4.867
 9859SOL    HW130476   0.212   5.017   4.843
 9859SOL    HW230477   0.334   4.925   4.784
 9860SOL     OW30478   1.858   2.316   5.400
 9860SOL    HW130479   1.798   2.291   5.476
 9860SOL    HW230480   1.818   2.393   5.350
 9861SOL     OW30481   3.085   1.397   4.076
 9861SOL    HW130482   3.069   1.356   3.986
 9861SOL    HW230483   3.037   1.345   4.146
 9862SOL     OW30484   1.945   4.975   1.093
 9862SOL    HW130485   1.982   4.885   1.071
 9862SOL    HW230486   1.924   4.980   1.190
 9863SOL     OW30487   3.261   6.045   1.260
 9863SOL    HW130488   3.187   6.108   1.238
 9863SOL    HW230489   3.239   5.954   1.225
 9864SOL     OW30490   2.799   5.998   5.452
 9864SOL    HW130491   2.797   6.092   5.416
 9864SOL    HW230492   2.733   5.942   5.402
 9865SOL     OW30493   0.711   6.615   5.728
 9865SOL    HW130494   0.622   6.574   5.745
 9865SOL    HW230495   0.747   6.654   5.812
 9866SOL     OW30496   6.640   4.454   4.442
 9866SOL    HW130497   6.713   4.386   4.447
 9866SOL    HW230498   6.560   4.415   4.397
 9867SOL     OW30499   5.250   1.980   1.561
 9867SOL    HW130500   5.339   2.003   1.599
 9867SOL    HW230501   5.248   1.883   1.536
 9868SOL     OW30502   1.085   4.579   3.143
 9868SOL    HW130503   1.027   4.511   3.188
 9868SOL    HW230504   1.160   4.532   3.096
 9869SOL     OW30505   7.008   2.530   1.352
 9869SOL    HW130506   0.001   2.432   1.343
 9869SOL    HW230507   6.969   2.550   1.442
 9870SOL     OW30508   3.440   1.490   1.740
 9870SOL    HW130509   3.382   1.497   1.659
 9870SOL    HW230510   3.432   1.398   1.780
 9871SOL     OW30511   7.021   3.782   5.336
 9871SOL    HW130512   6.923   3.797   5.318
 9871SOL    HW230513   0.025   3.693   5.301
 9872SOL     OW30514   1.998   5.209   5.139
 9872SOL    HW130515   2.015   5.243   5.046
 9872SOL    HW230516   2.010   5.284   5.204
 9873SOL     OW30517   2.499   2.414   5.966
 9873SOL    HW130518   2.494   2.341   6.034
 9873SOL    HW230519   2.408   2.453   5.952
 9874SOL     OW30520   0.133   2.435   4.860
 9874SOL    HW130521   0.187   2.450   4.777
 9874SOL    HW230522   0.038   2.459   4.843
 9875SOL     OW30523   6.739   5.843   0.572
 9875SOL    HW130524   6.751   5.783   0.651
 9875SOL    HW230525   6.773   5.935   0.595
 9876SOL     OW30526   2.150   6.478   3.360
 9876SOL    HW130527   2.235   6.431   3.383
 9876SOL    HW230528   2.156   6.573   3.390
 9877SOL     OW30529   1.041   5.191   4.568
 9877SOL    HW130530   1.114   5.142   4.614
 9877SOL    HW230531   1.066   5.206   4.472
 9878SOL     OW30532   1.979   2.856   0.175
 9878SOL    HW130533   1.897   2.912   0.189
 9878SOL    HW230534   1.963   2.792   0.100
 9879SOL     OW30535   0.703   4.505   5.882
 9879SOL    HW130536   0.730   4.492   5.787
 9879SOL    HW230537   0.784   4.520   5.938
 9880SOL     OW30538   3.139   1.732   0.234
 9880SOL    HW130539   3.082   1.726   0.152
 9880SOL    HW230540   3.132   1.823   0.273
 9881SOL     OW30541   5.277   0.398   4.524
 9881SOL    HW130542   5.356   0.453   4.555
 9881SOL    HW230543   5.194   0.434   4.566
 9882SOL     OW30544   4.073   3.259   4.066
 9882SOL    HW130545   4.078   3.241   4.165
 9882SOL    HW230546   4.023   3.184   4.022
 9883SOL     OW30547   2.210   6.721   1.161
 9883SOL    HW130548   2.286   6.749   1.218
 9883SOL    HW230549   2.245   6.676   1.078
 9884SOL     OW30550   1.876   3.594   6.336
 9884SOL    HW130551   1.789   3.634   6.365
 9884SOL    HW230552   1.915   3.542   6.412
 9885SOL     OW30553   6.483   3.247   3.991
 9885SOL    HW130554   6.531   3.178   4.045
 9885SOL    HW230555   6.534   3.267   3.908
 9886SOL     OW30556   4.698   6.173   1.582
 9886SOL    HW130557   4.753   6.110   1.526
 9886SOL    HW230558   4.668   6.249   1.525
 9887SOL     OW30559   3.730   6.538   0.758
 9887SOL    HW130560   3.640   6.573   0.785
 9887SOL    HW230561   3.741   6.547   0.658
 9888SOL     OW30562   6.032   5.684   2.449
 9888SOL    HW130563   5.948   5.699   2.502
 9888SOL    HW230564   6.100   5.753   2.475
 9889SOL     OW30565   0.274   4.944   3.263
 9889SOL    HW130566   0.322   4.859   3.239
 9889SOL    HW230567   0.190   4.951   3.209
 9890SOL     OW30568   6.506   3.921   1.234
 9890SOL    HW130569   6.501   4.010   1.279
 9890SOL    HW230570   6.601   3.903   1.207
 9891SOL     OW30571   5.453   5.102   0.837
 9891SOL    HW130572   5.469   5.005   0.817
 9891SOL    HW230573   5.451   5.154   0.751
 9892SOL     OW30574   1.881   5.233   3.882
 9892SOL    HW130575   1.971   5.197   3.909
 9892SOL    HW230576   1.847   5.293   3.954
 9893SOL     OW30577   6.133   5.247   3.143
 9893SOL    HW130578   6.135   5.222   3.047
 9893SOL    HW230579   6.205   5.313   3.162
 9894SOL     OW30580   3.511   2.734   5.763
 9894SOL    HW130581   3.540   2.820   5.722
 9894SOL    HW230582   3.462   2.679   5.694
 9895SOL     OW30583   5.115   2.853   6.561
 9895SOL    HW130584   5.117   2.834   6.463
 9895SOL    HW230585   5.189   2.804   6.606
 9896SOL     OW30586   3.917   3.880   0.604
 9896SOL    HW130587   3.836   3.825   0.623
 9896SOL    HW230588   3.973   3.833   0.535
 9897SOL     OW30589   5.682   1.573   2.557
 9897SOL    HW130590   5.673   1.655   2.613
 9897SOL    HW230591   5.750   1.512   2.598
 9898SOL     OW30592   1.414   5.558   5.585
 9898SOL    HW130593   1.512   5.566   5.570
 9898SOL    HW230594   1.391   5.462   5.603
 9899SOL     OW30595   5.151   4.779   2.438
 9899SOL    HW130596   5.187   4.825   2.519
 9899SOL    HW230597   5.224   4.724   2.396
 9900SOL     OW30598   1.326   2.431   4.041
 9900SOL    HW130599   1.320   2.521   3.998
 9900SOL    HW230600   1.331   2.361   3.970
 9901SOL     OW30601   2.631   2.460   6.205
 9901SOL    HW130602   2.600   2.537   6.149
 9901SOL    HW230603   2.554   2.421   6.254
 9902SOL     OW30604   3.567   3.913   0.763
 9902SOL    HW130605   3.583   3.885   0.668
 9902SOL    HW230606   3.617   3.852   0.825
 9903SOL     OW30607   4.401   1.457   2.264
 9903SOL    HW130608   4.416   1.409   2.351
 9903SOL    HW230609   4.439   1.549   2.269
 9904SOL     OW30610   6.139   2.307   0.628
 9904SOL    HW130611   6.237   2.292   0.619
 9904SOL    HW230612   6.099   2.232   0.681
 9905SOL     OW30613   1.532   6.687   6.227
 9905SOL    HW130614   1.491   6.772   6.258
 9905SOL    HW230615   1.570   6.637   6.306
 9906SOL     OW30616   2.404   3.521   6.397
 9906SOL    HW130617   2.473   3.500   6.327
 9906SOL    HW230618   2.342   3.591   6.362
 9907SOL     OW30619   2.429   6.168   2.788
 9907SOL    HW130620   2.489   6.218   2.851
 9907SOL    HW230621   2.474   6.085   2.758
 9908SOL     OW30622   0.703   3.646   6.501
 9908SOL    HW130623   0.709   3.743   6.475
 9908SOL    HW230624   0.772   3.626   6.570
 9909SOL     OW30625   3.257   1.595   2.547
 9909SOL    HW130626   3.197   1.664   2.587
 9909SOL    HW230627   3.314   1.555   2.618
 9910SOL     OW30628   6.292   4.373   1.001
 9910SOL    HW130629   6.198   4.389   1.030
 9910SOL    HW230630   6.300   4.390   0.903
 9911SOL     OW30631   4.147   5.065   3.627
 9911SOL    HW130632   4.238   5.096   3.600
 9911SOL    HW230633   4.111   5.002   3.558
 9912SOL     OW30634   5.093   0.556   2.064
 9912SOL    HW130635   5.065   0.555   1.968
 9912SOL    HW230636   5.181   0.603   2.072
 9913SOL     OW30637   5.279   2.860   2.835
 9913SOL    HW130638   5.359   2.843   2.893
 9913SOL    HW230639   5.237   2.947   2.861
 9914SOL     OW30640   1.188   0.553   4.823
 9914SOL    HW130641   1.107   0.510   4.781
 9914SOL    HW230642   1.217   0.630   4.766
 9915SOL     OW30643   4.798   3.043   4.066
 9915SOL    HW130644   4.859   2.976   4.108
 9915SOL    HW230645   4.751   3.095   4.137
 9916SOL     OW30646   2.342   2.735   2.632
 9916SOL    HW130647   2.391   2.689   2.558
 9916SOL    HW230648   2.398   2.734   2.715
 9917SOL     OW30649   3.146   4.268   5.570
 9917SOL    HW130650   3.087   4.189   5.589
 9917SOL    HW230651   3.242   4.240   5.579
 9918SOL     OW30652   2.174   1.986   5.971
 9918SOL    HW130653   2.193   1.986   6.069
 9918SOL    HW230654   2.259   1.996   5.920
 9919SOL     OW30655   1.171   5.590   2.626
 9919SOL    HW130656   1.213   5.678   2.605
 9919SOL    HW230657   1.177   5.531   2.545
 9920SOL     OW30658   3.733   6.213   1.580
 9920SOL    HW130659   3.677   6.155   1.520
 9920SOL    HW230660   3.694   6.305   1.584
 9921SOL     OW30661   5.829   6.921   2.793
 9921SOL    HW130662   5.869   7.000   2.840
 9921SOL    HW230663   5.843   6.839   2.849
 9922SOL     OW30664   4.342   4.764   0.772
 9922SOL    HW130665   4.369   4.795   0.682
 9922SOL    HW230666   4.422   4.727   0.820
 9923SOL     OW30667   6.403   2.230   6.256
 9923SOL    HW130668   6.391   2.150   6.196
 9923SOL    HW230669   6.327   2.294   6.242
 9924SOL     OW30670   6.988   0.819   3.027
 9924SOL    HW130671   6.963   0.889   3.094
 9924SOL    HW230672   6.905   0.786   2.982
 9925SOL     OW30673   2.963   3.094   5.455
 9925SOL    HW130674   2.919   3.088   5.365
 9925SOL    HW230675   3.006   3.006   5.477
 9926SOL     OW30676   1.187   1.178   0.526
 9926SOL    HW130677   1.286   1.184   0.542
 9926SOL    HW230678   1.145   1.266   0.549
 9927SOL     OW30679   0.063   1.913   2.394
 9927SOL    HW130680   7.009   1.944   2.450
 9927SOL    HW230681   0.123   1.990   2.373
 9928SOL     OW30682   0.160   3.765   2.079
 9928SOL    HW130683   0.247   3.742   2.124
 9928SOL    HW230684   0.171   3.757   1.980
 9929SOL     OW30685   2.800   4.600   6.978
 9929SOL    HW130686   2.885   4.650   6.994
 9929SOL    HW230687   2.797   4.570   6.882
 9930SOL     OW30688   6.588   0.124   6.320
 9930SOL    HW130689   6.633   0.147   6.234
 9930SOL    HW230690   6.547   0.206   6.359
 9931SOL     OW30691   2.049   6.300   5.318
 9931SOL    HW130692   2.123   6.338   5.263
 9931SOL    HW230693   2.073   6.308   5.415
 9932SOL     OW30694   1.638   1.386   0.249
 9932SOL    HW130695   1.663   1.437   0.331
 9932SOL    HW230696   1.555   1.425   0.209
 9933SOL     OW30697   2.469   1.650   3.052
 9933SOL    HW130698   2.564   1.644   3.022
 9933SOL    HW230699   2.454   1.586   3.128
 9934SOL     OW30700   5.502   1.809   6.288
 9934SOL    HW130701   5.450   1.885   6.251
 9934SOL    HW230702   5.600   1.826   6.276
 9935SOL     OW30703   3.384   1.952   0.751
 9935SOL    HW130704   3.437   1.925   0.671
 9935SOL    HW230705   3.436   1.931   0.834
 9936SOL     OW30706   5.786   5.788   5.718
 9936SOL    HW130707   5.828   5.761   5.632
 9936SOL    HW230708   5.707   5.730   5.736
 9937SOL     OW30709   0.590   6.986   2.766
 9937SOL    HW130710   0.601   0.062   2.781
 9937SOL    HW230711   0.667   6.938   2.806
 9938SOL     OW30712   0.196   0.543   4.366
 9938SOL    HW130713   0.248   0.619   4.404
 9938SOL    HW230714   0.126   0.577   4.304
 9939SOL     OW30715   2.289   4.136   0.767
 9939SOL    HW130716   2.377   4.090   0.784
 9939SOL    HW230717   2.215   4.078   0.800
 9940SOL     OW30718   0.573   0.204   2.896
 9940SOL    HW130719   0.663   0.183   2.935
 9940SOL    HW230720   0.519   0.256   2.963
 9941SOL     OW30721   4.239   5.082   6.044
 9941SOL    HW130722   4.260   5.062   5.948
 9941SOL    HW230723   4.211   4.998   6.090
 9942SOL     OW30724   4.427   4.902   3.735
 9942SOL    HW130725   4.472   4.940   3.816
 9942SOL    HW230726   4.469   4.813   3.713
 9943SOL     OW30727   2.355   3.473   0.204
 9943SOL    HW130728   2.427   3.407   0.184
 9943SOL    HW230729   2.373   3.558   0.154
 9944SOL     OW30730   1.396   4.950   6.946
 9944SOL    HW130731   1.331   4.910   6.881
 9944SOL    HW230732   1.346   4.992   7.022
 9945SOL     OW30733   5.936   3.981   0.337
 9945SOL    HW130734   5.885   3.922   0.275
 9945SOL    HW230735   5.896   4.073   0.335
 9946SOL     OW30736   5.380   1.289   2.932
 9946SOL    HW130737   5.377   1.209   2.872
 9946SOL    HW230738   5.410   1.369   2.879
 9947SOL     OW30739   1.957   1.437   4.491
 9947SOL    HW130740   1.883   1.484   4.442
 9947SOL    HW230741   2.011   1.384   4.427
 9948SOL     OW30742   6.342   0.296   4.498
 9948SOL    HW130743   6.249   0.311   4.465
 9948SOL    HW230744   6.390   0.384   4.506
 9949SOL     OW30745   6.851   4.262   4.495
 9949SOL    HW130746   6.850   4.255   4.594
 9949SOL    HW230747   6.857   4.171   4.455
 9950SOL     OW30748   6.572   5.117   5.761
 9950SOL    HW130749   6.631   5.180   5.811
 9950SOL    HW230750   6.574   5.027   5.806
 9951SOL     OW30751   1.073   2.606   2.624
 9951SOL    HW130752   1.084   2.630   2.720
 9951SOL    HW230753   0.977   2.587   2.605
 9952SOL     OW30754   0.458   4.270   1.586
 9952SOL    HW130755   0.392   4.216   1.534
 9952SOL    HW230756   0.447   4.367   1.564
 9953SOL     OW30757   6.051   2.480   3.203
 9953SOL    HW130758   6.082   2.387   3.182
 9953SOL    HW230759   6.130   2.541   3.210
 9954SOL     OW30760   2.907   2.077   6.086
 9954SOL    HW130761   2.876   2.038   5.999
 9954SOL    HW230762   2.887   2.175   6.087
 9955SOL     OW30763   5.319   3.081   1.058
 9955SOL    HW130764   5.341   3.038   1.146
 9955SOL    HW230765   5.242   3.144   1.070
 9956SOL     OW30766   2.053   4.041   3.503
 9956SOL    HW130767   2.145   4.068   3.528
 9956SOL    HW230768   2.046   4.037   3.403
 9957SOL     OW30769   5.801   7.021   1.681
 9957SOL    HW130770   5.772   6.963   1.757
 9957SOL    HW230771   5.721   0.027   1.628
 9958SOL     OW30772   3.855   5.169   6.208
 9958SOL    HW130773   3.796   5.143   6.131
 9958SOL    HW230774   3.799   5.199   6.285
 9959SOL     OW30775   4.006   4.528   1.052
 9959SOL    HW130776   4.069   4.483   1.116
 9959SOL    HW230777   3.918   4.541   1.097
 9960SOL     OW30778   6.552   6.984   0.034
 9960SOL    HW130779   6.565   0.004   0.124
 9960SOL    HW230780   6.615   6.906   0.025
 9961SOL     OW30781   2.279   4.676   2.438
 9961SOL    HW130782   2.324   4.654   2.352
 9961SOL    HW230783   2.180   4.674   2.425
 9962SOL     OW30784   3.305   5.612   2.486
 9962SOL    HW130785   3.346   5.555   2.557
 9962SOL    HW230786   3.224   5.567   2.449
 9963SOL     OW30787   1.398   1.439   6.720
 9963SOL    HW130788   1.310   1.480   6.745
 9963SOL    HW230789   1.391   1.396   6.630
 9964SOL     OW30790   4.766   4.387   5.399
 9964SOL    HW130791   4.712   4.365   5.317
 9964SOL    HW230792   4.821   4.469   5.382
 9965SOL     OW30793   2.912   5.576   4.994
 9965SOL    HW130794   3.002   5.604   5.029
 9965SOL    HW230795   2.846   5.574   5.069
 9966SOL     OW30796   3.222   5.095   2.511
 9966SOL    HW130797   3.215   5.009   2.461
 9966SOL    HW230798   3.259   5.166   2.450
 9967SOL     OW30799   6.982   6.727   2.840
 9967SOL    HW130800   0.009   6.814   2.838
 9967SOL    HW230801   6.921   6.721   2.761
 9968SOL     OW30802   3.913   6.239   0.524
 9968SOL    HW130803   3.889   6.211   0.618
 9968SOL    HW230804   3.971   6.320   0.528
 9969SOL     OW30805   1.344   4.954   4.052
 9969SOL    HW130806   1.340   4.858   4.023
 9969SOL    HW230807   1.412   5.002   3.997
 9970SOL     OW30808   6.163   4.701   1.671
 9970SOL    HW130809   6.098   4.637   1.713
 9970SOL    HW230810   6.253   4.688   1.713
 9971SOL     OW30811   1.555   3.509   2.512
 9971SOL    HW130812   1.622   3.508   2.438
 9971SOL    HW230813   1.470   3.551   2.480
 9972SOL     OW30814   3.591   4.496   0.349
 9972SOL    HW130815   3.681   4.540   0.345
 9972SOL    HW230816   3.581   4.432   0.273
 9973SOL     OW30817   3.702   1.838   3.806
 9973SOL    HW130818   3.627   1.777   3.831
 9973SOL    HW230819   3.776   1.784   3.766
 9974SOL     OW30820   0.136   1.611   3.609
 9974SOL    HW130821   0.059   1.604   3.546
 9974SOL    HW230822   0.159   1.707   3.624
 9975SOL     OW30823   1.150   5.217   6.415
 9975SOL    HW130824   1.084   5.227   6.341
 9975SOL    HW230825   1.218   5.148   6.390
 9976SOL     OW30826   2.352   4.695   6.079
 9976SOL    HW130827   2.442   4.693   6.121
 9976SOL    HW230828   2.347   4.623   6.009
 9977SOL     OW30829   5.490   5.566   4.992
 9977SOL    HW130830   5.460   5.661   4.982
 9977SOL    HW230831   5.411   5.505   4.981
 9978SOL     OW30832   0.313   2.320   6.262
 9978SOL    HW130833   0.360   2.302   6.176
 9978SOL    HW230834   0.314   2.238   6.319
 9979SOL     OW30835   5.059   3.480   5.810
 9979SOL    HW130836   5.064   3.567   5.859
 9979SOL    HW230837   5.059   3.497   5.712
 9980SOL     OW30838   1.223   1.014   0.071
 9980SOL    HW130839   1.174   1.051   0.150
 9980SOL    HW230840   1.163   0.952   0.020
 9981SOL     OW30841   0.503   2.374   1.396
 9981SOL    HW130842   0.559   2.388   1.314
 9981SOL    HW230843   0.426   2.437   1.396
 9982SOL     OW30844   2.077   1.509   5.033
 9982SOL    HW130845   2.002   1.494   4.970
 9982SOL    HW230846   2.091   1.607   5.046
 9983SOL     OW30847   6.640   2.920   2.084
 9983SOL    HW130848   6.620   2.838   2.139
 9983SOL    HW230849   6.660   2.893   1.990
 9984SOL     OW30850   0.202   5.996   1.413
 9984SOL    HW130851   0.277   5.942   1.452
 9984SOL    HW230852   0.219   6.093   1.428
 9985SOL     OW30853   3.831   5.469   0.728
 9985SOL    HW130854   3.784   5.431   0.649
 9985SOL    HW230855   3.930   5.465   0.713
 9986SOL     OW30856   5.015   4.721   0.119
 9986SOL    HW130857   4.995   4.707   0.022
 9986SOL    HW230858   4.962   4.799   0.153
 9987SOL     OW30859   5.289   2.934   1.494
 9987SOL    HW130860   5.298   2.911   1.397
 9987SOL    HW230861   5.200   2.975   1.511
 9988SOL     OW30862   6.210   5.978   4.153
 9988SOL    HW130863   6.127   6.034   4.142
 9988SOL    HW230864   6.243   5.951   4.063
 9989SOL     OW30865   6.465   4.221   1.659
 9989SOL    HW130866   6.377   4.269   1.656
 9989SOL    HW230867   6.532   4.278   1.707
 9990SOL     OW30868   0.624   6.704   3.031
 9990SOL    HW130869   0.658   6.618   3.067
 9990SOL    HW230870   0.632   6.704   2.931
 9991SOL     OW30871   1.651   3.998   3.865
 9991SOL    HW130872   1.731   3.941   3.846
 9991SOL    HW230873   1.670   4.093   3.840
 9992SOL     OW30874   3.307   4.613   0.889
 9992SOL    HW130875   3.356   4.601   0.802
 9992SOL    HW230876   3.330   4.703   0.927
 9993SOL     OW30877   3.645   6.451   4.176
 9993SOL    HW130878   3.643   6.417   4.082
 9993SOL    HW230879   3.638   6.374   4.239
 9994SOL     OW30880   6.953   3.660   4.533
 9994SOL    HW130881   6.905   3.697   4.613
 9994SOL    HW230882   6.888   3.649   4.458
 9995SOL     OW30883   2.744   0.633   4.629
 9995SOL    HW130884   2.670   0.569   4.609
 9995SOL    HW230885   2.706   0.718   4.664
 9996SOL     OW30886   2.214   3.770   0.738
 9996SOL    HW130887   2.136   3.794   0.796
 9996SOL    HW230888   2.221   3.835   0.663
 9997SOL     OW30889   5.851   1.657   4.094
 9997SOL    HW130890   5.777   1.721   4.077
 9997SOL    HW230891   5.884   1.620   4.008
 9998SOL     OW30892   5.003   3.728   3.045
 9998SOL    HW130893   4.950   3.644   3.030
 9998SOL    HW230894   5.071   3.711   3.116
 9999SOL     OW30895   0.372   6.747   3.737
 9999SOL    HW130896   0.387   6.801   3.820
 9999SOL    HW230897   0.354   6.652   3.763
10000SOL     OW30898   5.338   1.700   1.520
10000SOL    HW130899   5.312   1.603   1.521
10000SOL    HW230900   5.438   1.707   1.521
10001SOL     OW30901   2.805   6.675   2.708
10001SOL    HW130902   2.833   6.707   2.798
10001SOL    HW230903   2.881   6.685   2.644
10002SOL     OW30904   2.602   1.189   0.616
10002SOL    HW130905   2.539   1.138   0.558
10002SOL    HW230906   2.644   1.262   0.562
10003SOL     OW30907   2.358   2.035   2.618
10003SOL    HW130908   2.422   2.096   2.572
10003SOL    HW230909   2.268   2.080   2.624
10004SOL     OW30910   5.246   4.575   4.926
10004SOL    HW130911   5.154   4.607   4.907
10004SOL    HW230912   5.254   4.551   5.022
10005SOL     OW30913   2.819   5.576   3.668
10005SOL    HW130914   2.896   5.536   3.716
10005SOL    HW230915   2.734   5.534   3.700
10006SOL     OW30916   5.794   0.224   5.635
10006SOL    HW130917   5.722   0.189   5.696
10006SOL    HW230918   5.882   0.224   5.683
10007SOL     OW30919   0.702   4.117   4.535
10007SOL    HW130920   0.631   4.104   4.467
10007SOL    HW230921   0.768   4.184   4.502
10008SOL     OW30922   3.442   1.717   3.876
10008SOL    HW130923   3.374   1.787   3.853
10008SOL    HW230924   3.403   1.653   3.942
10009SOL     OW30925   2.264   4.169   2.050
10009SOL    HW130926   2.308   4.180   2.139
10009SOL    HW230927   2.325   4.203   1.979
10010SOL     OW30928   2.587   4.722   6.689
10010SOL    HW130929   2.632   4.714   6.600
10010SOL    HW230930   2.559   4.632   6.721
10011SOL     OW30931   0.177   4.124   0.797
10011SOL    HW130932   0.193   4.091   0.705
10011SOL    HW230933   0.243   4.084   0.860
10012SOL     OW30934   4.941   0.878   2.229
10012SOL    HW130935   4.977   0.898   2.138
10012SOL    HW230936   5.016   0.870   2.294
10013SOL     OW30937   1.554   5.422   4.969
10013SOL    HW130938   1.615   5.344   4.956
10013SOL    HW230939   1.559   5.453   5.064
10014SOL     OW30940   0.925   6.501   2.561
10014SOL    HW130941   0.965   6.425   2.510
10014SOL    HW230942   0.866   6.555   2.501
10015SOL     OW30943   3.964   5.196   6.699
10015SOL    HW130944   3.992   5.241   6.784
10015SOL    HW230945   4.016   5.235   6.623
10016SOL     OW30946   1.705   0.819   4.427
10016SOL    HW130947   1.651   0.743   4.465
10016SOL    HW230948   1.756   0.787   4.348
10017SOL     OW30949   2.755   1.985   2.934
10017SOL    HW130950   2.780   1.985   3.031
10017SOL    HW230951   2.700   2.066   2.914
10018SOL     OW30952   6.944   4.386   5.489
10018SOL    HW130953   6.944   4.302   5.435
10018SOL    HW230954   6.883   4.376   5.567
10019SOL     OW30955   6.714   1.516   3.251
10019SOL    HW130956   6.704   1.438   3.189
10019SOL    HW230957   6.623   1.546   3.281
10020SOL     OW30958   6.839   1.141   1.796
10020SOL    HW130959   6.896   1.185   1.865
10020SOL    HW230960   6.896   1.117   1.717
10021SOL     OW30961   1.682   3.000   1.566
10021SOL    HW130962   1.624   3.072   1.604
10021SOL    HW230963   1.771   3.038   1.542
10022SOL     OW30964   2.031   6.112   6.827
10022SOL    HW130965   2.121   6.140   6.794
10022SOL    HW230966   1.965   6.184   6.805
10023SOL     OW30967   2.635   6.232   5.820
10023SOL    HW130968   2.715   6.215   5.763
10023SOL    HW230969   2.557   6.182   5.784
10024SOL     OW30970   1.565   5.039   2.969
10024SOL    HW130971   1.614   4.961   3.006
10024SOL    HW230972   1.497   5.008   2.903
10025SOL     OW30973   1.673   3.325   1.805
10025SOL    HW130974   1.604   3.314   1.876
10025SOL    HW230975   1.639   3.287   1.719
10026SOL     OW30976   5.152   1.399   2.778
10026SOL    HW130977   5.173   1.403   2.876
10026SOL    HW230978   5.147   1.303   2.749
10027SOL     OW30979   1.225   2.644   5.253
10027SOL    HW130980   1.134   2.671   5.221
10027SOL    HW230981   1.295   2.682   5.193
10028SOL     OW30982   3.844   0.785   1.084
10028SOL    HW130983   3.855   0.882   1.059
10028SOL    HW230984   3.876   0.771   1.177
10029SOL     OW30985   0.004   2.673   4.333
10029SOL    HW130986   6.957   2.643   4.268
10029SOL    HW230987   0.032   2.767   4.311
10030SOL     OW30988   2.749   0.082   4.728
10030SOL    HW130989   2.802   0.011   4.682
10030SOL    HW230990   2.791   0.171   4.713
10031SOL     OW30991   4.634   5.153   4.921
10031SOL    HW130992   4.722   5.116   4.951
10031SOL    HW230993   4.609   5.112   4.833
10032SOL     OW30994   3.530   6.885   5.749
10032SOL    HW130995   3.522   6.946   5.670
10032SOL    HW230996   3.587   6.806   5.725
10033SOL     OW30997   4.738   1.344   3.878
10033SOL    HW130998   4.817   1.311   3.826
10033SOL    HW230999   4.728   1.442   3.865
10034SOL     OW31000   2.197   0.925   3.866
10034SOL    HW131001   2.245   0.899   3.951
10034SOL    HW231002   2.130   0.996   3.887
10035SOL     OW31003   6.089   3.964   0.022
10035SOL    HW131004   6.110   3.957   6.947
10035SOL    HW231005   6.075   3.873   0.060
10036SOL     OW31006   6.335   0.880   6.809
10036SOL    HW131007   6.376   0.825   6.881
10036SOL    HW231008   6.404   0.901   6.740
10037SOL     OW31009   6.367   0.239   6.088
10037SOL    HW131010   6.438   0.307   6.072
10037SOL    HW231011   6.328   0.210   6.001
10038SOL     OW31012   4.277   6.644   6.474
10038SOL    HW131013   4.345   6.578   6.442
10038SOL    HW231014   4.207   6.657   6.404
10039SOL     OW31015   5.157   5.747   4.710
10039SOL    HW131016   5.148   5.843   4.681
10039SOL    HW231017   5.151   5.742   4.809
10040SOL     OW31018   4.046   6.032   0.391
10040SOL    HW131019   4.060   5.946   0.439
10040SOL    HW231020   3.980   6.088   0.441
10041SOL     OW31021   6.314   5.094   4.889
10041SOL    HW131022   6.360   5.159   4.828
10041SOL    HW231023   6.270   5.144   4.964
10042SOL     OW31024   0.623   0.993   5.132
10042SOL    HW131025   0.692   1.008   5.203
10042SOL    HW231026   0.649   0.913   5.078
10043SOL     OW31027   0.596   0.574   2.632
10043SOL    HW131028   0.671   0.609   2.688
10043SOL    HW231029   0.515   0.631   2.646
10044SOL     OW31030   2.572   1.753   4.331
10044SOL    HW131031   2.473   1.738   4.329
10044SOL    HW231032   2.591   1.837   4.381
10045SOL     OW31033   4.897   0.244   4.206
10045SOL    HW131034   4.936   0.159   4.241
10045SOL    HW231035   4.901   0.243   4.106
10046SOL     OW31036   0.146   1.322   1.524
10046SOL    HW131037   0.158   1.347   1.621
10046SOL    HW231038   0.049   1.328   1.501
10047SOL     OW31039   6.382   3.186   5.240
10047SOL    HW131040   6.322   3.147   5.170
10047SOL    HW231041   6.326   3.228   5.312
10048SOL     OW31042   3.215   1.850   1.626
10048SOL    HW131043   3.204   1.815   1.719
10048SOL    HW231044   3.302   1.819   1.589
10049SOL     OW31045   0.723   1.123   6.665
10049SOL    HW131046   0.739   1.222   6.661
10049SOL    HW231047   0.800   1.075   6.622
10050SOL     OW31048   5.765   3.000   4.860
10050SOL    HW131049   5.739   2.910   4.826
10050SOL    HW231050   5.683   3.047   4.894
10051SOL     OW31051   0.025   2.882   4.906
10051SOL    HW131052   6.973   2.928   4.955
10051SOL    HW231053   7.012   2.798   4.865
10052SOL     OW31054   2.068   2.542   2.322
10052SOL    HW131055   2.045   2.461   2.268
10052SOL    HW231056   1.989   2.602   2.326
10053SOL     OW31057   3.839   4.915   2.302
10053SOL    HW131058   3.781   4.888   2.379
10053SOL    HW231059   3.928   4.945   2.336
10054SOL     OW31060   4.492   5.993   6.231
10054SOL    HW131061   4.425   5.928   6.195
10054SOL    HW231062   4.462   6.027   6.320
10055SOL     OW31063   6.153   2.396   4.894
10055SOL    HW131064   6.086   2.352   4.835
10055SOL    HW231065   6.108   2.468   4.948
10056SOL     OW31066   6.018   5.155   0.953
10056SOL    HW131067   5.918   5.145   0.948
10056SOL    HW231068   6.043   5.249   0.930
10057SOL     OW31069   3.309   1.567   4.062
10057SOL    HW131070   3.268   1.476   4.056
10057SOL    HW231071   3.245   1.629   4.106
10058SOL     OW31072   0.000   4.000   5.016
10058SOL    HW131073   0.048   3.916   5.043
10058SOL    HW231074   0.067   4.067   4.985
10059SOL     OW31075   5.150   6.429   0.931
10059SOL    HW131076   5.189   6.365   0.997
10059SOL    HW231077   5.216   6.502   0.912
10060SOL     OW31078   2.358   1.772   2.605
10060SOL    HW131079   2.271   1.762   2.558
10060SOL    HW231080   2.372   1.867   2.631
10061SOL     OW31081   5.144   1.186   4.184
10061SOL    HW131082   5.194   1.273   4.177
10061SOL    HW231083   5.105   1.177   4.276
10062SOL     OW31084   6.309   6.865   5.033
10062SOL    HW131085   6.393   6.853   5.087
10062SOL    HW231086   6.305   6.795   4.962
10063SOL     OW31087   1.316   1.768   3.292
10063SOL    HW131088   1.377   1.847   3.297
10063SOL    HW231089   1.221   1.798   3.301
10064SOL     OW31090   5.587   5.505   5.771
10064SOL    HW131091   5.655   5.510   5.843
10064SOL    HW231092   5.560   5.410   5.756
10065SOL     OW31093   1.750   0.666   1.715
10065SOL    HW131094   1.764   0.575   1.753
10065SOL    HW231095   1.800   0.733   1.769
10066SOL     OW31096   1.455   0.933   4.177
10066SOL    HW131097   1.519   1.010   4.188
10066SOL    HW231098   1.456   0.903   4.082
10067SOL     OW31099   5.100   4.677   5.612
10067SOL    HW131100   5.034   4.609   5.581
10067SOL    HW231101   5.187   4.662   5.565
10068SOL     OW31102   5.163   2.840   3.766
10068SOL    HW131103   5.149   2.773   3.838
10068SOL    HW231104   5.224   2.801   3.696
10069SOL     OW31105   1.772   6.257   3.658
10069SOL    HW131106   1.797   6.284   3.751
10069SOL    HW231107   1.838   6.295   3.593
10070SOL     OW31108   0.559   6.808   5.056
10070SOL    HW131109   0.589   6.884   4.999
10070SOL    HW231110   0.548   6.726   5.000
10071SOL     OW31111   4.510   5.119   4.282
10071SOL    HW131112   4.504   5.192   4.350
10071SOL    HW231113   4.439   5.132   4.213
10072SOL     OW31114   1.119   6.569   4.343
10072SOL    HW131115   1.029   6.575   4.299
10072SOL    HW231116   1.190   6.558   4.273
10073SOL     OW31117   6.322   3.788   4.866
10073SOL    HW131118   6.375   3.841   4.932
10073SOL    HW231119   6.274   3.851   4.804
10074SOL     OW31120   0.476   0.562   5.773
10074SOL    HW131121   0.560   0.508   5.769
10074SOL    HW231122   0.398   0.502   5.757
10075SOL     OW31123   1.453   2.249   2.622
10075SOL    HW131124   1.525   2.302   2.667
10075SOL    HW231125   1.376   2.238   2.684
10076SOL     OW31126   5.855   0.177   3.958
10076SOL    HW131127   5.782   0.135   3.904
10076SOL    HW231128   5.940   0.174   3.905
10077SOL     OW31129   3.803   2.597   6.761
10077SOL    HW131130   3.817   2.567   6.667
10077SOL    HW231131   3.706   2.590   6.784
10078SOL     OW31132   6.671   6.604   3.970
10078SOL    HW131133   6.617   6.687   3.956
10078SOL    HW231134   6.676   6.583   4.068
10079SOL     OW31135   1.281   2.850   2.106
10079SOL    HW131136   1.374   2.840   2.139
10079SOL    HW231137   1.256   2.771   2.051
10080SOL     OW31138   3.296   2.078   6.495
10080SOL    HW131139   3.262   2.097   6.403
10080SOL    HW231140   3.317   2.164   6.542
10081SOL     OW31141   0.137   0.142   6.607
10081SOL    HW131142   0.149   0.206   6.682
10081SOL    HW231143   0.175   0.181   6.523
10082SOL     OW31144   0.096   3.006   2.450
10082SOL    HW131145   7.018   3.010   2.449
10082SOL    HW231146   0.130   2.998   2.357
10083SOL     OW31147   5.334   1.170   3.464
10083SOL    HW131148   5.331   1.269   3.449
10083SOL    HW231149   5.393   1.150   3.541
10084SOL     OW31150   3.872   0.784   6.213
10084SOL    HW131151   3.840   0.812   6.304
10084SOL    HW231152   3.907   0.864   6.164
10085SOL     OW31153   0.262   5.131   2.587
10085SOL    HW131154   0.340   5.140   2.526
10085SOL    HW231155   0.293   5.098   2.676
10086SOL     OW31156   5.857   5.323   2.424
10086SOL    HW131157   5.781   5.283   2.475
10086SOL    HW231158   5.880   5.264   2.347
10087SOL     OW31159   0.728   0.868   4.066
10087SOL    HW131160   0.771   0.801   4.127
10087SOL    HW231161   0.791   0.944   4.051
10088SOL     OW31162   6.845   6.965   6.331
10088SOL    HW131163   6.755   7.008   6.326
10088SOL    HW231164   6.895   7.001   6.411
10089SOL     OW31165   2.406   2.074   2.897
10089SOL    HW131166   2.428   2.012   2.822
10089SOL    HW231167   2.385   2.165   2.861
10090SOL     OW31168   0.322   4.746   1.051
10090SOL    HW131169   0.417   4.738   1.080
10090SOL    HW231170   0.290   4.840   1.064
10091SOL     OW31171   1.182   3.260   5.120
10091SOL    HW131172   1.147   3.227   5.208
10091SOL    HW231173   1.168   3.189   5.051
10092SOL     OW31174   1.511   3.564   5.170
10092SOL    HW131175   1.485   3.483   5.118
10092SOL    HW231176   1.495   3.549   5.268
10093SOL     OW31177   1.206   4.302   4.685
10093SOL    HW131178   1.223   4.397   4.658
10093SOL    HW231179   1.277   4.243   4.648
10094SOL     OW31180   2.779   6.672   1.868
10094SOL    HW131181   2.816   6.658   1.960
10094SOL    HW231182   2.842   6.635   1.800
10095SOL     OW31183   6.092   1.764   5.205
10095SOL    HW131184   6.129   1.752   5.113
10095SOL    HW231185   6.110   1.681   5.258
10096SOL     OW31186   6.319   4.844   2.835
10096SOL    HW131187   6.382   4.888   2.899
10096SOL    HW231188   6.370   4.804   2.759
10097SOL     OW31189   0.788   1.385   6.642
10097SOL    HW131190   0.885   1.383   6.615
10097SOL    HW231191   0.768   1.473   6.687
10098SOL     OW31192   2.134   6.884   5.472
10098SOL    HW131193   2.195   6.835   5.534
10098SOL    HW231194   2.041   6.885   5.510
10099SOL     OW31195   6.956   4.929   6.624
10099SOL    HW131196   6.858   4.913   6.613
10099SOL    HW231197   6.994   4.964   6.538
10100SOL     OW31198   5.353   6.852   4.676
10100SOL    HW131199   5.376   6.906   4.757
10100SOL    HW231200   5.366   6.755   4.695
10101SOL     OW31201   5.552   4.666   1.898
10101SOL    HW131202   5.488   4.736   1.930
10101SOL    HW231203   5.514   4.622   1.816
10102SOL     OW31204   2.265   0.457   2.759
10102SOL    HW131205   2.224   0.547   2.770
10102SOL    HW231206   2.210   0.403   2.695
10103SOL     OW31207   2.571   1.368   4.803
10103SOL    HW131208   2.609   1.280   4.775
10103SOL    HW231209   2.639   1.440   4.790
10104SOL     OW31210   1.296   3.513   4.847
10104SOL    HW131211   1.304   3.613   4.849
10104SOL    HW231212   1.367   3.473   4.904
10105SOL     OW31213   1.148   1.678   6.602
10105SOL    HW131214   1.128   1.581   6.617
10105SOL    HW231215   1.155   1.724   6.690
10106SOL     OW31216   5.132   5.179   0.902
10106SOL    HW131217   5.139   5.128   0.988
10106SOL    HW231218   5.222   5.214   0.877
10107SOL     OW31219   6.779   1.825   6.589
10107SOL    HW131220   6.868   1.800   6.550
10107SOL    HW231221   6.752   1.756   6.656
10108SOL     OW31222   6.630   6.014   6.822
10108SOL    HW131223   6.674   6.082   6.881
10108SOL    HW231224   6.539   6.047   6.797
10109SOL     OW31225   3.581   6.418   2.302
10109SOL    HW131226   3.596   6.341   2.363
10109SOL    HW231227   3.667   6.447   2.261
10110SOL     OW31228   3.987   6.579   5.090
10110SOL    HW131229   3.893   6.613   5.100
10110SOL    HW231230   4.004   6.557   4.995
10111SOL     OW31231   6.291   3.044   3.923
10111SOL    HW131232   6.350   3.118   3.955
10111SOL    HW231233   6.320   2.957   3.964
10112SOL     OW31234   5.723   3.982   4.927
10112SOL    HW131235   5.657   3.916   4.892
10112SOL    HW231236   5.804   3.934   4.960
10113SOL     OW31237   3.803   1.214   6.304
10113SOL    HW131238   3.847   1.161   6.232
10113SOL    HW231239   3.735   1.275   6.264
10114SOL     OW31240   5.451   0.271   1.074
10114SOL    HW131241   5.352   0.273   1.057
10114SOL    HW231242   5.467   0.265   1.172
10115SOL     OW31243   3.186   2.175   3.337
10115SOL    HW131244   3.247   2.198   3.261
10115SOL    HW231245   3.091   2.190   3.309
10116SOL     OW31246   0.837   6.475   0.199
10116SOL    HW131247   0.935   6.486   0.190
10116SOL    HW231248   0.791   6.562   0.181
10117SOL     OW31249   6.672   0.036   4.482
10117SOL    HW131250   6.577   0.013   4.501
10117SOL    HW231251   6.727   0.022   4.564
10118SOL     OW31252   6.954   5.353   3.038
10118SOL    HW131253   6.904   5.301   3.108
10118SOL    HW231254   0.030   5.344   3.054
10119SOL     OW31255   1.564   6.517   4.993
10119SOL    HW131256   1.542   6.537   4.898
10119SOL    HW231257   1.663   6.524   5.007
10120SOL     OW31258   0.933   3.526   4.309
10120SOL    HW131259   0.949   3.624   4.303
10120SOL    HW231260   0.928   3.499   4.406
10121SOL     OW31261   6.461   4.949   5.557
10121SOL    HW131262   6.361   4.949   5.565
10121SOL    HW231263   6.499   5.013   5.624
10122SOL     OW31264   5.227   2.919   0.531
10122SOL    HW131265   5.167   2.926   0.611
10122SOL    HW231266   5.180   2.955   0.451
10123SOL     OW31267   6.646   6.446   0.361
10123SOL    HW131268   6.699   6.525   0.393
10123SOL    HW231269   6.566   6.434   0.420
10124SOL     OW31270   1.590   3.655   6.409
10124SOL    HW131271   1.560   3.721   6.478
10124SOL    HW231272   1.525   3.580   6.405
10125SOL     OW31273   1.449   0.882   2.642
10125SOL    HW131274   1.459   0.856   2.738
10125SOL    HW231275   1.476   0.978   2.630
10126SOL     OW31276   0.270   6.690   6.338
10126SOL    HW131277   0.203   6.635   6.388
10126SOL    HW231278   0.267   6.784   6.371
10127SOL     OW31279   2.888   4.853   5.961
10127SOL    HW131280   2.820   4.780   5.971
10127SOL    HW231281   2.980   4.814   5.968
10128SOL     OW31282   1.002   1.784   1.460
10128SOL    HW131283   0.910   1.764   1.427
10128SOL    HW231284   0.999   1.805   1.558
10129SOL     OW31285   4.834   2.744   4.396
10129SOL    HW131286   4.769   2.771   4.467
10129SOL    HW231287   4.892   2.670   4.430
10130SOL     OW31288   2.300   4.221   2.349
10130SOL    HW131289   2.348   4.139   2.382
10130SOL    HW231290   2.210   4.226   2.392
10131SOL     OW31291   0.261   1.288   3.441
10131SOL    HW131292   0.292   1.375   3.481
10131SOL    HW231293   0.285   1.213   3.503
10132SOL     OW31294   2.167   6.781   3.508
10132SOL    HW131295   2.131   6.815   3.595
10132SOL    HW231296   2.097   6.788   3.438
10133SOL     OW31297   4.581   6.106   2.097
10133SOL    HW131298   4.593   6.183   2.159
10133SOL    HW231299   4.635   6.121   2.015
10134SOL     OW31300   6.929   0.219   3.693
10134SOL    HW131301   6.984   0.263   3.764
10134SOL    HW231302   6.936   0.271   3.608
10135SOL     OW31303   5.445   3.459   3.229
10135SOL    HW131304   5.458   3.359   3.224
10135SOL    HW231305   5.368   3.479   3.289
10136SOL     OW31306   5.479   0.510   2.459
10136SOL    HW131307   5.566   0.557   2.440
10136SOL    HW231308   5.472   0.492   2.557
10137SOL     OW31309   6.409   4.830   4.060
10137SOL    HW131310   6.459   4.774   3.994
10137SOL    HW231311   6.349   4.893   4.012
10138SOL     OW31312   4.524   2.367   0.961
10138SOL    HW131313   4.595   2.436   0.978
10138SOL    HW231314   4.441   2.412   0.930
10139SOL     OW31315   3.757   3.371   3.092
10139SOL    HW131316   3.729   3.423   3.172
10139SOL    HW231317   3.731   3.275   3.104
10140SOL     OW31318   6.671   5.980   5.781
10140SOL    HW131319   6.638   5.891   5.811
10140SOL    HW231320   6.638   5.999   5.688
10141SOL     OW31321   2.827   1.244   4.005
10141SOL    HW131322   2.755   1.244   4.075
10141SOL    HW231323   2.798   1.300   3.928
10142SOL     OW31324   6.278   6.983   4.769
10142SOL    HW131325   6.306   6.895   4.808
10142SOL    HW231326   6.267   0.027   4.842
10143SOL     OW31327   4.533   0.543   0.725
10143SOL    HW131328   4.468   0.474   0.757
10143SOL    HW231329   4.529   0.622   0.786
10144SOL     OW31330   4.442   6.891   6.414
10144SOL    HW131331   4.373   6.822   6.392
10144SOL    HW231332   4.410   6.947   6.490
10145SOL     OW31333   4.059   5.867   6.246
10145SOL    HW131334   4.156   5.845   6.231
10145SOL    HW231335   4.033   5.943   6.187
10146SOL     OW31336   3.892   4.962   4.958
10146SOL    HW131337   3.812   4.912   4.993
10146SOL    HW231338   3.909   5.041   5.016
10147SOL     OW31339   5.031   4.691   4.816
10147SOL    HW131340   5.022   4.637   4.732
10147SOL    HW231341   4.956   4.757   4.821
10148SOL     OW31342   5.950   5.069   6.698
10148SOL    HW131343   5.946   5.144   6.764
10148SOL    HW231344   5.981   4.986   6.744
10149SOL     OW31345   5.377   1.711   1.191
10149SOL    HW131346   5.310   1.784   1.180
10149SOL    HW231347   5.429   1.726   1.275
10150SOL     OW31348   4.603   3.559   0.590
10150SOL    HW131349   4.633   3.603   0.505
10150SOL    HW231350   4.616   3.621   0.667
10151SOL     OW31351   0.705   6.400   6.857
10151SOL    HW131352   0.634   6.409   6.787
10151SOL    HW231353   0.721   6.303   6.876
10152SOL     OW31354   1.344   6.234   4.642
10152SOL    HW131355   1.258   6.284   4.654
10152SOL    HW231356   1.420   6.298   4.646
10153SOL     OW31357   5.069   6.041   4.189
10153SOL    HW131358   4.997   5.978   4.217
10153SOL    HW231359   5.156   6.013   4.230
10154SOL     OW31360   6.098   0.121   4.937
10154SOL    HW131361   6.043   0.068   5.000
10154SOL    HW231362   6.052   0.127   4.849
10155SOL     OW31363   4.112   2.121   5.547
10155SOL    HW131364   4.171   2.041   5.553
10155SOL    HW231365   4.038   2.114   5.614
10156SOL     OW31366   6.383   0.692   2.287
10156SOL    HW131367   6.423   0.655   2.371
10156SOL    HW231368   6.440   0.765   2.252
10157SOL     OW31369   6.233   3.110   6.221
10157SOL    HW131370   6.257   3.013   6.233
10157SOL    HW231371   6.245   3.158   6.307
10158SOL     OW31372   5.117   3.566   0.548
10158SOL    HW131373   5.151   3.620   0.471
10158SOL    HW231374   5.068   3.626   0.611
10159SOL     OW31375   2.852   3.545   6.231
10159SOL    HW131376   2.906   3.545   6.315
10159SOL    HW231377   2.875   3.465   6.176
10160SOL     OW31378   2.001   3.356   2.435
10160SOL    HW131379   1.952   3.276   2.398
10160SOL    HW231380   2.053   3.328   2.516
10161SOL     OW31381   3.337   3.557   6.646
10161SOL    HW131382   3.294   3.641   6.679
10161SOL    HW231383   3.387   3.577   6.562
10162SOL     OW31384   2.944   4.903   0.562
10162SOL    HW131385   2.961   4.999   0.583
10162SOL    HW231386   3.031   4.857   0.542
10163SOL     OW31387   5.188   5.557   6.553
10163SOL    HW131388   5.287   5.551   6.537
10163SOL    HW231389   5.143   5.592   6.471
10164SOL     OW31390   5.593   3.151   4.584
10164SOL    HW131391   5.530   3.081   4.619
10164SOL    HW231392   5.611   3.219   4.655
10165SOL     OW31393   0.569   1.371   3.544
10165SOL    HW131394   0.494   1.435   3.560
10165SOL    HW231395   0.609   1.343   3.631
10166SOL     OW31396   3.404   1.302   2.601
10166SOL    HW131397   3.445   1.376   2.654
10166SOL    HW231398   3.343   1.339   2.532
10167SOL     OW31399   3.542   2.332   6.420
10167SOL    HW131400   3.639   2.337   6.443
10167SOL    HW231401   3.490   2.306   6.502
10168SOL     OW31402   6.107   4.223   5.352
10168SOL    HW131403   6.015   4.261   5.349
10168SOL    HW231404   6.106   4.129   5.318
10169SOL     OW31405   6.133   4.047   2.966
10169SOL    HW131406   6.076   4.129   2.978
10169SOL    HW231407   6.078   3.966   2.988
10170SOL     OW31408   1.188   4.648   6.078
10170SOL    HW131409   1.266   4.586   6.072
10170SOL    HW231410   1.218   4.741   6.057
10171SOL     OW31411   6.409   3.470   5.528
10171SOL    HW131412   6.344   3.432   5.462
10171SOL    HW231413   6.427   3.403   5.600
10172SOL     OW31414   6.460   6.761   4.378
10172SOL    HW131415   6.390   6.793   4.442
10172SOL    HW231416   6.457   6.817   4.295
10173SOL     OW31417   1.005   2.712   1.244
10173SOL    HW131418   0.928   2.662   1.283
10173SOL    HW231419   1.007   2.805   1.281
10174SOL     OW31420   5.239   5.310   2.488
10174SOL    HW131421   5.164   5.245   2.495
10174SOL    HW231422   5.317   5.266   2.443
10175SOL     OW31423   6.584   2.568   3.663
10175SOL    HW131424   6.520   2.522   3.724
10175SOL    HW231425   6.586   2.521   3.575
10176SOL     OW31426   1.523   3.351   5.756
10176SOL    HW131427   1.553   3.257   5.737
10176SOL    HW231428   1.597   3.414   5.732
10177SOL     OW31429   1.907   1.346   0.174
10177SOL    HW131430   1.818   1.374   0.208
10177SOL    HW231431   1.975   1.357   0.247
10178SOL     OW31432   0.210   2.089   5.213
10178SOL    HW131433   0.142   2.071   5.142
10178SOL    HW231434   0.302   2.085   5.173
10179SOL     OW31435   0.618   1.844   5.939
10179SOL    HW131436   0.715   1.871   5.932
10179SOL    HW231437   0.605   1.789   6.021
10180SOL     OW31438   3.483   0.491   0.100
10180SOL    HW131439   3.558   0.551   0.127
10180SOL    HW231440   3.516   0.396   0.096
10181SOL     OW31441   5.284   3.140   1.914
10181SOL    HW131442   5.384   3.147   1.904
10181SOL    HW231443   5.240   3.194   1.842
10182SOL     OW31444   5.590   0.792   1.878
10182SOL    HW131445   5.626   0.884   1.862
10182SOL    HW231446   5.663   0.734   1.915
10183SOL     OW31447   0.273   2.097   6.474
10183SOL    HW131448   0.215   2.126   6.551
10183SOL    HW231449   0.325   2.016   6.501
10184SOL     OW31450   3.743   0.904   6.723
10184SOL    HW131451   3.832   0.925   6.762
10184SOL    HW231452   3.677   0.887   6.796
10185SOL     OW31453   5.481   5.719   1.755
10185SOL    HW131454   5.383   5.730   1.739
10185SOL    HW231455   5.498   5.630   1.797
10186SOL     OW31456   5.909   3.652   3.389
10186SOL    HW131457   5.877   3.598   3.311
10186SOL    HW231458   5.853   3.734   3.398
10187SOL     OW31459   0.857   2.832   1.012
10187SOL    HW131460   0.818   2.918   1.045
10187SOL    HW231461   0.928   2.801   1.075
10188SOL     OW31462   3.466   5.307   0.628
10188SOL    HW131463   3.405   5.255   0.688
10188SOL    HW231464   3.481   5.256   0.543
10189SOL     OW31465   1.194   0.540   6.106
10189SOL    HW131466   1.127   0.588   6.050
10189SOL    HW231467   1.159   0.450   6.130
10190SOL     OW31468   4.810   3.204   1.563
10190SOL    HW131469   4.841   3.170   1.652
10190SOL    HW231470   4.729   3.152   1.534
10191SOL     OW31471   5.190   5.076   5.988
10191SOL    HW131472   5.191   4.986   5.945
10191SOL    HW231473   5.096   5.102   6.009
10192SOL     OW31474   4.828   1.833   5.944
10192SOL    HW131475   4.787   1.815   6.033
10192SOL    HW231476   4.926   1.849   5.954
10193SOL     OW31477   4.014   3.647   1.727
10193SOL    HW131478   4.009   3.557   1.683
10193SOL    HW231479   4.063   3.639   1.813
10194SOL     OW31480   5.878   4.625   4.880
10194SOL    HW131481   5.919   4.547   4.927
10194SOL    HW231482   5.817   4.673   4.942
10195SOL     OW31483   6.049   5.003   1.189
10195SOL    HW131484   6.016   5.036   1.101
10195SOL    HW231485   6.127   4.943   1.176
10196SOL     OW31486   4.412   1.696   3.799
10196SOL    HW131487   4.404   1.795   3.808
10196SOL    HW231488   4.323   1.653   3.814
10197SOL     OW31489   6.586   2.133   5.100
10197SOL    HW131490   6.645   2.072   5.152
10197SOL    HW231491   6.529   2.186   5.163
10198SOL     OW31492   3.278   0.697   1.634
10198SOL    HW131493   3.317   0.606   1.646
10198SOL    HW231494   3.202   0.710   1.698
10199SOL     OW31495   2.492   3.001   5.953
10199SOL    HW131496   2.460   2.955   6.036
10199SOL    HW231497   2.515   2.932   5.884
10200SOL     OW31498   5.090   1.596   1.004
10200SOL    HW131499   5.040   1.562   1.083
10200SOL    HW231500   5.028   1.651   0.947
10201SOL     OW31501   1.450   4.139   0.782
10201SOL    HW131502   1.452   4.058   0.724
10201SOL    HW231503   1.391   4.208   0.741
10202SOL     OW31504   3.892   3.052   6.967
10202SOL    HW131505   3.934   2.990   0.011
10202SOL    HW231506   3.858   2.999   6.889
10203SOL     OW31507   6.247   3.112   3.642
10203SOL    HW131508   6.239   3.074   3.734
10203SOL    HW231509   6.248   3.212   3.646
10204SOL     OW31510   5.166   6.675   6.810
10204SOL    HW131511   5.172   6.606   6.738
10204SOL    HW231512   5.107   6.642   6.883
10205SOL     OW31513   1.701   1.073   0.981
10205SOL    HW131514   1.714   1.034   1.072
10205SOL    HW231515   1.630   1.023   0.932
10206SOL     OW31516   0.028   1.220   6.553
10206SOL    HW131517   0.062   1.148   6.614
10206SOL    HW231518   0.009   1.181   6.463
10207SOL     OW31519   1.384   1.822   6.880
10207SOL    HW131520   1.397   1.850   6.785
10207SOL    HW231521   1.449   1.871   6.938
10208SOL     OW31522   5.900   4.802   3.979
10208SOL    HW131523   5.849   4.881   4.015
10208SOL    HW231524   5.918   4.738   4.053
10209SOL     OW31525   6.323   6.881   6.005
10209SOL    HW131526   6.414   6.922   6.007
10209SOL    HW231527   6.307   6.831   6.091
10210SOL     OW31528   4.869   6.454   1.828
10210SOL    HW131529   4.909   6.364   1.847
10210SOL    HW231530   4.939   6.524   1.838
10211SOL     OW31531   3.936   6.422   4.380
10211SOL    HW131532   4.001   6.497   4.362
10211SOL    HW231533   3.903   6.386   4.293
10212SOL     OW31534   1.033   0.330   5.193
10212SOL    HW131535   0.986   0.257   5.242
10212SOL    HW231536   0.968   0.403   5.171
10213SOL     OW31537   4.679   2.874   1.423
10213SOL    HW131538   4.638   2.965   1.420
10213SOL    HW231539   4.701   2.850   1.518
10214SOL     OW31540   1.163   1.595   1.682
10214SOL    HW131541   1.137   1.523   1.746
10214SOL    HW231542   1.084   1.654   1.664
10215SOL     OW31543   3.942   2.992   3.713
10215SOL    HW131544   3.879   2.916   3.698
10215SOL    HW231545   3.978   2.988   3.806
10216SOL     OW31546   6.598   0.707   0.688
10216SOL    HW131547   6.665   0.644   0.646
10216SOL    HW231548   6.644   0.760   0.760
10217SOL     OW31549   2.819   1.227   3.070
10217SOL    HW131550   2.752   1.163   3.033
10217SOL    HW231551   2.911   1.193   3.051
10218SOL     OW31552   1.271   2.028   2.194
10218SOL    HW131553   1.275   1.981   2.106
10218SOL    HW231554   1.251   2.125   2.180
10219SOL     OW31555   6.874   2.027   2.523
10219SOL    HW131556   6.860   1.941   2.573
10219SOL    HW231557   6.940   2.084   2.572
10220SOL     OW31558   4.219   2.501   1.428
10220SOL    HW131559   4.268   2.585   1.403
10220SOL    HW231560   4.125   2.506   1.395
10221SOL     OW31561   0.511   5.666   3.148
10221SOL    HW131562   0.553   5.588   3.103
10221SOL    HW231563   0.572   5.701   3.219
10222SOL     OW31564   2.896   3.156   5.202
10222SOL    HW131565   2.796   3.165   5.198
10222SOL    HW231566   2.934   3.237   5.248
10223SOL     OW31567   0.787   4.357   1.102
10223SOL    HW131568   0.868   4.349   1.043
10223SOL    HW231569   0.813   4.395   1.190
10224SOL     OW31570   6.637   2.833   3.779
10224SOL    HW131571   6.577   2.836   3.860
10224SOL    HW231572   6.636   2.740   3.742
10225SOL     OW31573   2.201   4.916   5.629
10225SOL    HW131574   2.132   4.850   5.600
10225SOL    HW231575   2.185   4.940   5.725
10226SOL     OW31576   3.150   1.087   6.953
10226SOL    HW131577   3.204   1.004   6.938
10226SOL    HW231578   3.083   1.070   0.003
10227SOL     OW31579   4.931   4.015   0.232
10227SOL    HW131580   4.906   4.099   0.184
10227SOL    HW231581   5.027   4.019   0.259
10228SOL     OW31582   6.566   0.087   0.954
10228SOL    HW131583   6.545   0.147   1.032
10228SOL    HW231584   6.504   0.010   0.953
10229SOL     OW31585   1.129   2.621   4.858
10229SOL    HW131586   1.119   2.683   4.935
10229SOL    HW231587   1.147   2.528   4.892
10230SOL     OW31588   6.113   5.636   2.923
10230SOL    HW131589   6.174   5.640   3.003
10230SOL    HW231590   6.026   5.596   2.950
10231SOL     OW31591   1.287   5.448   5.009
10231SOL    HW131592   1.381   5.452   4.976
10231SOL    HW231593   1.238   5.375   4.960
10232SOL     OW31594   2.605   0.835   3.366
10232SOL    HW131595   2.601   0.794   3.275
10232SOL    HW231596   2.667   0.914   3.364
10233SOL     OW31597   4.012   4.002   5.231
10233SOL    HW131598   3.924   3.954   5.235
10233SOL    HW231599   4.071   3.958   5.165
10234SOL     OW31600   6.245   0.059   1.141
10234SOL    HW131601   6.158   0.009   1.148
10234SOL    HW231602   6.312   0.002   1.094
10235SOL     OW31603   1.798   2.180   1.982
10235SOL    HW131604   1.885   2.131   1.977
10235SOL    HW231605   1.724   2.114   1.997
10236SOL     OW31606   2.433   6.602   0.243
10236SOL    HW131607   2.525   6.587   0.280
10236SOL    HW231608   2.436   6.592   0.143
10237SOL     OW31609   6.672   3.585   0.215
10237SOL    HW131610   6.768   3.614   0.213
10237SOL    HW231611   6.636   3.594   0.307
10238SOL     OW31612   4.191   4.584   1.449
10238SOL    HW131613   4.212   4.526   1.528
10238SOL    HW231614   4.271   4.640   1.426
10239SOL     OW31615   1.162   2.856   5.022
10239SOL    HW131616   1.252   2.815   5.037
10239SOL    HW231617   1.173   2.943   4.974
10240SOL     OW31618   2.849   6.191   2.365
10240SOL    HW131619   2.892   6.101   2.371
10240SOL    HW231620   2.895   6.245   2.295
10241SOL     OW31621   5.405   1.248   2.068
10241SOL    HW131622   5.369   1.307   1.996
10241SOL    HW231623   5.340   1.243   2.144
10242SOL     OW31624   6.772   1.596   0.473
10242SOL    HW131625   6.792   1.594   0.571
10242SOL    HW231626   6.676   1.624   0.460
10243SOL     OW31627   2.680   4.414   1.476
10243SOL    HW131628   2.657   4.320   1.503
10243SOL    HW231629   2.607   4.476   1.506
10244SOL     OW31630   2.337   3.950   0.522
10244SOL    HW131631   2.308   4.045   0.531
10244SOL    HW231632   2.326   3.921   0.426
10245SOL     OW31633   3.496   4.359   1.063
10245SOL    HW131634   3.583   4.376   1.016
10245SOL    HW231635   3.514   4.320   1.153
10246SOL     OW31636   2.939   3.633   4.483
10246SOL    HW131637   2.912   3.666   4.573
10246SOL    HW231638   3.028   3.672   4.458
10247SOL     OW31639   0.566   4.133   6.361
10247SOL    HW131640   0.582   4.231   6.364
10247SOL    HW231641   0.495   4.113   6.293
10248SOL     OW31642   1.024   0.647   2.558
10248SOL    HW131643   1.037   0.727   2.500
10248SOL    HW231644   1.110   0.595   2.563
10249SOL     OW31645   2.446   4.793   0.030
10249SOL    HW131646   2.496   4.869   0.071
10249SOL    HW231647   2.473   4.708   0.074
10250SOL     OW31648   6.794   3.674   0.831
10250SOL    HW131649   6.864   3.745   0.831
10250SOL    HW231650   6.794   3.628   0.742
10251SOL     OW31651   2.082   1.266   4.337
10251SOL    HW131652   2.072   1.167   4.348
10251SOL    HW231653   2.131   1.285   4.253
10252SOL     OW31654   4.289   3.676   6.169
10252SOL    HW131655   4.286   3.583   6.205
10252SOL    HW231656   4.297   3.741   6.245
10253SOL     OW31657   3.446   6.460   0.748
10253SOL    HW131658   3.476   6.397   0.677
10253SOL    HW231659   3.351   6.486   0.732
10254SOL     OW31660   4.469   1.551   5.556
10254SOL    HW131661   4.380   1.524   5.522
10254SOL    HW231662   4.463   1.641   5.598
10255SOL     OW31663   2.353   6.938   0.778
10255SOL    HW131664   2.309   7.006   0.836
10255SOL    HW231665   2.392   6.865   0.835
10256SOL     OW31666   4.694   0.897   2.396
10256SOL    HW131667   4.634   0.952   2.338
10256SOL    HW231668   4.789   0.905   2.363
10257SOL     OW31669   2.056   5.117   4.171
10257SOL    HW131670   2.140   5.121   4.225
10257SOL    HW231671   2.069   5.051   4.096
10258SOL     OW31672   3.882   2.104   3.722
10258SOL    HW131673   3.809   2.040   3.748
10258SOL    HW231674   3.924   2.141   3.805
10259SOL     OW31675   0.851   4.121   3.391
10259SOL    HW131676   0.787   4.174   3.447
10259SOL    HW231677   0.829   4.024   3.397
10260SOL     OW31678   0.726   1.293   3.750
10260SOL    HW131679   0.809   1.252   3.711
10260SOL    HW231680   0.745   1.328   3.841
10261SOL     OW31681   6.767   4.754   0.470
10261SOL    HW131682   6.684   4.743   0.416
10261SOL    HW231683   6.814   4.667   0.477
10262SOL     OW31684   3.412   6.809   6.450
10262SOL    HW131685   3.502   6.796   6.409
10262SOL    HW231686   3.343   6.765   6.392
10263SOL     OW31687   5.977   0.514   0.359
10263SOL    HW131688   5.976   0.415   0.374
10263SOL    HW231689   5.915   0.537   0.284
10264SOL     OW31690   6.102   5.347   6.501
10264SOL    HW131691   6.143   5.347   6.592
10264SOL    HW231692   6.003   5.362   6.509
10265SOL     OW31693   3.287   2.326   0.039
10265SOL    HW131694   3.322   2.243   0.081
10265SOL    HW231695   3.229   2.375   0.105
10266SOL     OW31696   3.831   3.142   2.688
10266SOL    HW131697   3.740   3.182   2.701
10266SOL    HW231698   3.840   3.063   2.748
10267SOL     OW31699   5.326   1.107   0.866
10267SOL    HW131700   5.407   1.078   0.916
10267SOL    HW231701   5.353   1.152   0.781
10268SOL     OW31702   5.593   6.180   2.081
10268SOL    HW131703   5.506   6.223   2.057
10268SOL    HW231704   5.646   6.165   1.998
10269SOL     OW31705   1.313   2.529   6.213
10269SOL    HW131706   1.349   2.615   6.177
10269SOL    HW231707   1.388   2.465   6.227
10270SOL     OW31708   3.094   5.578   3.105
10270SOL    HW131709   3.153   5.570   3.185
10270SOL    HW231710   3.147   5.554   3.023
10271SOL     OW31711   2.868   3.188   0.248
10271SOL    HW131712   2.827   3.187   0.339
10271SOL    HW231713   2.953   3.241   0.249
10272SOL     OW31714   1.146   0.334   3.887
10272SOL    HW131715   1.129   0.430   3.905
10272SOL    HW231716   1.059   0.285   3.885
10273SOL     OW31717   2.947   5.236   4.401
10273SOL    HW131718   3.017   5.226   4.471
10273SOL    HW231719   2.864   5.187   4.430
10274SOL     OW31720   0.973   4.536   5.979
10274SOL    HW131721   1.048   4.582   6.027
10274SOL    HW231722   0.986   4.546   5.881
10275SOL     OW31723   0.067   0.566   2.016
10275SOL    HW131724   7.017   0.559   1.948
10275SOL    HW231725   0.109   0.476   2.031
10276SOL     OW31726   4.317   5.833   6.008
10276SOL    HW131727   4.333   5.780   6.092
10276SOL    HW231728   4.282   5.772   5.937
10277SOL     OW31729   1.201   6.847   4.859
10277SOL    HW131730   1.267   6.841   4.934
10277SOL    HW231731   1.241   6.896   4.782
10278SOL     OW31732   1.020   0.605   3.922
10278SOL    HW131733   0.966   0.557   3.992
10278SOL    HW231734   1.049   0.694   3.958
10279SOL     OW31735   2.496   5.359   4.186
10279SOL    HW131736   2.539   5.379   4.274
10279SOL    HW231737   2.565   5.362   4.114
10280SOL     OW31738   5.373   3.673   0.150
10280SOL    HW131739   5.408   3.724   0.071
10280SOL    HW231740   5.298   3.613   0.121
10281SOL     OW31741   6.951   2.159   3.680
10281SOL    HW131742   0.020   2.197   3.670
10281SOL    HW231743   6.910   2.143   3.590
10282SOL     OW31744   5.479   3.206   3.954
10282SOL    HW131745   5.406   3.246   3.898
10282SOL    HW231746   5.566   3.212   3.905
10283SOL     OW31747   1.166   2.706   0.985
10283SOL    HW131748   1.104   2.633   1.014
10283SOL    HW231749   1.195   2.758   1.065
10284SOL     OW31750   6.178   1.886   4.519
10284SOL    HW131751   6.126   1.819   4.467
10284SOL    HW231752   6.222   1.842   4.597
10285SOL     OW31753   3.968   6.573   3.161
10285SOL    HW131754   4.025   6.646   3.197
10285SOL    HW231755   4.024   6.509   3.108
10286SOL     OW31756   3.040   0.472   3.785
10286SOL    HW131757   3.018   0.550   3.728
10286SOL    HW231758   3.136   0.476   3.811
10287SOL     OW31759   2.139   5.808   2.519
10287SOL    HW131760   2.224   5.763   2.545
10287SOL    HW231761   2.142   5.904   2.546
10288SOL     OW31762   3.865   6.902   4.226
10288SOL    HW131763   3.860   6.846   4.143
10288SOL    HW231764   3.820   6.990   4.210
10289SOL     OW31765   2.688   6.065   0.679
10289SOL    HW131766   2.729   5.975   0.659
10289SOL    HW231767   2.612   6.081   0.617
10290SOL     OW31768   3.320   2.865   2.772
10290SOL    HW131769   3.339   2.906   2.683
10290SOL    HW231770   3.342   2.767   2.770
10291SOL     OW31771   3.750   1.753   3.184
10291SOL    HW131772   3.807   1.809   3.245
10291SOL    HW231773   3.755   1.790   3.091
10292SOL     OW31774   0.619   1.549   5.705
10292SOL    HW131775   0.684   1.494   5.653
10292SOL    HW231776   0.648   1.554   5.800
10293SOL     OW31777   0.518   3.391   3.676
10293SOL    HW131778   0.613   3.394   3.644
10293SOL    HW231779   0.508   3.448   3.757
10294SOL     OW31780   4.546   1.500   2.883
10294SOL    HW131781   4.614   1.572   2.896
10294SOL    HW231782   4.490   1.491   2.965
10295SOL     OW31783   1.135   3.280   5.384
10295SOL    HW131784   1.219   3.331   5.404
10295SOL    HW231785   1.113   3.220   5.461
10296SOL     OW31786   5.840   1.863   5.846
10296SOL    HW131787   5.847   1.777   5.795
10296SOL    HW231788   5.767   1.918   5.807
10297SOL     OW31789   2.526   1.366   6.803
10297SOL    HW131790   2.618   1.404   6.819
10297SOL    HW231791   2.472   1.433   6.751
10298SOL     OW31792   1.510   4.549   1.502
10298SOL    HW131793   1.590   4.561   1.560
10298SOL    HW231794   1.534   4.491   1.424
10299SOL     OW31795   3.804   5.743   2.603
10299SOL    HW131796   3.738   5.681   2.561
10299SOL    HW231797   3.890   5.694   2.621
10300SOL     OW31798   1.604   4.270   1.734
10300SOL    HW131799   1.531   4.238   1.795
10300SOL    HW231800   1.609   4.209   1.655
10301SOL     OW31801   4.402   1.960   5.475
10301SOL    HW131802   4.332   1.899   5.438
10301SOL    HW231803   4.410   1.945   5.574
10302SOL     OW31804   1.804   6.020   4.716
10302SOL    HW131805   1.859   5.988   4.639
10302SOL    HW231806   1.841   6.105   4.751
10303SOL     OW31807   1.157   5.343   3.494
10303SOL    HW131808   1.092   5.322   3.567
10303SOL    HW231809   1.153   5.273   3.424
10304SOL     OW31810   5.662   0.288   0.913
10304SOL    HW131811   5.732   0.336   0.966
10304SOL    HW231812   5.575   0.292   0.963
10305SOL     OW31813   2.396   4.744   5.756
10305SOL    HW131814   2.449   4.691   5.690
10305SOL    HW231815   2.333   4.805   5.707
10306SOL     OW31816   5.839   5.952   0.340
10306SOL    HW131817   5.848   6.027   0.274
10306SOL    HW231818   5.923   5.945   0.394
10307SOL     OW31819   2.999   1.725   4.709
10307SOL    HW131820   3.033   1.645   4.659
10307SOL    HW231821   2.981   1.799   4.645
10308SOL     OW31822   1.786   4.045   1.852
10308SOL    HW131823   1.862   3.981   1.845
10308SOL    HW231824   1.720   4.027   1.779
10309SOL     OW31825   6.676   1.629   6.769
10309SOL    HW131826   6.662   1.537   6.730
10309SOL    HW231827   6.669   1.624   6.868
10310SOL     OW31828   2.889   4.026   0.471
10310SOL    HW131829   2.913   4.123   0.463
10310SOL    HW231830   2.856   4.007   0.563
10311SOL     OW31831   6.525   5.964   0.391
10311SOL    HW131832   6.592   5.906   0.438
10311SOL    HW231833   6.493   5.918   0.308
10312SOL     OW31834   5.040   6.573   2.208
10312SOL    HW131835   5.094   6.550   2.289
10312SOL    HW231836   4.989   6.658   2.225
10313SOL     OW31837   3.581   5.698   2.108
10313SOL    HW131838   3.508   5.725   2.172
10313SOL    HW231839   3.639   5.629   2.151
10314SOL     OW31840   6.543   0.088   0.264
10314SOL    HW131841   6.566   0.180   0.232
10314SOL    HW231842   6.451   0.088   0.303
10315SOL     OW31843   5.794   6.388   4.523
10315SOL    HW131844   5.696   6.374   4.542
10315SOL    HW231845   5.824   6.320   4.456
10316SOL     OW31846   6.532   2.812   6.192
10316SOL    HW131847   6.593   2.738   6.222
10316SOL    HW231848   6.580   2.899   6.198
10317SOL     OW31849   4.106   6.310   6.440
10317SOL    HW131850   4.033   6.247   6.465
10317SOL    HW231851   4.119   6.308   6.341
10318SOL     OW31852   4.889   0.990   6.508
10318SOL    HW131853   4.872   0.968   6.604
10318SOL    HW231854   4.896   1.090   6.497
10319SOL     OW31855   1.006   3.718   5.450
10319SOL    HW131856   0.944   3.752   5.520
10319SOL    HW231857   1.031   3.623   5.471
10320SOL     OW31858   0.694   6.278   2.970
10320SOL    HW131859   0.668   6.191   2.927
10320SOL    HW231860   0.752   6.330   2.908
10321SOL     OW31861   5.900   1.775   1.931
10321SOL    HW131862   5.940   1.693   1.890
10321SOL    HW231863   5.807   1.755   1.963
10322SOL     OW31864   4.427   4.802   4.281
10322SOL    HW131865   4.512   4.828   4.235
10322SOL    HW231866   4.372   4.883   4.299
10323SOL     OW31867   5.874   4.994   5.060
10323SOL    HW131868   5.827   5.055   5.124
10323SOL    HW231869   5.914   5.048   4.986
10324SOL     OW31870   3.844   2.981   2.457
10324SOL    HW131871   3.869   3.000   2.552
10324SOL    HW231872   3.906   3.031   2.396
10325SOL     OW31873   6.911   4.288   2.045
10325SOL    HW131874   6.839   4.286   2.115
10325SOL    HW231875   6.919   4.197   2.003
10326SOL     OW31876   5.868   4.056   6.406
10326SOL    HW131877   5.915   4.134   6.448
10326SOL    HW231878   5.818   4.087   6.325
10327SOL     OW31879   2.437   2.793   1.534
10327SOL    HW131880   2.511   2.824   1.474
10327SOL    HW231881   2.388   2.872   1.571
10328SOL     OW31882   6.376   3.067   0.351
10328SOL    HW131883   6.408   2.989   0.298
10328SOL    HW231884   6.434   3.077   0.432
10329SOL     OW31885   2.254   0.839   3.464
10329SOL    HW131886   2.254   0.939   3.469
10329SOL    HW231887   2.349   0.806   3.460
10330SOL     OW31888   4.246   1.209   1.888
10330SOL    HW131889   4.185   1.218   1.968
10330SOL    HW231890   4.275   1.299   1.858
10331SOL     OW31891   6.541   6.382   5.938
10331SOL    HW131892   6.605   6.309   5.912
10331SOL    HW231893   6.575   6.470   5.904
10332SOL     OW31894   7.002   6.981   0.345
10332SOL    HW131895   6.908   6.955   0.321
10332SOL    HW231896   0.042   6.907   0.319
10333SOL     OW31897   0.778   4.995   4.835
10333SOL    HW131898   0.742   5.027   4.748
10333SOL    HW231899   0.707   5.005   4.906
10334SOL     OW31900   3.454   0.957   4.614
10334SOL    HW131901   3.435   1.012   4.533
10334SOL    HW231902   3.372   0.905   4.639
10335SOL     OW31903   1.738   3.805   6.900
10335SOL    HW131904   1.685   3.720   6.902
10335SOL    HW231905   1.698   3.871   6.962
10336SOL     OW31906   6.027   0.280   2.128
10336SOL    HW131907   5.959   0.226   2.078
10336SOL    HW231908   6.117   0.269   2.085
10337SOL     OW31909   0.570   6.045   6.313
10337SOL    HW131910   0.619   5.959   6.328
10337SOL    HW231911   0.567   6.066   6.215
10338SOL     OW31912   1.761   6.425   2.243
10338SOL    HW131913   1.692   6.406   2.313
10338SOL    HW231914   1.715   6.445   2.156
10339SOL     OW31915   5.752   3.559   6.383
10339SOL    HW131916   5.788   3.473   6.346
10339SOL    HW231917   5.762   3.559   6.482
10340SOL     OW31918   1.601   3.411   0.152
10340SOL    HW131919   1.514   3.401   0.200
10340SOL    HW231920   1.664   3.464   0.209
10341SOL     OW31921   2.111   3.678   2.121
10341SOL    HW131922   2.146   3.607   2.059
10341SOL    HW231923   2.126   3.649   2.216
10342SOL     OW31924   2.251   6.942   4.352
10342SOL    HW131925   2.268   6.874   4.281
10342SOL    HW231926   2.324   6.937   4.421
10343SOL     OW31927   2.860   5.086   6.962
10343SOL    HW131928   2.959   5.081   6.946
10343SOL    HW231929   2.812   5.038   6.890
10344SOL     OW31930   4.010   3.459   0.365
10344SOL    HW131931   3.935   3.468   0.300
10344SOL    HW231932   4.000   3.526   0.438
10345SOL     OW31933   1.545   2.307   6.268
10345SOL    HW131934   1.547   2.271   6.175
10345SOL    HW231935   1.541   2.232   6.334
10346SOL     OW31936   0.180   5.460   1.356
10346SOL    HW131937   0.116   5.490   1.285
10346SOL    HW231938   0.181   5.526   1.430
10347SOL     OW31939   3.911   1.144   3.347
10347SOL    HW131940   3.899   1.192   3.260
10347SOL    HW231941   4.008   1.124   3.362
10348SOL     OW31942   6.536   2.592   0.570
10348SOL    HW131943   6.487   2.505   0.573
10348SOL    HW231944   6.593   2.601   0.651
10349SOL     OW31945   1.445   1.084   6.943
10349SOL    HW131946   1.375   1.047   7.004
10349SOL    HW231947   1.402   1.120   6.860
10350SOL     OW31948   3.087   5.403   5.345
10350SOL    HW131949   2.999   5.445   5.364
10350SOL    HW231950   3.152   5.472   5.312
10351SOL     OW31951   4.649   5.041   6.926
10351SOL    HW131952   4.593   5.081   6.854
10351SOL    HW231953   4.593   4.980   6.982
10352SOL     OW31954   3.333   0.922   6.536
10352SOL    HW131955   3.407   0.879   6.588
10352SOL    HW231956   3.259   0.855   6.521
10353SOL     OW31957   6.855   2.971   5.090
10353SOL    HW131958   6.777   3.029   5.067
10353SOL    HW231959   6.842   2.930   5.180
10354SOL     OW31960   6.091   2.034   2.399
10354SOL    HW131961   6.030   2.061   2.473
10354SOL    HW231962   6.065   1.943   2.365
10355SOL     OW31963   2.582   6.742   1.687
10355SOL    HW131964   2.634   6.769   1.606
10355SOL    HW231965   2.644   6.701   1.754
10356SOL     OW31966   0.294   5.106   5.525
10356SOL    HW131967   0.221   5.059   5.475
10356SOL    HW231968   0.372   5.045   5.537
10357SOL     OW31969   1.905   2.883   6.462
10357SOL    HW131970   1.908   2.945   6.540
10357SOL    HW231971   1.869   2.931   6.382
10358SOL     OW31972   0.417   2.421   3.191
10358SOL    HW131973   0.449   2.417   3.096
10358SOL    HW231974   0.495   2.415   3.253
10359SOL     OW31975   1.085   1.842   0.635
10359SOL    HW131976   1.087   1.805   0.728
10359SOL    HW231977   1.109   1.939   0.637
10360SOL     OW31978   4.861   4.968   3.250
10360SOL    HW131979   4.934   5.014   3.300
10360SOL    HW231980   4.811   4.908   3.312
10361SOL     OW31981   2.381   6.392   2.596
10361SOL    HW131982   2.398   6.338   2.678
10361SOL    HW231983   2.442   6.471   2.595
10362SOL     OW31984   1.729   4.811   4.840
10362SOL    HW131985   1.781   4.783   4.759
10362SOL    HW231986   1.772   4.890   4.882
10363SOL     OW31987   5.112   0.696   2.789
10363SOL    HW131988   5.210   0.710   2.781
10363SOL    HW231989   5.094   0.618   2.848
10364SOL     OW31990   3.024   3.357   1.267
10364SOL    HW131991   2.931   3.356   1.304
10364SOL    HW231992   3.086   3.396   1.334
10365SOL     OW31993   3.877   5.209   0.001
10365SOL    HW131994   3.788   5.170   6.999
10365SOL    HW231995   3.947   5.137   7.021
10366SOL     OW31996   2.688   0.241   4.009
10366SOL    HW131997   2.695   0.171   3.938
10366SOL    HW231998   2.624   0.211   4.080
10367SOL     OW31999   5.858   2.781   2.481
10367SOL    HW132000   5.894   2.691   2.455
10367SOL    HW232001   5.889   2.849   2.416
10368SOL     OW32002   2.490   1.317   0.963
10368SOL    HW132003   2.391   1.320   0.947
10368SOL    HW232004   2.531   1.247   0.904
10369SOL     OW32005   4.121   1.105   6.548
10369SOL    HW132006   4.161   1.061   6.467
10369SOL    HW232007   4.090   1.197   6.523
10370SOL     OW32008   4.844   1.541   4.852
10370SOL    HW132009   4.907   1.528   4.776
10370SOL    HW232010   4.782   1.616   4.831
10371SOL     OW32011   3.771   5.635   5.275
10371SOL    HW132012   3.765   5.735   5.280
10371SOL    HW232013   3.687   5.595   5.312
10372SOL     OW32014   2.057   1.043   5.356
10372SOL    HW132015   2.133   0.992   5.395
10372SOL    HW232016   2.057   1.136   5.393
10373SOL     OW32017   1.844   6.527   4.952
10373SOL    HW132018   1.912   6.493   5.017
10373SOL    HW232019   1.884   6.528   4.860
10374SOL     OW32020   3.310   1.666   3.026
10374SOL    HW132021   3.362   1.708   3.100
10374SOL    HW232022   3.319   1.722   2.943
10375SOL     OW32023   4.782   1.878   6.892
10375SOL    HW132024   4.833   1.958   6.926
10375SOL    HW232025   4.798   1.800   6.953
10376SOL     OW32026   1.125   6.669   3.791
10376SOL    HW132027   1.081   6.602   3.850
10376SOL    HW232028   1.184   6.621   3.726
10377SOL     OW32029   6.375   0.801   3.702
10377SOL    HW132030   6.368   0.812   3.602
10377SOL    HW232031   6.454   0.852   3.736
10378SOL     OW32032   6.823   0.642   5.764
10378SOL    HW132033   6.724   0.646   5.779
10378SOL    HW232034   6.862   0.734   5.775
10379SOL     OW32035   4.846   0.550   5.017
10379SOL    HW132036   4.927   0.607   5.030
10379SOL    HW232037   4.873   0.455   5.004
10380SOL     OW32038   5.678   0.608   2.839
10380SOL    HW132039   5.749   0.538   2.826
10380SOL    HW232040   5.722   0.695   2.863
10381SOL     OW32041   5.241   5.828   6.006
10381SOL    HW132042   5.241   5.758   5.934
10381SOL    HW232043   5.281   5.789   6.089
10382SOL     OW32044   2.648   4.956   6.430
10382SOL    HW132045   2.656   5.003   6.343
10382SOL    HW232046   2.695   4.868   6.425
10383SOL     OW32047   0.796   3.483   0.857
10383SOL    HW132048   0.724   3.532   0.808
10383SOL    HW232049   0.779   3.385   0.851
10384SOL     OW32050   0.183   6.893   0.560
10384SOL    HW132051   0.236   6.827   0.614
10384SOL    HW232052   0.104   6.923   0.613
10385SOL     OW32053   5.201   6.937   6.063
10385SOL    HW132054   5.281   6.996   6.072
10385SOL    HW232055   5.135   6.957   6.135
10386SOL     OW32056   6.723   3.766   5.281
10386SOL    HW132057   6.643   3.824   5.298
10386SOL    HW232058   6.706   3.675   5.318
10387SOL     OW32059   2.928   1.932   2.746
10387SOL    HW132060   2.855   1.952   2.810
10387SOL    HW232061   2.951   2.014   2.693
10388SOL     OW32062   1.408   5.505   4.209
10388SOL    HW132063   1.457   5.524   4.124
10388SOL    HW232064   1.447   5.424   4.253
10389SOL     OW32065   0.442   5.134   2.370
10389SOL    HW132066   0.496   5.218   2.366
10389SOL    HW232067   0.472   5.071   2.298
10390SOL     OW32068   1.443   4.053   2.729
10390SOL    HW132069   1.360   4.108   2.722
10390SOL    HW232070   1.475   4.029   2.637
10391SOL     OW32071   1.402   6.005   6.464
10391SOL    HW132072   1.370   6.099   6.480
10391SOL    HW232073   1.500   6.000   6.484
10392SOL     OW32074   6.479   4.070   0.854
10392SOL    HW132075   6.481   4.090   0.756
10392SOL    HW232076   6.527   4.141   0.905
10393SOL     OW32077   0.829   1.345   4.018
10393SOL    HW132078   0.908   1.394   3.981
10393SOL    HW232079   0.815   1.371   4.113
10394SOL     OW32080   2.106   6.712   6.735
10394SOL    HW132081   2.161   6.634   6.706
10394SOL    HW232082   2.019   6.711   6.687
10395SOL     OW32083   6.673   0.948   3.953
10395SOL    HW132084   6.708   0.872   4.007
10395SOL    HW232085   6.597   0.991   4.001
10396SOL     OW32086   1.321   0.540   3.221
10396SOL    HW132087   1.276   0.526   3.132
10396SOL    HW232088   1.390   0.469   3.235
10397SOL     OW32089   3.537   1.017   3.246
10397SOL    HW132090   3.508   1.079   3.173
10397SOL    HW232091   3.562   0.929   3.207
10398SOL     OW32092   6.485   3.002   0.644
10398SOL    HW132093   6.506   3.015   0.741
10398SOL    HW232094   6.387   3.013   0.629
10399SOL     OW32095   4.689   2.102   5.808
10399SOL    HW132096   4.680   2.055   5.896
10399SOL    HW232097   4.686   2.035   5.734
10400SOL     OW32098   2.589   5.962   2.727
10400SOL    HW132099   2.576   5.941   2.824
10400SOL    HW232100   2.687   5.959   2.706
10401SOL     OW32101   6.388   6.104   2.265
10401SOL    HW132102   6.487   6.111   2.252
10401SOL    HW232103   6.363   6.007   2.274
10402SOL     OW32104   0.306   2.854   5.523
10402SOL    HW132105   0.259   2.781   5.473
10402SOL    HW232106   0.255   2.875   5.606
10403SOL     OW32107   5.300   1.699   2.423
10403SOL    HW132108   5.382   1.756   2.425
10403SOL    HW232109   5.280   1.668   2.516
10404SOL     OW32110   0.894   6.676   4.025
10404SOL    HW132111   0.948   6.756   3.997
10404SOL    HW232112   0.922   6.648   4.117
10405SOL     OW32113   1.121   5.569   5.224
10405SOL    HW132114   1.192   5.581   5.293
10405SOL    HW232115   1.151   5.502   5.156
10406SOL     OW32116   1.993   4.562   5.738
10406SOL    HW132117   1.988   4.609   5.649
10406SOL    HW232118   1.900   4.546   5.771
10407SOL     OW32119   1.223   1.128   5.968
10407SOL    HW132120   1.278   1.058   6.013
10407SOL    HW232121   1.282   1.201   5.935
10408SOL     OW32122   4.589   4.929   3.145
10408SOL    HW132123   4.683   4.963   3.150
10408SOL    HW232124   4.529   5.001   3.108
10409SOL     OW32125   6.881   3.819   1.792
10409SOL    HW132126   6.972   3.778   1.799
10409SOL    HW232127   6.848   3.842   1.883
10410SOL     OW32128   4.570   1.079   1.161
10410SOL    HW132129   4.667   1.102   1.149
10410SOL    HW232130   4.516   1.122   1.089
10411SOL     OW32131   1.921   4.940   3.329
10411SOL    HW132132   1.931   4.870   3.258
10411SOL    HW232133   2.005   4.994   3.334
10412SOL     OW32134   0.820   2.515   6.725
10412SOL    HW132135   0.756   2.474   6.790
10412SOL    HW232136   0.864   2.443   6.671
10413SOL     OW32137   0.563   1.756   0.145
10413SOL    HW132138   0.595   1.775   0.238
10413SOL    HW232139   0.464   1.762   0.141
10414SOL     OW32140   4.793   6.499   6.786
10414SOL    HW132141   4.816   6.545   6.872
10414SOL    HW232142   4.715   6.544   6.743
10415SOL     OW32143   0.427   5.169   3.251
10415SOL    HW132144   0.370   5.088   3.260
10415SOL    HW232145   0.524   5.142   3.249
10416SOL     OW32146   6.321   2.509   5.449
10416SOL    HW132147   6.235   2.511   5.499
10416SOL    HW232148   6.308   2.549   5.358
10417SOL     OW32149   3.877   5.369   2.779
10417SOL    HW132150   3.896   5.364   2.877
10417SOL    HW232151   3.868   5.276   2.742
10418SOL     OW32152   6.904   4.177   5.769
10418SOL    HW132153   6.822   4.208   5.721
10418SOL    HW232154   6.961   4.255   5.794
10419SOL     OW32155   3.485   0.745   5.451
10419SOL    HW132156   3.521   0.823   5.401
10419SOL    HW232157   3.551   0.715   5.520
10420SOL     OW32158   6.347   3.286   3.091
10420SOL    HW132159   6.407   3.321   3.019
10420SOL    HW232160   6.371   3.191   3.111
10421SOL     OW32161   0.794   4.472   3.272
10421SOL    HW132162   0.859   4.405   3.235
10421SOL    HW232163   0.701   4.439   3.260
10422SOL     OW32164   0.048   3.638   4.832
10422SOL    HW132165   0.039   3.673   4.738
10422SOL    HW232166   6.995   3.674   4.888
10423SOL     OW32167   3.599   5.173   4.175
10423SOL    HW132168   3.521   5.179   4.238
10423SOL    HW232169   3.575   5.218   4.089
10424SOL     OW32170   3.998   1.020   6.788
10424SOL    HW132171   4.042   1.053   6.704
10424SOL    HW232172   4.062   0.962   6.838
10425SOL     OW32173   2.123   0.313   1.031
10425SOL    HW132174   2.030   0.351   1.021
10425SOL    HW232175   2.165   0.349   1.114
10426SOL     OW32176   5.087   2.712   5.563
10426SOL    HW132177   5.181   2.725   5.593
10426SOL    HW232178   5.045   2.802   5.548
10427SOL     OW32179   5.112   6.035   5.018
10427SOL    HW132180   5.149   6.007   5.106
10427SOL    HW232181   5.015   6.012   5.013
10428SOL     OW32182   1.570   1.597   3.383
10428SOL    HW132183   1.594   1.611   3.480
10428SOL    HW232184   1.586   1.682   3.333
10429SOL     OW32185   0.848   3.357   2.403
10429SOL    HW132186   0.941   3.355   2.365
10429SOL    HW232187   0.853   3.367   2.502
10430SOL     OW32188   3.784   6.917   3.708
10430SOL    HW132189   3.858   6.942   3.770
10430SOL    HW232190   3.782   6.980   3.631
10431SOL     OW32191   2.933   2.046   3.777
10431SOL    HW132192   3.017   2.067   3.727
10431SOL    HW232193   2.861   2.021   3.713
10432SOL     OW32194   6.607   6.939   6.043
10432SOL    HW132195   6.642   0.010   6.038
10432SOL    HW232196   6.667   6.884   6.101
10433SOL     OW32197   2.227   6.822   1.638
10433SOL    HW132198   2.270   6.846   1.724
10433SOL    HW232199   2.279   6.749   1.593
10434SOL     OW32200   5.120   6.905   5.813
10434SOL    HW132201   5.144   6.989   5.764
10434SOL    HW232202   5.143   6.915   5.910
10435SOL     OW32203   0.752   2.104   6.238
10435SOL    HW132204   0.838   2.126   6.285
10435SOL    HW232205   0.681   2.086   6.305
10436SOL     OW32206   0.833   4.144   5.052
10436SOL    HW132207   0.790   4.106   4.971
10436SOL    HW232208   0.931   4.157   5.035
10437SOL     OW32209   5.581   5.016   5.444
10437SOL    HW132210   5.602   5.037   5.540
10437SOL    HW232211   5.636   4.937   5.415
10438SOL     OW32212   6.806   6.173   6.202
10438SOL    HW132213   6.890   6.168   6.256
10438SOL    HW232214   6.763   6.262   6.217
10439SOL     OW32215   0.459   6.910   4.692
10439SOL    HW132216   0.480   6.877   4.600
10439SOL    HW232217   0.383   6.975   4.687
10440SOL     OW32218   0.113   1.677   6.546
10440SOL    HW132219   0.196   1.733   6.548
10440SOL    HW232220   0.045   1.720   6.486
10441SOL     OW32221   3.798   1.792   0.543
10441SOL    HW132222   3.872   1.811   0.607
10441SOL    HW232223   3.790   1.694   0.528
10442SOL     OW32224   2.963   1.344   5.330
10442SOL    HW132225   2.972   1.345   5.429
10442SOL    HW232226   3.022   1.414   5.290
10443SOL     OW32227   6.491   1.165   3.329
10443SOL    HW132228   6.521   1.228   3.258
10443SOL    HW232229   6.424   1.210   3.389
10444SOL     OW32230   3.847   5.963   3.852
10444SOL    HW132231   3.839   5.930   3.947
10444SOL    HW232232   3.944   5.972   3.829
10445SOL     OW32233   1.576   4.332   2.565
10445SOL    HW132234   1.635   4.254   2.583
10445SOL    HW232235   1.503   4.305   2.502
10446SOL     OW32236   1.921   4.401   4.941
10446SOL    HW132237   1.830   4.370   4.969
10446SOL    HW232238   1.914   4.457   4.859
10447SOL     OW32239   6.848   1.817   2.689
10447SOL    HW132240   6.750   1.829   2.703
10447SOL    HW232241   6.878   1.732   2.731
10448SOL     OW32242   2.211   6.493   2.988
10448SOL    HW132243   2.141   6.555   2.953
10448SOL    HW232244   2.302   6.530   2.970
10449SOL     OW32245   3.458   5.803   6.414
10449SOL    HW132246   3.485   5.753   6.331
10449SOL    HW232247   3.447   5.900   6.392
10450SOL     OW32248   6.316   0.200   5.841
10450SOL    HW132249   6.374   0.182   5.761
10450SOL    HW232250   6.221   0.176   5.819
10451SOL     OW32251   1.927   0.451   4.050
10451SOL    HW132252   1.901   0.545   4.029
10451SOL    HW232253   1.981   0.413   3.975
10452SOL     OW32254   6.974   3.915   4.002
10452SOL    HW132255   6.923   3.974   4.065
10452SOL    HW232256   7.010   3.836   4.053
10453SOL     OW32257   4.227   5.812   3.496
10453SOL    HW132258   4.234   5.733   3.434
10453SOL    HW232259   4.259   5.894   3.449
10454SOL     OW32260   6.738   1.402   5.985
10454SOL    HW132261   6.713   1.446   5.899
10454SOL    HW232262   6.802   1.461   6.036
10455SOL     OW32263   6.322   6.504   4.347
10455SOL    HW132264   6.282   6.594   4.362
10455SOL    HW232265   6.324   6.484   4.249
10456SOL     OW32266   7.010   5.465   6.928
10456SOL    HW132267   0.039   5.379   6.923
10456SOL    HW232268   0.050   5.540   6.954
10457SOL     OW32269   3.934   2.462   0.270
10457SOL    HW132270   3.867   2.527   0.306
10457SOL    HW232271   3.946   2.476   0.172
10458SOL     OW32272   6.500   6.657   6.155
10458SOL    HW132273   6.586   6.693   6.118
10458SOL    HW232274   6.506   6.652   6.255
10459SOL     OW32275   0.220   5.476   0.668
10459SOL    HW132276   0.284   5.441   0.600
10459SOL    HW232277   0.130   5.434   0.653
10460SOL     OW32278   7.008   3.946   0.980
10460SOL    HW132279   0.012   3.965   1.075
10460SOL    HW232280   0.058   3.975   0.918
10461SOL     OW32281   6.897   4.684   5.070
10461SOL    HW132282   6.902   4.769   5.122
10461SOL    HW232283   6.818   4.687   5.009
10462SOL     OW32284   4.739   1.699   1.513
10462SOL    HW132285   4.686   1.710   1.429
10462SOL    HW232286   4.678   1.704   1.593
10463SOL     OW32287   4.574   2.876   6.204
10463SOL    HW132288   4.481   2.909   6.187
10463SOL    HW232289   4.637   2.954   6.211
10464SOL     OW32290   5.594   5.406   3.030
10464SOL    HW132291   5.542   5.356   3.100
10464SOL    HW232292   5.531   5.438   2.959
10465SOL     OW32293   5.906   3.210   2.041
10465SOL    HW132294   5.837   3.143   2.069
10465SOL    HW232295   5.935   3.190   1.947
10466SOL     OW32296   5.449   4.933   6.481
10466SOL    HW132297   5.536   4.888   6.461
10466SOL    HW232298   5.376   4.865   6.483
10467SOL     OW32299   2.250   2.790   6.694
10467SOL    HW132300   2.283   2.883   6.713
10467SOL    HW232301   2.323   2.724   6.710
10468SOL     OW32302   2.521   4.573   3.681
10468SOL    HW132303   2.570   4.566   3.767
10468SOL    HW232304   2.439   4.516   3.684
10469SOL     OW32305   5.747   2.131   5.327
10469SOL    HW132306   5.790   2.105   5.414
10469SOL    HW232307   5.768   2.061   5.259
10470SOL     OW32308   2.309   2.390   3.832
10470SOL    HW132309   2.373   2.313   3.836
10470SOL    HW232310   2.220   2.362   3.869
10471SOL     OW32311   2.857   0.776   0.456
10471SOL    HW132312   2.849   0.681   0.486
10471SOL    HW232313   2.766   0.815   0.445
10472SOL     OW32314   3.755   5.123   0.441
10472SOL    HW132315   3.827   5.112   0.372
10472SOL    HW232316   3.767   5.210   0.489
10473SOL     OW32317   5.443   5.529   6.502
10473SOL    HW132318   5.520   5.495   6.555
10473SOL    HW232319   5.456   5.506   6.406
10474SOL     OW32320   5.337   0.967   3.830
10474SOL    HW132321   5.371   0.940   3.739
10474SOL    HW232322   5.370   0.902   3.898
10475SOL     OW32323   1.878   6.107   1.907
10475SOL    HW132324   1.827   6.147   1.831
10475SOL    HW232325   1.964   6.069   1.873
10476SOL     OW32326   3.873   6.259   0.255
10476SOL    HW132327   3.873   6.238   0.353
10476SOL    HW232328   3.814   6.193   0.208
10477SOL     OW32329   6.945   6.569   3.934
10477SOL    HW132330   6.850   6.594   3.955
10477SOL    HW232331   6.958   6.471   3.947
10478SOL     OW32332   5.785   6.689   0.477
10478SOL    HW132333   5.737   6.629   0.413
10478SOL    HW232334   5.731   6.772   0.491
10479SOL     OW32335   6.858   2.438   2.927
10479SOL    HW132336   6.804   2.355   2.910
10479SOL    HW232337   6.806   2.499   2.987
10480SOL     OW32338   1.472   6.890   2.027
10480SOL    HW132339   1.446   6.956   1.957
10480SOL    HW232340   1.407   6.895   2.103
10481SOL     OW32341   1.061   0.012   3.165
10481SOL    HW132342   1.139   0.007   3.103
10481SOL    HW232343   0.993   6.966   3.139
10482SOL     OW32344   5.871   4.181   4.051
10482SOL    HW132345   5.937   4.118   4.010
10482SOL    HW232346   5.784   4.133   4.065
10483SOL     OW32347   5.960   5.203   0.092
10483SOL    HW132348   5.862   5.201   0.114
10483SOL    HW232349   5.994   5.110   0.081
10484SOL     OW32350   5.863   1.190   0.872
10484SOL    HW132351   5.767   1.186   0.900
10484SOL    HW232352   5.870   1.229   0.780
10485SOL     OW32353   4.126   4.103   6.186
10485SOL    HW132354   4.190   4.051   6.244
10485SOL    HW232355   4.074   4.039   6.129
10486SOL     OW32356   6.656   2.864   0.495
10486SOL    HW132357   6.643   2.771   0.529
10486SOL    HW232358   6.600   2.927   0.548
10487SOL     OW32359   5.764   6.347   1.637
10487SOL    HW132360   5.722   6.398   1.562
10487SOL    HW232361   5.851   6.307   1.606
10488SOL     OW32362   3.018   2.930   6.413
10488SOL    HW132363   2.964   2.996   6.360
10488SOL    HW232364   3.003   2.838   6.376
10489SOL     OW32365   0.659   6.219   6.000
10489SOL    HW132366   0.601   6.277   6.057
10489SOL    HW232367   0.751   6.216   6.040
10490SOL     OW32368   6.305   1.327   3.424
10490SOL    HW132369   6.328   1.354   3.517
10490SOL    HW232370   6.206   1.312   3.416
10491SOL     OW32371   1.800   3.732   5.882
10491SOL    HW132372   1.857   3.813   5.869
10491SOL    HW232373   1.852   3.660   5.927
10492SOL     OW32374   4.907   3.849   5.200
10492SOL    HW132375   4.836   3.797   5.153
10492SOL    HW232376   4.995   3.835   5.155
10493SOL     OW32377   3.497   0.651   1.336
10493SOL    HW132378   3.443   0.571   1.309
10493SOL    HW232379   3.479   0.726   1.273
10494SOL     OW32380   5.641   2.348   4.445
10494SOL    HW132381   5.558   2.403   4.440
10494SOL    HW232382   5.701   2.385   4.516
10495SOL     OW32383   1.905   6.877   0.866
10495SOL    HW132384   1.943   6.786   0.847
10495SOL    HW232385   1.920   6.900   0.961
10496SOL     OW32386   0.022   6.629   0.317
10496SOL    HW132387   0.079   6.548   0.307
10496SOL    HW232388   0.040   6.692   0.241
10497SOL     OW32389   1.532   0.416   0.914
10497SOL    HW132390   1.572   0.454   0.830
10497SOL    HW232391   1.506   0.491   0.975
10498SOL     OW32392   2.398   0.355   0.106
10498SOL    HW132393   2.448   0.402   0.179
10498SOL    HW232394   2.400   0.257   0.123
10499SOL     OW32395   2.577   6.296   2.983
10499SOL    HW132396   2.512   6.327   3.052
10499SOL    HW232397   2.654   6.359   2.980
10500SOL     OW32398   0.101   1.954   5.750
10500SOL    HW132399   0.029   1.896   5.789
10500SOL    HW232400   0.189   1.930   5.789
10501SOL     OW32401   2.336   5.084   2.826
10501SOL    HW132402   2.336   5.004   2.765
10501SOL    HW232403   2.243   5.121   2.831
10502SOL     OW32404   3.051   6.859   0.668
10502SOL    HW132405   2.997   6.837   0.587
10502SOL    HW232406   3.006   6.932   0.720
10503SOL     OW32407   3.924   3.015   0.250
10503SOL    HW132408   4.007   3.071   0.248
10503SOL    HW232409   3.845   3.072   0.272
10504SOL     OW32410   1.610   2.864   0.478
10504SOL    HW132411   1.678   2.929   0.512
10504SOL    HW232412   1.591   2.796   0.549
10505SOL     OW32413   6.014   6.001   0.911
10505SOL    HW132414   5.988   5.905   0.923
10505SOL    HW232415   6.093   6.007   0.850
10506SOL     OW32416   0.048   4.465   6.263
10506SOL    HW132417   0.064   4.531   6.336
10506SOL    HW232418   6.975   4.434   6.267
10507SOL     OW32419   2.051   0.497   6.650
10507SOL    HW132420   2.098   0.452   6.726
10507SOL    HW232421   2.064   0.596   6.656
10508SOL     OW32422   5.780   5.528   3.505
10508SOL    HW132423   5.787   5.429   3.514
10508SOL    HW232424   5.684   5.554   3.494
10509SOL     OW32425   1.084   6.714   6.778
10509SOL    HW132426   1.074   6.813   6.788
10509SOL    HW232427   1.006   6.669   6.821
10510SOL     OW32428   6.008   5.027   6.414
10510SOL    HW132429   5.984   5.067   6.503
10510SOL    HW232430   6.092   5.069   6.380
10511SOL     OW32431   4.385   3.197   0.831
10511SOL    HW132432   4.357   3.102   0.843
10511SOL    HW232433   4.393   3.241   0.921
10512SOL     OW32434   4.040   0.662   6.619
10512SOL    HW132435   4.026   0.566   6.594
10512SOL    HW232436   3.991   0.721   6.555
10513SOL     OW32437   6.859   2.217   6.209
10513SOL    HW132438   6.948   2.224   6.165
10513SOL    HW232439   6.871   2.203   6.307
10514SOL     OW32440   6.131   4.126   0.919
10514SOL    HW132441   6.113   4.217   0.956
10514SOL    HW232442   6.191   4.076   0.982
10515SOL     OW32443   6.573   1.924   2.762
10515SOL    HW132444   6.487   1.921   2.709
10515SOL    HW232445   6.552   1.940   2.858
10516SOL     OW32446   4.855   0.728   6.382
10516SOL    HW132447   4.936   0.671   6.392
10516SOL    HW232448   4.879   0.823   6.397
10517SOL     OW32449   6.970   2.236   2.117
10517SOL    HW132450   7.006   2.148   2.083
10517SOL    HW232451   6.878   2.250   2.082
10518SOL     OW32452   1.099   4.825   6.994
10518SOL    HW132453   1.053   4.785   6.915
10518SOL    HW232454   1.159   4.756   0.013
10519SOL     OW32455   3.279   2.977   5.376
10519SOL    HW132456   3.240   2.956   5.466
10519SOL    HW232457   3.228   2.928   5.305
10520SOL     OW32458   2.922   2.988   6.670
10520SOL    HW132459   2.915   2.961   6.574
10520SOL    HW232460   2.972   3.074   6.677
10521SOL     OW32461   6.599   6.393   0.966
10521SOL    HW132462   6.692   6.410   1.000
10521SOL    HW232463   6.591   6.296   0.941
10522SOL     OW32464   6.449   0.795   0.329
10522SOL    HW132465   6.374   0.736   0.359
10522SOL    HW232466   6.480   0.852   0.405
10523SOL     OW32467   0.246   5.832   4.575
10523SOL    HW132468   0.201   5.779   4.647
10523SOL    HW232469   0.330   5.874   4.610
10524SOL     OW32470   1.839   0.346   4.822
10524SOL    HW132471   1.762   0.289   4.793
10524SOL    HW232472   1.807   0.440   4.835
10525SOL     OW32473   3.163   6.373   5.518
10525SOL    HW132474   3.235   6.432   5.481
10525SOL    HW232475   3.200   6.323   5.597
10526SOL     OW32476   0.478   0.737   2.798
10526SOL    HW132477   0.516   0.681   2.872
10526SOL    HW232478   0.379   0.745   2.810
10527SOL     OW32479   1.291   2.627   4.458
10527SOL    HW132480   1.286   2.655   4.362
10527SOL    HW232481   1.387   2.612   4.483
10528SOL     OW32482   1.322   4.360   5.011
10528SOL    HW132483   1.381   4.386   5.087
10528SOL    HW232484   1.279   4.272   5.031
10529SOL     OW32485   0.829   5.927   2.715
10529SOL    HW132486   0.730   5.918   2.728
10529SOL    HW232487   0.847   5.974   2.628
10530SOL     OW32488   2.500   1.771   5.938
10530SOL    HW132489   2.570   1.748   6.006
10530SOL    HW232490   2.482   1.870   5.942
10531SOL     OW32491   2.188   3.710   4.183
10531SOL    HW132492   2.118   3.639   4.186
10531SOL    HW232493   2.170   3.772   4.106
10532SOL     OW32494   2.121   2.887   0.396
10532SOL    HW132495   2.220   2.886   0.380
10532SOL    HW232496   2.073   2.883   0.308
10533SOL     OW32497   2.961   1.302   4.293
10533SOL    HW132498   2.892   1.373   4.309
10533SOL    HW232499   2.959   1.237   4.369
10534SOL     OW32500   0.059   5.784   0.873
10534SOL    HW132501   0.104   5.832   0.948
10534SOL    HW232502   0.104   5.807   0.787
10535SOL     OW32503   6.944   1.489   2.197
10535SOL    HW132504   6.988   1.534   2.275
10535SOL    HW232505   6.850   1.520   2.190
10536SOL     OW32506   4.116   0.412   2.948
10536SOL    HW132507   4.119   0.316   2.976
10536SOL    HW232508   4.133   0.470   3.027
10537SOL     OW32509   3.306   5.622   3.335
10537SOL    HW132510   3.361   5.615   3.418
10537SOL    HW232511   3.245   5.702   3.342
10538SOL     OW32512   4.260   3.427   6.312
10538SOL    HW132513   4.280   3.332   6.288
10538SOL    HW232514   4.163   3.436   6.333
10539SOL     OW32515   0.682   3.918   6.553
10539SOL    HW132516   0.657   4.011   6.527
10539SOL    HW232517   0.668   3.906   6.652
10540SOL     OW32518   1.464   0.658   5.931
10540SOL    HW132519   1.422   0.644   5.842
10540SOL    HW232520   1.444   0.580   5.991
10541SOL     OW32521   3.643   3.857   1.506
10541SOL    HW132522   3.616   3.924   1.436
10541SOL    HW232523   3.619   3.892   1.596
10542SOL     OW32524   0.033   1.573   0.690
10542SOL    HW132525   6.982   1.562   0.757
10542SOL    HW232526   0.001   1.542   0.600
10543SOL     OW32527   6.995   1.524   5.813
10543SOL    HW132528   7.013   1.492   5.905
10543SOL    HW232529   0.025   1.469   5.747
10544SOL     OW32530   2.617   1.604   2.659
10544SOL    HW132531   2.537   1.663   2.654
10544SOL    HW232532   2.594   1.512   2.626
10545SOL     OW32533   6.838   6.647   2.209
10545SOL    HW132534   6.858   6.742   2.234
10545SOL    HW232535   6.739   6.633   2.211
10546SOL     OW32536   1.572   0.216   5.289
10546SOL    HW132537   1.580   0.122   5.320
10546SOL    HW232538   1.525   0.218   5.200
10547SOL     OW32539   4.987   1.151   2.465
10547SOL    HW132540   4.980   1.063   2.513
10547SOL    HW232541   4.927   1.150   2.385
10548SOL     OW32542   5.338   3.817   4.611
10548SOL    HW132543   5.279   3.886   4.653
10548SOL    HW232544   5.291   3.729   4.609
10549SOL     OW32545   6.970   0.607   2.572
10549SOL    HW132546   6.989   0.704   2.555
10549SOL    HW232547   6.936   0.564   2.488
10550SOL     OW32548   4.756   6.749   4.076
10550SOL    HW132549   4.680   6.778   4.134
10550SOL    HW232550   4.837   6.806   4.097
10551SOL     OW32551   1.531   2.321   5.189
10551SOL    HW132552   1.522   2.278   5.098
10551SOL    HW232553   1.578   2.409   5.180
10552SOL     OW32554   4.089   1.955   5.180
10552SOL    HW132555   4.105   1.866   5.223
10552SOL    HW232556   4.094   2.027   5.249
10553SOL     OW32557   0.602   4.768   1.037
10553SOL    HW132558   0.595   4.737   0.942
10553SOL    HW232559   0.687   4.817   1.051
10554SOL     OW32560   6.036   4.865   6.866
10554SOL    HW132561   5.946   4.864   6.910
10554SOL    HW232562   6.107   4.870   6.936
10555SOL     OW32563   3.228   2.122   1.494
10555SOL    HW132564   3.196   2.032   1.521
10555SOL    HW232565   3.227   2.183   1.573
10556SOL     OW32566   2.078   3.189   4.755
10556SOL    HW132567   2.131   3.105   4.766
10556SOL    HW232568   2.134   3.259   4.710
10557SOL     OW32569   0.606   2.355   3.395
10557SOL    HW132570   0.621   2.438   3.450
10557SOL    HW232571   0.515   2.318   3.415
10558SOL     OW32572   4.472   0.139   5.121
10558SOL    HW132573   4.432   0.055   5.160
10558SOL    HW232574   4.456   0.215   5.184
10559SOL     OW32575   4.248   1.395   1.117
10559SOL    HW132576   4.255   1.475   1.057
10559SOL    HW232577   4.305   1.409   1.198
10560SOL     OW32578   2.056   5.342   4.912
10560SOL    HW132579   2.148   5.318   4.883
10560SOL    HW232580   2.017   5.410   4.851
10561SOL     OW32581   1.955   5.021   0.419
10561SOL    HW132582   1.996   5.000   0.330
10561SOL    HW232583   1.921   4.937   0.461
10562SOL     OW32584   4.901   0.025   0.812
10562SOL    HW132585   4.849   6.963   0.826
10562SOL    HW232586   4.966   0.037   0.887
10563SOL     OW32587   2.090   0.649   4.389
10563SOL    HW132588   2.053   0.657   4.482
10563SOL    HW232589   2.189   0.665   4.391
10564SOL     OW32590   5.585   0.073   1.548
10564SOL    HW132591   5.591   0.012   1.469
10564SOL    HW232592   5.538   0.158   1.521
10565SOL     OW32593   0.163   1.466   5.622
10565SOL    HW132594   0.168   1.372   5.587
10565SOL    HW232595   0.169   1.530   5.545
10566SOL     OW32596   3.632   3.796   6.753
10566SOL    HW132597   3.618   3.728   6.682
10566SOL    HW232598   3.597   3.885   6.722
10567SOL     OW32599   1.990   3.514   4.199
10567SOL    HW132600   2.042   3.431   4.176
10567SOL    HW232601   1.912   3.522   4.137
10568SOL     OW32602   5.640   1.247   2.626
10568SOL    HW132603   5.581   1.296   2.562
10568SOL    HW232604   5.712   1.309   2.659
10569SOL     OW32605   6.474   3.525   2.316
10569SOL    HW132606   6.464   3.601   2.252
10569SOL    HW232607   6.425   3.445   2.282
10570SOL     OW32608   1.714   4.560   2.542
10570SOL    HW132609   1.688   4.620   2.466
10570SOL    HW232610   1.662   4.475   2.535
10571SOL     OW32611   6.646   5.454   3.438
10571SOL    HW132612   6.584   5.533   3.443
10571SOL    HW232613   6.647   5.407   3.527
10572SOL     OW32614   5.990   3.797   2.969
10572SOL    HW132615   5.911   3.848   2.936
10572SOL    HW232616   5.963   3.703   2.989
10573SOL     OW32617   5.908   6.286   3.097
10573SOL    HW132618   5.912   6.311   3.000
10573SOL    HW232619   5.911   6.369   3.153
10574SOL     OW32620   1.755   1.867   3.713
10574SOL    HW132621   1.833   1.808   3.732
10574SOL    HW232622   1.725   1.852   3.619
10575SOL     OW32623   0.413   0.529   4.007
10575SOL    HW132624   0.323   0.572   4.020
10575SOL    HW232625   0.478   0.598   3.975
10576SOL     OW32626   0.863   6.695   5.122
10576SOL    HW132627   0.817   6.619   5.077
10576SOL    HW232628   0.873   6.771   5.057
10577SOL     OW32629   1.778   3.199   6.505
10577SOL    HW132630   1.745   3.131   6.441
10577SOL    HW232631   1.841   3.156   6.570
10578SOL     OW32632   6.244   1.035   5.068
10578SOL    HW132633   6.187   0.988   5.000
10578SOL    HW232634   6.238   1.133   5.053
10579SOL     OW32635   4.229   1.048   1.189
10579SOL    HW132636   4.292   1.073   1.116
10579SOL    HW232637   4.266   1.078   1.277
10580SOL     OW32638   6.925   0.025   6.615
10580SOL    HW132639   6.864   0.081   6.671
10580SOL    HW232640   7.013   0.070   6.607
10581SOL     OW32641   6.242   0.259   3.021
10581SOL    HW132642   6.210   0.197   2.949
10581SOL    HW232643   6.331   0.229   3.054
10582SOL     OW32644   3.814   4.570   7.010
10582SOL    HW132645   3.862   4.654   0.013
10582SOL    HW232646   3.879   4.495   7.003
10583SOL     OW32647   4.207   0.560   6.812
10583SOL    HW132648   4.168   0.603   6.730
10583SOL    HW232649   4.157   0.476   6.831
10584SOL     OW32650   5.207   6.296   1.157
10584SOL    HW132651   5.193   6.310   1.256
10584SOL    HW232652   5.191   6.200   1.134
10585SOL     OW32653   1.605   3.098   5.704
10585SOL    HW132654   1.672   3.027   5.725
10585SOL    HW232655   1.536   3.061   5.642
10586SOL     OW32656   2.225   6.009   5.875
10586SOL    HW132657   2.273   5.971   5.954
10586SOL    HW232658   2.131   5.975   5.874
10587SOL     OW32659   5.641   3.220   0.466
10587SOL    HW132660   5.598   3.168   0.392
10587SOL    HW232661   5.577   3.287   0.502
10588SOL     OW32662   1.402   4.193   1.890
10588SOL    HW132663   1.319   4.247   1.893
10588SOL    HW232664   1.445   4.192   1.980
10589SOL     OW32665   6.042   2.076   4.177
10589SOL    HW132666   6.131   2.117   4.201
10589SOL    HW232667   6.045   1.978   4.192
10590SOL     OW32668   1.224   6.860   2.200
10590SOL    HW132669   1.146   6.831   2.255
10590SOL    HW232670   1.195   6.931   2.135
10591SOL     OW32671   1.706   1.878   6.046
10591SOL    HW132672   1.707   1.779   6.030
10591SOL    HW232673   1.780   1.902   6.109
10592SOL     OW32674   5.602   1.704   0.100
10592SOL    HW132675   5.678   1.706   0.035
10592SOL    HW232676   5.515   1.702   0.051
10593SOL     OW32677   2.809   6.173   0.911
10593SOL    HW132678   2.770   6.144   0.823
10593SOL    HW232679   2.843   6.267   0.902
10594SOL     OW32680   6.446   1.508   4.026
10594SOL    HW132681   6.502   1.538   3.949
10594SOL    HW232682   6.418   1.587   4.080
10595SOL     OW32683   3.279   6.892   6.149
10595SOL    HW132684   3.186   6.920   6.172
10595SOL    HW232685   3.343   6.964   6.174
10596SOL     OW32686   3.756   6.848   1.668
10596SOL    HW132687   3.669   6.882   1.632
10596SOL    HW232688   3.791   6.912   1.736
10597SOL     OW32689   2.692   1.154   4.405
10597SOL    HW132690   2.634   1.179   4.328
10597SOL    HW232691   2.722   1.059   4.396
10598SOL     OW32692   2.269   2.467   6.668
10598SOL    HW132693   2.320   2.501   6.589
10598SOL    HW232694   2.184   2.518   6.678
10599SOL     OW32695   5.753   1.442   0.084
10599SOL    HW132696   5.853   1.452   0.082
10599SOL    HW232697   5.711   1.525   0.047
10600SOL     OW32698   2.360   3.394   6.853
10600SOL    HW132699   2.385   3.315   6.909
10600SOL    HW232700   2.414   3.393   6.769
10601SOL     OW32701   3.267   5.607   6.046
10601SOL    HW132702   3.210   5.562   5.977
10601SOL    HW232703   3.232   5.699   6.063
10602SOL     OW32704   5.248   1.415   1.927
10602SOL    HW132705   5.194   1.401   1.844
10602SOL    HW232706   5.217   1.499   1.973
10603SOL     OW32707   1.018   6.403   3.609
10603SOL    HW132708   1.076   6.408   3.690
10603SOL    HW232709   0.986   6.309   3.595
10604SOL     OW32710   5.811   4.325   4.544
10604SOL    HW132711   5.717   4.331   4.578
10604SOL    HW232712   5.873   4.360   4.613
10605SOL     OW32713   0.830   5.083   0.222
10605SOL    HW132714   0.764   5.077   0.296
10605SOL    HW232715   0.923   5.074   0.259
10606SOL     OW32716   6.748   0.937   1.468
10606SOL    HW132717   6.658   0.911   1.503
10606SOL    HW232718   6.802   0.854   1.450
10607SOL     OW32719   4.199   4.836   6.194
10607SOL    HW132720   4.216   4.886   6.279
10607SOL    HW232721   4.164   4.745   6.215
10608SOL     OW32722   6.139   1.535   4.794
10608SOL    HW132723   6.122   1.437   4.781
10608SOL    HW232724   6.189   1.570   4.715
10609SOL     OW32725   3.692   5.844   1.475
10609SOL    HW132726   3.646   5.761   1.443
10609SOL    HW232727   3.702   5.841   1.574
10610SOL     OW32728   1.009   4.070   6.611
10610SOL    HW132729   0.970   4.044   6.699
10610SOL    HW232730   1.026   3.988   6.556
10611SOL     OW32731   5.670   3.133   6.975
10611SOL    HW132732   5.740   3.092   0.012
10611SOL    HW232733   5.658   3.229   6.999
10612SOL     OW32734   2.371   0.051   6.614
10612SOL    HW132735   2.423   0.129   6.649
10612SOL    HW232736   2.432   7.013   6.563
10613SOL     OW32737   6.599   0.392   6.026
10613SOL    HW132738   6.581   0.405   5.929
10613SOL    HW232739   6.640   0.476   6.064
10614SOL     OW32740   6.999   0.641   4.246
10614SOL    HW132741   6.957   0.727   4.275
10614SOL    HW232742   6.926   0.576   4.223
10615SOL     OW32743   4.390   5.499   5.560
10615SOL    HW132744   4.384   5.448   5.474
10615SOL    HW232745   4.433   5.587   5.543
10616SOL     OW32746   2.925   6.571   0.347
10616SOL    HW132747   2.924   6.475   0.318
10616SOL    HW232748   3.019   6.600   0.363
10617SOL     OW32749   2.086   2.535   0.492
10617SOL    HW132750   1.998   2.543   0.539
10617SOL    HW232751   2.117   2.625   0.462
10618SOL     OW32752   6.187   2.679   0.422
10618SOL    HW132753   6.283   2.662   0.399
10618SOL    HW232754   6.176   2.775   0.447
10619SOL     OW32755   0.941   3.936   3.095
10619SOL    HW132756   1.026   3.956   3.143
10619SOL    HW232757   0.950   3.850   3.045
10620SOL     OW32758   1.300   6.022   5.614
10620SOL    HW132759   1.248   6.002   5.531
10620SOL    HW232760   1.398   6.014   5.594
10621SOL     OW32761   1.423   5.779   6.818
10621SOL    HW132762   1.456   5.874   6.815
10621SOL    HW232763   1.499   5.717   6.800
10622SOL     OW32764   4.660   0.856   2.073
10622SOL    HW132765   4.656   0.769   2.024
10622SOL    HW232766   4.747   0.863   2.121
10623SOL     OW32767   5.449   2.647   3.781
10623SOL    HW132768   5.495   2.716   3.725
10623SOL    HW232769   5.350   2.661   3.778
10624SOL     OW32770   1.212   1.452   5.389
10624SOL    HW132771   1.223   1.504   5.304
10624SOL    HW232772   1.145   1.498   5.448
10625SOL     OW32773   0.468   4.167   0.090
10625SOL    HW132774   0.406   4.220   0.033
10625SOL    HW232775   0.561   4.203   0.080
10626SOL     OW32776   1.518   2.130   1.552
10626SOL    HW132777   1.492   2.199   1.621
10626SOL    HW232778   1.437   2.081   1.522
10627SOL     OW32779   6.356   6.440   2.639
10627SOL    HW132780   6.430   6.422   2.704
10627SOL    HW232781   6.270   6.404   2.676
10628SOL     OW32782   6.103   5.148   5.304
10628SOL    HW132783   6.170   5.076   5.288
10628SOL    HW232784   6.128   5.198   5.387
10629SOL     OW32785   2.594   4.664   6.202
10629SOL    HW132786   2.667   4.697   6.142
10629SOL    HW232787   2.593   4.564   6.201
10630SOL     OW32788   6.287   0.414   3.757
10630SOL    HW132789   6.233   0.345   3.806
10630SOL    HW232790   6.258   0.505   3.783
10631SOL     OW32791   1.017   6.931   4.108
10631SOL    HW132792   1.109   6.932   4.149
10631SOL    HW232793   1.022   6.966   4.015
10632SOL     OW32794   6.424   2.254   4.642
10632SOL    HW132795   6.453   2.171   4.690
10632SOL    HW232796   6.451   2.335   4.695
10633SOL     OW32797   2.322   4.846   1.059
10633SOL    HW132798   2.225   4.824   1.047
10633SOL    HW232799   2.333   4.945   1.066
10634SOL     OW32800   2.861   5.799   0.648
10634SOL    HW132801   2.809   5.744   0.583
10634SOL    HW232802   2.873   5.747   0.733
10635SOL     OW32803   3.410   1.161   0.956
10635SOL    HW132804   3.455   1.216   1.026
10635SOL    HW232805   3.346   1.218   0.905
10636SOL     OW32806   0.371   1.989   1.142
10636SOL    HW132807   0.326   2.028   1.062
10636SOL    HW232808   0.360   2.051   1.220
10637SOL     OW32809   3.169   3.945   5.301
10637SOL    HW132810   3.178   3.851   5.269
10637SOL    HW232811   3.124   4.000   5.231
10638SOL     OW32812   0.516   6.571   4.216
10638SOL    HW132813   0.591   6.633   4.191
10638SOL    HW232814   0.429   6.620   4.209
10639SOL     OW32815   0.937   1.431   4.613
10639SOL    HW132816   0.847   1.448   4.652
10639SOL    HW232817   1.006   1.480   4.666
10640SOL     OW32818   4.424   0.220   7.006
10640SOL    HW132819   4.360   0.143   7.009
10640SOL    HW232820   4.379   0.301   0.022
10641SOL     OW32821   5.139   1.665   0.162
10641SOL    HW132822   5.114   1.576   0.199
10641SOL    HW232823   5.211   1.654   0.093
10642SOL     OW32824   0.137   2.244   1.531
10642SOL    HW132825   0.204   2.242   1.457
10642SOL    HW232826   0.140   2.333   1.577
10643SOL     OW32827   2.241   3.769   5.487
10643SOL    HW132828   2.319   3.827   5.509
10643SOL    HW232829   2.235   3.757   5.388
10644SOL     OW32830   4.661   1.717   3.993
10644SOL    HW132831   4.595   1.691   3.922
10644SOL    HW232832   4.736   1.768   3.951
10645SOL     OW32833   0.955   0.724   4.569
10645SOL    HW132834   0.870   0.732   4.518
10645SOL    HW232835   1.025   0.783   4.528
10646SOL     OW32836   0.183   2.790   6.017
10646SOL    HW132837   0.098   2.797   6.069
10646SOL    HW232838   0.259   2.826   6.071
10647SOL     OW32839   6.149   5.035   0.291
10647SOL    HW132840   6.153   5.014   0.389
10647SOL    HW232841   6.225   5.095   0.267
10648SOL     OW32842   4.917   3.655   6.614
10648SOL    HW132843   4.982   3.625   6.684
10648SOL    HW232844   4.832   3.603   6.623
10649SOL     OW32845   7.009   5.004   4.934
10649SOL    HW132846   6.923   5.016   4.984
10649SOL    HW232847   7.006   4.917   4.884
10650SOL     OW32848   2.376   6.484   3.834
10650SOL    HW132849   2.285   6.446   3.820
10650SOL    HW232850   2.445   6.417   3.809
10651SOL     OW32851   4.638   7.011   5.733
10651SOL    HW132852   4.593   0.049   5.667
10651SOL    HW232853   4.593   6.922   5.733
10652SOL     OW32854   3.088   0.090   6.118
10652SOL    HW132855   3.054   0.139   6.037
10652SOL    HW232856   3.183   0.117   6.136
10653SOL     OW32857   5.019   4.512   4.616
10653SOL    HW132858   5.017   4.425   4.665
10653SOL    HW232859   5.075   4.502   4.533
10654SOL     OW32860   2.674   0.383   1.434
10654SOL    HW132861   2.583   0.426   1.440
10654SOL    HW232862   2.701   0.350   1.524
10655SOL     OW32863   2.851   5.571   2.121
10655SOL    HW132864   2.932   5.523   2.154
10655SOL    HW232865   2.874   5.667   2.105
10656SOL     OW32866   6.085   2.436   0.121
10656SOL    HW132867   6.065   2.420   0.024
10656SOL    HW232868   6.004   2.474   0.166
10657SOL     OW32869   6.044   6.911   1.053
10657SOL    HW132870   6.031   6.985   0.988
10657SOL    HW232871   5.975   6.840   1.037
10658SOL     OW32872   1.221   4.566   4.590
10658SOL    HW132873   1.223   4.585   4.688
10658SOL    HW232874   1.284   4.627   4.542
10659SOL     OW32875   5.740   6.906   0.818
10659SOL    HW132876   5.781   6.991   0.852
10659SOL    HW232877   5.775   6.829   0.870
10660SOL     OW32878   4.415   3.735   5.814
10660SOL    HW132879   4.487   3.749   5.747
10660SOL    HW232880   4.330   3.777   5.781
10661SOL     OW32881   0.669   6.925   1.954
10661SOL    HW132882   0.650   6.848   2.015
10661SOL    HW232883   0.767   6.942   1.951
10662SOL     OW32884   0.170   1.306   0.716
10662SOL    HW132885   0.094   1.275   0.773
10662SOL    HW232886   0.143   1.388   0.666
10663SOL     OW32887   0.392   0.400   1.672
10663SOL    HW132888   0.335   0.481   1.663
10663SOL    HW232889   0.431   0.376   1.583
10664SOL     OW32890   2.158   4.297   0.078
10664SOL    HW132891   2.143   4.262   7.008
10664SOL    HW232892   2.071   4.309   0.124
10665SOL     OW32893   0.278   1.694   0.097
10665SOL    HW132894   0.283   1.611   0.152
10665SOL    HW232895   0.186   1.703   0.058
10666SOL     OW32896   3.413   5.515   6.844
10666SOL    HW132897   3.374   5.581   6.779
10666SOL    HW232898   3.361   5.520   6.930
10667SOL     OW32899   3.902   1.769   5.377
10667SOL    HW132900   3.852   1.807   5.455
10667SOL    HW232901   3.996   1.750   5.404
10668SOL     OW32902   1.550   2.067   6.428
10668SOL    HW132903   1.630   2.016   6.457
10668SOL    HW232904   1.532   2.141   6.492
10669SOL     OW32905   1.213   6.968   0.638
10669SOL    HW132906   1.270   0.028   0.640
10669SOL    HW232907   1.270   6.888   0.656
10670SOL     OW32908   5.519   4.683   5.707
10670SOL    HW132909   5.594   4.749   5.718
10670SOL    HW232910   5.436   4.721   5.748
10671SOL     OW32911   2.402   2.536   2.887
10671SOL    HW132912   2.340   2.462   2.862
10671SOL    HW232913   2.402   2.548   2.986
10672SOL     OW32914   0.180   2.262   0.315
10672SOL    HW132915   0.196   2.178   0.367
10672SOL    HW232916   0.085   2.264   0.283
10673SOL     OW32917   2.654   3.128   5.358
10673SOL    HW132918   2.661   3.108   5.456
10673SOL    HW232919   2.604   3.055   5.313
10674SOL     OW32920   4.064   3.823   0.875
10674SOL    HW132921   4.001   3.795   0.948
10674SOL    HW232922   4.013   3.837   0.791
10675SOL     OW32923   0.070   0.195   6.023
10675SOL    HW132924   0.011   0.140   5.964
10675SOL    HW232925   0.068   0.290   5.993
10676SOL     OW32926   6.161   0.503   6.198
10676SOL    HW132927   6.070   0.545   6.201
10676SOL    HW232928   6.182   0.476   6.104
10677SOL     OW32929   0.256   0.769   1.906
10677SOL    HW132930   0.185   0.705   1.936
10677SOL    HW232931   0.346   0.729   1.923
10678SOL     OW32932   2.833   5.471   2.522
10678SOL    HW132933   2.890   5.397   2.557
10678SOL    HW232934   2.739   5.440   2.511
10679SOL     OW32935   5.996   5.526   4.126
10679SOL    HW132936   5.932   5.464   4.172
10679SOL    HW232937   5.945   5.598   4.079
10680SOL     OW32938   1.274   3.117   2.440
10680SOL    HW132939   1.366   3.088   2.414
10680SOL    HW232940   1.247   3.072   2.525
10681SOL     OW32941   6.262   3.217   6.461
10681SOL    HW132942   6.226   3.184   6.548
10681SOL    HW232943   6.332   3.286   6.477
10682SOL     OW32944   0.698   1.658   2.513
10682SOL    HW132945   0.690   1.630   2.609
10682SOL    HW232946   0.702   1.758   2.508
10683SOL     OW32947   1.681   2.134   4.543
10683SOL    HW132948   1.748   2.152   4.615
10683SOL    HW232949   1.727   2.127   4.455
10684SOL     OW32950   6.122   4.305   0.529
10684SOL    HW132951   6.083   4.382   0.479
10684SOL    HW232952   6.050   4.240   0.551
10685SOL     OW32953   0.533   3.744   3.517
10685SOL    HW132954   0.465   3.805   3.558
10685SOL    HW232955   0.488   3.662   3.483
10686SOL     OW32956   3.292   6.304   0.169
10686SOL    HW132957   3.311   6.335   0.262
10686SOL    HW232958   3.355   6.231   0.144
10687SOL     OW32959   6.601   4.773   2.770
10687SOL    HW132960   6.631   4.734   2.857
10687SOL    HW232961   6.671   4.835   2.736
10688SOL     OW32962   6.891   4.873   2.203
10688SOL    HW132963   6.928   4.911   2.119
10688SOL    HW232964   6.897   4.773   2.200
10689SOL     OW32965   0.209   0.741   2.858
10689SOL    HW132966   0.138   0.794   2.905
10689SOL    HW232967   0.183   0.644   2.859
10690SOL     OW32968   4.439   5.260   2.374
10690SOL    HW132969   4.529   5.303   2.379
10690SOL    HW232970   4.449   5.162   2.357
10691SOL     OW32971   6.910   1.284   1.456
10691SOL    HW132972   6.850   1.210   1.424
10691SOL    HW232973   6.860   1.371   1.451
10692SOL     OW32974   3.839   6.256   3.787
10692SOL    HW132975   3.827   6.158   3.802
10692SOL    HW232976   3.830   6.275   3.689
10693SOL     OW32977   0.207   1.317   1.259
10693SOL    HW132978   0.187   1.336   1.355
10693SOL    HW232979   0.295   1.271   1.252
10694SOL     OW32980   3.951   5.794   1.794
10694SOL    HW132981   3.922   5.750   1.709
10694SOL    HW232982   3.955   5.893   1.780
10695SOL     OW32983   0.229   2.533   4.321
10695SOL    HW132984   0.288   2.590   4.264
10695SOL    HW232985   0.136   2.568   4.318
10696SOL     OW32986   0.085   6.177   1.120
10696SOL    HW132987   0.152   6.211   1.186
10696SOL    HW232988   0.096   6.225   1.033
10697SOL     OW32989   0.755   6.052   4.114
10697SOL    HW132990   0.671   6.041   4.062
10697SOL    HW232991   0.762   5.979   4.182
10698SOL     OW32992   3.139   0.043   3.419
10698SOL    HW132993   3.165   0.072   3.511
10698SOL    HW232994   3.039   0.042   3.411
10699SOL     OW32995   4.088   1.674   2.837
10699SOL    HW132996   4.040   1.725   2.766
10699SOL    HW232997   4.149   1.607   2.795
10700SOL     OW32998   0.067   6.663   1.194
10700SOL    HW132999   0.106   6.629   1.280
10700SOL    HW233000   0.095   6.604   1.119
10701SOL     OW33001   3.598   6.168   6.945
10701SOL    HW133002   3.564   6.089   6.995
10701SOL    HW233003   3.521   6.225   6.915
10702SOL     OW33004   5.823   2.673   0.071
10702SOL    HW133005   5.784   2.756   0.111
10702SOL    HW233006   5.859   2.614   0.144
10703SOL     OW33007   3.897   3.986   3.497
10703SOL    HW133008   3.801   4.013   3.485
10703SOL    HW233009   3.927   4.010   3.589
10704SOL     OW33010   5.164   0.285   2.100
10704SOL    HW133011   5.231   0.303   2.171
10704SOL    HW233012   5.150   0.368   2.045
10705SOL     OW33013   1.040   3.162   5.983
10705SOL    HW133014   1.064   3.086   5.922
10705SOL    HW233015   0.981   3.129   6.056
10706SOL     OW33016   3.756   0.819   1.720
10706SOL    HW133017   3.662   0.840   1.692
10706SOL    HW233018   3.781   0.875   1.799
10707SOL     OW33019   6.061   6.755   5.720
10707SOL    HW133020   6.158   6.776   5.726
10707SOL    HW233021   6.037   6.687   5.789
10708SOL     OW33022   4.860   1.013   1.111
10708SOL    HW133023   4.820   0.921   1.122
10708SOL    HW233024   4.954   1.012   1.144
10709SOL     OW33025   6.274   7.012   5.384
10709SOL    HW133026   6.252   0.071   5.330
10709SOL    HW233027   6.228   7.017   5.472
10710SOL     OW33028   6.104   5.803   3.955
10710SOL    HW133029   6.082   5.861   3.877
10710SOL    HW233030   6.025   5.799   4.017
10711SOL     OW33031   1.261   6.919   4.208
10711SOL    HW133032   1.311   6.973   4.140
10711SOL    HW233033   1.326   6.870   4.266
10712SOL     OW33034   3.373   1.238   4.797
10712SOL    HW133035   3.400   1.281   4.710
10712SOL    HW233036   3.454   1.197   4.839
10713SOL     OW33037   1.764   5.917   1.629
10713SOL    HW133038   1.817   5.999   1.648
10713SOL    HW233039   1.780   5.849   1.700
10714SOL     OW33040   0.504   5.380   5.279
10714SOL    HW133041   0.587   5.401   5.330
10714SOL    HW233042   0.528   5.357   5.185
10715SOL     OW33043   4.723   1.964   4.137
10715SOL    HW133044   4.755   1.875   4.103
10715SOL    HW233045   4.749   2.035   4.072
10716SOL     OW33046   6.768   0.513   4.181
10716SOL    HW133047   6.752   0.550   4.090
10716SOL    HW233048   6.718   0.427   4.192
10717SOL     OW33049   6.879   0.614   1.789
10717SOL    HW133050   6.923   0.702   1.771
10717SOL    HW233051   6.909   0.547   1.721
10718SOL     OW33052   6.804   5.153   6.332
10718SOL    HW133053   6.793   5.210   6.413
10718SOL    HW233054   6.875   5.084   6.349
10719SOL     OW33055   5.751   1.045   1.797
10719SOL    HW133056   5.839   1.001   1.817
10719SOL    HW233057   5.760   1.144   1.810
10720SOL     OW33058   0.429   3.602   6.535
10720SOL    HW133059   0.527   3.619   6.528
10720SOL    HW233060   0.412   3.503   6.536
10721SOL     OW33061   5.960   2.372   4.399
10721SOL    HW133062   5.891   2.395   4.468
10721SOL    HW233063   6.002   2.284   4.422
10722SOL     OW33064   6.586   3.688   0.473
10722SOL    HW133065   6.646   3.768   0.472
10722SOL    HW233066   6.494   3.716   0.502
10723SOL     OW33067   5.723   4.256   6.770
10723SOL    HW133068   5.697   4.232   6.677
10723SOL    HW233069   5.778   4.182   6.809
10724SOL     OW33070   4.234   6.370   6.179
10724SOL    HW133071   4.217   6.426   6.099
10724SOL    HW233072   4.280   6.285   6.152
10725SOL     OW33073   0.596   5.811   4.418
10725SOL    HW133074   0.680   5.816   4.364
10725SOL    HW233075   0.601   5.876   4.494
10726SOL     OW33076   5.575   0.480   4.782
10726SOL    HW133077   5.513   0.403   4.800
10726SOL    HW233078   5.521   0.563   4.767
10727SOL     OW33079   2.410   5.633   5.886
10727SOL    HW133080   2.508   5.634   5.906
10727SOL    HW233081   2.363   5.575   5.953
10728SOL     OW33082   4.660   6.747   2.776
10728SOL    HW133083   4.596   6.729   2.850
10728SOL    HW233084   4.753   6.722   2.805
10729SOL     OW33085   6.174   2.606   2.934
10729SOL    HW133086   6.078   2.605   2.907
10729SOL    HW233087   6.182   2.633   3.030
10730SOL     OW33088   1.555   6.937   2.642
10730SOL    HW133089   1.639   6.971   2.683
10730SOL    HW233090   1.572   6.848   2.599
10731SOL     OW33091   3.432   6.604   0.046
10731SOL    HW133092   3.360   6.538   0.064
10731SOL    HW233093   3.520   6.567   0.078
10732SOL     OW33094   5.825   5.899   3.262
10732SOL    HW133095   5.796   5.858   3.175
10732SOL    HW233096   5.905   5.957   3.247
10733SOL     OW33097   6.397   1.108   5.899
10733SOL    HW133098   6.453   1.046   5.954
10733SOL    HW233099   6.327   1.151   5.957
10734SOL     OW33100   1.797   0.953   5.647
10734SOL    HW133101   1.710   0.965   5.696
10734SOL    HW233102   1.864   0.910   5.708
10735SOL     OW33103   1.446   5.090   1.684
10735SOL    HW133104   1.500   5.059   1.606
10735SOL    HW233105   1.392   5.170   1.658
10736SOL     OW33106   6.893   0.304   3.440
10736SOL    HW133107   6.928   0.281   3.350
10736SOL    HW233108   6.839   0.227   3.475
10737SOL     OW33109   6.677   1.517   1.417
10737SOL    HW133110   6.713   1.503   1.325
10737SOL    HW233111   6.625   1.602   1.420
10738SOL     OW33112   2.803   0.636   2.483
10738SOL    HW133113   2.763   0.688   2.558
10738SOL    HW233114   2.859   0.562   2.520
10739SOL     OW33115   5.867   2.155   2.554
10739SOL    HW133116   5.785   2.143   2.498
10739SOL    HW233117   5.847   2.130   2.648
10740SOL     OW33118   1.614   6.886   6.005
10740SOL    HW133119   1.567   6.814   6.056
10740SOL    HW233120   1.586   6.881   5.909
10741SOL     OW33121   1.978   2.563   3.151
10741SOL    HW133122   1.883   2.591   3.166
10741SOL    HW233123   2.011   2.604   3.065
10742SOL     OW33124   6.269   5.522   2.686
10742SOL    HW133125   6.185   5.559   2.725
10742SOL    HW233126   6.248   5.438   2.636
10743SOL     OW33127   3.572   0.927   5.267
10743SOL    HW133128   3.659   0.972   5.287
10743SOL    HW233129   3.529   0.970   5.188
10744SOL     OW33130   2.262   0.485   0.841
10744SOL    HW133131   2.214   0.418   0.898
10744SOL    HW233132   2.195   0.544   0.795
10745SOL     OW33133   2.252   4.422   1.085
10745SOL    HW133134   2.220   4.471   1.165
10745SOL    HW233135   2.334   4.368   1.109
10746SOL     OW33136   1.903   6.332   6.750
10746SOL    HW133137   1.857   6.393   6.814
10746SOL    HW233138   1.942   6.386   6.675
10747SOL     OW33139   6.785   2.118   4.244
10747SOL    HW133140   6.712   2.067   4.289
10747SOL    HW233141   6.861   2.056   4.223
10748SOL     OW33142   4.080   5.496   1.337
10748SOL    HW133143   4.134   5.476   1.419
10748SOL    HW233144   3.985   5.470   1.353
10749SOL     OW33145   6.556   4.917   3.003
10749SOL    HW133146   6.496   4.962   3.070
10749SOL    HW233147   6.586   4.984   2.935
10750SOL     OW33148   4.882   2.777   4.124
10750SOL    HW133149   4.801   2.778   4.066
10750SOL    HW233150   4.854   2.765   4.219
10751SOL     OW33151   1.315   4.225   5.452
10751SOL    HW133152   1.237   4.203   5.511
10751SOL    HW233153   1.372   4.294   5.495
10752SOL     OW33154   5.894   5.950   0.645
10752SOL    HW133155   5.920   5.989   0.733
10752SOL    HW233156   5.973   5.948   0.584
10753SOL     OW33157   5.003   6.177   3.720
10753SOL    HW133158   5.033   6.089   3.685
10753SOL    HW233159   4.985   6.169   3.819
10754SOL     OW33160   1.580   3.031   1.943
10754SOL    HW133161   1.674   3.048   1.916
10754SOL    HW233162   1.571   2.937   1.976
10755SOL     OW33163   6.575   3.071   0.910
10755SOL    HW133164   6.495   3.130   0.899
10755SOL    HW233165   6.648   3.123   0.955
10756SOL     OW33166   0.328   2.936   0.615
10756SOL    HW133167   0.379   3.012   0.574
10756SOL    HW233168   0.231   2.946   0.593
10757SOL     OW33169   6.234   4.135   1.264
10757SOL    HW133170   6.146   4.090   1.279
10757SOL    HW233171   6.268   4.115   1.172
10758SOL     OW33172   0.645   6.804   6.845
10758SOL    HW133173   0.554   6.795   6.805
10758SOL    HW233174   0.703   6.857   6.782
10759SOL     OW33175   2.246   2.041   6.233
10759SOL    HW133176   2.152   2.057   6.263
10759SOL    HW233177   2.293   1.983   6.300
10760SOL     OW33178   0.202   5.445   0.221
10760SOL    HW133179   0.242   5.532   0.191
10760SOL    HW233180   0.219   5.375   0.152
10761SOL     OW33181   0.613   1.675   6.163
10761SOL    HW133182   0.530   1.650   6.214
10761SOL    HW233183   0.681   1.712   6.226
10762SOL     OW33184   4.099   0.250   5.604
10762SOL    HW133185   4.070   0.278   5.696
10762SOL    HW233186   4.183   0.197   5.611
10763SOL     OW33187   5.535   0.065   2.986
10763SOL    HW133188   5.485   0.035   2.904
10763SOL    HW233189   5.476   0.056   3.066
10764SOL     OW33190   4.350   1.185   5.366
10764SOL    HW133191   4.433   1.174   5.421
10764SOL    HW233192   4.328   1.099   5.320
10765SOL     OW33193   6.677   2.254   2.836
10765SOL    HW133194   6.639   2.225   2.748
10765SOL    HW233195   6.698   2.173   2.891
10766SOL     OW33196   1.449   4.611   6.579
10766SOL    HW133197   1.459   4.532   6.518
10766SOL    HW233198   1.534   4.623   6.631
10767SOL     OW33199   1.689   5.945   0.904
10767SOL    HW133200   1.687   6.030   0.851
10767SOL    HW233201   1.612   5.887   0.875
10768SOL     OW33202   6.187   6.288   0.441
10768SOL    HW133203   6.168   6.223   0.367
10768SOL    HW233204   6.231   6.369   0.403
10769SOL     OW33205   3.085   3.520   5.050
10769SOL    HW133206   3.123   3.610   5.028
10769SOL    HW233207   3.008   3.501   4.988
10770SOL     OW33208   5.520   6.933   4.160
10770SOL    HW133209   5.597   6.996   4.164
10770SOL    HW233210   5.481   6.923   4.252
10771SOL     OW33211   5.353   5.938   5.734
10771SOL    HW133212   5.411   5.946   5.653
10771SOL    HW233213   5.336   5.842   5.753
10772SOL     OW33214   5.795   5.024   3.047
10772SOL    HW133215   5.788   5.112   3.001
10772SOL    HW233216   5.890   4.992   3.043
10773SOL     OW33217   6.449   4.539   1.230
10773SOL    HW133218   6.412   4.460   1.182
10773SOL    HW233219   6.469   4.612   1.165
10774SOL     OW33220   1.135   2.237   1.145
10774SOL    HW133221   1.235   2.233   1.157
10774SOL    HW233222   1.110   2.322   1.100
10775SOL     OW33223   1.465   4.132   1.060
10775SOL    HW133224   1.547   4.087   1.097
10775SOL    HW233225   1.472   4.137   0.960
10776SOL     OW33226   0.025   1.155   3.316
10776SOL    HW133227   0.099   1.188   3.375
10776SOL    HW233228   0.020   1.213   3.234
10777SOL     OW33229   3.038   1.138   2.939
10777SOL    HW133230   3.074   1.090   3.020
10777SOL    HW233231   3.007   1.070   2.872
10778SOL     OW33232   6.288   6.560   3.776
10778SOL    HW133233   6.269   6.615   3.857
10778SOL    HW233234   6.222   6.484   3.771
10779SOL     OW33235   5.654   4.035   4.079
10779SOL    HW133236   5.631   3.961   4.016
10779SOL    HW233237   5.664   3.998   4.171
10780SOL     OW33238   1.270   5.758   4.955
10780SOL    HW133239   1.302   5.667   4.981
10780SOL    HW233240   1.180   5.775   4.997
10781SOL     OW33241   5.911   2.642   4.765
10781SOL    HW133242   5.943   2.614   4.856
10781SOL    HW233243   5.821   2.684   4.774
10782SOL     OW33244   0.926   3.426   5.242
10782SOL    HW133245   1.020   3.431   5.277
10782SOL    HW233246   0.906   3.332   5.215
10783SOL     OW33247   0.727   2.221   2.617
10783SOL    HW133248   0.776   2.163   2.552
10783SOL    HW233249   0.628   2.209   2.604
10784SOL     OW33250   3.370   6.075   2.327
10784SOL    HW133251   3.319   6.126   2.258
10784SOL    HW233252   3.389   5.983   2.294
10785SOL     OW33253   1.691   5.695   2.687
10785SOL    HW133254   1.639   5.669   2.768
10785SOL    HW233255   1.660   5.785   2.655
10786SOL     OW33256   4.876   1.746   2.211
10786SOL    HW133257   4.900   1.750   2.308
10786SOL    HW233258   4.959   1.738   2.156
10787SOL     OW33259   3.328   1.142   3.606
10787SOL    HW133260   3.297   1.194   3.526
10787SOL    HW233261   3.387   1.067   3.576
10788SOL     OW33262   0.699   4.223   0.401
10788SOL    HW133263   0.752   4.291   0.450
10788SOL    HW233264   0.607   4.216   0.441
10789SOL     OW33265   6.120   1.284   0.058
10789SOL    HW133266   6.180   1.209   0.029
10789SOL    HW233267   6.074   1.322   7.000
10790SOL     OW33268   0.632   2.271   4.767
10790SOL    HW133269   0.551   2.225   4.730
10790SOL    HW233270   0.624   2.277   4.866
10791SOL     OW33271   2.016   1.597   2.875
10791SOL    HW133272   1.933   1.650   2.856
10791SOL    HW233273   2.096   1.655   2.862
10792SOL     OW33274   3.926   2.311   1.107
10792SOL    HW133275   3.955   2.286   1.199
10792SOL    HW233276   3.834   2.350   1.110
10793SOL     OW33277   4.768   1.842   5.070
10793SOL    HW133278   4.710   1.761   5.084
10793SOL    HW233279   4.718   1.923   5.101
10794SOL     OW33280   4.285   3.321   1.581
10794SOL    HW133281   4.307   3.256   1.653
10794SOL    HW233282   4.360   3.386   1.570
10795SOL     OW33283   6.893   3.486   3.235
10795SOL    HW133284   6.855   3.406   3.187
10795SOL    HW233285   6.875   3.477   3.333
10796SOL     OW33286   6.679   6.592   6.727
10796SOL    HW133287   6.732   6.509   6.712
10796SOL    HW233288   6.655   6.633   6.638
10797SOL     OW33289   4.283   3.571   0.652
10797SOL    HW133290   4.213   3.500   0.662
10797SOL    HW233291   4.367   3.529   0.617
10798SOL     OW33292   2.688   0.036   6.321
10798SOL    HW133293   2.643   6.999   6.387
10798SOL    HW233294   2.729   0.114   6.368
10799SOL     OW33295   3.082   1.547   2.897
10799SOL    HW133296   3.168   1.578   2.938
10799SOL    HW233297   3.009   1.551   2.965
10800SOL     OW33298   1.451   0.433   6.123
10800SOL    HW133299   1.450   0.340   6.159
10800SOL    HW233300   1.358   0.469   6.119
10801SOL     OW33301   2.643   6.029   6.127
10801SOL    HW133302   2.674   5.981   6.209
10801SOL    HW233303   2.694   5.996   6.048
10802SOL     OW33304   0.695   3.817   4.666
10802SOL    HW133305   0.731   3.888   4.605
10802SOL    HW233306   0.597   3.808   4.652
10803SOL     OW33307   6.408   4.673   5.087
10803SOL    HW133308   6.487   4.620   5.118
10803SOL    HW233309   6.436   4.735   5.013
10804SOL     OW33310   5.387   4.800   2.072
10804SOL    HW133311   5.300   4.833   2.037
10804SOL    HW233312   5.371   4.731   2.143
10805SOL     OW33313   4.360   6.825   0.767
10805SOL    HW133314   4.345   6.742   0.821
10805SOL    HW233315   4.408   6.893   0.823
10806SOL     OW33316   5.423   4.051   0.116
10806SOL    HW133317   5.381   3.967   0.080
10806SOL    HW233318   5.458   4.106   0.040
10807SOL     OW33319   4.065   6.220   3.495
10807SOL    HW133320   4.061   6.319   3.510
10807SOL    HW233321   4.111   6.201   3.408
10808SOL     OW33322   6.836   3.257   5.920
10808SOL    HW133323   6.868   3.239   6.013
10808SOL    HW233324   6.801   3.351   5.915
10809SOL     OW33325   2.307   0.392   3.539
10809SOL    HW133326   2.344   0.301   3.523
10809SOL    HW233327   2.310   0.445   3.454
10810SOL     OW33328   0.177   1.594   5.379
10810SOL    HW133329   0.204   1.685   5.411
10810SOL    HW233330   0.185   1.591   5.279
10811SOL     OW33331   4.818   4.597   5.062
10811SOL    HW133332   4.874   4.516   5.044
10811SOL    HW233333   4.722   4.577   5.041
10812SOL     OW33334   6.346   2.670   2.734
10812SOL    HW133335   6.302   2.639   2.819
10812SOL    HW233336   6.276   2.699   2.669
10813SOL     OW33337   2.822   6.335   1.780
10813SOL    HW133338   2.794   6.299   1.869
10813SOL    HW233339   2.919   6.316   1.766
10814SOL     OW33340   1.856   7.014   4.994
10814SOL    HW133341   1.823   6.930   5.037
10814SOL    HW233342   1.778   0.052   4.976
10815SOL     OW33343   5.372   3.866   3.123
10815SOL    HW133344   5.376   3.766   3.118
10815SOL    HW233345   5.450   3.905   3.075
10816SOL     OW33346   1.621   0.897   2.225
10816SOL    HW133347   1.704   0.930   2.270
10816SOL    HW233348   1.562   0.974   2.202
10817SOL     OW33349   4.757   6.823   2.446
10817SOL    HW133350   4.706   6.903   2.478
10817SOL    HW233351   4.695   6.746   2.432
10818SOL     OW33352   4.697   2.930   6.964
10818SOL    HW133353   4.607   2.968   6.983
10818SOL    HW233354   4.705   2.909   6.866
10819SOL     OW33355   6.943   4.582   6.710
10819SOL    HW133356   6.846   4.570   6.690
10819SOL    HW233357   6.985   4.637   6.638
10820SOL     OW33358   0.384   6.610   4.468
10820SOL    HW133359   0.376   6.541   4.396
10820SOL    HW233360   0.363   6.569   4.556
10821SOL     OW33361   6.793   0.363   1.058
10821SOL    HW133362   6.705   0.346   1.103
10821SOL    HW233363   6.849   0.280   1.062
10822SOL     OW33364   0.631   3.981   2.202
10822SOL    HW133365   0.556   3.917   2.217
10822SOL    HW233366   0.711   3.932   2.169
10823SOL     OW33367   2.074   6.262   1.087
10823SOL    HW133368   2.165   6.264   1.128
10823SOL    HW233369   2.017   6.333   1.128
10824SOL     OW33370   5.371   0.764   2.546
10824SOL    HW133371   5.416   0.785   2.460
10824SOL    HW233372   5.435   0.717   2.607
10825SOL     OW33373   3.882   1.097   0.898
10825SOL    HW133374   3.923   1.178   0.941
10825SOL    HW233375   3.939   1.068   0.821
10826SOL     OW33376   0.067   3.388   2.480
10826SOL    HW133377   0.137   3.337   2.530
10826SOL    HW233378   0.098   3.482   2.465
10827SOL     OW33379   6.839   2.989   4.047
10827SOL    HW133380   6.875   3.068   4.096
10827SOL    HW233381   6.743   2.975   4.071
10828SOL     OW33382   1.317   5.577   0.394
10828SOL    HW133383   1.265   5.519   0.331
10828SOL    HW233384   1.389   5.522   0.438
10829SOL     OW33385   3.157   3.989   2.065
10829SOL    HW133386   3.089   3.961   1.997
10829SOL    HW233387   3.117   3.983   2.156
10830SOL     OW33388   5.033   2.896   4.661
10830SOL    HW133389   5.113   2.838   4.645
10830SOL    HW233390   5.026   2.964   4.588
10831SOL     OW33391   5.294   1.392   3.170
10831SOL    HW133392   5.203   1.434   3.171
10831SOL    HW233393   5.319   1.371   3.075
10832SOL     OW33394   0.905   1.654   0.565
10832SOL    HW133395   0.965   1.726   0.600
10832SOL    HW233396   0.896   1.582   0.634
10833SOL     OW33397   2.849   0.206   4.300
10833SOL    HW133398   2.864   0.150   4.218
10833SOL    HW233399   2.928   0.197   4.361
10834SOL     OW33400   1.230   1.832   5.505
10834SOL    HW133401   1.132   1.833   5.520
10834SOL    HW233402   1.250   1.787   5.418
10835SOL     OW33403   5.960   1.788   2.359
10835SOL    HW133404   5.864   1.809   2.339
10835SOL    HW233405   5.984   1.699   2.318
10836SOL     OW33406   1.886   1.921   6.286
10836SOL    HW133407   1.828   1.893   6.363
10836SOL    HW233408   1.935   2.005   6.310
10837SOL     OW33409   6.835   4.480   0.470
10837SOL    HW133410   6.820   4.445   0.563
10837SOL    HW233411   6.913   4.433   0.430
10838SOL     OW33412   6.033   6.756   6.145
10838SOL    HW133413   6.115   6.780   6.197
10838SOL    HW233414   5.966   6.714   6.207
10839SOL     OW33415   1.970   2.395   0.270
10839SOL    HW133416   2.023   2.443   0.339
10839SOL    HW233417   1.880   2.372   0.306
10840SOL     OW33418   3.652   5.296   1.873
10840SOL    HW133419   3.588   5.370   1.897
10840SOL    HW233420   3.635   5.217   1.932
10841SOL     OW33421   4.128   5.566   5.602
10841SOL    HW133422   4.103   5.591   5.696
10841SOL    HW233423   4.221   5.531   5.601
10842SOL     OW33424   6.494   3.043   1.689
10842SOL    HW133425   6.394   3.044   1.696
10842SOL    HW233426   6.522   3.054   1.594
10843SOL     OW33427   0.398   1.561   2.163
10843SOL    HW133428   0.373   1.630   2.231
10843SOL    HW233429   0.495   1.571   2.140
10844SOL     OW33430   5.021   0.292   3.605
10844SOL    HW133431   5.116   0.278   3.635
10844SOL    HW233432   4.979   0.204   3.584
10845SOL     OW33433   1.337   1.570   1.448
10845SOL    HW133434   1.405   1.642   1.436
10845SOL    HW233435   1.290   1.583   1.536
10846SOL     OW33436   4.346   1.894   1.402
10846SOL    HW133437   4.393   1.980   1.380
10846SOL    HW233438   4.271   1.913   1.465
10847SOL     OW33439   3.952   2.558   6.243
10847SOL    HW133440   3.974   2.622   6.170
10847SOL    HW233441   3.916   2.473   6.203
10848SOL     OW33442   0.967   0.947   6.745
10848SOL    HW133443   0.880   0.915   6.783
10848SOL    HW233444   0.987   0.897   6.661
10849SOL     OW33445   3.390   5.167   4.331
10849SOL    HW133446   3.301   5.187   4.289
10849SOL    HW233447   3.391   5.203   4.424
10850SOL     OW33448   5.234   6.207   0.742
10850SOL    HW133449   5.317   6.184   0.692
10850SOL    HW233450   5.217   6.139   0.813
10851SOL     OW33451   3.621   1.999   6.534
10851SOL    HW133452   3.671   2.013   6.619
10851SOL    HW233453   3.524   2.018   6.548
10852SOL     OW33454   0.693   0.677   6.585
10852SOL    HW133455   0.602   0.638   6.596
10852SOL    HW233456   0.755   0.638   6.653
10853SOL     OW33457   2.267   1.382   4.809
10853SOL    HW133458   2.366   1.392   4.805
10853SOL    HW233459   2.225   1.466   4.843
10854SOL     OW33460   6.716   6.782   6.951
10854SOL    HW133461   6.710   6.700   6.894
10854SOL    HW233462   6.808   6.822   6.943
10855SOL     OW33463   1.577   6.290   1.441
10855SOL    HW133464   1.570   6.385   1.469
10855SOL    HW233465   1.626   6.284   1.354
10856SOL     OW33466   6.101   0.004   0.002
10856SOL    HW133467   6.162   6.954   0.036
10856SOL    HW233468   6.038   6.987   6.957
10857SOL     OW33469   5.974   1.556   3.853
10857SOL    HW133470   6.055   1.570   3.796
10857SOL    HW233471   5.929   1.470   3.828
10858SOL     OW33472   1.720   2.991   0.247
10858SOL    HW133473   1.623   2.977   0.230
10858SOL    HW233474   1.735   3.013   0.343
10859SOL     OW33475   0.871   4.376   2.316
10859SOL    HW133476   0.876   4.336   2.407
10859SOL    HW233477   0.806   4.325   2.260
10860SOL     OW33478   6.215   1.979   6.959
10860SOL    HW133479   6.204   2.046   0.010
10860SOL    HW233480   6.308   1.985   6.922
10861SOL     OW33481   3.335   2.938   1.723
10861SOL    HW133482   3.282   2.897   1.797
10861SOL    HW233483   3.430   2.952   1.752
10862SOL     OW33484   3.545   3.010   5.391
10862SOL    HW133485   3.557   3.004   5.490
10862SOL    HW233486   3.453   2.979   5.367
10863SOL     OW33487   2.407   1.329   2.904
10863SOL    HW133488   2.320   1.290   2.935
10863SOL    HW233489   2.439   1.396   2.970
10864SOL     OW33490   2.634   4.769   2.112
10864SOL    HW133491   2.692   4.722   2.046
10864SOL    HW233492   2.571   4.830   2.063
10865SOL     OW33493   4.357   1.698   3.229
10865SOL    HW133494   4.265   1.694   3.191
10865SOL    HW233495   4.370   1.622   3.292
10866SOL     OW33496   0.067   3.995   3.278
10866SOL    HW133497   0.156   3.993   3.322
10866SOL    HW233498   0.068   3.937   3.197
10867SOL     OW33499   3.603   3.325   0.664
10867SOL    HW133500   3.593   3.393   0.591
10867SOL    HW233501   3.519   3.322   0.718
10868SOL     OW33502   1.234   1.686   4.293
10868SOL    HW133503   1.187   1.598   4.284
10868SOL    HW233504   1.282   1.690   4.381
10869NA      NA33505   6.968   2.393   5.753
10870NA      NA33506   4.200   4.668   5.256
10871NA      NA33507   0.824   5.125   2.435
10872NA      NA33508   5.506   4.341   3.774
10873NA      NA33509   4.286   2.254   5.173
10874NA      NA33510   2.287   5.263   0.888
10875NA      NA33511   1.053   5.349   6.603
10876NA      NA33512   3.244   4.388   1.067
10877NA      NA33513   4.310   5.230   1.045
10878NA      NA33514   3.325   1.132   6.405
10879NA      NA33515   5.532   5.937   1.857
10880NA      NA33516   1.748   6.727   5.576
10881NA      NA33517   4.304   5.071   1.902
10882NA      NA33518   3.460   3.096   6.670
   7.02245   7.02245   7.02245
